chitosan Film  in water:acetic acid 2%
45669
    1CHTO  H203    1   5.928   6.374   3.207  1.6867  0.8243  2.2287
    1CHTO   O82    2   5.893   6.304   3.258  0.0813  0.1786  0.3413
    1CHTO  C123    3   5.994   6.206   3.239 -0.3009  0.1665  1.0776
    1CHTO  H227    4   6.089   6.242   3.282 -0.3357  0.0256  1.2740
    1CHTO   O77    5   5.943   6.099   3.320  0.4583  0.1062 -0.2701
    1CHTO  C118    6   6.027   5.986   3.346 -0.3865 -0.4053 -0.4307
    1CHTO  H222    7   6.123   6.031   3.379 -0.2696  0.2572 -1.6320
    1CHTO  C125    8   5.970   5.894   3.453 -0.2261 -0.1890 -0.0005
    1CHTO   O84    9   5.979   5.952   3.587 -0.7135 -0.8108  0.4563
    1CHTO  H205   10   6.011   5.888   3.647  0.1413 -0.0365  0.8347
    1CHTO  C114   11   6.058   5.913   3.218  0.2450 -0.2765 -0.2767
    1CHTO  H218   12   5.969   5.859   3.184  1.5314 -0.7370 -3.0281
    1CHTO  C116   13   6.102   6.008   3.101  0.2007 -0.3215 -1.1299
    1CHTO  H220   14   6.209   6.027   3.122  0.3529 -0.8972 -1.3668
    1CHTO   O79   15   6.105   5.939   2.977 -0.3837 -0.2301  0.0863
    1CHTO  H201   16   6.107   5.989   2.898 -1.5967 -0.3030 -0.0080
    1CHTO  C120   17   6.023   6.143   3.095  1.1844 -0.4408  0.6386
    1CHTO  H224   18   5.931   6.107   3.044  1.3642 -0.6377  0.4513
    1CHTO   N21   19   6.085   6.249   3.005 -0.1368  0.5784  0.1429
    1CHTO  H211   20   6.171   6.300   3.045  1.3243 -0.5353 -1.5259
    1CHTO  H212   21   6.014   6.323   2.971 -0.8249 -0.1820 -0.0764
    1CHTO   O75   22   6.156   5.820   3.260  0.1868  0.2894 -0.4819
    1CHTO  C112   23   6.193   5.696   3.161 -0.5312 -1.0437  0.1100
    1CHTO  H216   24   6.168   5.721   3.057  0.2701 -1.5147 -0.2063
    1CHTO   O73   25   6.115   5.587   3.205 -0.3713  0.2019 -0.5080
    1CHTO  C113   26   6.122   5.465   3.119  0.3886 -0.5684 -0.5992
    1CHTO  H217   27   6.079   5.493   3.021  0.4890 -0.0681 -0.4992
    1CHTO  C124   28   6.028   5.357   3.185  0.2362 -0.4767 -0.5481
    1CHTO   O83   29   6.026   5.345   3.326 -0.3816 -0.3685 -0.9014
    1CHTO  H204   30   5.957   5.284   3.344 -0.5436 -0.2693 -1.1921
    1CHTO  C109   31   6.273   5.416   3.102  0.6306  0.1955 -0.5347
    1CHTO  H213   32   6.305   5.369   3.196 -0.4946 -2.0949 -1.2732
    1CHTO  C110   33   6.364   5.527   3.073 -0.3224 -0.3082  0.0479
    1CHTO  H214   34   6.360   5.554   2.968  3.1454 -3.4298 -0.9616
    1CHTO   O78   35   6.492   5.471   3.093 -0.8361 -0.0030 -0.3253
    1CHTO  H200   36   6.521   5.446   3.007 -0.0856 -0.5887  0.0931
    1CHTO  C111   37   6.342   5.655   3.165 -0.1717 -0.8301 -0.6229
    1CHTO  H215   38   6.360   5.622   3.268  0.6277 -2.0813 -1.1580
    1CHTO   N19   39   6.435   5.765   3.136 -0.2788  0.3465 -1.0154
    1CHTO  H207   40   6.501   5.759   3.051 -0.7899  1.6982 -1.5146
    1CHTO  H208   41   6.391   5.863   3.129 -1.1404  0.1064  0.7426
    1CHTO   O74   42   6.281   5.315   2.996 -0.5317  0.1148  0.7645
    1CHTO  C115   43   6.374   5.175   3.046  0.1594 -0.2557 -0.1988
    1CHTO  H219   44   6.417   5.192   3.145  0.0425 -0.8370 -0.0492
    1CHTO   O76   45   6.291   5.067   3.062 -0.0800 -0.2647  0.0728
    1CHTO  C122   46   6.230   5.024   2.940  0.3152 -0.9144 -0.2044
    1CHTO  H226   47   6.183   5.112   2.895  2.8549  2.0189  2.5732
    1CHTO  C126   48   6.119   4.917   2.962 -0.0252 -0.8016 -0.6120
    1CHTO   O85   49   6.143   4.811   3.050  0.2969  0.3551  0.1804
    1CHTO  H206   50   6.145   4.855   3.133  1.5573 -3.5605  2.3436
    1CHTO  C121   51   6.335   4.952   2.838  0.2848 -0.6093 -0.2272
    1CHTO  H225   52   6.320   4.843   2.848 -0.9299 -0.3111  1.6093
    1CHTO   O81   53   6.300   5.001   2.700 -0.2378  0.6357 -0.5844
    1CHTO  H202   54   6.228   4.948   2.672 -0.3945  0.8828 -0.6571
    1CHTO  C119   55   6.477   4.986   2.887 -0.1126 -0.6086 -0.5779
    1CHTO  H223   56   6.500   4.917   2.969  2.1122 -0.2250 -0.8456
    1CHTO  C117   57   6.482   5.133   2.938 -0.0181 -0.2579 -0.0211
    1CHTO  H221   58   6.469   5.206   2.858  2.0436 -0.6800 -0.7640
    1CHTO   N20   59   6.619   5.164   2.985 -0.1006 -0.3921  0.6286
    1CHTO  H209   60   6.629   5.246   3.055  1.9403  0.8662 -1.0610
    1CHTO  H210   61   6.652   5.082   3.047  1.0998 -0.4710 -0.0826
    1CHTO   O80   62   6.594   4.944   2.777  0.0010 -0.0328  0.4817
    1CHTO  C103   63   6.615   4.796   2.747 -0.6141 -0.5194 -0.0342
    1CHTO  H190   64   6.580   4.737   2.833 -1.4392  0.5276  0.3668
    1CHTO  C101   65   6.549   4.738   2.613  0.6947 -0.0348 -0.2985
    1CHTO  H188   66   6.578   4.798   2.527 -0.0202  1.5133  0.4995
    1CHTO   O68   67   6.386   4.723   2.637  0.0008  0.5228  0.7098
    1CHTO  H168   68   6.336   4.781   2.583 -0.4499  1.2192  1.8609
    1CHTO   C99   69   6.606   4.586   2.583 -0.3678 -0.6358 -0.7960
    1CHTO  H186   70   6.584   4.522   2.671 -2.5192 -0.6365 -1.2966
    1CHTO   N17   71   6.551   4.528   2.457  0.4222  0.4901  0.2819
    1CHTO  H174   72   6.600   4.574   2.373  2.1664 -0.3397  0.8021
    1CHTO  H175   73   6.571   4.421   2.459 -0.2870  0.3595  0.3177
    1CHTO   C97   74   6.762   4.601   2.578  0.0898  0.4000 -0.1273
    1CHTO  H184   75   6.787   4.672   2.497 -0.3594  1.6750  0.8507
    1CHTO   O64   76   6.807   4.641   2.708  0.2708 -0.2363  0.1511
    1CHTO  C104   77   6.779   4.779   2.736  0.4652  0.0718  0.4157
    1CHTO  H191   78   6.813   4.845   2.656  0.3159  0.6741  0.8440
    1CHTO  C108   79   6.854   4.829   2.858  0.0508 -0.2164 -0.3802
    1CHTO   O71   80   6.994   4.806   2.849 -0.2760  0.3472 -0.0534
    1CHTO  H171   81   7.041   4.866   2.904  1.8032  0.2913 -1.7131
    1CHTO   O62   82   6.829   4.473   2.564 -0.2111  0.7051  0.1136
    1CHTO   C91   83   6.964   4.485   2.515 -0.2005 -0.5388 -0.0614
    1CHTO  H178   84   7.011   4.576   2.552  1.0025 -1.5151  0.8478
    1CHTO   C92   85   6.963   4.490   2.361 -0.2477 -1.2472 -0.2508
    1CHTO  H179   86   6.877   4.544   2.319  0.4142  1.7222  1.9484
    1CHTO   O66   87   7.059   4.590   2.325 -0.0520  0.0721 -0.6223
    1CHTO  H166   88   7.050   4.666   2.380 -0.0539  0.2438 -0.8583
    1CHTO   C93   89   6.985   4.359   2.284  0.0655 -0.3714  0.3501
    1CHTO  H180   90   7.007   4.388   2.180 -0.3290  3.3254  1.2259
    1CHTO   N16   91   6.856   4.287   2.261 -0.0648  0.7208 -0.6834
    1CHTO  H172   92   6.866   4.206   2.191  1.3820  0.6301 -0.3823
    1CHTO  H173   93   6.819   4.246   2.354 -1.7134  2.0141 -0.7334
    1CHTO   C94   94   7.103   4.279   2.349 -0.4366  0.2260 -0.0182
    1CHTO  H181   95   7.077   4.176   2.373 -0.6052  0.2263 -0.2011
    1CHTO   O61   96   7.158   4.333   2.470  0.0822  0.0397  0.2024
    1CHTO   C95   97   7.067   4.378   2.571 -0.1302 -1.1644  0.5186
    1CHTO  H182   98   7.016   4.289   2.608 -2.7615 -0.3524 -0.9768
    1CHTO  C106   99   7.164   4.430   2.686 -0.5058 -0.2328  0.0030
    1CHTO   O69  100   7.238   4.316   2.734  0.4747  0.0684 -0.3440
    1CHTO  H169  101   7.281   4.286   2.656  2.0958  0.2906  0.4375
    1CHTO   O63  102   7.206   4.277   2.245 -0.2320  0.0888  0.5994
    1CHTO   C96  103   7.318   4.169   2.246  0.0313  0.2087  0.3370
    1CHTO  H183  104   7.268   4.072   2.252  0.2195  0.1324  0.6777
    1CHTO   C98  105   7.418   4.177   2.366  0.1882  0.0653  0.5448
    1CHTO  H185  106   7.361   4.210   2.454  1.8315  0.9899  1.2881
    1CHTO   O67  107   7.464   4.041   2.394  0.5160  0.4987  0.1685
    1CHTO  H167  108   7.390   3.987   2.416  0.2150  0.1049 -1.6811
    1CHTO  C102  109   7.542   4.266   2.341 -0.2762  0.1077 -0.1257
    1CHTO  H189  110   7.605   4.255   2.430 -0.6247 -0.0348  0.1044
    1CHTO   N18  111   7.519   4.410   2.338  0.6655 -0.4244  0.4653
    1CHTO  H176  112   7.489   4.455   2.431  0.8568  0.3723  0.1473
    1CHTO  H177  113   7.446   4.424   2.259  0.6924  0.7100  0.6446
    1CHTO  C105  114   7.615   4.217   2.212 -0.1398 -0.5299 -0.4896
    1CHTO  H192  115   7.687   4.294   2.184 -1.7563  1.0946 -0.2996
    1CHTO   O65  116   7.533   4.187   2.097  0.2279 -0.4133 -0.5987
    1CHTO  C100  117   7.395   4.161   2.107  0.4074 -0.5273 -0.0156
    1CHTO  H187  118   7.341   4.235   2.046  0.1626 -1.1632 -0.5768
    1CHTO  C107  119   7.362   4.022   2.041  0.1104  0.0842 -0.8394
    1CHTO   O70  120   7.397   4.031   1.904 -0.3921 -0.3709 -0.2993
    1CHTO  H170  121   7.317   4.020   1.856  0.8599 -1.8863 -2.1179
    1CHTO   O57  122   7.680   4.099   2.255  0.2921  0.4228  0.1301
    1CHTO   C85  123   7.822   4.083   2.267  0.1164 -0.1731  0.3151
    1CHTO  H157  124   7.868   4.116   2.171  0.7942 -0.4255  0.5489
    1CHTO   C83  125   7.833   3.923   2.256  0.4334 -0.2915 -0.6647
    1CHTO  H155  126   7.803   3.891   2.156 -0.4667 -0.4257 -0.3483
    1CHTO   O56  127   7.749   3.852   2.351 -0.4261 -0.2842  0.4336
    1CHTO  H135  128   7.665   3.894   2.359 -0.7275 -0.8899  0.4932
    1CHTO   C81  129   7.977   3.876   2.273  0.1662 -0.6150  0.2197
    1CHTO  H153  130   8.036   3.921   2.194 -0.7977  0.9614  0.3844
    1CHTO   N14  131   8.001   3.732   2.245  0.0764  0.8316 -0.1075
    1CHTO  H141  132   8.080   3.696   2.308  1.6118  1.2471 -1.7406
    1CHTO  H142  133   7.912   3.678   2.269  0.7660 -0.5401 -0.5727
    1CHTO   C79  134   8.040   3.922   2.417  0.0211 -0.1628 -0.0154
    1CHTO  H151  135   8.145   3.891   2.415  0.6157  1.7907 -0.3236
    1CHTO   O52  136   8.031   4.063   2.431 -0.2010  0.2905  0.1678
    1CHTO   C86  137   7.899   4.132   2.394 -0.1581  0.5841  0.9539
    1CHTO  H158  138   7.838   4.127   2.487 -1.7411  1.5352  0.0014
    1CHTO   C90  139   7.928   4.279   2.369  0.1512  0.5785  0.2175
    1CHTO   O60  140   7.951   4.354   2.482  0.6896 -0.0051  0.5580
    1CHTO  H138  141   7.986   4.437   2.453 -0.2871 -0.0258 -0.7650
    1CHTO   O50  142   7.982   3.858   2.536 -0.1551  0.6100 -0.2190
    1CHTO   C73  143   7.969   3.841   2.680 -0.8987  0.2866 -0.2191
    1CHTO  H145  144   8.030   3.757   2.715 -1.1162 -0.7173 -2.2038
    1CHTO   C74  145   7.821   3.806   2.713  0.2535 -0.4821 -0.3108
    1CHTO  H146  146   7.787   3.719   2.655 -0.6307  0.6424 -1.4880
    1CHTO   O54  147   7.819   3.777   2.855 -0.5097  0.8308 -0.2403
    1CHTO  H133  148   7.839   3.852   2.908  0.6592  0.3786 -0.0127
    1CHTO   C75  149   7.740   3.936   2.678 -0.1701 -0.8824  0.2573
    1CHTO  H147  150   7.746   3.960   2.571  1.3392 -0.7230  0.3586
    1CHTO   N13  151   7.593   3.914   2.694 -0.2908 -0.0243 -0.5210
    1CHTO  H139  152   7.568   3.816   2.656 -1.5082  0.0520  0.0550
    1CHTO  H140  153   7.570   3.931   2.798 -0.0385  1.8581 -0.7598
    1CHTO   C76  154   7.785   4.065   2.766  0.2539 -0.0210  0.2286
    1CHTO  H148  155   7.779   4.040   2.872 -0.2541  0.4163  0.3110
    1CHTO   O49  156   7.932   4.084   2.733  0.5978 -0.2852  0.6420
    1CHTO   C77  157   8.016   3.970   2.759  0.4289 -0.4998  0.1423
    1CHTO  H149  158   8.007   3.950   2.866 -0.9806 -0.0853  0.1201
    1CHTO   C88  159   8.158   4.014   2.718 -0.2925 -0.1818 -0.2130
    1CHTO   O58  160   8.258   3.901   2.763 -0.3908 -0.1707  0.1678
    1CHTO  H136  161   8.244   3.822   2.715  1.4167 -1.5873  1.9344
    1CHTO   O51  162   7.698   4.199   2.733 -0.5054  0.3143 -0.3786
    1CHTO   C78  163   7.700   4.310   2.858 -0.0839 -0.7176  0.1126
    1CHTO  H150  164   7.794   4.370   2.856 -0.2002 -0.5757 -1.5514
    1CHTO   C80  165   7.692   4.256   3.006 -0.5071 -0.3741  0.1614
    1CHTO  H152  166   7.613   4.178   3.008  0.5412 -1.4880 -0.5941
    1CHTO   O55  167   7.814   4.189   3.042  0.4062 -0.5547 -0.1172
    1CHTO  H134  168   7.846   4.124   2.983  1.0295 -0.3742  0.0255
    1CHTO   C84  169   7.665   4.369   3.113  0.3686 -0.0382 -0.7556
    1CHTO  H156  170   7.755   4.429   3.122  0.9047 -1.1343  1.7775
    1CHTO   N15  171   7.646   4.312   3.248  0.4694 -0.0405 -0.4370
    1CHTO  H143  172   7.587   4.223   3.251  0.3906  0.0415  1.0001
    1CHTO  H144  173   7.600   4.377   3.320 -2.0791 -1.9876 -0.2313
    1CHTO   C87  174   7.547   4.458   3.074  0.7460 -0.4760 -0.0643
    1CHTO  H159  175   7.461   4.391   3.064  1.2928 -1.4047  1.2248
    1CHTO   O53  176   7.577   4.516   2.936 -0.2597  0.4618 -0.6866
    1CHTO   C82  177   7.585   4.415   2.834  0.2421  0.1238  0.6076
    1CHTO  H154  178   7.488   4.366   2.823 -0.1333  0.9123  0.3602
    1CHTO   C89  179   7.618   4.492   2.702 -0.6350  0.0148 -0.5896
    1CHTO   O59  180   7.526   4.592   2.668 -0.5020  0.4534  0.3156
    1CHTO  H137  181   7.522   4.659   2.734 -2.1883 -0.2127  0.9322
    1CHTO   O45  182   7.529   4.583   3.189 -0.0739  0.1778 -0.1766
    1CHTO   C67  183   7.401   4.657   3.172 -0.4932  0.2663  0.8203
    1CHTO  H124  184   7.320   4.592   3.139 -1.6785  1.0396  2.1786
    1CHTO   C65  185   7.366   4.724   3.308  0.1922 -0.4065 -0.6708
    1CHTO  H122  186   7.391   4.662   3.394 -0.9071  0.9365  0.6361
    1CHTO   O44  187   7.227   4.760   3.302  0.0525  0.6810  0.0196
    1CHTO  H102  188   7.184   4.680   3.326 -1.5007  1.3870 -0.3890
    1CHTO   C63  189   7.458   4.845   3.343  0.5632  0.5589  0.8223
    1CHTO  H120  190   7.559   4.805   3.327 -0.5183 -1.8355 -0.3498
    1CHTO   N11  191   7.449   4.903   3.487 -0.2064  0.8392 -0.0643
    1CHTO  H108  192   7.345   4.910   3.510 -0.0140 -0.8300  1.4573
    1CHTO  H109  193   7.491   5.001   3.494  0.0650  0.6329  1.4890
    1CHTO   C61  194   7.437   4.953   3.233  0.4750  0.1510 -0.0438
    1CHTO  H118  195   7.521   5.023   3.247  0.0975  0.6859 -0.4303
    1CHTO   O40  196   7.440   4.907   3.100  0.1893  0.4486 -0.1177
    1CHTO   C68  197   7.417   4.767   3.058  0.7417 -0.4000  0.2942
    1CHTO  H125  198   7.508   4.738   3.002  0.9273  0.4891  0.1327
    1CHTO   C72  199   7.299   4.766   2.949 -0.4834 -0.1255  0.0484
    1CHTO   O48  200   7.277   4.635   2.894 -0.3477 -0.0105 -0.0510
    1CHTO  H105  201   7.185   4.615   2.899 -0.0156 -1.3214  1.5155
    1CHTO   O38  202   7.308   5.024   3.243  0.3837 -0.2896 -0.1883
    1CHTO   C55  203   7.304   5.162   3.222  0.0301  0.1964  0.1750
    1CHTO  H112  204   7.390   5.191   3.161 -1.1297  3.7689  0.1448
    1CHTO   C56  205   7.291   5.246   3.358 -0.2112 -0.2626  0.1948
    1CHTO  H113  206   7.209   5.200   3.416  0.6240 -0.9314  0.8681
    1CHTO   O42  207   7.402   5.215   3.441 -0.0463  0.0516 -0.0797
    1CHTO  H100  208   7.481   5.257   3.414 -0.3627  1.0820  0.5527
    1CHTO   C57  209   7.270   5.401   3.341  0.2246  0.5256  0.4792
    1CHTO  H114  210   7.366   5.440   3.309 -0.8043  0.3569 -3.0186
    1CHTO   N10  211   7.245   5.471   3.469 -0.1135  0.0135  0.3151
    1CHTO  H106  212   7.272   5.576   3.471 -0.2487  0.0255  2.2236
    1CHTO  H107  213   7.142   5.465   3.502  0.1512  1.2264  1.4134
    1CHTO   C58  214   7.165   5.429   3.227 -0.3493 -0.1514 -0.5996
    1CHTO  H115  215   7.066   5.400   3.268  0.8571 -0.8067  1.8922
    1CHTO   O37  216   7.184   5.348   3.111  0.1608  0.0534 -0.3181
    1CHTO   C59  217   7.183   5.205   3.134 -0.1667  0.3653 -0.5539
    1CHTO  H116  218   7.094   5.177   3.189  3.0455 -2.1267  3.6186
    1CHTO   C70  219   7.174   5.135   3.003 -0.0530 -0.4577 -0.3400
    1CHTO   O46  220   7.054   5.119   2.933 -0.0126  0.2763  0.3737
    1CHTO  H103  221   7.085   5.127   2.844 -0.5834 -1.0248  0.0367
    1CHTO   O39  222   7.169   5.573   3.183 -0.0163  0.6274  0.3296
    1CHTO   C60  223   7.044   5.632   3.157  0.3613 -0.0194  0.1402
    1CHTO  H117  224   6.974   5.554   3.125 -0.3049 -0.3386  2.2349
    1CHTO   C62  225   6.971   5.707   3.277  0.2723 -0.4174 -0.2240
    1CHTO  H119  226   6.941   5.634   3.355 -0.4772  0.4765  0.3395
    1CHTO   O43  227   7.052   5.808   3.335  0.2259 -0.3235  0.6957
    1CHTO  H101  228   7.035   5.811   3.427  1.2588 -3.5884  1.0675
    1CHTO   C66  229   6.837   5.775   3.221 -0.3425  0.1061  0.1775
    1CHTO  H123  230   6.774   5.694   3.185  0.8416  0.0737 -1.8915
    1CHTO   N12  231   6.756   5.841   3.325 -0.9841 -0.1159  0.5875
    1CHTO  H110  232   6.711   5.763   3.384  2.0670 -3.0019 -0.7571
    1CHTO  H111  233   6.687   5.920   3.297  0.7594  0.7937 -1.2875
    1CHTO   C69  234   6.870   5.868   3.105  0.0506 -0.5989 -0.4232
    1CHTO  H126  235   6.947   5.940   3.139  0.1677 -1.6138  1.5873
    1CHTO   O41  236   6.936   5.797   2.985 -0.0040  0.3072  1.1315
    1CHTO   C64  237   7.073   5.734   3.041  0.5386 -0.1672 -0.1583
    1CHTO  H121  238   7.133   5.823   3.069 -1.3492  1.4297 -1.1186
    1CHTO   C71  239   7.147   5.661   2.928 -0.1625  0.7520 -0.0089
    1CHTO   O47  240   7.193   5.746   2.823  0.2737 -0.1966  0.1709
    1CHTO  H104  241   7.258   5.796   2.869 -0.5121 -1.3011  2.5436
    1CHTO   O34  242   6.739   5.959   3.057 -0.0112  0.2063  0.0498
    1CHTO   C49  243   6.717   6.103   2.982  0.0643  0.2089 -0.0757
    1CHTO   H91  244   6.752   6.181   3.049 -0.5253  0.3257  0.0930
    1CHTO   C47  245   6.571   6.129   2.945  0.3193  0.6217 -0.2919
    1CHTO   H89  246   6.559   6.235   2.915  0.1242  1.0270  1.1641
    1CHTO   O33  247   6.488   6.104   3.065  0.3043  0.2031  0.0328
    1CHTO   H70  248   6.497   6.168   3.132 -1.3536 -0.0145  0.4980
    1CHTO   C45  249   6.515   6.016   2.835 -0.1843 -0.0276 -0.4117
    1CHTO   H87  250   6.520   5.918   2.885 -1.0424 -0.0540 -0.3782
    1CHTO    N8  251   6.380   6.046   2.800 -0.4208 -0.4249 -0.2363
    1CHTO   H75  252   6.310   6.032   2.882 -0.4004  0.5114 -0.0538
    1CHTO   H76  253   6.358   6.142   2.755  0.5809  1.0262  2.2546
    1CHTO   C43  254   6.619   6.016   2.711  1.0966 -0.5258  0.8637
    1CHTO   H85  255   6.592   5.925   2.657 -1.2354  1.2279 -1.0110
    1CHTO   O29  256   6.756   6.013   2.758  0.8187 -0.0338 -0.3377
    1CHTO   C50  257   6.804   6.107   2.857 -0.1181  0.9317  0.2519
    1CHTO   H92  258   6.904   6.078   2.890  0.6948 -2.1450 -4.3990
    1CHTO   C54  259   6.823   6.247   2.799 -0.0242  0.0155  0.8773
    1CHTO   O36  260   6.893   6.340   2.887  0.0110  0.0146  0.0346
    1CHTO   H72  261   6.851   6.373   2.963  3.2277  0.9999  1.4397
    1CHTO   O27  262   6.593   6.126   2.618  0.0043 -0.1080 -0.0520
    1CHTO   C37  263   6.597   6.147   2.479  0.4739 -0.9359 -0.1106
    1CHTO   H79  264   6.515   6.092   2.431 -2.7800  2.4228  1.3270
    1CHTO   C38  265   6.564   6.303   2.459  0.5737 -0.0152  0.1588
    1CHTO   H80  266   6.612   6.360   2.540  0.1555  1.9939 -0.9693
    1CHTO   O31  267   6.423   6.321   2.460  0.0684  0.1716 -0.2264
    1CHTO   H68  268   6.380   6.273   2.392 -0.1833 -0.1337  0.1501
    1CHTO   C39  269   6.635   6.369   2.329  0.1140 -0.4492 -0.5114
    1CHTO   H81  270   6.577   6.335   2.243 -0.9119 -1.5152  0.5746
    1CHTO    N7  271   6.620   6.521   2.330  0.9608  0.4612 -0.4412
    1CHTO   H73  272   6.596   6.562   2.233  2.1498  2.1146 -0.0541
    1CHTO   H74  273   6.537   6.549   2.394 -0.3669 -0.9409 -1.4994
    1CHTO   C40  274   6.787   6.323   2.321  0.9149 -0.3201  0.3401
    1CHTO   H82  275   6.850   6.353   2.405  3.3522  0.4385 -1.7127
    1CHTO   O26  276   6.788   6.179   2.307 -0.1156  0.8527 -0.0809
    1CHTO   C41  277   6.735   6.103   2.423  0.6613  0.4010  0.3159
    1CHTO   H83  278   6.812   6.102   2.502  0.3680  1.9917  0.6553
    1CHTO   C52  279   6.724   5.949   2.375  0.2153  0.6165  0.0908
    1CHTO   O35  280   6.723   5.869   2.470 -0.2319  0.0033 -0.5078
    1CHTO   H71  281   6.724   5.782   2.437 -0.6780 -0.9407  1.8592
    1CHTO   O28  282   6.858   6.360   2.200 -0.9685  0.1583  0.6504
    1CHTO   C42  283   7.007   6.344   2.174 -0.2471 -0.2431 -0.1903
    1CHTO   H84  284   7.035   6.250   2.223  0.5998  0.6599  1.0697
    1CHTO   C44  285   7.108   6.450   2.229 -0.9217  0.3965 -0.2375
    1CHTO   H86  286   7.077   6.548   2.194  0.7667  0.9077 -0.3174
    1CHTO   O32  287   7.102   6.438   2.372  0.0318  0.6659 -0.7335
    1CHTO   H69  288   7.041   6.503   2.402 -1.9160 -1.2834 -0.3500
    1CHTO   C48  289   7.254   6.424   2.183 -0.8889  0.2351 -0.4329
    1CHTO   H90  290   7.299   6.329   2.213  0.6372  0.6530 -1.3243
    1CHTO    N9  291   7.345   6.543   2.227  0.1231  0.5283  0.3957
    1CHTO   H77  292   7.432   6.500   2.274  0.3404  1.1222  0.5346
    1CHTO   H78  293   7.371   6.602   2.141  1.4677 -0.0032  0.4189
    1CHTO   C51  294   7.257   6.414   2.027 -0.7840 -0.0450  0.8037
    1CHTO   H93  295   7.214   6.507   1.987  0.4185  0.2478  0.1792
    1CHTO   O30  296   7.180   6.296   1.994 -0.8110  0.1905 -1.0745
    1CHTO   C46  297   7.033   6.322   2.023 -0.9252 -0.1359  0.1594
    1CHTO   H88  298   7.009   6.407   1.961  2.3794 -1.3377 -2.9495
    1CHTO   C53  299   6.955   6.196   1.976 -0.8688  0.0296  0.0754
    1CHTO   O72  300   6.991   6.066   2.032 -0.1674 -0.3693  0.4565
    1CHTO  H199  301   6.948   6.057   2.115 -1.3602  0.0622 -0.1104
    1CHTO   O22  302   7.388   6.399   1.966  0.0285  0.0680  0.0195
    1CHTO   C31  303   7.416   6.463   1.849  0.0487 -0.7545  0.3356
    1CHTO   H59  304   7.318   6.472   1.797  0.6103 -0.1683 -0.6242
    1CHTO   C29  305   7.488   6.600   1.860 -0.5761 -0.1425  0.3474
    1CHTO   H57  306   7.583   6.598   1.914 -0.4194  2.5843  0.2655
    1CHTO   O21  307   7.407   6.689   1.944 -0.0631  0.0354 -0.0589
    1CHTO   H37  308   7.467   6.741   1.994  0.0937  0.6298 -0.8538
    1CHTO   C27  309   7.508   6.665   1.715 -0.0332  0.4321 -0.3414
    1CHTO   H55  310   7.411   6.708   1.686 -0.2404  0.2611  0.0803
    1CHTO    N5  311   7.606   6.774   1.711 -0.0294  0.0220 -0.0882
    1CHTO   H43  312   7.612   6.804   1.608  2.4283 -0.1616 -0.0324
    1CHTO   H44  313   7.690   6.754   1.777  0.9893  1.6899 -0.8649
    1CHTO   C25  314   7.542   6.566   1.599 -0.2291  0.0721 -0.0740
    1CHTO   H53  315   7.647   6.561   1.568 -0.3847 -2.6504 -0.3223
    1CHTO   O17  316   7.483   6.435   1.620  0.1625  0.3766  0.0360
    1CHTO   C32  317   7.498   6.378   1.750 -0.1097 -0.3935 -0.2569
    1CHTO   H60  318   7.603   6.380   1.782 -0.5845  0.8784  1.3124
    1CHTO   C36  319   7.443   6.232   1.744  0.3646 -0.3109  0.4604
    1CHTO   O25  320   7.525   6.150   1.661 -0.0439  0.0985  0.1087
    1CHTO   H40  321   7.478   6.070   1.646 -3.4779  1.2019  3.9094
    1CHTO   O15  322   7.470   6.625   1.455 -0.2491  0.0771 -0.0333
    1CHTO   C19  323   7.420   6.660   1.328  0.3026 -0.3947  0.4401
    1CHTO   H47  324   7.374   6.759   1.343  0.0622 -0.0521 -2.4065
    1CHTO   C20  325   7.529   6.670   1.216  0.2858 -0.2564 -0.3363
    1CHTO   H48  326   7.585   6.575   1.202 -2.2524 -1.7407 -0.6865
    1CHTO   O19  327   7.620   6.778   1.251  0.0998 -0.2781  0.2974
    1CHTO   H35  328   7.613   6.796   1.342 -2.1675 -0.5540  0.2032
    1CHTO   C21  329   7.453   6.706   1.080 -0.3865  0.1437 -0.8622
    1CHTO   H49  330   7.404   6.802   1.095  1.1541  0.7619  0.4094
    1CHTO    N4  331   7.546   6.714   0.961  0.1285  0.3255 -0.4152
    1CHTO   H41  332   7.507   6.769   0.877 -0.6143  2.9734  1.6115
    1CHTO   H42  333   7.647   6.742   0.985 -0.4499  0.7346  1.6606
    1CHTO   C22  334   7.351   6.593   1.057  0.7019 -0.2491  0.0917
    1CHTO   H50  335   7.400   6.496   1.052  0.8796 -0.3299  2.8849
    1CHTO   O14  336   7.260   6.595   1.167 -0.1392 -0.4416  0.1420
    1CHTO   C23  337   7.312   6.557   1.290  0.1900 -0.3294 -0.0514
    1CHTO   H51  338   7.354   6.456   1.286  0.7267 -0.0801 -0.8477
    1CHTO   C34  339   7.194   6.565   1.390 -0.3763 -0.3596 -1.2903
    1CHTO   O23  340   7.117   6.447   1.374 -0.7476  0.0557 -1.0038
    1CHTO   H38  341   7.087   6.413   1.456  2.7212  1.0544  0.7615
    1CHTO   O16  342   7.274   6.607   0.938  0.7093 -0.3392 -0.4283
    1CHTO   C24  343   7.237   6.455   0.867 -0.4938 -0.4726 -0.4106
    1CHTO   H52  344   7.296   6.375   0.911 -0.8758  0.6817  2.3072
    1CHTO   C26  345   7.280   6.462   0.725  0.8458 -0.4879  0.5466
    1CHTO   H54  346   7.227   6.545   0.674 -1.1831 -1.3318  1.2200
    1CHTO   O20  347   7.416   6.494   0.716 -0.6571 -0.0751 -0.6822
    1CHTO   H36  348   7.440   6.532   0.633  0.3334  1.4327  0.2852
    1CHTO   C30  349   7.243   6.336   0.642  0.3566 -0.0055 -0.7192
    1CHTO   H58  350   7.303   6.252   0.678 -0.7033 -0.6316 -0.3986
    1CHTO    N6  351   7.278   6.346   0.502 -0.5792 -0.1819 -0.2245
    1CHTO   H45  352   7.371   6.295   0.478  0.4964  1.3975  0.5285
    1CHTO   H46  353   7.280   6.448   0.467  0.2143 -0.1568 -0.1153
    1CHTO   C33  354   7.086   6.301   0.664 -0.6743 -0.6114  0.0919
    1CHTO   H61  355   7.026   6.385   0.627 -1.5651 -0.7287  1.2527
    1CHTO   O18  356   7.061   6.296   0.806 -1.3361  0.2946  0.1751
    1CHTO   C28  357   7.087   6.419   0.882 -0.4323  0.1653  0.0841
    1CHTO   H56  358   7.028   6.502   0.843 -0.6672  0.5303  1.2129
    1CHTO   C35  359   7.053   6.407   1.031 -0.1026  0.0885  0.0507
    1CHTO   O24  360   6.905   6.391   1.047 -0.4976 -0.3577  0.2691
    1CHTO   H39  361   6.859   6.465   1.015  2.2763  0.0716 -3.0234
    1CHTO    O9  362   7.047   6.181   0.592 -0.5932 -0.1365  0.2519
    1CHTO   C13  363   6.896   6.172   0.557  0.0902  0.6121  0.4189
    1CHTO   H26  364   6.864   6.271   0.518  2.1572  0.9386 -0.4658
    1CHTO   C11  365   6.824   6.133   0.689  0.0102  0.2442 -0.7099
    1CHTO   H24  366   6.843   6.216   0.758  2.6172  0.1969 -1.3102
    1CHTO    O8  367   6.880   6.017   0.748  0.1029 -0.8086  0.1043
    1CHTO    H3  368   6.925   6.038   0.827 -2.1453  1.9948  0.7119
    1CHTO    C9  369   6.670   6.121   0.662 -0.1302 -0.5912 -0.5263
    1CHTO   H22  370   6.643   6.208   0.600  0.9191 -0.1587 -0.4024
    1CHTO    N2  371   6.583   6.122   0.778 -0.0829  0.3306  0.1242
    1CHTO   H10  372   6.619   6.196   0.848  1.3337 -2.0331  1.9535
    1CHTO   H11  373   6.572   6.031   0.835 -0.7694  2.4927  3.5852
    1CHTO    C7  374   6.658   5.991   0.572  0.8067  0.1313  0.2559
    1CHTO   H20  375   6.562   6.013   0.519  0.3668 -0.8252  0.6425
    1CHTO    O4  376   6.771   5.965   0.477 -0.8342 -0.7684 -0.3697
    1CHTO   C14  377   6.860   6.071   0.444  0.0492  0.1244 -0.1836
    1CHTO   H27  378   6.802   6.125   0.367 -3.0918 -1.4170  1.0331
    1CHTO   C18  379   6.989   6.009   0.376  0.1065  0.0124  0.3728
    1CHTO   O13  380   7.074   6.103   0.316 -0.4447 -0.5382  0.7420
    1CHTO    H7  381   7.025   6.151   0.252  0.7903 -0.7797 -0.3977
    1CHTO    O2  382   6.621   5.852   0.646 -0.8515  0.3984 -0.3873
    1CHTO    C1  383   6.595   5.734   0.564 -0.0393 -1.1347 -0.4552
    1CHTO   H14  384   6.627   5.754   0.460  0.7083 -1.1159 -0.2233
    1CHTO    C2  385   6.444   5.694   0.565 -0.4057  0.2733  0.1011
    1CHTO   H15  386   6.423   5.692   0.673  0.1472  1.0134  0.2337
    1CHTO    O6  387   6.370   5.800   0.498  0.7766  0.3989 -0.1946
    1CHTO    H1  388   6.344   5.869   0.555 -0.7979 -0.8796  0.6468
    1CHTO    C3  389   6.409   5.554   0.499 -0.6610 -0.1619 -0.3777
    1CHTO   H16  390   6.435   5.576   0.394  0.5496 -0.0154 -0.0626
    1CHTO    N1  391   6.263   5.512   0.507 -0.2231  0.6062 -1.1477
    1CHTO    H8  392   6.212   5.543   0.597  0.2399 -0.0985 -0.6305
    1CHTO    H9  393   6.216   5.549   0.418 -0.8621  2.3646 -0.1025
    1CHTO    C4  394   6.518   5.448   0.545  0.1470 -0.0775  0.0566
    1CHTO   H17  395   6.498   5.414   0.647  2.1995  0.4636  0.6590
    1CHTO    O1  396   6.651   5.499   0.533  0.0016 -0.2103 -0.3267
    1CHTO    C5  397   6.676   5.613   0.617 -0.2049 -0.3648  0.2303
    1CHTO   H18  398   6.645   5.587   0.718 -0.7729  0.0651  0.1674
    1CHTO   C16  399   6.832   5.640   0.608 -0.1932  0.2094 -0.2500
    1CHTO   O11  400   6.876   5.728   0.706  0.3918 -0.3214  0.2587
    1CHTO    H5  401   6.969   5.730   0.708  0.3984 -0.7322  0.3848
    1CHTO    O3  402   6.496   5.329   0.460 -1.1025 -0.5959  0.1336
    1CHTO    C6  403   6.614   5.247   0.423 -0.2555 -0.3339  0.3267
    1CHTO   H19  404   6.708   5.302   0.420 -0.3102 -0.1489  1.9698
    1CHTO    C8  405   6.632   5.122   0.515 -0.4738  0.1415 -0.4392
    1CHTO   H21  406   6.541   5.063   0.511 -0.3060 -0.2376  0.9125
    1CHTO    O7  407   6.656   5.182   0.645  0.5930 -0.2088 -1.1081
    1CHTO    H2  408   6.686   5.119   0.708 -0.0595  3.3961  3.0452
    1CHTO   C12  409   6.760   5.045   0.468  0.1764  0.7832  0.1800
    1CHTO   H25  410   6.849   5.112   0.469  0.6906  0.0946  0.8491
    1CHTO    N3  411   6.783   4.919   0.554  0.0450  0.0545 -0.0785
    1CHTO   H12  412   6.691   4.865   0.564  0.5253 -0.7465  0.0466
    1CHTO   H13  413   6.812   4.957   0.651 -1.7898  1.1786  0.0431
    1CHTO   C15  414   6.741   5.002   0.316  0.2004  0.0952 -0.0349
    1CHTO   H28  415   6.665   4.925   0.303  0.6420  0.0735 -2.8142
    1CHTO   O10  416   6.886   4.945   0.251  0.3330 -0.2265  0.1760
    1CHTO    H4  417   6.959   4.995   0.282 -0.9168  0.3651  2.1650
    1CHTO    O5  418   6.706   5.119   0.240  0.3663 -0.5789  0.0050
    1CHTO   C10  419   6.594   5.198   0.278 -0.2150  0.4088 -0.8718
    1CHTO   H23  420   6.502   5.140   0.272 -0.8230  1.1443  0.9311
    1CHTO   C17  421   6.569   5.318   0.183 -0.7368 -0.0659 -1.0548
    1CHTO   O12  422   6.594   5.280   0.046 -0.0105  0.5670  0.9014
    1CHTO    H6  423   6.521   5.297  -0.010  0.4415 -0.1469  0.0923
    2CHTO  H203  424   5.963   3.333   0.078  0.6279 -1.2493 -0.3006
    2CHTO   O82  425   5.890   3.341   0.020  0.2278 -0.2932  0.3229
    2CHTO  C123  426   5.915   3.413  -0.102 -0.7370  0.1658 -0.3523
    2CHTO  H227  427   6.014   3.384  -0.139 -1.1406  0.0641 -1.3741
    2CHTO   O77  428   5.812   3.360  -0.195  0.2240 -0.1829 -0.1764
    2CHTO  C118  429   5.839   3.409  -0.327  0.2492 -0.3849  0.5683
    2CHTO  H222  430   5.944   3.402  -0.356  0.1039  1.4727 -0.5075
    2CHTO  C125  431   5.755   3.322  -0.430  0.0309  0.7070 -0.4027
    2CHTO   O84  432   5.611   3.349  -0.423  0.3252 -0.1359 -0.1293
    2CHTO  H205  433   5.594   3.366  -0.332  1.8415 -3.1229  0.7656
    2CHTO  C114  434   5.803   3.562  -0.327  0.0908 -0.3644 -0.1732
    2CHTO  H218  435   5.702   3.570  -0.288  0.7738 -1.0529  1.8015
    2CHTO  C116  436   5.891   3.647  -0.231  0.3916 -0.6080  0.3815
    2CHTO  H220  437   5.995   3.657  -0.267  0.2124  1.2695  0.3230
    2CHTO   O79  438   5.841   3.780  -0.206 -0.1069  0.1716  0.0442
    2CHTO  H201  439   5.907   3.832  -0.165  0.3773  1.3502 -2.1584
    2CHTO  C120  440   5.902   3.571  -0.093 -0.0571 -0.4578 -0.2846
    2CHTO  H224  441   5.814   3.605  -0.034  0.5999 -0.8985  0.9678
    2CHTO   N21  442   6.022   3.617  -0.010  0.2388 -0.4566 -0.0333
    2CHTO  H211  443   6.105   3.638  -0.075  2.0982 -1.9110  1.8286
    2CHTO  H212  444   5.997   3.709   0.042  2.3300 -0.0546  0.2832
    2CHTO   O75  445   5.820   3.595  -0.468  0.4619 -0.0121  0.7014
    2CHTO  C112  446   5.743   3.700  -0.518  0.5117  0.4752  0.2378
    2CHTO  H216  447   5.760   3.782  -0.447  0.4271 -0.4629  1.3488
    2CHTO   O73  448   5.604   3.650  -0.511  0.1445  0.1403 -0.4692
    2CHTO  C113  449   5.514   3.749  -0.561 -0.6674 -0.7095  0.0860
    2CHTO  H217  450   5.529   3.836  -0.493 -2.4689 -1.3527  1.3496
    2CHTO  C124  451   5.371   3.702  -0.540 -0.1877 -0.2853 -0.2964
    2CHTO   O83  452   5.321   3.601  -0.619 -0.0662 -0.7644  0.0618
    2CHTO  H204  453   5.275   3.648  -0.685  0.7359  2.2864  1.6032
    2CHTO  C109  454   5.545   3.791  -0.709  0.5190 -0.4520 -0.1028
    2CHTO  H213  455   5.522   3.704  -0.773 -0.6167 -0.2088 -0.0385
    2CHTO  C110  456   5.691   3.839  -0.735  0.1850  0.1612 -0.2027
    2CHTO  H214  457   5.707   3.939  -0.694  0.4277  0.0326  0.0187
    2CHTO   O78  458   5.713   3.856  -0.874  0.2486  0.4614  0.5737
    2CHTO  H200  459   5.803   3.860  -0.900 -0.3811  0.1343 -1.7530
    2CHTO  C111  460   5.784   3.740  -0.669 -0.3768  0.7942 -0.6770
    2CHTO  H215  461   5.781   3.650  -0.731  0.4702  1.5626 -1.8409
    2CHTO   N19  462   5.926   3.786  -0.671 -0.4066 -0.3364  0.3101
    2CHTO  H207  463   5.940   3.871  -0.606 -1.3114 -0.1147  0.2305
    2CHTO  H208  464   5.999   3.708  -0.663 -2.5519 -2.3011  1.3787
    2CHTO   O74  465   5.446   3.897  -0.736  0.5142  0.2080 -0.3167
    2CHTO  C115  466   5.396   3.912  -0.890  0.0498  0.2717 -0.2436
    2CHTO  H219  467   5.469   3.867  -0.957 -2.3303 -0.5096 -2.3410
    2CHTO   O76  468   5.259   3.836  -0.919 -0.9007  0.3331 -0.3103
    2CHTO  C122  469   5.151   3.893  -0.842 -0.2785  0.0228  0.0126
    2CHTO  H226  470   5.173   3.877  -0.736 -0.6591 -1.5817 -0.1457
    2CHTO  C126  471   5.024   3.807  -0.869 -0.2713  0.5631  0.2081
    2CHTO   O85  472   5.035   3.676  -0.823  0.0478 -0.3793 -0.2213
    2CHTO  H206  473   5.085   3.629  -0.886  0.8444 -0.0739  0.1795
    2CHTO  C121  474   5.128   4.048  -0.868 -0.0772 -0.4784  0.0086
    2CHTO  H225  475   5.030   4.075  -0.912 -0.2454 -0.1996  0.5426
    2CHTO   O81  476   5.119   4.113  -0.741 -0.3604  0.2869  0.2098
    2CHTO  H202  477   5.104   4.205  -0.756  2.5451  0.8918  0.7243
    2CHTO  C119  478   5.235   4.101  -0.964 -0.2441 -0.4442  0.1732
    2CHTO  H223  479   5.201   4.057  -1.058 -0.3229  2.4393 -1.2048
    2CHTO  C117  480   5.384   4.060  -0.930 -0.1246  0.5614 -0.2840
    2CHTO  H221  481   5.424   4.112  -0.843 -0.8693  2.4408 -1.0300
    2CHTO   N20  482   5.476   4.098  -1.041 -0.4381 -0.4308 -0.2946
    2CHTO  H209  483   5.421   4.137  -1.125 -0.2287 -0.7792 -0.5930
    2CHTO  H210  484   5.559   4.162  -1.014 -0.2878 -0.9693  0.5478
    2CHTO   O80  485   5.228   4.256  -0.995  0.4871 -0.1460 -0.2407
    2CHTO  C103  486   5.123   4.324  -1.101  0.6200 -0.3021  0.0327
    2CHTO  H190  487   5.172   4.406  -1.153  0.7054 -0.4378 -0.1023
    2CHTO  C101  488   5.054   4.215  -1.197  0.4282 -0.4552  0.3845
    2CHTO  H188  489   5.010   4.134  -1.139  0.1917  0.4016  1.4051
    2CHTO   O68  490   5.168   4.159  -1.292  1.1521 -0.2761  0.0241
    2CHTO  H168  491   5.243   4.154  -1.236  0.4363 -2.4379  0.8536
    2CHTO   C99  492   4.933   4.279  -1.274  0.8783 -0.0253 -0.6600
    2CHTO  H186  493   4.972   4.359  -1.341 -0.2719  3.1852  2.3531
    2CHTO   N17  494   4.860   4.179  -1.359  0.1857 -0.3141 -0.4799
    2CHTO  H174  495   4.921   4.116  -1.422 -3.9100 -2.4455 -2.5093
    2CHTO  H175  496   4.778   4.227  -1.411 -0.3791 -0.9725 -0.1933
    2CHTO   C97  497   4.840   4.355  -1.174  0.5346  0.0698 -0.2108
    2CHTO  H184  498   4.797   4.275  -1.112  1.1433 -0.3115 -0.2794
    2CHTO   O64  499   4.913   4.449  -1.099  0.3472 -0.1192  0.1709
    2CHTO  C104  500   5.011   4.388  -1.010  0.0937  0.0691  0.7048
    2CHTO  H191  501   4.967   4.314  -0.944  1.8207  0.7082  2.6396
    2CHTO  C108  502   5.072   4.488  -0.916 -0.2800  0.2197 -0.1093
    2CHTO   O71  503   4.972   4.528  -0.822  0.0174  0.2302  0.5794
    2CHTO  H171  504   4.995   4.603  -0.771  1.1500 -0.2709  0.8382
    2CHTO   O62  505   4.741   4.441  -1.232  0.0454  0.0362  0.5226
    2CHTO   C91  506   4.617   4.462  -1.157  0.0732  0.1322  0.4341
    2CHTO  H178  507   4.633   4.399  -1.069 -1.2952 -2.0636 -0.8208
    2CHTO   C92  508   4.501   4.394  -1.233  0.5986 -0.2775  0.2009
    2CHTO  H179  509   4.520   4.288  -1.255  2.0555 -0.0045  0.1198
    2CHTO   O66  510   4.390   4.393  -1.143  0.3133  0.1318  0.1096
    2CHTO  H166  511   4.382   4.307  -1.107 -0.0298 -0.0187 -0.3228
    2CHTO   C93  512   4.443   4.483  -1.356  0.5888 -0.4447  0.3759
    2CHTO  H180  513   4.337   4.454  -1.369  0.4091 -0.8215  2.5286
    2CHTO   N16  514   4.507   4.449  -1.482 -0.4480 -0.2597  0.7569
    2CHTO  H172  515   4.432   4.417  -1.553 -1.6381 -0.5908  2.1135
    2CHTO  H173  516   4.563   4.534  -1.517 -2.3587  0.0426 -1.7055
    2CHTO   C94  517   4.453   4.637  -1.331 -0.5568  0.5653 -0.7011
    2CHTO  H181  518   4.541   4.678  -1.380 -0.1006  2.8302  1.8978
    2CHTO   O61  519   4.468   4.661  -1.194 -0.6004  0.1169 -0.3985
    2CHTO   C95  520   4.588   4.610  -1.124 -0.0269 -0.5844 -0.5762
    2CHTO  H182  521   4.667   4.684  -1.135 -0.6809  0.1856 -0.1258
    2CHTO  C106  522   4.545   4.624  -0.972  0.2011 -0.3175 -0.2649
    2CHTO   O69  523   4.659   4.596  -0.892  0.1665 -0.1231  0.0275
    2CHTO  H169  524   4.724   4.661  -0.911  0.0992  0.4100  1.5090
    2CHTO   O63  525   4.312   4.727  -1.381 -0.2740 -0.0132  0.0493
    2CHTO   C96  526   4.346   4.860  -1.461  0.1728  0.1064 -0.0836
    2CHTO  H183  527   4.449   4.853  -1.495  0.6196  1.3561  0.9363
    2CHTO   C98  528   4.348   4.981  -1.363 -0.3681 -0.4777 -0.1978
    2CHTO  H185  529   4.268   4.982  -1.288 -1.8031  1.0183 -1.7223
    2CHTO   O67  530   4.468   4.966  -1.287  0.0137  0.0629 -0.1327
    2CHTO  H167  531   4.534   4.911  -1.325  1.2800  0.5168  1.3503
    2CHTO  C102  532   4.347   5.120  -1.429 -1.0138 -0.6998 -0.0701
    2CHTO  H189  533   4.443   5.131  -1.481  1.0773 -1.3637  3.4965
    2CHTO   N18  534   4.339   5.240  -1.337 -0.3804  0.1637 -0.1744
    2CHTO  H176  535   4.302   5.333  -1.380  0.1112  1.5196  2.2808
    2CHTO  H177  536   4.434   5.248  -1.288 -0.0091  0.0563 -0.8614
    2CHTO  C105  537   4.243   5.138  -1.540 -0.6847 -0.4433  0.3992
    2CHTO  H192  538   4.143   5.141  -1.497 -1.3996  0.2989 -1.2613
    2CHTO   O65  539   4.257   5.019  -1.630  0.4760 -0.2420  0.0693
    2CHTO  C100  540   4.247   4.890  -1.571 -0.1291  0.1603 -0.7888
    2CHTO  H187  541   4.149   4.876  -1.522  0.8578 -1.0808  0.8653
    2CHTO  C107  542   4.262   4.789  -1.688  0.0269 -0.1528 -0.4063
    2CHTO   O70  543   4.257   4.655  -1.636  0.6116 -0.1297  0.6441
    2CHTO  H170  544   4.318   4.606  -1.688  0.6759 -1.9913  2.4194
    2CHTO   O57  545   4.272   5.243  -1.617 -0.8391  0.5320  0.5186
    2CHTO   C85  546   4.179   5.280  -1.719  0.3098 -0.6548  0.0937
    2CHTO  H157  547   4.093   5.210  -1.719 -0.1040 -0.1489  0.5118
    2CHTO   C83  548   4.259   5.270  -1.856 -0.2665 -0.2426 -0.7533
    2CHTO  H155  549   4.281   5.163  -1.866  0.3897 -0.1666 -0.2023
    2CHTO   O56  550   4.381   5.347  -1.841 -0.3869 -0.5757 -0.6829
    2CHTO  H135  551   4.376   5.411  -1.773  0.2627  0.0857 -1.2478
    2CHTO   C81  552   4.165   5.315  -1.973 -0.5661 -0.3330 -0.4320
    2CHTO  H153  553   4.075   5.254  -1.971 -0.7261 -0.2145 -2.7874
    2CHTO   N14  554   4.230   5.285  -2.103 -0.4192  0.3434  0.0852
    2CHTO  H141  555   4.173   5.318  -2.187 -2.3456  0.1443  1.2855
    2CHTO  H142  556   4.333   5.312  -2.113  0.0496 -0.8632  1.4381
    2CHTO   C79  557   4.115   5.464  -1.953 -0.0001 -0.1155 -0.0886
    2CHTO  H151  558   4.036   5.486  -2.025 -0.2730  1.4383  0.6725
    2CHTO   O52  559   4.051   5.478  -1.821  0.1722  0.7962  0.1568
    2CHTO   C86  560   4.133   5.433  -1.702  0.0296  0.6535  0.1011
    2CHTO  H158  561   4.219   5.503  -1.702 -0.7751  1.6554 -0.2156
    2CHTO   C90  562   4.056   5.458  -1.574 -0.1485 -0.0338  0.3043
    2CHTO   O60  563   4.143   5.465  -1.462 -0.4678 -0.1218 -0.0142
    2CHTO  H138  564   4.098   5.516  -1.398  0.9541 -2.4516  2.9693
    2CHTO   O50  565   4.217   5.562  -1.979  0.5830 -0.0453 -0.3599
    2CHTO   C73  566   4.266   5.696  -2.006 -1.1681  0.1514  0.1415
    2CHTO  H145  567   4.182   5.753  -2.049 -0.5066  1.2922  0.3613
    2CHTO   C74  568   4.378   5.690  -2.111 -0.0604 -0.0530 -0.0528
    2CHTO  H146  569   4.330   5.633  -2.191  1.9306 -0.9063 -0.6719
    2CHTO   O54  570   4.399   5.818  -2.165  0.3248 -0.5551  0.0702
    2CHTO  H133  571   4.478   5.826  -2.214 -0.7710  3.5370 -1.2068
    2CHTO   C75  572   4.500   5.611  -2.052 -0.2083 -0.1043  0.6623
    2CHTO  H147  573   4.474   5.508  -2.023 -1.3199 -0.6433 -2.0511
    2CHTO   N13  574   4.615   5.601  -2.149 -0.3428 -0.1834 -0.5574
    2CHTO  H139  575   4.620   5.689  -2.211 -0.3098 -0.2185 -0.6038
    2CHTO  H140  576   4.703   5.611  -2.087 -1.1805  1.2959  0.4570
    2CHTO   C76  577   4.543   5.668  -1.901 -0.1594  0.2875 -0.2740
    2CHTO  H148  578   4.617   5.747  -1.912 -0.1444  0.4974  1.2645
    2CHTO   O49  579   4.433   5.712  -1.820  0.3979  0.1977 -0.0041
    2CHTO   C77  580   4.320   5.775  -1.883  0.7162  0.0484 -0.0507
    2CHTO  H149  581   4.350   5.875  -1.914  1.9675 -0.2470  0.1641
    2CHTO   C88  582   4.217   5.792  -1.773 -0.0852  0.2157  0.7067
    2CHTO   O58  583   4.250   5.888  -1.697  0.3412 -0.1984  0.3227
    2CHTO  H136  584   4.193   5.962  -1.691  0.6440  0.2070 -1.5283
    2CHTO   O51  585   4.591   5.550  -1.814 -0.8445  0.0310 -0.3681
    2CHTO   C78  586   4.706   5.576  -1.717  0.0319 -0.1245 -0.0368
    2CHTO  H150  587   4.699   5.678  -1.673 -0.3183  0.5544 -1.6501
    2CHTO   C80  588   4.843   5.556  -1.779  0.0638 -0.2301  0.4794
    2CHTO  H152  589   4.850   5.454  -1.821  0.0150  0.1527 -0.4806
    2CHTO   O55  590   4.850   5.651  -1.884 -0.4261 -0.3112  0.6474
    2CHTO  H134  591   4.890   5.621  -1.963 -2.0716  0.2372 -0.4280
    2CHTO   C84  592   4.949   5.582  -1.663  0.0871 -0.1242  0.1738
    2CHTO  H156  593   4.949   5.689  -1.641 -1.5227  0.1879 -1.2394
    2CHTO   N15  594   5.092   5.558  -1.718  0.2097  0.3910 -0.2129
    2CHTO  H143  595   5.154   5.619  -1.655 -3.5647  3.6691  0.5179
    2CHTO  H144  596   5.091   5.597  -1.818 -3.5404 -0.4534 -0.5958
    2CHTO   C87  597   4.924   5.482  -1.550 -0.0583 -0.1464  0.6565
    2CHTO  H159  598   4.931   5.378  -1.580  1.0319 -0.4233  1.8442
    2CHTO   O53  599   4.792   5.498  -1.501  0.4670 -0.1637 -0.1831
    2CHTO   C82  600   4.690   5.477  -1.602  0.4600  0.1204 -0.2241
    2CHTO  H154  601   4.707   5.375  -1.638 -2.0979 -0.5716  0.4830
    2CHTO   C89  602   4.539   5.481  -1.539  0.2215  0.1788  0.3350
    2CHTO   O59  603   4.517   5.586  -1.447  0.0935 -0.2829 -0.1363
    2CHTO  H137  604   4.478   5.560  -1.366 -1.6014  2.8158  0.1229
    2CHTO   O45  605   5.033   5.501  -1.413 -0.5647 -0.3585 -0.1084
    2CHTO   C67  606   4.992   5.421  -1.302  0.6593 -0.1329 -0.0857
    2CHTO  H124  607   4.894   5.378  -1.323  1.0089  0.1014 -2.2975
    2CHTO   C65  608   5.096   5.307  -1.286  0.1986  1.6723  0.1225
    2CHTO  H122  609   5.182   5.332  -1.349  0.3232 -0.1663 -0.4615
    2CHTO   O44  610   5.030   5.183  -1.322  0.0937 -0.6965  0.6483
    2CHTO  H102  611   5.048   5.116  -1.259 -0.0720 -0.5889  0.8099
    2CHTO   C63  612   5.163   5.309  -1.138  0.7994 -0.1647 -0.7949
    2CHTO  H120  613   5.230   5.394  -1.131 -0.5401  0.9437 -1.3445
    2CHTO   N11  614   5.257   5.203  -1.106  0.1320 -0.2275  0.1105
    2CHTO  H108  615   5.260   5.138  -1.191 -0.2406 -0.1727  0.0572
    2CHTO  H109  616   5.358   5.235  -1.094  0.4959 -0.9943 -0.8762
    2CHTO   C61  617   5.047   5.323  -1.034  0.2651  0.3794  0.7234
    2CHTO  H118  618   5.089   5.322  -0.932  0.2679 -2.4849  0.7471
    2CHTO   O40  619   4.969   5.439  -1.046  0.3316  0.3296 -0.1635
    2CHTO   C68  620   4.979   5.516  -1.170  0.0169 -0.5406 -0.1338
    2CHTO  H125  621   5.072   5.576  -1.167 -1.0143  1.0991 -0.5543
    2CHTO   C72  622   4.857   5.615  -1.180  0.4953  0.2255  0.2664
    2CHTO   O48  623   4.729   5.558  -1.211  0.2340  0.1638  0.8451
    2CHTO  H105  624   4.686   5.547  -1.128  1.5348 -1.2010  1.3762
    2CHTO   O38  625   4.962   5.201  -1.032  0.3234 -0.1093  0.0255
    2CHTO   C55  626   4.840   5.184  -0.954  0.1305  0.5257  0.9874
    2CHTO  H112  627   4.786   5.278  -0.940 -2.4895 -0.8112  0.3223
    2CHTO   C56  628   4.863   5.102  -0.811 -0.4231  0.2995  0.2784
    2CHTO  H113  629   4.926   5.015  -0.834  0.2660  1.4655 -2.4980
    2CHTO   O42  630   4.947   5.178  -0.726 -0.1024  0.6497 -0.5196
    2CHTO  H100  631   5.035   5.176  -0.760  0.8567  0.3495  1.8023
    2CHTO   C57  632   4.723   5.073  -0.739 -0.0063 -0.6014  0.4076
    2CHTO  H114  633   4.687   5.163  -0.689  3.4773  1.5516 -0.8070
    2CHTO   N10  634   4.743   4.971  -0.628 -0.2091 -0.6221 -0.5198
    2CHTO  H106  635   4.655   4.908  -0.623 -0.7542  0.2129  0.6271
    2CHTO  H107  636   4.834   4.915  -0.641  1.2232  1.6746 -0.6090
    2CHTO   C58  637   4.618   5.022  -0.845  0.2839  0.4125  0.0955
    2CHTO  H115  638   4.634   4.913  -0.859 -1.2369  0.1482  0.3029
    2CHTO   O37  639   4.608   5.091  -0.967  0.2126  0.3085  0.1027
    2CHTO   C59  640   4.737   5.099  -1.029  0.1783 -0.4629  0.3510
    2CHTO  H116  641   4.775   4.997  -1.037  1.1737  0.0059 -1.1254
    2CHTO   C70  642   4.716   5.139  -1.174 -0.3847  0.1706  0.6469
    2CHTO   O46  643   4.652   5.268  -1.188 -0.1472 -0.2776 -0.0772
    2CHTO  H103  644   4.643   5.289  -1.279 -2.5554 -1.3553 -0.1163
    2CHTO   O39  645   4.463   5.041  -0.787 -0.4822 -0.1186 -0.4006
    2CHTO   C60  646   4.391   5.162  -0.812 -0.1785  0.1584 -0.0174
    2CHTO  H117  647   4.452   5.242  -0.854 -1.2634  1.6530  1.1973
    2CHTO   C62  648   4.284   5.135  -0.927  0.4482  0.2823  0.0734
    2CHTO  H119  649   4.339   5.110  -1.020 -0.4230 -0.0983 -0.3454
    2CHTO   O43  650   4.207   5.019  -0.886  0.1363 -0.1511  0.0161
    2CHTO  H101  651   4.229   4.950  -0.945  0.8582 -0.4677  0.6488
    2CHTO   C66  652   4.201   5.265  -0.958  0.5899 -0.6688 -0.1234
    2CHTO  H123  653   4.274   5.342  -0.983 -1.2594  0.4368 -2.2691
    2CHTO   N12  654   4.104   5.263  -1.071 -0.7499 -0.2068 -0.1273
    2CHTO  H110  655   4.120   5.351  -1.131  3.1613  0.1050  1.2271
    2CHTO  H111  656   4.010   5.246  -1.021 -0.9561 -0.9225 -0.7401
    2CHTO   C69  657   4.141   5.307  -0.819  0.1213  0.1529  0.3039
    2CHTO  H126  658   4.075   5.227  -0.780  1.6294 -2.5317 -2.4587
    2CHTO   O41  659   4.257   5.335  -0.721  0.0939  0.4678 -0.1910
    2CHTO   C64  660   4.331   5.209  -0.692  0.2260  0.0834  0.5096
    2CHTO  H121  661   4.266   5.128  -0.650  0.5452 -0.1971  0.4668
    2CHTO   C71  662   4.437   5.241  -0.584 -0.7530 -0.4116 -0.2922
    2CHTO   O47  663   4.369   5.284  -0.466 -0.5969  0.0134 -0.6069
    2CHTO  H104  664   4.427   5.292  -0.393  1.0256  1.8937 -2.0586
    2CHTO   O34  665   4.044   5.442  -0.837 -0.7531  0.1560  0.8660
    2CHTO   C49  666   4.007   5.605  -0.861 -0.4345 -0.0499  0.0322
    2CHTO   H91  667   3.903   5.595  -0.895  0.2396 -0.8356 -1.9135
    2CHTO   C47  668   4.108   5.656  -0.970 -0.4692  0.1521  0.6495
    2CHTO   H89  669   4.073   5.761  -0.983  0.2275  0.2351 -0.5191
    2CHTO   O33  670   4.094   5.598  -1.098  0.1740 -0.0986  0.0408
    2CHTO   H70  671   4.105   5.664  -1.164  4.3986 -1.6577 -0.9718
    2CHTO   C45  672   4.261   5.656  -0.908 -0.3978 -0.2370  0.1637
    2CHTO   H87  673   4.281   5.556  -0.869  1.1339  0.2473  0.6469
    2CHTO    N8  674   4.371   5.681  -0.998 -0.2880 -0.4580 -0.0214
    2CHTO   H75  675   4.390   5.596  -1.062 -1.7040 -1.1674  0.4946
    2CHTO   H76  676   4.341   5.767  -1.055 -1.5378 -0.8396  0.0435
    2CHTO   C43  677   4.259   5.751  -0.784  0.0638  0.4093 -0.0968
    2CHTO   H85  678   4.358   5.733  -0.741 -0.1848  4.1566  2.2143
    2CHTO   O29  679   4.158   5.711  -0.691  0.3415  0.2143 -0.6354
    2CHTO   C50  680   4.025   5.689  -0.738  0.0865 -0.4150  0.3794
    2CHTO   H92  681   3.987   5.632  -0.652 -0.7944  2.3883  1.9143
    2CHTO   C54  682   3.943   5.823  -0.733  0.0413 -0.2971  0.1821
    2CHTO   O36  683   3.810   5.801  -0.772 -0.0853  0.1718  0.2007
    2CHTO   H72  684   3.765   5.725  -0.740 -0.7257  0.2262 -0.5489
    2CHTO   O27  685   4.246   5.890  -0.818  0.3203  0.8307 -0.1606
    2CHTO   C37  686   4.255   6.035  -0.837 -0.3848 -1.0094  0.0608
    2CHTO   H79  687   4.355   6.058  -0.876 -0.0660 -1.4069  0.6274
    2CHTO   C38  688   4.138   6.081  -0.934 -0.3410  0.1634 -0.3486
    2CHTO   H80  689   4.049   6.018  -0.917 -0.5187  0.5332  0.0893
    2CHTO   O31  690   4.194   6.053  -1.064  0.1984 -0.1956  0.0104
    2CHTO   H68  691   4.217   5.963  -1.079  1.3900 -0.2296  1.8712
    2CHTO   C39  692   4.091   6.234  -0.920  0.1208  0.1129  0.3824
    2CHTO   H81  693   4.159   6.309  -0.962  0.1282  0.8156  1.6278
    2CHTO    N7  694   3.955   6.259  -0.980 -0.3346  0.2570  0.6731
    2CHTO   H73  695   3.956   6.351  -1.036  1.5932  0.6001  1.2216
    2CHTO   H74  696   3.871   6.252  -0.912  0.4824  0.1646  1.6782
    2CHTO   C40  697   4.099   6.287  -0.776  0.2272  0.7429  0.5716
    2CHTO   H82  698   4.018   6.240  -0.720 -0.1562  0.3862 -0.2700
    2CHTO   O26  699   4.228   6.254  -0.728  0.3929 -0.1927  0.2484
    2CHTO   C41  700   4.246   6.109  -0.708 -0.1720 -0.2779 -0.4365
    2CHTO   H83  701   4.149   6.087  -0.662  0.4580  2.5336  2.4179
    2CHTO   C52  702   4.368   6.085  -0.620  0.5860  0.2356  0.2429
    2CHTO   O35  703   4.347   6.112  -0.470 -0.3587 -0.1542  0.0559
    2CHTO   H71  704   4.304   6.194  -0.454  0.7797  0.1862  1.4408
    2CHTO   O28  705   4.082   6.426  -0.772 -0.3367 -0.3057 -0.0220
    2CHTO   C42  706   4.046   6.504  -0.657 -0.3905  0.3962 -0.3442
    2CHTO   H84  707   4.088   6.601  -0.683  0.1652 -0.1015 -1.2949
    2CHTO   C44  708   4.105   6.461  -0.514  0.5006  0.1620 -0.3442
    2CHTO   H86  709   4.092   6.353  -0.507 -1.7025  0.5047  1.5127
    2CHTO   O32  710   4.251   6.479  -0.520  0.0303  0.6747  0.3411
    2CHTO   H69  711   4.278   6.411  -0.580 -3.4003 -1.0583  0.6215
    2CHTO   C48  712   4.055   6.533  -0.382  0.6085 -0.0100 -0.5932
    2CHTO   H90  713   4.087   6.637  -0.387 -1.2056  0.5765 -0.3975
    2CHTO    N9  714   4.101   6.476  -0.252 -0.1404 -0.4581 -0.6038
    2CHTO   H77  715   4.190   6.420  -0.277 -0.3535 -0.6433 -0.9532
    2CHTO   H78  716   4.025   6.421  -0.199 -0.6405  1.3012  0.5372
    2CHTO   C51  717   3.902   6.555  -0.394  0.4487  0.1470  0.0328
    2CHTO   H93  718   3.865   6.453  -0.386 -1.4698  0.6264 -2.1142
    2CHTO   O30  719   3.883   6.616  -0.522 -0.1294 -0.3608 -0.4581
    2CHTO   C46  720   3.895   6.526  -0.645 -0.4930 -0.1697  0.3389
    2CHTO   H88  721   3.847   6.428  -0.633 -0.6309  0.2096  3.2123
    2CHTO   C53  722   3.843   6.589  -0.768 -0.4777  0.1091  0.2503
    2CHTO   O72  723   3.708   6.626  -0.744 -0.2504  0.3975 -0.4377
    2CHTO  H199  724   3.659   6.618  -0.824 -1.4275 -1.5817  0.4615
    2CHTO   O22  725   3.847   6.648  -0.295 -0.0003  0.1724 -0.3892
    2CHTO   C31  726   3.712   6.648  -0.245 -0.3789 -0.1382  0.6501
    2CHTO   H59  727   3.693   6.755  -0.222  1.0411  1.1164 -3.4409
    2CHTO   C29  728   3.599   6.611  -0.349  0.3100 -0.0272  0.0059
    2CHTO   H57  729   3.617   6.506  -0.377  0.6970 -0.6184  2.3302
    2CHTO   O21  730   3.618   6.702  -0.460 -0.1908 -0.3686 -0.1288
    2CHTO   H37  731   3.602   6.785  -0.419  1.0841 -0.5346  0.7307
    2CHTO   C27  732   3.460   6.632  -0.280 -0.9692  0.6376 -0.5295
    2CHTO   H55  733   3.453   6.738  -0.253  0.5065  0.4858  0.5173
    2CHTO    N5  734   3.350   6.604  -0.379  0.2293 -0.1792  0.2008
    2CHTO   H43  735   3.261   6.649  -0.339  1.1283  0.9420  0.9636
    2CHTO   H44  736   3.377   6.638  -0.478 -0.7100  2.4766  0.8292
    2CHTO   C25  737   3.456   6.540  -0.144 -0.0435  0.3276 -0.1358
    2CHTO   H53  738   3.481   6.439  -0.180 -0.5164  0.0304  0.3589
    2CHTO   O17  739   3.563   6.590  -0.055 -0.1502  0.1213 -0.0480
    2CHTO   C32  740   3.696   6.567  -0.103 -0.7372 -0.0958  0.1944
    2CHTO   H60  741   3.705   6.460  -0.123 -1.8902 -0.4804  1.6996
    2CHTO   C36  742   3.793   6.601   0.013  0.1444 -0.1116  0.1974
    2CHTO   O25  743   3.779   6.508   0.121  0.0958  0.9410  0.1290
    2CHTO   H40  744   3.861   6.471   0.147 -0.8193 -1.1969  0.0929
    2CHTO   O15  745   3.331   6.526  -0.071  0.0615  0.7425 -0.1762
    2CHTO   C19  746   3.319   6.424   0.027 -0.1257 -0.1609 -0.3456
    2CHTO   H47  747   3.211   6.412   0.043  0.1898 -0.9466  1.2336
    2CHTO   C20  748   3.376   6.283  -0.005 -0.3535  0.1437 -0.3215
    2CHTO   H48  749   3.484   6.288  -0.022 -0.5013  1.1097 -1.0254
    2CHTO   O19  750   3.317   6.242  -0.131  0.6320  0.2469 -0.3066
    2CHTO   H35  751   3.363   6.278  -0.205  1.6406  0.3209  0.3457
    2CHTO   C21  752   3.347   6.186   0.112 -0.3581 -0.5140  0.7923
    2CHTO   H49  753   3.239   6.180   0.119 -0.5361 -2.3119 -2.3064
    2CHTO    N4  754   3.396   6.048   0.082  0.0609 -0.2265  0.4713
    2CHTO   H41  755   3.396   6.032  -0.025  1.0384  0.6606  0.3374
    2CHTO   H42  756   3.320   5.984   0.126 -1.1232 -0.4765 -1.8394
    2CHTO   C22  757   3.412   6.253   0.234 -0.1985 -0.3403 -0.2255
    2CHTO   H50  758   3.518   6.268   0.216  0.0397 -2.3209 -0.5096
    2CHTO   O14  759   3.352   6.380   0.264  0.1505  0.5771  0.2309
    2CHTO   C23  760   3.368   6.476   0.166  0.0676 -0.2277 -0.0269
    2CHTO   H51  761   3.474   6.507   0.163  0.5856 -1.8978  0.7362
    2CHTO   C34  762   3.295   6.606   0.205  0.1035 -0.2574  1.1832
    2CHTO   O23  763   3.323   6.637   0.335 -0.1958  0.1433 -0.1627
    2CHTO   H38  764   3.341   6.729   0.338 -0.2853  0.2873 -2.7225
    2CHTO   O16  765   3.385   6.175   0.356  0.8480 -0.1255  0.1365
    2CHTO   C24  766   3.517   6.192   0.456  0.4789  0.2298  0.0982
    2CHTO   H52  767   3.598   6.249   0.411  0.9035  0.2848  0.9153
    2CHTO   C26  768   3.572   6.051   0.482  0.2095 -0.3476 -0.3231
    2CHTO   H54  769   3.485   5.981   0.485  0.4168 -0.5385  1.8017
    2CHTO   O20  770   3.648   6.016   0.366 -0.1897  0.0529  0.4327
    2CHTO   H36  771   3.727   6.066   0.358  0.5781 -0.9739  1.4583
    2CHTO   C30  772   3.657   6.035   0.606 -0.2730  0.0067  0.2965
    2CHTO   H58  773   3.755   6.083   0.592 -0.8740  0.6535 -1.7355
    2CHTO    N6  774   3.691   5.891   0.638  0.1337 -0.1096 -0.6407
    2CHTO   H45  775   3.748   5.886   0.730 -0.6041  1.0186 -0.1136
    2CHTO   H46  776   3.738   5.824   0.566  1.5189 -0.3799  0.4949
    2CHTO   C33  777   3.599   6.111   0.726 -0.1430 -0.8422  0.6092
    2CHTO   H61  778   3.508   6.056   0.756 -0.5726 -0.0147  0.8460
    2CHTO   O18  779   3.566   6.246   0.696  0.2721 -0.9694 -0.0478
    2CHTO   C28  780   3.469   6.263   0.591  0.4525  0.5886 -0.1811
    2CHTO   H56  781   3.366   6.235   0.613 -0.2520  2.0050 -1.5129
    2CHTO   C35  782   3.452   6.417   0.569 -0.5919  0.5271  0.2908
    2CHTO   O24  783   3.425   6.503   0.684  0.3584  0.3892  0.0357
    2CHTO   H39  784   3.348   6.469   0.726  1.3282 -3.3922 -1.0549
    2CHTO    O9  785   3.692   6.109   0.834  0.8988  0.0961 -0.8701
    2CHTO   C13  786   3.644   6.166   0.973  0.2630  0.1370  0.2821
    2CHTO   H26  787   3.533   6.169   0.981  0.3077 -0.1738  1.0691
    2CHTO   C11  788   3.713   6.313   0.993  0.9910  0.3648  0.3295
    2CHTO   H24  789   3.674   6.379   0.914  2.5285 -1.4808 -2.0535
    2CHTO    O8  790   3.853   6.306   0.969  0.0891  0.0110 -0.3832
    2CHTO    H3  791   3.908   6.299   1.044 -0.4183 -0.1248 -0.0253
    2CHTO    C9  792   3.670   6.357   1.136  0.4016  0.9078 -0.4802
    2CHTO   H22  793   3.561   6.349   1.141  0.4730  0.8489  1.1847
    2CHTO    N2  794   3.692   6.501   1.170 -0.9041  0.1680  0.4867
    2CHTO   H10  795   3.784   6.535   1.125 -0.9799  1.1423  1.0344
    2CHTO   H11  796   3.702   6.510   1.278 -4.9094  1.9453  0.7818
    2CHTO    C7  797   3.731   6.258   1.237  0.3062 -0.5001  0.0656
    2CHTO   H20  798   3.683   6.288   1.332  0.5500 -0.4968  0.1886
    2CHTO    O4  799   3.686   6.124   1.225  0.3692 -0.8440 -1.1881
    2CHTO   C14  800   3.687   6.067   1.093  0.3675  0.1894  0.1872
    2CHTO   H27  801   3.609   5.989   1.106  1.3427 -0.6156  1.3598
    2CHTO   C18  802   3.819   5.999   1.065 -0.2479  0.1769 -0.3228
    2CHTO   O13  803   3.821   5.873   1.132 -0.6040 -0.3097  0.1417
    2CHTO    H7  804   3.908   5.869   1.168 -0.2963  1.1790 -0.3658
    2CHTO    O2  805   3.908   6.271   1.236  0.6247 -0.0592  0.3726
    2CHTO    C1  806   3.971   6.229   1.360 -0.3071 -0.0397  0.0884
    2CHTO   H14  807   3.911   6.147   1.405 -0.4727 -0.5295 -1.0004
    2CHTO    C2  808   3.981   6.351   1.465 -0.2664  0.2889 -0.6275
    2CHTO   H15  809   4.043   6.432   1.423  0.8620  0.2352  0.9036
    2CHTO    O6  810   3.849   6.401   1.486 -0.5224  0.1730  0.6089
    2CHTO    H1  811   3.827   6.440   1.404  0.0999 -2.6870 -0.9707
    2CHTO    C3  812   4.053   6.300   1.594  0.4890  0.6049 -0.1348
    2CHTO   H16  813   3.995   6.213   1.627 -2.0122  2.2837  0.0089
    2CHTO    N1  814   4.052   6.393   1.706  1.1087  0.1187  0.6580
    2CHTO    H8  815   3.998   6.355   1.791 -0.4860 -2.6570 -1.4948
    2CHTO    H9  816   4.015   6.482   1.656  1.2617  0.4683  1.1635
    2CHTO    C4  817   4.192   6.241   1.558  0.6660 -0.1328 -0.3979
    2CHTO   H17  818   4.250   6.321   1.513  0.0471 -0.3381 -1.5723
    2CHTO    O1  819   4.169   6.136   1.457 -0.1692 -0.2978  0.2936
    2CHTO    C5  820   4.121   6.190   1.335  0.4648 -0.9764  0.7930
    2CHTO   H18  821   4.179   6.279   1.312  2.2134 -2.2291  0.2626
    2CHTO   C16  822   4.131   6.091   1.221 -0.4675  1.1047 -0.0799
    2CHTO   O11  823   4.263   6.073   1.183  0.3765 -0.0191 -0.3044
    2CHTO    H5  824   4.284   6.138   1.119 -1.6127 -1.2084 -2.2239
    2CHTO    O3  825   4.254   6.179   1.668  0.2000  0.1091  0.5569
    2CHTO    C6  826   4.400   6.175   1.665 -0.0584 -0.2054 -0.1339
    2CHTO   H19  827   4.449   6.218   1.577 -0.7934 -1.0156 -0.9448
    2CHTO    C8  828   4.463   6.261   1.786  0.4350  0.2415 -0.5889
    2CHTO   H21  829   4.419   6.228   1.880 -2.3043  4.0905 -0.3804
    2CHTO    O7  830   4.428   6.395   1.763  0.0430  0.1461 -0.2491
    2CHTO    H2  831   4.492   6.457   1.792  1.0786 -1.1829  0.3532
    2CHTO   C12  832   4.614   6.237   1.793  0.1341 -0.4285 -0.8309
    2CHTO   H25  833   4.652   6.278   1.697  2.1177  0.3398  0.2487
    2CHTO    N3  834   4.689   6.303   1.897 -0.4714  0.2125  0.4350
    2CHTO   H12  835   4.772   6.363   1.862 -0.5103 -0.2228 -0.4122
    2CHTO   H13  836   4.620   6.356   1.961 -1.1541  0.6051 -0.6105
    2CHTO   C15  837   4.647   6.086   1.795 -0.3667 -0.2476 -0.4077
    2CHTO   H28  838   4.615   6.036   1.887 -1.8597 -2.2936 -1.9803
    2CHTO   O10  839   4.799   6.054   1.771 -0.1033  0.5797  0.4056
    2CHTO    H4  840   4.812   5.971   1.812  2.2208  0.5419 -0.3560
    2CHTO    O5  841   4.587   6.018   1.683 -0.4235 -0.2539 -0.1193
    2CHTO   C10  842   4.444   6.028   1.679  0.3535 -0.0461  0.2489
    2CHTO   H23  843   4.401   5.998   1.774 -1.8860 -2.0120 -1.3392
    2CHTO   C17  844   4.402   5.936   1.564 -0.0928 -0.4212 -0.1940
    2CHTO   O12  845   4.259   5.911   1.565  0.7779  0.3801 -0.0215
    2CHTO    H6  846   4.224   5.883   1.647  1.5062 -1.7137 -0.4040
    3CHTO  H203  847   5.961   2.339   1.878 -1.3594  0.6485 -0.9123
    3CHTO   O82  848   6.011   2.399   1.826  0.3358  0.0397 -0.0059
    3CHTO  C123  849   6.140   2.342   1.785 -0.1903  0.3075  0.2275
    3CHTO  H227  850   6.140   2.236   1.811 -0.3698  0.2726  0.0877
    3CHTO   O77  851   6.112   2.377   1.643 -0.0032  0.3114 -0.5142
    3CHTO  C118  852   6.224   2.382   1.553 -0.3505  0.2435 -0.1624
    3CHTO  H222  853   6.252   2.278   1.530 -0.2830  0.8767 -3.2215
    3CHTO  C125  854   6.182   2.455   1.420 -0.0732 -0.8065 -0.5689
    3CHTO   O84  855   6.127   2.585   1.435  0.0310  0.2663  0.1129
    3CHTO  H205  856   6.174   2.648   1.383  0.2967  0.8539  1.0576
    3CHTO  C114  857   6.344   2.454   1.619  0.3474  0.2614  0.0776
    3CHTO  H218  858   6.318   2.557   1.642 -1.5802 -0.4499  1.2318
    3CHTO  C116  859   6.379   2.394   1.758  0.6693 -0.2257  0.0777
    3CHTO  H220  860   6.386   2.283   1.765  2.1796 -0.0575  1.7604
    3CHTO   O79  861   6.504   2.455   1.802  0.0374  0.4178 -0.2566
    3CHTO  H201  862   6.493   2.547   1.813 -0.8716  0.6710 -2.9679
    3CHTO  C120  863   6.253   2.424   1.854  0.4296 -0.1848 -0.8228
    3CHTO  H224  864   6.227   2.531   1.860  2.4777  0.2031  2.4004
    3CHTO   N21  865   6.270   2.384   1.994 -0.2688 -0.2363 -0.0991
    3CHTO  H211  866   6.325   2.459   2.048  1.3176 -0.7908 -0.9074
    3CHTO  H212  867   6.171   2.372   2.035 -1.2804  0.1368 -2.3993
    3CHTO   O75  868   6.448   2.443   1.518 -0.1447  0.7678 -0.1563
    3CHTO  C112  869   6.520   2.295   1.502  0.4182  0.2474  0.0029
    3CHTO  H216  870   6.449   2.216   1.529  0.1599  1.4614  3.1001
    3CHTO   O73  871   6.627   2.293   1.591  0.0110 -0.0580  0.4633
    3CHTO  C113  872   6.675   2.162   1.611 -0.3842  0.6855 -0.5047
    3CHTO  H217  873   6.601   2.089   1.648 -0.5792  1.3127  0.3609
    3CHTO  C124  874   6.788   2.168   1.721  0.2056 -0.6407  0.1427
    3CHTO   O83  875   6.731   2.240   1.833 -0.6269 -0.1960 -0.2835
    3CHTO  H204  876   6.749   2.332   1.842  1.8711 -0.8471  1.7617
    3CHTO  C109  877   6.737   2.106   1.482  0.4859 -0.5480  0.0309
    3CHTO  H213  878   6.829   2.166   1.467 -0.4173  0.9027  0.1417
    3CHTO  C110  879   6.638   2.119   1.362 -0.4664  0.2832  0.6311
    3CHTO  H214  880   6.561   2.042   1.362 -0.4369  0.2530  0.1959
    3CHTO   O78  881   6.707   2.103   1.234  0.0180  0.4634  0.2796
    3CHTO  H200  882   6.765   2.030   1.247  2.4465  1.7091 -2.9313
    3CHTO  C111  883   6.569   2.255   1.356 -0.3669 -0.7304  0.0726
    3CHTO  H215  884   6.645   2.331   1.334 -0.9940  0.5432  2.1543
    3CHTO   N19  885   6.464   2.269   1.251 -0.2471 -0.1836 -0.1222
    3CHTO  H207  886   6.385   2.332   1.290 -0.8689  0.4682 -2.3679
    3CHTO  H208  887   6.426   2.178   1.208 -1.3183  0.2007 -0.0123
    3CHTO   O74  888   6.773   1.963   1.504  0.9059  0.1163  0.4007
    3CHTO  C115  889   6.887   1.903   1.417 -0.4054 -0.3665 -0.1098
    3CHTO  H219  890   6.907   1.966   1.331 -0.8491 -0.1360 -0.0473
    3CHTO   O76  891   7.019   1.903   1.495  0.1236  0.1890  0.1338
    3CHTO  C122  892   7.009   1.815   1.614 -0.3091 -0.2730 -0.4341
    3CHTO  H226  893   6.967   1.881   1.690 -0.7580 -1.4469  0.3543
    3CHTO  C126  894   7.161   1.788   1.651  0.6441 -0.0224  0.5443
    3CHTO   O85  895   7.228   1.886   1.739  0.1221  0.5852 -0.1104
    3CHTO  H206  896   7.281   1.840   1.801 -2.2438  0.6108  2.0038
    3CHTO  C121  897   6.917   1.680   1.602  0.1270  0.2905 -0.6459
    3CHTO  H225  898   6.970   1.599   1.655  1.0200  0.2888 -1.5237
    3CHTO   O81  899   6.792   1.702   1.669  0.4126 -0.4925  0.5375
    3CHTO  H202  900   6.738   1.627   1.653 -2.3364  0.9953  2.2548
    3CHTO  C119  901   6.898   1.641   1.450 -0.3242 -0.2372  0.0409
    3CHTO  H223  902   7.002   1.614   1.432  0.2847  0.7630  1.8783
    3CHTO  C117  903   6.854   1.759   1.356  0.1589 -0.9829 -0.4468
    3CHTO  H221  904   6.745   1.759   1.344  0.1728  1.7086 -0.7534
    3CHTO   N20  905   6.907   1.732   1.218  0.3556  0.5277  0.3016
    3CHTO  H209  906   6.911   1.827   1.166  1.3511  0.2773 -0.1042
    3CHTO  H210  907   6.852   1.653   1.169 -2.4761  1.5604  1.7251
    3CHTO   O80  908   6.829   1.508   1.433  0.7732 -0.0356  0.0596
    3CHTO  C103  909   6.878   1.382   1.517 -0.0824  0.5551  0.1069
    3CHTO  H190  910   6.972   1.394   1.572 -0.1824  1.4787  0.0833
    3CHTO  C101  911   6.764   1.322   1.615 -0.7573 -0.1519 -0.1445
    3CHTO  H188  912   6.672   1.317   1.555  0.0085  1.9845 -1.5412
    3CHTO   O68  913   6.736   1.414   1.736 -0.4098  0.3263  0.7265
    3CHTO  H168  914   6.710   1.362   1.809 -1.4155 -0.1613  0.0373
    3CHTO   C99  915   6.788   1.168   1.653  0.5626 -0.4109  0.6348
    3CHTO  H186  916   6.872   1.161   1.725 -0.1972 -0.7720  1.4844
    3CHTO   N17  917   6.664   1.107   1.726  0.5074 -0.2198  0.1708
    3CHTO  H174  918   6.686   1.011   1.770 -0.2702 -1.1372 -1.3992
    3CHTO  H175  919   6.578   1.100   1.662  0.9124  2.0007 -0.6779
    3CHTO   C97  920   6.829   1.086   1.522 -0.2329 -0.9085 -0.0584
    3CHTO  H184  921   6.736   1.080   1.464 -1.1832  1.1007  1.2344
    3CHTO   O64  922   6.938   1.139   1.443  0.0604 -0.5028 -0.0463
    3CHTO  C104  923   6.903   1.272   1.403 -0.5266  0.2173 -0.1743
    3CHTO  H191  924   6.813   1.266   1.341 -0.3520 -0.8410 -0.3296
    3CHTO  C108  925   7.023   1.306   1.309  1.1566  0.1776  0.1896
    3CHTO   O71  926   7.014   1.236   1.184  0.2155  0.1626  0.0123
    3CHTO  H171  927   7.077   1.168   1.168  0.2762  0.4744 -1.1204
    3CHTO   O62  928   6.882   0.957   1.560  0.3081 -0.0195  0.1278
    3CHTO   C91  929   6.808   0.850   1.503  0.9239  0.7904 -0.0803
    3CHTO  H178  930   6.708   0.892   1.487  0.2427 -0.6994  0.2029
    3CHTO   C92  931   6.787   0.751   1.623  0.0181 -0.3456  0.1675
    3CHTO  H179  932   6.890   0.711   1.630 -0.1552 -0.7616  0.3497
    3CHTO   O66  933   6.770   0.820   1.748  0.3676  0.1832  0.8636
    3CHTO  H166  934   6.687   0.864   1.747  0.2185 -0.1070  0.2426
    3CHTO   C93  935   6.677   0.640   1.595  0.0704 -0.3119 -0.2410
    3CHTO  H180  936   6.579   0.684   1.619  0.2488  0.5796 -1.1029
    3CHTO   N16  937   6.684   0.521   1.687  0.5014 -0.0342  0.3664
    3CHTO  H172  938   6.711   0.424   1.649  0.4116  0.2586 -0.4637
    3CHTO  H173  939   6.767   0.545   1.752  0.1173  0.7022  0.5923
    3CHTO   C94  940   6.681   0.603   1.444 -0.2448  0.3156 -0.1107
    3CHTO  H181  941   6.650   0.500   1.425 -0.0812  0.4864 -1.3593
    3CHTO   O61  942   6.804   0.627   1.375  0.0390 -0.3850  0.0761
    3CHTO   C95  943   6.852   0.768   1.377 -0.0602  0.1199  0.1092
    3CHTO  H182  944   6.961   0.767   1.381 -0.0268  2.2924  0.4186
    3CHTO  C106  945   6.805   0.840   1.238 -0.2082 -0.4010 -0.1335
    3CHTO   O69  946   6.879   0.964   1.220  0.0894  0.2547 -0.1833
    3CHTO  H169  947   6.856   1.000   1.136  2.0298 -2.1888 -1.8158
    3CHTO   O63  948   6.579   0.698   1.381  0.3620 -0.1261  0.3244
    3CHTO   C96  949   6.431   0.658   1.329  0.1230 -0.4394 -0.0785
    3CHTO  H183  950   6.383   0.612   1.416 -3.1053  0.3285 -1.3920
    3CHTO   C98  951   6.412   0.558   1.211 -0.4563  0.8276  0.5272
    3CHTO  H185  952   6.467   0.599   1.125 -2.1162  1.4231 -0.2537
    3CHTO   O67  953   6.481   0.431   1.238  0.3833  0.0169 -0.1085
    3CHTO  H167  954   6.536   0.424   1.313 -0.2143 -2.8952  0.1106
    3CHTO  C102  955   6.253   0.524   1.171 -0.1591 -1.0128  0.3720
    3CHTO  H189  956   6.215   0.459   1.251 -2.9657  0.6699  0.4905
    3CHTO   N18  957   6.234   0.453   1.040  0.6026 -0.6659  0.0945
    3CHTO  H176  958   6.184   0.358   1.053  2.5497 -2.0910 -2.4059
    3CHTO  H177  959   6.163   0.508   0.980  0.9595  1.0874  1.2424
    3CHTO  C105  960   6.174   0.658   1.158  0.4481 -0.2811 -0.2116
    3CHTO  H192  961   6.193   0.707   1.062  3.4280 -0.8683  0.0154
    3CHTO   O65  962   6.206   0.762   1.249  0.3018  0.1786 -0.1032
    3CHTO  C100  963   6.346   0.787   1.287 -0.1540 -0.2730  0.2512
    3CHTO  H187  964   6.400   0.833   1.203 -1.5346 -0.2050 -0.6169
    3CHTO  C107  965   6.345   0.887   1.400  0.6641  0.0968  0.1098
    3CHTO   O70  966   6.476   0.949   1.419  0.5052  0.2275  0.2044
    3CHTO  H170  967   6.538   0.878   1.424 -1.0131 -1.2255 -1.2920
    3CHTO   O57  968   6.017   0.623   1.178  0.3534 -0.2062  0.0748
    3CHTO   C85  969   5.915   0.673   1.092  0.7261 -0.4349 -0.5449
    3CHTO  H157  970   5.942   0.639   0.990  1.5529  0.5127 -0.6418
    3CHTO   C83  971   5.924   0.826   1.105 -0.5787 -0.6891 -0.3081
    3CHTO  H155  972   6.018   0.851   1.056 -1.0262  1.6345 -0.0408
    3CHTO   O56  973   5.932   0.857   1.245  0.0813 -0.2519 -0.7563
    3CHTO  H135  974   6.001   0.917   1.263  1.0682 -1.2889 -1.0547
    3CHTO   C81  975   5.809   0.898   1.031  0.4383  0.7340  0.1693
    3CHTO  H153  976   5.812   0.854   0.932  0.8459 -0.6756  0.7910
    3CHTO   N14  977   5.833   1.042   1.013  0.2637  0.4290  0.1307
    3CHTO  H141  978   5.840   1.076   1.114  1.7492 -2.0043  0.8899
    3CHTO  H142  979   5.925   1.064   0.963  1.4726 -1.3135  1.5299
    3CHTO   C79  980   5.677   0.859   1.093  0.1819 -0.4964  0.9602
    3CHTO  H151  981   5.601   0.901   1.027  1.7972  0.3414 -0.3924
    3CHTO   O52  982   5.660   0.714   1.094  0.0326 -0.4940  0.3226
    3CHTO   C86  983   5.774   0.628   1.137 -0.5672 -0.2291 -0.3640
    3CHTO  H158  984   5.776   0.619   1.248  0.4557 -0.0285 -0.3600
    3CHTO   C90  985   5.764   0.485   1.088  0.0172 -0.0924  0.0606
    3CHTO   O60  986   5.644   0.412   1.105  0.4127 -0.8762  0.7760
    3CHTO  H138  987   5.672   0.329   1.070  1.6247 -0.3344  0.3946
    3CHTO   O50  988   5.667   0.896   1.232 -0.3126 -0.2908  0.1440
    3CHTO   C73  989   5.546   0.901   1.306 -0.3224  0.0588  0.4574
    3CHTO  H145  990   5.501   0.801   1.297  2.3067 -1.2869  1.4105
    3CHTO   C74  991   5.453   1.015   1.259  0.2296  0.5160 -0.1692
    3CHTO  H146  992   5.445   0.984   1.154  0.9020  1.6807 -0.5750
    3CHTO   O54  993   5.329   1.003   1.338 -0.7624  0.7307 -0.3233
    3CHTO  H133  994   5.343   1.026   1.427  0.0924 -0.3135 -0.1841
    3CHTO   C75  995   5.522   1.152   1.270 -0.1497  0.5052 -0.3090
    3CHTO  H147  996   5.606   1.158   1.199 -1.3371  2.3922 -1.6284
    3CHTO   N13  997   5.435   1.269   1.230 -0.2100 -0.1869 -0.0541
    3CHTO  H139  998   5.338   1.251   1.273 -1.1465  0.3739 -1.8830
    3CHTO  H140  999   5.461   1.368   1.264  1.4751 -0.8764  0.7396
    3CHTO   C76 1000   5.580   1.168   1.426  0.7375  0.7032  0.5132
    3CHTO  H148 1001   5.489   1.160   1.486  0.8404 -0.0027  0.5796
    3CHTO   O49 1002   5.659   1.052   1.473 -0.6647  0.0320 -0.6150
    3CHTO   C77 1003   5.584   0.926   1.457 -0.3874  0.2742  0.1335
    3CHTO  H149 1004   5.493   0.928   1.517 -0.6462  0.7669 -0.2689
    3CHTO   C88 1005   5.663   0.806   1.516 -0.0191 -0.3868 -0.3899
    3CHTO   O58 1006   5.566   0.681   1.542 -0.3435  0.5701 -0.3410
    3CHTO  H136 1007   5.625   0.608   1.549 -2.9227 -1.5962 -0.4531
    3CHTO   O51 1008   5.680   1.311   1.438 -0.1774  0.4654  0.1075
    3CHTO   C78 1009   5.690   1.391   1.575 -0.0893 -0.6512 -0.4165
    3CHTO  H150 1010   5.774   1.463   1.571 -2.3416  2.0568  0.1498
    3CHTO   C80 1011   5.711   1.295   1.693  0.5421 -0.3411 -0.4050
    3CHTO  H152 1012   5.628   1.221   1.685  0.8811 -1.0123  2.1056
    3CHTO   O55 1013   5.835   1.230   1.683 -0.5900  0.2475  0.5697
    3CHTO  H134 1014   5.822   1.148   1.641  1.7329  0.0570  0.1635
    3CHTO   C84 1015   5.707   1.372   1.832  0.5692 -0.5532 -0.2342
    3CHTO  H156 1016   5.797   1.433   1.834  0.5308 -0.5149  1.2727
    3CHTO   N15 1017   5.706   1.277   1.948  0.2569  0.3890  0.1314
    3CHTO  H143 1018   5.618   1.218   1.938  0.9043 -0.3779 -1.2045
    3CHTO  H144 1019   5.794   1.216   1.943  1.2133  1.5158  2.4666
    3CHTO   C87 1020   5.596   1.472   1.836 -0.1811 -0.5340 -0.9223
    3CHTO  H159 1021   5.501   1.423   1.854 -2.1659  3.7160  0.7674
    3CHTO   O53 1022   5.576   1.544   1.721 -0.2538 -0.3136 -0.0305
    3CHTO   C82 1023   5.560   1.468   1.599  0.7134  0.0344 -1.0215
    3CHTO  H154 1024   5.478   1.397   1.602  0.7226  0.0199 -1.1022
    3CHTO   C89 1025   5.536   1.562   1.484 -0.1147 -0.0768  0.3566
    3CHTO   O59 1026   5.655   1.639   1.458 -0.0964 -0.0182 -0.1988
    3CHTO  H137 1027   5.660   1.725   1.495  1.2273 -0.4465  0.6630
    3CHTO   O45 1028   5.601   1.579   1.973 -0.4943 -0.6899  0.1291
    3CHTO   C67 1029   5.727   1.648   1.992 -0.0659  0.1513  0.4119
    3CHTO  H124 1030   5.806   1.579   1.961 -0.4461 -0.0291 -0.1829
    3CHTO   C65 1031   5.739   1.784   1.903 -0.9561  0.6250  0.3798
    3CHTO  H122 1032   5.639   1.812   1.870 -0.6316  2.0418  0.5757
    3CHTO   O44 1033   5.798   1.737   1.780 -0.4960  0.1521 -0.5883
    3CHTO  H102 1034   5.738   1.673   1.748 -0.0840  0.7301 -2.5619
    3CHTO   C63 1035   5.794   1.907   1.981 -0.4262  0.2962 -0.2924
    3CHTO  H120 1036   5.716   1.940   2.050  0.5576  0.1847  0.8739
    3CHTO   N11 1037   5.826   2.034   1.906 -0.2592  0.5701 -0.1178
    3CHTO  H108 1038   5.754   2.055   1.830 -1.6024 -1.5759  0.5142
    3CHTO  H109 1039   5.918   2.001   1.862 -0.9089 -1.2603 -0.1720
    3CHTO   C61 1040   5.912   1.861   2.080  0.7887 -0.1376  0.2258
    3CHTO  H118 1041   5.945   1.949   2.137  1.3999 -0.1095 -0.1601
    3CHTO   O40 1042   5.869   1.758   2.175  0.3076  0.4371  0.3970
    3CHTO   C68 1043   5.746   1.682   2.148  0.2422 -0.0614  0.6904
    3CHTO  H125 1044   5.658   1.743   2.174  0.4008 -0.1628  1.4694
    3CHTO   C72 1045   5.746   1.561   2.239 -0.6235 -0.0249 -0.2439
    3CHTO   O48 1046   5.715   1.580   2.380  0.4456  0.4353  0.2456
    3CHTO  H105 1047   5.623   1.566   2.389  0.6152 -0.4433  0.6637
    3CHTO   O38 1048   6.029   1.807   2.008 -0.0245  0.3560 -0.5860
    3CHTO   C55 1049   6.151   1.788   2.080 -0.3515  0.0135 -0.0298
    3CHTO  H112 1050   6.118   1.790   2.185  0.6129  2.6467  0.2575
    3CHTO   C56 1051   6.245   1.902   2.051  0.4135  0.1038  0.6709
    3CHTO  H113 1052   6.241   1.914   1.942  0.1494 -1.8517  0.4442
    3CHTO   O42 1053   6.188   2.019   2.109  0.6868  0.0603 -0.4227
    3CHTO  H100 1054   6.195   2.090   2.048 -1.7749  0.7230 -0.0111
    3CHTO   C57 1055   6.393   1.881   2.096 -0.1497 -0.2797 -0.6112
    3CHTO  H114 1056   6.398   1.902   2.202 -1.2434  0.1286 -0.6352
    3CHTO   N10 1057   6.498   1.950   2.018 -0.1237 -0.2128 -0.1823
    3CHTO  H106 1058   6.506   2.051   2.056 -0.0487  0.0254 -0.8360
    3CHTO  H107 1059   6.593   1.899   2.027 -0.2254 -0.3940 -0.1365
    3CHTO   C58 1060   6.427   1.729   2.079 -1.1027 -0.2767 -0.4273
    3CHTO  H115 1061   6.445   1.703   1.972  2.2274  2.7618 -0.6996
    3CHTO   O37 1062   6.328   1.639   2.126  0.3157 -0.2587 -0.0131
    3CHTO   C59 1063   6.208   1.642   2.047 -0.0232  0.6995 -0.6133
    3CHTO  H116 1064   6.235   1.630   1.942 -1.0186  0.3637 -0.8304
    3CHTO   C70 1065   6.134   1.528   2.108 -0.2570 -0.6034 -0.4778
    3CHTO   O46 1066   6.018   1.492   2.039  0.7491 -0.2635  0.0934
    3CHTO  H103 1067   5.937   1.530   2.066 -0.9746 -1.5996 -2.8772
    3CHTO   O39 1068   6.553   1.680   2.164  0.4655  0.7368 -0.1408
    3CHTO   C60 1069   6.661   1.619   2.095  0.5712  0.7291  1.0447
    3CHTO  H117 1070   6.644   1.613   1.987  0.6767  1.1297  1.0055
    3CHTO   C62 1071   6.787   1.704   2.127 -0.6339  0.3250  0.2366
    3CHTO  H119 1072   6.772   1.813   2.113  0.3824  0.4770  0.2677
    3CHTO   O43 1073   6.818   1.704   2.267 -0.4276  0.3588  0.2224
    3CHTO  H101 1074   6.896   1.751   2.289 -0.7388  0.3387  1.4288
    3CHTO   C66 1075   6.910   1.654   2.039  0.2205  0.2359 -0.6176
    3CHTO  H123 1076   6.881   1.664   1.935 -0.5751 -0.2699 -0.4517
    3CHTO   N12 1077   7.033   1.734   2.057 -0.1546 -0.5832  0.3061
    3CHTO  H110 1078   7.017   1.840   2.048  1.3088 -0.3225  0.5814
    3CHTO  H111 1079   7.069   1.708   2.155 -2.2149  1.4711  1.6390
    3CHTO   C69 1080   6.946   1.502   2.061  0.4803 -0.7256 -1.3952
    3CHTO  H126 1081   6.997   1.481   2.157 -0.8360  1.5560 -0.1720
    3CHTO   O41 1082   6.810   1.419   2.044  0.0459 -0.0304 -1.3486
    3CHTO   C64 1083   6.692   1.471   2.141  0.0883 -0.2170  0.2892
    3CHTO  H121 1084   6.737   1.460   2.242 -1.7706 -1.3248  1.0091
    3CHTO   C71 1085   6.574   1.372   2.129 -0.1370 -0.6487 -0.2823
    3CHTO   O47 1086   6.489   1.389   2.016  0.0406  0.1120 -0.3071
    3CHTO  H104 1087   6.499   1.473   1.974 -1.2688  0.5412  0.2018
    3CHTO   O34 1088   7.035   1.455   1.963 -0.0605 -0.1545 -0.7645
    3CHTO   C49 1089   7.134   1.349   1.962 -0.2391  0.3174 -0.7478
    3CHTO   H91 1090   7.148   1.316   2.065 -1.5402  1.0433 -0.3296
    3CHTO   C47 1091   7.272   1.397   1.911 -0.6514  0.2631 -0.6881
    3CHTO   H89 1092   7.344   1.319   1.943 -1.4773  0.5358  1.9235
    3CHTO   O33 1093   7.307   1.516   1.994  0.0339 -0.2860 -0.3986
    3CHTO   H70 1094   7.360   1.494   2.068  0.0837 -1.9692 -0.9117
    3CHTO   C45 1095   7.265   1.417   1.752  0.0530  0.1600  0.0341
    3CHTO   H87 1096   7.186   1.491   1.733  0.0545  1.1171  3.4380
    3CHTO    N8 1097   7.399   1.467   1.704  0.4960  0.6468  0.5466
    3CHTO   H75 1098   7.440   1.556   1.749  2.6236 -0.1475  0.2383
    3CHTO   H76 1099   7.474   1.390   1.691  0.2172  0.2861  1.0388
    3CHTO   C43 1100   7.209   1.283   1.673  0.1172  0.1075  0.0766
    3CHTO   H85 1101   7.196   1.309   1.568  2.2824 -1.4393 -0.6278
    3CHTO   O29 1102   7.095   1.220   1.740 -0.0750 -1.1746  0.2213
    3CHTO   C50 1103   7.092   1.216   1.887  0.0218 -0.1258  0.6997
    3CHTO   H92 1104   6.987   1.208   1.919  0.4768  1.7597  2.7406
    3CHTO   C54 1105   7.159   1.090   1.944  0.4826  0.8382 -0.6533
    3CHTO   O36 1106   7.082   0.979   1.902 -0.2462 -0.1387  0.2440
    3CHTO   H72 1107   7.102   0.959   1.813 -2.0571  0.8697 -0.4341
    3CHTO   O27 1108   7.312   1.180   1.668  0.4186  0.2168 -0.1831
    3CHTO   C37 1109   7.349   1.063   1.594  0.5877  0.0618  1.2661
    3CHTO   H79 1110   7.457   1.046   1.613  1.2875 -0.6779 -2.9039
    3CHTO   C38 1111   7.290   0.925   1.635  0.2167  0.3564  0.0587
    3CHTO   H80 1112   7.182   0.932   1.658  0.3948 -1.0531  1.4661
    3CHTO   O31 1113   7.359   0.891   1.759 -0.4314  0.4801 -0.4710
    3CHTO   H68 1114   7.344   0.965   1.815  1.1243 -0.9715  1.9403
    3CHTO   C39 1115   7.312   0.817   1.530  0.5359  0.0362  0.5402
    3CHTO   H81 1116   7.416   0.788   1.538  0.3067 -1.5775 -1.7530
    3CHTO    N7 1117   7.245   0.683   1.554  0.0652 -0.5731 -0.3445
    3CHTO   H73 1118   7.159   0.672   1.489 -0.7050  1.8856  0.2136
    3CHTO   H74 1119   7.209   0.672   1.655  0.0025 -2.5876 -0.5564
    3CHTO   C40 1120   7.276   0.874   1.386  0.2460 -0.0332 -0.6926
    3CHTO   H82 1121   7.170   0.899   1.378 -0.2825 -1.2913  1.7881
    3CHTO   O26 1122   7.366   0.985   1.353 -0.3025 -0.0940  0.0277
    3CHTO   C41 1123   7.333   1.092   1.439 -0.1933 -0.2927 -0.5387
    3CHTO   H83 1124   7.225   1.113   1.430  0.1153  1.8103  0.3342
    3CHTO   C52 1125   7.405   1.224   1.395  0.5288  0.1677  0.5383
    3CHTO   O35 1126   7.547   1.227   1.466 -0.2053  0.4897  0.4256
    3CHTO   H71 1127   7.604   1.283   1.416  0.1012 -1.0897 -1.0341
    3CHTO   O28 1128   7.313   0.780   1.282 -0.2681  0.2928 -0.0311
    3CHTO   C42 1129   7.276   0.798   1.142 -0.1888  0.6784  0.0658
    3CHTO   H84 1130   7.346   0.737   1.084  0.4126  0.2453  1.2402
    3CHTO   C44 1131   7.284   0.947   1.090 -0.4287  0.8788  0.0717
    3CHTO   H86 1132   7.217   1.004   1.155 -0.8183 -1.1595  1.5025
    3CHTO   O32 1133   7.422   0.983   1.095  0.5043  0.1395 -0.4109
    3CHTO   H69 1134   7.424   1.076   1.083 -4.1864  0.7175  1.9602
    3CHTO   C48 1135   7.232   0.952   0.944  0.5859 -0.8364 -0.0176
    3CHTO   H90 1136   7.316   0.903   0.894  1.4541  1.5806 -0.9942
    3CHTO    N9 1137   7.230   1.091   0.886 -0.7695  0.3989  0.2349
    3CHTO   H77 1138   7.160   1.096   0.804  1.2397 -1.1434 -1.6414
    3CHTO   H78 1139   7.204   1.170   0.954 -0.5096  1.1804 -0.5545
    3CHTO   C51 1140   7.090   0.885   0.922 -0.2304 -0.0560  1.1927
    3CHTO   H93 1141   7.023   0.948   0.980 -1.3045 -1.3404  1.3821
    3CHTO   O30 1142   7.100   0.750   0.972  0.1556 -0.4173 -0.3386
    3CHTO   C46 1143   7.132   0.734   1.112  0.0230  0.1896 -0.8092
    3CHTO   H88 1144   7.055   0.774   1.177  0.7644  1.3558 -0.6237
    3CHTO   C53 1145   7.118   0.580   1.137  0.2490 -0.3056  0.2668
    3CHTO   O72 1146   6.984   0.534   1.148  0.1631  0.0652  0.4422
    3CHTO  H199 1147   6.931   0.570   1.080  0.1149 -0.6166  0.1094
    3CHTO   O22 1148   7.055   0.870   0.789 -0.2324  0.4110  0.5481
    3CHTO   C31 1149   6.911   0.862   0.748  0.2514  0.0853  0.6139
    3CHTO   H59 1150   6.912   0.825   0.643  1.1382  1.1698  0.2233
    3CHTO   C29 1151   6.832   0.765   0.833  0.2056  0.2626 -0.1080
    3CHTO   H57 1152   6.844   0.786   0.940 -3.1633 -4.0958  1.2782
    3CHTO   O21 1153   6.884   0.632   0.816 -0.5192 -0.1543  0.1044
    3CHTO   H37 1154   6.816   0.569   0.832 -1.4165  0.6898 -0.3493
    3CHTO   C27 1155   6.680   0.781   0.787 -0.3486 -0.0093  0.1630
    3CHTO   H55 1156   6.662   0.734   0.689  0.5733  1.7190 -0.8512
    3CHTO    N5 1157   6.592   0.705   0.883 -0.9067  0.0403  0.1121
    3CHTO   H43 1158   6.528   0.772   0.939 -2.2535  1.4774 -2.9562
    3CHTO   H44 1159   6.539   0.628   0.829 -0.0936  0.9133 -1.9942
    3CHTO   C25 1160   6.629   0.928   0.794 -0.2468 -1.4255 -0.2122
    3CHTO   H53 1161   6.633   0.964   0.898  1.1510 -0.8322 -0.4620
    3CHTO   O17 1162   6.712   1.013   0.713  0.3159  0.2815 -0.5715
    3CHTO   C32 1163   6.851   1.011   0.748  0.4833 -0.4377 -0.2258
    3CHTO   H60 1164   6.867   1.053   0.848 -2.7856 -0.1997  0.2456
    3CHTO   C36 1165   6.934   1.099   0.658 -0.2895  0.3500  0.4690
    3CHTO   O25 1166   6.914   1.064   0.520 -0.1436 -0.3680 -0.0068
    3CHTO   H40 1167   6.977   1.101   0.461  1.7997 -0.4661  1.9445
    3CHTO   O15 1168   6.463   0.964   0.740 -0.4230  0.4117  0.1893
    3CHTO   C19 1169   6.378   1.073   0.739 -0.3041 -0.6809  0.2619
    3CHTO   H47 1170   6.305   1.047   0.661 -0.6758 -1.8850  1.0050
    3CHTO   C20 1171   6.317   1.092   0.883  0.0206  0.3794  0.9822
    3CHTO   H48 1172   6.393   1.096   0.962  0.9025  1.0575  0.1053
    3CHTO   O19 1173   6.243   0.969   0.904 -0.4255  0.2660 -0.0896
    3CHTO   H35 1174   6.186   0.975   0.978 -1.2330  2.0526 -0.8272
    3CHTO   C21 1175   6.220   1.210   0.879  0.1125 -0.1365 -0.3299
    3CHTO   H49 1176   6.133   1.177   0.821 -0.7256 -0.6834  1.2095
    3CHTO    N4 1177   6.157   1.237   1.013 -0.5205 -0.2922 -0.0449
    3CHTO   H41 1178   6.189   1.162   1.084 -0.9112  0.5565  1.0327
    3CHTO   H42 1179   6.049   1.230   1.005 -0.4846 -2.4104  0.8955
    3CHTO   C22 1180   6.276   1.340   0.811  0.4764 -0.1995 -0.3540
    3CHTO   H50 1181   6.356   1.391   0.866  0.2355  1.3465 -1.4052
    3CHTO   O14 1182   6.333   1.304   0.683  0.6065 -0.2209 -0.1096
    3CHTO   C23 1183   6.440   1.205   0.693  0.1494  0.4450 -0.9870
    3CHTO   H51 1184   6.514   1.244   0.763  1.0149  0.8193 -2.0965
    3CHTO   C34 1185   6.492   1.195   0.547 -0.2477  0.2340 -0.9778
    3CHTO   O23 1186   6.572   1.314   0.524  0.1961  0.3256 -0.0010
    3CHTO   H38 1187   6.527   1.383   0.569 -0.2134  0.1203 -0.0975
    3CHTO   O16 1188   6.171   1.436   0.787 -0.6289 -0.5304  0.1052
    3CHTO   C24 1189   6.226   1.588   0.768 -0.3459  0.3441  0.2202
    3CHTO   H52 1190   6.334   1.595   0.785 -0.1991  0.2619 -0.6736
    3CHTO   C26 1191   6.164   1.686   0.866 -1.0061  0.3060  0.0494
    3CHTO   H54 1192   6.056   1.681   0.842 -0.6327 -0.5132 -1.5304
    3CHTO   O20 1193   6.191   1.627   0.996  0.0630  0.4728 -0.2362
    3CHTO   H36 1194   6.274   1.584   1.004  0.2851  0.6618 -1.4488
    3CHTO   C30 1195   6.225   1.829   0.858 -0.1821  0.4074 -0.2019
    3CHTO   H58 1196   6.326   1.829   0.901  0.8021  1.2812 -2.4253
    3CHTO    N6 1197   6.157   1.929   0.945  0.4771 -0.1692  0.8524
    3CHTO   H45 1198   6.097   2.003   0.893  1.3258 -0.2181 -0.2097
    3CHTO   H46 1199   6.106   1.878   1.025 -0.9221 -2.2098 -1.2635
    3CHTO   C33 1200   6.228   1.878   0.711  0.4374  0.2288  0.1209
    3CHTO   H61 1201   6.137   1.932   0.681 -0.1268 -0.3719  0.7152
    3CHTO   O18 1202   6.244   1.771   0.614 -0.0059 -0.1722  0.6277
    3CHTO   C28 1203   6.188   1.637   0.624  0.6507 -0.2620 -0.6562
    3CHTO   H56 1204   6.079   1.636   0.614  0.5991 -0.1464 -0.1185
    3CHTO   C35 1205   6.253   1.551   0.515 -0.4834  0.4084 -0.1303
    3CHTO   O24 1206   6.238   1.593   0.374  0.0992 -0.4913  0.1426
    3CHTO   H39 1207   6.149   1.585   0.343  0.4277 -2.5187 -0.3986
    3CHTO    O9 1208   6.335   1.973   0.699 -0.2293 -0.9783 -0.0125
    3CHTO   C13 1209   6.309   2.071   0.599  0.6220  0.0012 -0.1595
    3CHTO   H26 1210   6.206   2.105   0.617  1.1451  1.0891  0.8106
    3CHTO   C11 1211   6.329   2.018   0.448 -0.2457 -0.1762  0.8879
    3CHTO   H24 1212   6.236   1.970   0.418  0.2801 -0.9943  0.5532
    3CHTO    O8 1213   6.440   1.913   0.443 -0.0281 -0.7984  0.3527
    3CHTO    H3 1214   6.429   1.833   0.490 -1.1573  0.1924  1.8260
    3CHTO    C9 1215   6.351   2.141   0.356 -0.5935  0.1188 -0.0100
    3CHTO   H22 1216   6.267   2.209   0.376  0.6016  1.9121 -0.9617
    3CHTO    N2 1217   6.337   2.115   0.209 -0.5260  0.1168 -0.1406
    3CHTO   H10 1218   6.409   2.040   0.179 -0.9406 -0.0467 -0.7357
    3CHTO   H11 1219   6.357   2.211   0.164  1.8681 -0.6164 -0.7236
    3CHTO    C7 1220   6.493   2.206   0.397 -0.5812  0.0171  0.1419
    3CHTO   H20 1221   6.476   2.314   0.375  0.8189  0.1595 -0.2676
    3CHTO    O4 1222   6.520   2.200   0.534 -0.1689  0.0163 -0.7643
    3CHTO   C14 1223   6.402   2.198   0.620 -0.8369  0.2255  0.2278
    3CHTO   H27 1224   6.339   2.288   0.601 -1.7391 -0.0361  1.8396
    3CHTO   C18 1225   6.452   2.214   0.767  0.2092  0.1230  0.2703
    3CHTO   O13 1226   6.339   2.226   0.856 -0.0890  0.2704  0.2840
    3CHTO    H7 1227   6.297   2.143   0.850  0.4241  0.1023 -1.1795
    3CHTO    O2 1228   6.610   2.147   0.322 -0.6425  0.3065 -0.0382
    3CHTO    C1 1229   6.710   2.240   0.289 -0.6058 -0.4003  0.1765
    3CHTO   H14 1230   6.692   2.333   0.346  0.9661  1.0303 -1.5895
    3CHTO    C2 1231   6.717   2.279   0.133  0.3159  0.4209 -0.4010
    3CHTO   H15 1232   6.727   2.188   0.072  0.4244 -0.2703  0.6396
    3CHTO    O6 1233   6.591   2.331   0.101 -0.2445 -0.2664  0.2668
    3CHTO    H1 1234   6.598   2.374   0.017 -1.8152  0.6993  0.6093
    3CHTO    C3 1235   6.838   2.373   0.101  0.5997  0.7476 -0.8627
    3CHTO   H16 1236   6.817   2.463   0.159 -1.8987 -0.0370 -0.4991
    3CHTO    N1 1237   6.855   2.415  -0.046 -0.4428  0.0184 -0.0686
    3CHTO    H8 1238   6.877   2.332  -0.111  0.9925 -0.7531  1.3776
    3CHTO    H9 1239   6.759   2.453  -0.079 -0.4645  1.5183  1.6684
    3CHTO    C4 1240   6.969   2.311   0.158 -0.4505  0.4540  0.8119
    3CHTO   H17 1241   7.005   2.224   0.102  1.2946  0.9134  1.1877
    3CHTO    O1 1242   6.948   2.280   0.298 -0.5152 -0.1819  0.1583
    3CHTO    C5 1243   6.845   2.181   0.325 -0.3107  0.2872  0.0528
    3CHTO   H18 1244   6.867   2.087   0.274  1.0696  1.5730 -1.7632
    3CHTO   C16 1245   6.848   2.150   0.473 -0.4031 -0.3210  0.0273
    3CHTO   O11 1246   6.842   2.012   0.507  0.7825 -0.2707 -0.1744
    3CHTO    H5 1247   6.871   2.002   0.596  1.0744 -2.1452 -0.4488
    3CHTO    O3 1248   7.082   2.407   0.153  0.4260 -0.1924 -0.7736
    3CHTO    C6 1249   7.212   2.335   0.174  0.2065 -0.2288  0.5355
    3CHTO   H19 1250   7.191   2.230   0.193 -1.4220 -0.3117 -1.5402
    3CHTO    C8 1251   7.298   2.360   0.044 -0.1361 -0.2517 -0.0016
    3CHTO   H21 1252   7.320   2.465   0.027 -1.6406 -0.1029 -1.1906
    3CHTO    O7 1253   7.225   2.304  -0.069  0.8903  0.0585  0.3084
    3CHTO    H2 1254   7.152   2.360  -0.090  0.7057 -0.5246 -0.6027
    3CHTO   C12 1255   7.437   2.298   0.063  0.1644 -0.6350 -0.2923
    3CHTO   H25 1256   7.420   2.188   0.060 -2.1950 -0.2700 -1.2645
    3CHTO    N3 1257   7.527   2.318  -0.055  0.1746 -0.2125  0.0044
    3CHTO   H12 1258   7.624   2.272  -0.039  0.0395  0.0336  1.6070
    3CHTO   H13 1259   7.544   2.425  -0.054  1.3446 -0.3894  0.4625
    3CHTO   C15 1260   7.495   2.338   0.205  0.0572  0.0303 -0.3288
    3CHTO   H28 1261   7.513   2.444   0.221 -1.1331  0.0001  1.3530
    3CHTO   O10 1262   7.610   2.251   0.256  0.0398 -0.5982  0.1627
    3CHTO    H4 1263   7.687   2.296   0.227 -0.5804  1.3155  1.3731
    3CHTO    O5 1264   7.395   2.309   0.308 -0.1619  0.0279 -0.2464
    3CHTO   C10 1265   7.279   2.395   0.296 -0.0545  0.8028  0.8206
    3CHTO   H23 1266   7.303   2.498   0.272 -0.0815  0.2266 -1.8443
    3CHTO   C17 1267   7.220   2.382   0.429 -0.6312  0.3121 -0.1877
    3CHTO   O12 1268   7.110   2.475   0.452  0.0722 -0.2387 -0.0084
    3CHTO    H6 1269   7.104   2.484   0.545 -0.2602  0.8761 -0.1295
    4CHTO  H203 1270   6.663   6.973   1.873  0.0645  1.0972 -0.1651
    4CHTO   O82 1271   6.738   6.943   1.825 -0.1937 -0.8153  0.5932
    4CHTO  C123 1272   6.843   7.044   1.823 -0.0529 -0.2369 -0.4712
    4CHTO  H227 1273   6.847   7.091   1.922  1.1903  1.3989 -1.2827
    4CHTO   O77 1274   6.975   6.977   1.792 -0.3080 -0.0359  0.6344
    4CHTO  C118 1275   7.081   7.075   1.794  0.5142 -0.3080  0.0313
    4CHTO  H222 1276   7.063   7.135   1.885 -1.8598  1.4188 -1.5167
    4CHTO  C125 1277   7.221   7.005   1.794 -0.3659 -0.2063  0.0109
    4CHTO   O84 1278   7.225   6.904   1.893 -0.0304 -0.0534  0.2769
    4CHTO  H205 1279   7.148   6.852   1.887 -1.6355  2.1346  1.0342
    4CHTO  C114 1280   7.068   7.167   1.677 -0.1798  0.0635  0.4666
    4CHTO  H218 1281   7.076   7.109   1.585 -0.0481 -0.3364  0.7291
    4CHTO  C116 1282   6.931   7.243   1.689  0.1468 -0.0504  0.0381
    4CHTO  H220 1283   6.935   7.309   1.778  0.3862  0.0785 -0.0647
    4CHTO   O79 1284   6.926   7.333   1.577  0.5532  0.2961  0.2882
    4CHTO  H201 1285   7.007   7.379   1.572 -0.2344  1.6601 -0.2460
    4CHTO  C120 1286   6.813   7.152   1.715 -0.0633 -0.1736 -0.4153
    4CHTO  H224 1287   6.802   7.098   1.619 -0.5271 -0.7325 -0.0511
    4CHTO   N21 1288   6.691   7.234   1.738 -0.9828  0.0652 -0.1606
    4CHTO  H211 1289   6.617   7.191   1.803  0.9787 -2.0322  0.7637
    4CHTO  H212 1290   6.640   7.259   1.645  0.0845  1.4169 -0.3931
    4CHTO   O75 1291   7.180   7.262   1.672  0.3492 -0.6286 -0.0176
    4CHTO  C112 1292   7.227   7.312   1.514  0.4275 -0.5243 -0.3454
    4CHTO  H216 1293   7.136   7.347   1.464 -0.7214 -1.4868  1.0163
    4CHTO   O73 1294   7.285   7.196   1.449 -0.3604  0.0432 -0.8688
    4CHTO  C113 1295   7.334   7.221   1.318 -0.3617 -0.2377  0.1543
    4CHTO  H217 1296   7.249   7.254   1.255  2.0100  1.7314 -2.1096
    4CHTO  C124 1297   7.389   7.089   1.263  0.0624  0.2832  0.5028
    4CHTO   O83 1298   7.282   7.013   1.211  0.1271  0.2336 -1.0560
    4CHTO  H204 1299   7.303   6.925   1.187 -0.0995  0.7538 -3.3174
    4CHTO  C109 1300   7.441   7.338   1.317  0.5901 -0.1654  0.0314
    4CHTO  H213 1301   7.520   7.306   1.385  2.9622 -1.9290 -3.4241
    4CHTO  C110 1302   7.378   7.472   1.389 -1.0763 -0.7739  0.3168
    4CHTO  H214 1303   7.298   7.499   1.321 -0.7312  0.9761  0.6016
    4CHTO   O78 1304   7.474   7.576   1.405  0.0012  0.0378  0.0263
    4CHTO  H200 1305   7.432   7.659   1.399 -0.6230 -0.3365 -0.7996
    4CHTO  C111 1306   7.319   7.435   1.525  0.9263  0.5161  0.0710
    4CHTO  H215 1307   7.402   7.411   1.594 -0.9054  1.0379  2.5113
    4CHTO   N19 1308   7.248   7.550   1.592 -0.0126 -0.1097  0.0960
    4CHTO  H207 1309   7.258   7.543   1.699 -0.3815 -0.5532  0.1009
    4CHTO  H208 1310   7.292   7.642   1.556 -1.7415  0.8728  0.4282
    4CHTO   O74 1311   7.504   7.349   1.185  0.6123  0.4718  0.3177
    4CHTO  C115 1312   7.636   7.427   1.182  0.4060  0.5992 -0.1722
    4CHTO  H219 1313   7.637   7.501   1.262 -4.1407  0.6032  0.0522
    4CHTO   O76 1314   7.763   7.330   1.191 -0.6284  0.2925  0.2301
    4CHTO  C122 1315   7.747   7.226   1.094 -0.0967 -0.4534  0.0092
    4CHTO  H226 1316   7.666   7.157   1.116  1.5941 -2.0391  1.4385
    4CHTO  C126 1317   7.877   7.135   1.103 -0.3326 -0.1726  0.7165
    4CHTO   O85 1318   7.882   7.026   1.011  0.1944 -0.5278 -0.4692
    4CHTO  H206 1319   7.898   7.062   0.925 -2.3129 -1.4119 -1.3655
    4CHTO  C121 1320   7.733   7.285   0.950  0.4933 -0.6879 -0.0657
    4CHTO  H225 1321   7.819   7.248   0.891 -0.4850 -0.8743 -1.4220
    4CHTO   O81 1322   7.606   7.242   0.902  0.1119 -0.2619  0.0718
    4CHTO  H202 1323   7.540   7.302   0.930 -0.2185  0.3303 -1.8915
    4CHTO  C119 1324   7.730   7.445   0.939 -0.1104  0.0543  0.4434
    4CHTO  H223 1325   7.834   7.471   0.960 -0.2604  0.2448  0.9686
    4CHTO  C117 1326   7.627   7.504   1.048  0.5288 -0.4558  0.6109
    4CHTO  H221 1327   7.526   7.512   1.007  0.7971  0.8691  0.1909
    4CHTO   N20 1328   7.663   7.654   1.069  0.5021  0.3418 -0.0945
    4CHTO  H209 1329   7.681   7.669   1.175 -1.0809  1.2294  0.0553
    4CHTO  H210 1330   7.740   7.701   1.010  0.2311  0.4995 -0.3248
    4CHTO   O80 1331   7.704   7.495   0.767 -0.0799 -0.4669  0.2179
    4CHTO  C103 1332   7.830   7.562   0.684  0.0666  0.3467 -0.0795
    4CHTO  H190 1333   7.876   7.630   0.755 -1.0406 -1.6158  2.5998
    4CHTO  C101 1334   7.938   7.453   0.637 -0.6442  0.1208  0.2133
    4CHTO  H188 1335   7.888   7.376   0.578 -1.3758 -0.6635  1.8466
    4CHTO   O68 1336   8.010   7.380   0.749  0.0750  0.9507  0.7978
    4CHTO  H168 1337   7.995   7.414   0.835  1.2477 -1.9059  2.2212
    4CHTO   C99 1338   8.035   7.509   0.525  0.3543  0.7558  0.4300
    4CHTO  H186 1339   8.097   7.583   0.579 -0.4923  2.0339 -0.3044
    4CHTO   N17 1340   8.143   7.413   0.457 -0.1448 -0.0023  0.0730
    4CHTO  H174 1341   8.143   7.316   0.506 -0.6699 -0.1795 -0.2754
    4CHTO  H175 1342   8.242   7.455   0.450 -1.1901  2.4648 -0.2837
    4CHTO   C97 1343   7.963   7.596   0.413 -0.2906  0.1812  0.2420
    4CHTO  H184 1344   7.911   7.532   0.341  0.5179  0.5648 -0.6983
    4CHTO   O64 1345   7.877   7.696   0.467  0.2250 -0.7779  0.0826
    4CHTO  C104 1346   7.774   7.646   0.559 -0.6203  0.5760  0.5227
    4CHTO  H191 1347   7.699   7.587   0.506  1.6517 -0.7134 -1.3651
    4CHTO  C108 1348   7.697   7.768   0.617  0.1186 -0.6262  0.4161
    4CHTO   O71 1349   7.572   7.720   0.668 -0.4710 -0.5761  0.1117
    4CHTO  H171 1350   7.557   7.742   0.758  3.2479  0.6511  0.5440
    4CHTO   O62 1351   8.061   7.680   0.342 -0.1977  0.1607  0.4429
    4CHTO   C91 1352   8.025   7.727   0.212  0.6552 -0.1480  0.2328
    4CHTO  H178 1353   7.916   7.727   0.207  0.7110 -0.3058 -1.3471
    4CHTO   C92 1354   8.073   7.621   0.104  0.0899 -0.2559  0.0788
    4CHTO  H179 1355   8.182   7.620   0.110  0.2264 -1.4297 -2.3825
    4CHTO   O66 1356   8.032   7.489   0.143 -0.0131  0.2389  0.4063
    4CHTO  H166 1357   7.941   7.470   0.128 -0.1958  0.8281  0.7572
    4CHTO   C93 1358   8.018   7.663  -0.039 -0.6157  0.3200  0.4796
    4CHTO  H180 1359   7.910   7.644  -0.044 -0.4975 -0.2673  0.0733
    4CHTO   N16 1360   8.071   7.568  -0.142  0.1223  0.1729 -0.6290
    4CHTO  H172 1361   8.121   7.480  -0.105  0.0566  0.7300  0.8081
    4CHTO  H173 1362   8.000   7.544  -0.220  0.1076  1.5559 -1.0652
    4CHTO   C94 1363   8.048   7.815  -0.069 -0.4582 -0.1044  0.0776
    4CHTO  H181 1364   8.148   7.825  -0.109  0.5441  0.2172  2.5323
    4CHTO   O61 1365   8.044   7.909   0.036  0.4912 -0.1903  0.1820
    4CHTO   C95 1366   8.085   7.867   0.167 -0.2472 -0.4595 -0.5459
    4CHTO  H182 1367   8.194   7.864   0.173 -0.1425 -1.6229 -2.7178
    4CHTO  C106 1368   8.040   7.985   0.269  0.4763 -0.5888 -0.7816
    4CHTO   O69 1369   8.131   8.098   0.258 -0.1459 -0.7147 -0.5238
    4CHTO  H169 1370   8.082   8.178   0.262  0.6975 -0.2467  0.8123
    4CHTO   O63 1371   7.937   7.858  -0.177 -0.1004  0.3057 -0.0513
    4CHTO   C96 1372   7.795   7.886  -0.146  0.4681 -0.3651  0.1784
    4CHTO  H183 1373   7.762   7.862  -0.045  0.3348  0.4276  0.3306
    4CHTO   C98 1374   7.697   7.794  -0.221  0.1073  0.6322 -0.1513
    4CHTO  H185 1375   7.712   7.795  -0.330 -3.0016 -0.4982 -0.6371
    4CHTO   O67 1376   7.730   7.664  -0.182 -0.1781  0.7276  0.1232
    4CHTO  H167 1377   7.807   7.626  -0.222  0.1341 -1.5768  2.7901
    4CHTO  C102 1378   7.542   7.830  -0.190 -0.3020  0.1054 -0.1795
    4CHTO  H189 1379   7.519   7.782  -0.094  0.1476 -1.1745 -0.7029
    4CHTO   N18 1380   7.442   7.766  -0.280 -0.2055 -0.3431  0.0406
    4CHTO  H176 1381   7.353   7.755  -0.219  0.7235 -2.4940  1.0648
    4CHTO  H177 1382   7.422   7.831  -0.364  0.5954 -0.6196 -0.3687
    4CHTO  C105 1383   7.514   7.987  -0.180  0.0074 -0.4641 -0.2804
    4CHTO  H192 1384   7.471   8.016  -0.276 -1.5860 -0.1620  0.5059
    4CHTO   O65 1385   7.619   8.075  -0.141 -0.6819  0.0688 -0.3878
    4CHTO  C100 1386   7.754   8.038  -0.171  0.3758  0.1016  0.7554
    4CHTO  H187 1387   7.770   8.045  -0.280  3.3669  0.3131  1.1629
    4CHTO  C107 1388   7.841   8.139  -0.091  0.5608 -0.1619  0.7233
    4CHTO   O70 1389   7.840   8.109   0.052  0.7259  0.2304 -0.0441
    4CHTO  H170 1390   7.782   8.176   0.082  0.4284  1.2738 -2.7732
    4CHTO   O57 1391   7.408   7.992  -0.066  0.3199 -0.4098  0.0216
    4CHTO   C85 1392   7.299   8.090  -0.058 -0.0712  0.1625  0.2444
    4CHTO  H157 1393   7.265   8.082  -0.164  0.7699  0.1347 -0.0253
    4CHTO   C83 1394   7.352   8.233  -0.018  0.5341 -0.2313 -0.3561
    4CHTO  H155 1395   7.406   8.277  -0.103  0.3789  0.9173  0.1282
    4CHTO   O56 1396   7.445   8.225   0.088 -0.1709  0.2421  0.1137
    4CHTO  H135 1397   7.476   8.307   0.121  1.9959 -0.6613  0.4571
    4CHTO   C81 1398   7.234   8.330   0.016  0.2671  0.7058  0.8607
    4CHTO  H153 1399   7.174   8.346  -0.074 -0.8642  0.6600  1.6142
    4CHTO   N14 1400   7.267   8.470   0.051 -0.5046  0.2381  0.3209
    4CHTO  H141 1401   7.341   8.470   0.129  1.2702  0.9691 -1.3495
    4CHTO  H142 1402   7.183   8.526   0.085  0.0939  2.0301 -1.1033
    4CHTO   C79 1403   7.139   8.267   0.125  0.1237  0.5004  0.2068
    4CHTO  H151 1404   7.059   8.338   0.145 -0.1087  0.6668 -1.2574
    4CHTO   O52 1405   7.089   8.146   0.063 -1.2945 -0.6760  0.2213
    4CHTO   C86 1406   7.188   8.046   0.041 -0.1157 -0.0062  0.3751
    4CHTO  H158 1407   7.236   8.025   0.139  0.1600  0.8199  0.4201
    4CHTO   C90 1408   7.114   7.923  -0.006  0.1321 -0.6365 -0.2919
    4CHTO   O60 1409   7.045   7.867   0.105  0.3741  0.5241 -0.1960
    4CHTO  H138 1410   6.956   7.848   0.081  0.7562 -1.5193 -0.0400
    4CHTO   O50 1411   7.197   8.246   0.247 -0.3558 -0.4914  0.4923
    4CHTO   C73 1412   7.203   8.235   0.389  0.0033  0.6140 -0.4223
    4CHTO  H145 1413   7.152   8.322   0.432  1.1258  1.1279 -0.0985
    4CHTO   C74 1414   7.357   8.235   0.437 -1.0765  0.2711  0.1782
    4CHTO  H146 1415   7.404   8.322   0.387 -2.0492  0.9883  0.5012
    4CHTO   O54 1416   7.357   8.265   0.579  0.0547 -0.1007 -0.1802
    4CHTO  H133 1417   7.322   8.193   0.626  1.2891  0.1452  1.1749
    4CHTO   C75 1418   7.428   8.095   0.397 -0.0746  0.1049  0.4413
    4CHTO  H147 1419   7.424   8.078   0.288  1.7663  0.6888  0.2681
    4CHTO   N13 1420   7.572   8.089   0.425 -0.1397  0.0979 -0.0738
    4CHTO  H139 1421   7.602   8.097   0.529  0.7001 -0.7114 -0.2509
    4CHTO  H140 1422   7.626   8.169   0.377  2.4979 -2.9176 -2.2125
    4CHTO   C76 1423   7.342   7.975   0.459  0.1265 -0.3154 -0.0421
    4CHTO  H148 1424   7.325   8.001   0.563  0.6507  1.1047 -0.2885
    4CHTO   O49 1425   7.205   7.986   0.397  0.9223 -0.7066  0.5135
    4CHTO   C77 1426   7.133   8.102   0.438 -0.6267 -0.0705 -0.1596
    4CHTO  H149 1427   7.126   8.098   0.547 -1.1923  1.2427 -0.1398
    4CHTO   C88 1428   6.990   8.075   0.390 -0.4255  0.3776 -1.0268
    4CHTO   O58 1429   6.923   7.923   0.441  0.6325  0.1466 -0.6660
    4CHTO  H136 1430   6.915   7.918   0.534  0.2372  1.2755 -0.6373
    4CHTO   O51 1431   7.414   7.828   0.427  0.4818  0.4340  0.1206
    4CHTO   C78 1432   7.384   7.754   0.272 -0.3592 -0.5498 -0.0472
    4CHTO  H150 1433   7.356   7.836   0.203  0.5144  2.2499  2.7540
    4CHTO   C80 1434   7.274   7.649   0.279 -0.6308  0.0167 -0.4158
    4CHTO  H152 1435   7.292   7.578   0.362 -0.8173 -0.6979 -0.9770
    4CHTO   O55 1436   7.153   7.717   0.315 -0.4403 -0.5869 -0.7937
    4CHTO  H134 1437   7.097   7.660   0.363 -1.7282  1.2855 -0.0247
    4CHTO   C84 1438   7.266   7.570   0.149 -0.4245  0.1714  0.2244
    4CHTO  H156 1439   7.246   7.637   0.065 -0.2546  1.5992  1.3050
    4CHTO   N15 1440   7.150   7.471   0.143 -0.8303  0.1895 -0.0538
    4CHTO  H143 1441   7.146   7.426   0.240  1.2271  0.7420  0.2945
    4CHTO  H144 1442   7.155   7.398   0.064  1.1762  0.9599 -0.6654
    4CHTO   C87 1443   7.404   7.500   0.131 -0.1377 -0.0043 -0.1008
    4CHTO  H159 1444   7.425   7.443   0.221  0.6702 -0.0654 -0.3194
    4CHTO   O53 1445   7.501   7.609   0.122  0.3662 -0.1713  0.5168
    4CHTO   C82 1446   7.521   7.690   0.235 -0.1034 -0.1624 -0.0902
    4CHTO  H154 1447   7.569   7.628   0.311  0.2933 -1.4316 -1.3570
    4CHTO   C89 1448   7.627   7.793   0.188 -0.8185 -0.2904  0.1031
    4CHTO   O59 1449   7.715   7.836   0.287 -0.4171  0.1477 -0.0282
    4CHTO  H137 1450   7.787   7.777   0.300 -0.1711  0.1837 -1.1452
    4CHTO   O45 1451   7.427   7.412  -0.026 -0.1241  0.1035  0.1356
    4CHTO   C67 1452   7.567   7.386  -0.049 -0.1136  0.3012  0.1235
    4CHTO  H124 1453   7.619   7.482  -0.059  0.7018 -0.0500  0.9398
    4CHTO   C65 1454   7.639   7.309   0.061  0.3165  0.1328 -0.9080
    4CHTO  H122 1455   7.611   7.359   0.154 -0.9575  0.5916 -1.5280
    4CHTO   O44 1456   7.783   7.316   0.033 -0.1632  0.6473 -0.1245
    4CHTO  H102 1457   7.809   7.307  -0.057 -1.1360 -0.8143 -0.2769
    4CHTO   C63 1458   7.574   7.167   0.075  0.6877  0.1076  0.4742
    4CHTO  H120 1459   7.469   7.182   0.103  1.2625 -0.2720  2.8601
    4CHTO   N11 1460   7.625   7.104   0.203 -0.3012  0.6206  0.4811
    4CHTO  H108 1461   7.551   7.108   0.280 -1.3047  1.4980 -0.5140
    4CHTO  H109 1462   7.617   7.002   0.172  0.4036  0.8283 -0.3979
    4CHTO   C61 1463   7.563   7.089  -0.061 -0.2496 -0.8683 -0.1742
    4CHTO  H118 1464   7.475   7.023  -0.051  0.2581 -1.7397 -1.4879
    4CHTO   O40 1465   7.537   7.175  -0.176  0.3302 -0.0969  0.0052
    4CHTO   C68 1466   7.575   7.311  -0.193  0.4839  0.0421 -0.0189
    4CHTO  H125 1467   7.506   7.374  -0.254 -0.0719 -1.1981 -0.6777
    4CHTO   C72 1468   7.713   7.331  -0.245  0.1099 -0.2266  0.5010
    4CHTO   O48 1469   7.750   7.249  -0.360  0.4134  0.1613  0.2830
    4CHTO  H105 1470   7.776   7.162  -0.338 -0.7805 -0.7791 -1.9177
    4CHTO   O38 1471   7.677   7.006  -0.089 -0.1835  0.6941  0.4049
    4CHTO   C55 1472   7.646   6.874  -0.143 -0.0398  0.9156  0.4428
    4CHTO  H112 1473   7.548   6.871  -0.193 -0.1213  0.1501  0.6449
    4CHTO   C56 1474   7.651   6.767  -0.024  0.2405 -0.4469  0.1556
    4CHTO  H113 1475   7.745   6.783   0.032 -0.7725  1.4532  1.3512
    4CHTO   O42 1476   7.547   6.791   0.071  0.5320  0.6003 -0.3273
    4CHTO  H100 1477   7.559   6.740   0.149  0.7596  1.7360  0.3866
    4CHTO   C57 1478   7.645   6.615  -0.083 -0.5885 -0.1763  0.7361
    4CHTO  H114 1479   7.551   6.592  -0.133  0.2400 -2.4690  0.2188
    4CHTO   N10 1480   7.669   6.516   0.020 -0.2070 -0.6150  0.2180
    4CHTO  H106 1481   7.639   6.550   0.118  0.3066  0.1732  0.1023
    4CHTO  H107 1482   7.772   6.485   0.022 -0.1183 -0.2840  0.7849
    4CHTO   C58 1483   7.758   6.606  -0.186  0.2563 -1.0130  0.2772
    4CHTO  H115 1484   7.853   6.632  -0.134  0.0429 -0.8433  0.5859
    4CHTO   O37 1485   7.748   6.700  -0.296  0.0079  0.1367 -0.1489
    4CHTO   C59 1486   7.753   6.836  -0.246  0.3726  0.1900  0.3494
    4CHTO  H116 1487   7.854   6.851  -0.210  1.2367 -0.3000 -1.8057
    4CHTO   C70 1488   7.758   6.936  -0.366  0.0151 -0.7375 -1.2032
    4CHTO   O46 1489   7.851   6.897  -0.466 -0.1984 -0.5803 -0.2003
    4CHTO  H103 1490   7.862   6.964  -0.530 -1.2963 -0.3644 -0.1740
    4CHTO   O39 1491   7.770   6.463  -0.264 -0.0720 -0.4333 -0.3680
    4CHTO   C60 1492   7.648   6.409  -0.328 -0.0918 -0.4640  1.1101
    4CHTO  H117 1493   7.569   6.407  -0.253 -0.1459  2.2747  1.2023
    4CHTO   C62 1494   7.620   6.500  -0.453  0.3868  1.2208  0.8444
    4CHTO  H119 1495   7.594   6.605  -0.430  0.7317  1.9082 -1.7216
    4CHTO   O43 1496   7.744   6.504  -0.532  0.4288 -0.3842 -0.3947
    4CHTO  H101 1497   7.773   6.592  -0.548  3.2704 -1.1008  0.6669
    4CHTO   C66 1498   7.491   6.443  -0.529  0.3294 -0.0699  0.9234
    4CHTO  H123 1499   7.409   6.456  -0.458 -0.4153 -3.1509  0.6850
    4CHTO   N12 1500   7.442   6.533  -0.641 -0.0286 -0.3885  0.2306
    4CHTO  H110 1501   7.395   6.496  -0.732 -0.1459 -1.8693  0.8752
    4CHTO  H111 1502   7.507   6.616  -0.664 -1.2027  1.1180  2.1719
    4CHTO   C69 1503   7.513   6.297  -0.569 -0.1050  0.4053  0.5349
    4CHTO  H126 1504   7.602   6.285  -0.633 -1.2425 -0.4465 -0.9188
    4CHTO   O41 1505   7.543   6.212  -0.438 -0.0281 -0.4114  0.5352
    4CHTO   C64 1506   7.678   6.263  -0.370 -0.1412  0.0409 -0.3918
    4CHTO  H121 1507   7.772   6.273  -0.428  0.2392 -0.9125  0.0605
    4CHTO   C71 1508   7.695   6.171  -0.244 -0.4633 -0.1492  0.2312
    4CHTO   O47 1509   7.721   6.033  -0.274  0.2830  0.3281 -0.2735
    4CHTO  H104 1510   7.807   6.031  -0.311  0.4528  0.0505  0.1321
    4CHTO   O34 1511   7.388   6.237  -0.650  0.1937  0.6362  0.1621
    4CHTO   C49 1512   7.431   6.161  -0.788 -0.7863  0.0796  0.4893
    4CHTO   H91 1513   7.502   6.219  -0.847 -2.5909  1.1627 -0.6392
    4CHTO   C47 1514   7.307   6.122  -0.878  0.1732 -0.6333  0.0369
    4CHTO   H89 1515   7.347   6.069  -0.967  1.0017 -0.9297  0.5896
    4CHTO   O33 1516   7.246   6.244  -0.925 -0.4385 -0.4659  0.3879
    4CHTO   H70 1517   7.301   6.320  -0.929 -3.9462  2.1963  0.0263
    4CHTO   C45 1518   7.205   6.034  -0.788  0.5918  0.0576  0.1393
    4CHTO   H87 1519   7.196   6.087  -0.692 -1.1882 -0.0512  0.0375
    4CHTO    N8 1520   7.071   6.018  -0.845 -0.0964  0.5102 -0.1158
    4CHTO   H75 1521   7.020   6.112  -0.831  1.9538  2.0023 -2.3277
    4CHTO   H76 1522   7.075   5.997  -0.951  0.1047 -1.1158  0.2022
    4CHTO   C43 1523   7.274   5.898  -0.748  0.7377 -0.1026  0.2176
    4CHTO   H85 1524   7.203   5.860  -0.675 -0.3647  0.8042 -0.3698
    4CHTO   O29 1525   7.401   5.928  -0.690  0.7434 -0.0597 -0.3846
    4CHTO   C50 1526   7.497   6.021  -0.744  0.7358 -0.2869 -0.5158
    4CHTO   H92 1527   7.567   6.050  -0.664  1.3660 -1.6611 -0.5529
    4CHTO   C54 1528   7.585   5.975  -0.858 -0.0849 -0.5880 -0.1972
    4CHTO   O36 1529   7.523   5.895  -0.959  0.4769 -0.0972  0.0971
    4CHTO   H72 1530   7.576   5.824  -0.988 -1.9041 -1.7336 -0.3908
    4CHTO   O27 1531   7.285   5.796  -0.851  0.1611 -0.5738 -0.1730
    4CHTO   C37 1532   7.282   5.653  -0.839 -0.3201  0.4067  0.5790
    4CHTO   H79 1533   7.286   5.613  -0.941 -0.8326 -0.8718  1.0583
    4CHTO   C38 1534   7.396   5.593  -0.751 -0.2882  0.7105  0.5163
    4CHTO   H80 1535   7.385   5.626  -0.646 -1.1563  0.7528  0.4132
    4CHTO   O31 1536   7.523   5.650  -0.798  0.3017  0.4510  0.0930
    4CHTO   H68 1537   7.597   5.630  -0.744  1.1031 -1.2575 -1.5467
    4CHTO   C39 1538   7.392   5.436  -0.758  0.1258  0.3630 -0.8278
    4CHTO   H81 1539   7.387   5.417  -0.865 -0.2844 -1.4939 -0.4998
    4CHTO    N7 1540   7.504   5.363  -0.693  0.0197  0.3917 -0.0405
    4CHTO   H73 1541   7.520   5.392  -0.590  1.3822  1.3165 -0.4938
    4CHTO   H74 1542   7.486   5.258  -0.706 -0.3562  0.5396 -0.7129
    4CHTO   C40 1543   7.250   5.398  -0.690  0.4141  0.0265  0.6087
    4CHTO   H82 1544   7.244   5.441  -0.591  0.5465 -2.2118  1.6303
    4CHTO   O26 1545   7.154   5.455  -0.780 -0.8217  0.1925 -0.6032
    4CHTO   C41 1546   7.155   5.601  -0.775  0.2523 -0.1742 -0.4928
    4CHTO   H83 1547   7.154   5.633  -0.670 -0.2615 -1.0162 -0.2345
    4CHTO   C52 1548   7.023   5.655  -0.846  0.0032 -0.7443 -0.1030
    4CHTO   O35 1549   6.947   5.727  -0.762 -0.2076  0.0489 -0.0135
    4CHTO   H71 1550   7.003   5.787  -0.716 -0.5523  0.8660 -0.6733
    4CHTO   O28 1551   7.217   5.264  -0.675 -0.5388  0.0725 -0.1313
    4CHTO   C42 1552   7.129   5.223  -0.560  0.0186 -0.1982 -0.2569
    4CHTO   H84 1553   7.083   5.129  -0.591  0.6762 -0.3465 -0.8224
    4CHTO   C44 1554   7.013   5.320  -0.536 -0.1251 -0.4846  0.0694
    4CHTO   H86 1555   7.053   5.420  -0.516  0.3525 -0.7765  0.5744
    4CHTO   O32 1556   6.932   5.320  -0.650 -0.0071  0.7225 -0.0069
    4CHTO   H69 1557   6.964   5.379  -0.715 -0.2951  1.6219  0.6500
    4CHTO   C48 1558   6.933   5.278  -0.408  0.4521 -0.1063  0.3288
    4CHTO   H90 1559   6.900   5.175  -0.401 -0.9403  0.3176  0.2557
    4CHTO    N9 1560   6.808   5.365  -0.388  0.2301 -0.0007 -0.5707
    4CHTO   H77 1561   6.835   5.470  -0.378 -2.3694  0.3491  4.4778
    4CHTO   H78 1562   6.734   5.349  -0.465 -0.7960 -1.8731  0.7679
    4CHTO   C51 1563   7.024   5.297  -0.285  0.2936 -0.4823 -0.1975
    4CHTO   H93 1564   7.072   5.394  -0.301  0.9785 -0.9037 -0.7682
    4CHTO   O30 1565   7.120   5.191  -0.289 -0.3478  0.2359  0.6468
    4CHTO   C46 1566   7.209   5.196  -0.424  0.6626 -0.0647 -0.6431
    4CHTO   H88 1567   7.279   5.280  -0.413 -0.1193  0.6636 -1.1628
    4CHTO   C53 1568   7.295   5.068  -0.440  0.5689  0.5560 -0.2913
    4CHTO   O72 1569   7.216   4.944  -0.439 -0.6025 -0.5073 -0.2243
    4CHTO  H199 1570   7.288   4.884  -0.442 -1.5500 -1.6251 -0.8854
    4CHTO   O22 1571   6.959   5.287  -0.157 -0.1162  0.6266  0.2638
    4CHTO   C31 1572   7.024   5.315  -0.029  0.6451  0.0127 -0.1647
    4CHTO   H59 1573   7.132   5.327  -0.050  0.8837  0.3473  1.2230
    4CHTO   C29 1574   6.977   5.446   0.038 -0.6725 -0.1383 -0.2641
    4CHTO   H57 1575   6.868   5.434   0.040 -0.8647  0.6081 -3.5805
    4CHTO   O21 1576   6.998   5.560  -0.054 -0.3820 -0.2435 -0.0885
    4CHTO   H37 1577   7.086   5.590  -0.043 -0.1963 -1.5745  2.6284
    4CHTO   C27 1578   7.027   5.467   0.186 -0.1193 -0.1988  0.5587
    4CHTO   H55 1579   7.136   5.486   0.182  0.0528 -1.0147  1.3145
    4CHTO    N5 1580   6.958   5.583   0.245  0.8145  0.9690 -0.2119
    4CHTO   H43 1581   6.956   5.660   0.169 -1.4067  0.4743 -0.6819
    4CHTO   H44 1582   7.010   5.607   0.336  1.6497  0.8863 -0.6658
    4CHTO   C25 1583   6.994   5.332   0.265  0.2220  0.4466  0.2568
    4CHTO   H53 1584   6.887   5.308   0.278  0.5867 -0.7815  1.1019
    4CHTO   O17 1585   7.058   5.223   0.198 -0.2534  0.2080 -0.1016
    4CHTO   C32 1586   7.010   5.200   0.062 -0.7439  1.2096  0.2586
    4CHTO   H60 1587   6.907   5.166   0.071 -0.1917 -1.2995 -2.3052
    4CHTO   C36 1588   7.079   5.071   0.010  0.5615 -0.6909  0.0321
    4CHTO   O25 1589   7.215   5.074   0.026 -0.0203 -0.8573  0.0632
    4CHTO   H40 1590   7.265   5.019  -0.031  0.9803  1.3537 -1.2713
    4CHTO   O15 1591   7.063   5.346   0.403  0.7666 -0.2958  0.8625
    4CHTO   C19 1592   7.181   5.329   0.481  0.0641 -0.3235 -0.5626
    4CHTO   H47 1593   7.191   5.219   0.484 -0.0370 -0.3486 -1.0832
    4CHTO   C20 1594   7.308   5.380   0.411  0.1204  0.2862  0.1510
    4CHTO   H48 1595   7.303   5.488   0.394  1.1857 -0.1522 -3.4087
    4CHTO   O19 1596   7.327   5.319   0.279 -0.2918  0.2125 -0.3309
    4CHTO   H35 1597   7.268   5.350   0.213 -0.2842  1.1298  0.0893
    4CHTO   C21 1598   7.424   5.361   0.508 -0.4029 -0.1411 -0.0772
    4CHTO   H49 1599   7.445   5.255   0.517  0.8941  0.0399 -0.7941
    4CHTO    N4 1600   7.557   5.415   0.453  0.0338 -0.6103 -0.2507
    4CHTO   H41 1601   7.529   5.460   0.359  1.1172 -0.3444 -0.4607
    4CHTO   H42 1602   7.620   5.328   0.437  1.2726  0.3527 -0.7048
    4CHTO   C22 1603   7.391   5.413   0.652 -0.4765  0.6875 -0.5118
    4CHTO   H50 1604   7.382   5.522   0.647  0.7143  0.8365  0.4533
    4CHTO   O14 1605   7.271   5.351   0.703 -0.0121 -0.5681 -0.2633
    4CHTO   C23 1606   7.157   5.382   0.626  0.4466 -0.3013 -0.1331
    4CHTO   H51 1607   7.157   5.492   0.631  1.5155 -0.2369 -1.3816
    4CHTO   C34 1608   7.032   5.324   0.694 -0.7938 -0.1187 -0.0154
    4CHTO   O23 1609   7.043   5.182   0.717 -0.0743  0.2937  0.0243
    4CHTO   H38 1610   7.001   5.160   0.798 -0.2797 -3.0956 -0.9216
    4CHTO   O16 1611   7.505   5.396   0.746  0.7166 -0.1439  0.0132
    4CHTO   C24 1612   7.500   5.454   0.882 -0.0389 -0.4755 -0.1206
    4CHTO   H52 1613   7.410   5.512   0.897  0.1515 -0.1666 -0.1666
    4CHTO   C26 1614   7.623   5.548   0.895 -0.4075  0.5573  0.4970
    4CHTO   H54 1615   7.714   5.484   0.888 -0.9990 -0.1630 -0.7144
    4CHTO   O20 1616   7.606   5.648   0.794  0.8358  0.0443  0.0897
    4CHTO   H36 1617   7.645   5.635   0.710 -1.8976  0.6380 -1.2955
    4CHTO   C30 1618   7.615   5.612   1.031 -0.2785  0.3801  0.2406
    4CHTO   H58 1619   7.531   5.682   1.039 -0.4576  0.0930  0.9814
    4CHTO    N6 1620   7.730   5.701   1.051 -0.5647 -0.3242  0.1237
    4CHTO   H45 1621   7.739   5.730   1.155 -1.2411  0.3895 -0.0116
    4CHTO   H46 1622   7.737   5.789   0.989 -0.2997 -1.4779 -1.5158
    4CHTO   C33 1623   7.597   5.512   1.153 -0.1919 -0.0937 -0.3749
    4CHTO   H61 1624   7.692   5.460   1.170  0.1494  0.9800  1.1480
    4CHTO   O18 1625   7.495   5.420   1.121 -0.5352 -0.5764 -0.2181
    4CHTO   C28 1626   7.508   5.348   1.000 -0.6519 -0.0423  0.9243
    4CHTO   H56 1627   7.606   5.300   1.002 -1.0083 -0.7527  2.0936
    4CHTO   C35 1628   7.407   5.227   1.000  0.3581 -0.3953 -0.4663
    4CHTO   O24 1629   7.393   5.165   0.875  1.0322  0.5867  0.1553
    4CHTO   H39 1630   7.305   5.148   0.847  1.5802 -0.9161 -0.7335
    4CHTO    O9 1631   7.573   5.590   1.269  0.1593  0.0421 -0.1500
    4CHTO   C13 1632   7.611   5.513   1.400  0.1713  0.6046 -0.2819
    4CHTO   H26 1633   7.712   5.468   1.393 -0.5104 -0.9145 -0.4668
    4CHTO   C11 1634   7.506   5.404   1.433  0.1039 -0.2358  0.1683
    4CHTO   H24 1635   7.521   5.316   1.369 -2.4470 -0.6049 -0.0090
    4CHTO    O8 1636   7.370   5.446   1.412  0.3786  0.2531 -0.1031
    4CHTO    H3 1637   7.349   5.453   1.320 -2.2255 -0.2423  0.4156
    4CHTO    C9 1638   7.535   5.367   1.575 -0.3805 -0.2002  0.1188
    4CHTO   H22 1639   7.639   5.334   1.576  0.4528  2.2202 -1.0654
    4CHTO    N2 1640   7.473   5.236   1.616  0.2592 -0.5195 -1.0579
    4CHTO   H10 1641   7.544   5.156   1.627  0.2137 -0.6529 -1.7376
    4CHTO   H11 1642   7.431   5.244   1.716  3.0586  0.7527  0.0738
    4CHTO    C7 1643   7.503   5.489   1.674  0.5878  0.2261 -1.0390
    4CHTO   H20 1644   7.560   5.478   1.768  0.9193  3.6973 -0.7626
    4CHTO    O4 1645   7.528   5.621   1.615 -0.4095 -0.1601  0.3654
    4CHTO   C14 1646   7.634   5.612   1.517 -0.0815  1.0686 -0.4126
    4CHTO   H27 1647   7.727   5.579   1.568 -0.6618  1.8532  1.1843
    4CHTO   C18 1648   7.662   5.757   1.463 -0.5089 -0.0294  0.1151
    4CHTO   O13 1649   7.694   5.850   1.570  0.5330  0.1173  0.0388
    4CHTO    H7 1650   7.664   5.934   1.542 -1.2619 -0.6449 -0.4611
    4CHTO    O2 1651   7.347   5.491   1.715  0.1749 -0.5174  0.3439
    4CHTO    C1 1652   7.295   5.495   1.851 -0.5566  0.3252 -0.7486
    4CHTO   H14 1653   7.364   5.560   1.909 -1.2481  0.2011  0.2246
    4CHTO    C2 1654   7.281   5.349   1.915  0.8007 -0.5847 -0.4584
    4CHTO   H15 1655   7.236   5.292   1.832 -0.5224  2.6155 -2.0665
    4CHTO    O6 1656   7.407   5.291   1.947  0.2036 -0.5891  0.0889
    4CHTO    H1 1657   7.396   5.199   1.958  0.7184 -0.7043 -0.2944
    4CHTO    C3 1658   7.171   5.344   2.032 -0.5784 -0.1787 -0.3486
    4CHTO   H16 1659   7.212   5.389   2.124  0.3786  2.4169 -1.9780
    4CHTO    N1 1660   7.138   5.200   2.063 -0.1231  0.6121 -0.0962
    4CHTO    H8 1661   7.071   5.178   2.145 -0.0482 -1.2082 -0.4833
    4CHTO    H9 1662   7.093   5.157   1.974  1.1832 -0.1834 -0.3936
    4CHTO    C4 1663   7.037   5.421   2.004 -0.2340  0.1308  0.3069
    4CHTO   H17 1664   6.988   5.378   1.916  2.2524  0.9203 -1.5152
    4CHTO    O1 1665   7.077   5.556   1.967  0.1608  0.0071  0.3107
    4CHTO    C5 1666   7.147   5.567   1.847 -0.0716 -0.0311  0.3440
    4CHTO   H18 1667   7.085   5.529   1.766 -0.6003 -0.0065  0.7365
    4CHTO   C16 1668   7.167   5.720   1.830 -0.1566  0.1029  0.3577
    4CHTO   O11 1669   7.200   5.751   1.697  0.2807  0.0090 -0.2028
    4CHTO    H5 1670   7.291   5.773   1.689  0.6061 -0.5562  1.6003
    4CHTO    O3 1671   6.959   5.435   2.125 -0.2299  0.3991  0.7233
    4CHTO    C6 1672   6.820   5.473   2.127  0.6737 -0.5861 -0.2379
    4CHTO   H19 1673   6.800   5.550   2.053  0.5512 -0.8713 -0.5019
    4CHTO    C8 1674   6.720   5.362   2.101 -0.2273 -0.4659 -0.3394
    4CHTO   H21 1675   6.736   5.280   2.171 -1.2772 -0.6459 -0.3041
    4CHTO    O7 1676   6.742   5.313   1.965 -0.0019  0.2730  0.3246
    4CHTO    H2 1677   6.667   5.283   1.917  0.8116  0.1297 -0.8712
    4CHTO   C12 1678   6.571   5.414   2.115 -0.5079 -0.0270  0.1612
    4CHTO   H25 1679   6.556   5.487   2.032  1.5980 -1.2285 -1.3301
    4CHTO    N3 1680   6.468   5.308   2.089 -0.1162  0.6945 -0.1493
    4CHTO   H12 1681   6.474   5.227   2.160  0.6472 -0.7726 -1.8336
    4CHTO   H13 1682   6.370   5.352   2.080 -1.5928 -2.2632  0.7577
    4CHTO   C15 1683   6.550   5.495   2.246  0.1541  0.4754 -0.0693
    4CHTO   H28 1684   6.551   5.431   2.334  0.7718  2.0544  1.1030
    4CHTO   O10 1685   6.419   5.577   2.253  0.2289  0.3388  0.2696
    4CHTO    H4 1686   6.424   5.636   2.181  2.4442 -1.4699 -1.0939
    4CHTO    O5 1687   6.651   5.587   2.266  0.1294  0.1521  0.0323
    4CHTO   C10 1688   6.787   5.530   2.261  0.2788 -0.5979 -1.1360
    4CHTO   H23 1689   6.806   5.456   2.338  1.1257 -0.4370 -1.1850
    4CHTO   C17 1690   6.887   5.638   2.309  0.5626 -0.2415  0.5045
    4CHTO   O12 1691   6.901   5.744   2.208  0.7703 -0.3288  0.5695
    4CHTO    H6 1692   6.823   5.795   2.200  0.9937 -0.3624 -2.5196
    5CHTO  H203 1693   7.524   2.769   2.209  0.6942 -0.1804  2.1379
    5CHTO   O82 1694   7.486   2.854   2.218  0.3803 -0.0430 -0.1299
    5CHTO  C123 1695   7.543   2.927   2.333 -0.0484  0.2185  0.2933
    5CHTO  H227 1696   7.625   2.991   2.296  0.6475 -0.4957  0.5938
    5CHTO   O77 1697   7.430   3.015   2.369 -0.7484 -0.3764 -0.4015
    5CHTO  C118 1698   7.464   3.098   2.477  0.3613  0.5553 -0.5886
    5CHTO  H222 1699   7.552   3.154   2.444  0.2478 -0.1812 -2.2261
    5CHTO  C125 1700   7.352   3.200   2.495 -0.3050 -0.4270 -0.2902
    5CHTO   O84 1701   7.222   3.139   2.505  0.0517  0.3615  0.2223
    5CHTO  H205 1702   7.217   3.048   2.482  1.6596 -0.2445  2.1233
    5CHTO  C114 1703   7.482   3.015   2.607  0.3248  0.2341 -0.2312
    5CHTO  H218 1704   7.389   2.964   2.632  0.9543 -1.6925 -1.6384
    5CHTO  C116 1705   7.603   2.915   2.585 -0.1634 -0.8731  0.1880
    5CHTO  H220 1706   7.696   2.975   2.583 -1.4062  1.1206  0.3708
    5CHTO   O79 1707   7.620   2.821   2.692 -0.2494  0.4851 -0.4655
    5CHTO  H201 1708   7.646   2.869   2.768  1.9534 -2.4080  0.7017
    5CHTO  C120 1709   7.584   2.834   2.451  0.4027  0.1065  0.0224
    5CHTO  H224 1710   7.502   2.763   2.474 -1.4627  1.7545 -1.3215
    5CHTO   N21 1711   7.703   2.754   2.416  0.2897 -0.1320  0.3000
    5CHTO  H211 1712   7.798   2.802   2.435 -0.8659  2.7854 -1.0136
    5CHTO  H212 1713   7.701   2.647   2.434  2.2080 -0.1887  0.3224
    5CHTO   O75 1714   7.501   3.098   2.719  0.2514  0.3497  0.1686
    5CHTO  C112 1715   7.390   3.055   2.842 -0.8180  0.3947 -0.0282
    5CHTO  H216 1716   7.392   2.945   2.845 -0.2252  0.4411  1.7123
    5CHTO   O73 1717   7.265   3.102   2.785 -0.1590  0.5294  0.3255
    5CHTO  C113 1718   7.151   3.104   2.869 -0.4782 -0.4718 -0.6957
    5CHTO  H217 1719   7.121   2.999   2.891 -1.7234 -0.1763 -0.9486
    5CHTO  C124 1720   7.035   3.162   2.786  0.6520 -0.2960  0.3793
    5CHTO   O83 1721   6.956   3.082   2.700 -0.5764  0.0355 -0.3661
    5CHTO  H204 1722   6.873   3.123   2.682 -1.3945 -1.8052 -0.8684
    5CHTO  C109 1723   7.175   3.179   3.005 -0.1590 -0.0131  0.8068
    5CHTO  H213 1724   7.199   3.283   2.978  0.5084 -0.3764 -0.0172
    5CHTO  C110 1725   7.293   3.110   3.076 -0.0044 -0.4874  0.5658
    5CHTO  H214 1726   7.274   3.004   3.094  2.3044 -0.5022  3.3739
    5CHTO   O78 1727   7.312   3.170   3.206 -0.9327  0.0421 -0.6839
    5CHTO  H200 1728   7.382   3.133   3.256 -1.1481  1.7767  0.9783
    5CHTO  C111 1729   7.425   3.118   2.983 -0.3293 -0.6601  0.1685
    5CHTO  H215 1730   7.456   3.223   2.976 -1.3515 -0.2369  1.8125
    5CHTO   N19 1731   7.546   3.045   3.032 -0.0836 -0.0340 -0.2794
    5CHTO  H207 1732   7.636   3.098   3.005  0.9913 -1.3519  0.6186
    5CHTO  H208 1733   7.529   3.033   3.138 -0.0143  1.2138 -0.1301
    5CHTO   O74 1734   7.053   3.179   3.087  0.3015 -0.4966 -0.2136
    5CHTO  C115 1735   6.986   3.318   3.171 -0.2431  0.0490  0.2656
    5CHTO  H219 1736   7.019   3.318   3.275  2.8689 -2.0873 -0.6511
    5CHTO   O76 1737   7.048   3.456   3.115 -0.0543  0.0900 -0.3371
    5CHTO  C122 1738   6.974   3.514   3.012 -0.2490  0.3480 -0.2700
    5CHTO  H226 1739   6.970   3.437   2.935 -0.7045 -1.2772  1.3524
    5CHTO  C126 1740   7.057   3.641   2.940 -0.0579 -0.4268 -0.4468
    5CHTO   O85 1741   6.970   3.708   2.846 -0.7349 -0.2746  0.2420
    5CHTO  H206 1742   6.975   3.801   2.839  2.0292 -0.4043  0.1070
    5CHTO  C121 1743   6.825   3.557   3.057  0.3512  0.1615  0.1946
    5CHTO  H225 1744   6.826   3.662   3.096  1.4720  0.4277 -0.5366
    5CHTO   O81 1745   6.744   3.556   2.938 -0.1537  0.1189 -0.3689
    5CHTO  H202 1746   6.717   3.641   2.909 -0.7064  0.6738  1.7124
    5CHTO  C119 1747   6.765   3.457   3.161  0.4168 -1.0884  0.1487
    5CHTO  H223 1748   6.810   3.490   3.255 -0.4608 -1.5683  0.7375
    5CHTO  C117 1749   6.824   3.311   3.161 -0.2923 -0.3687  0.0471
    5CHTO  H221 1750   6.803   3.250   3.073  1.5788 -1.2029  0.1600
    5CHTO   N20 1751   6.779   3.226   3.271  0.1884  0.5101  0.1962
    5CHTO  H209 1752   6.834   3.133   3.263 -0.1106  0.3712 -0.2546
    5CHTO  H210 1753   6.784   3.273   3.368 -0.1506  0.8448  0.0489
    5CHTO   O80 1754   6.611   3.487   3.193 -0.6308  0.3126  0.3437
    5CHTO  C103 1755   6.501   3.449   3.085  0.8352  0.4031 -0.0969
    5CHTO  H190 1756   6.526   3.508   2.998 -0.6298  0.1368 -0.7155
    5CHTO  C101 1757   6.484   3.299   3.042  0.1091  0.4220 -0.1384
    5CHTO  H188 1758   6.503   3.237   3.130 -0.2900  0.3025 -0.1360
    5CHTO   O68 1759   6.590   3.258   2.949 -0.5196 -0.0994  0.5181
    5CHTO  H168 1760   6.604   3.165   2.954 -1.6794 -0.3608 -0.8373
    5CHTO   C99 1761   6.339   3.263   2.979 -0.0890 -0.2704 -0.4628
    5CHTO  H186 1762   6.339   3.289   2.871 -0.2529  0.2154 -0.3467
    5CHTO   N17 1763   6.316   3.114   2.979 -0.4904  0.5483  0.1754
    5CHTO  H174 1764   6.276   3.077   3.073 -0.8433  1.9106  0.5775
    5CHTO  H175 1765   6.252   3.086   2.896 -1.3315 -1.1371  1.3577
    5CHTO   C97 1766   6.222   3.342   3.042  0.2022  0.3902 -0.0074
    5CHTO  H184 1767   6.198   3.297   3.140 -0.8834  0.2683 -0.3201
    5CHTO   O64 1768   6.258   3.478   3.052 -0.0366  0.0691  0.0242
    5CHTO  C104 1769   6.366   3.503   3.143  0.0891 -0.2461 -0.6385
    5CHTO  H191 1770   6.329   3.450   3.231  1.8987 -0.8196 -0.1956
    5CHTO  C108 1771   6.379   3.654   3.172  0.3337 -0.1486  0.0485
    5CHTO   O71 1772   6.383   3.732   3.053 -0.2424 -0.2469  0.3610
    5CHTO  H171 1773   6.363   3.823   3.067  0.2465 -0.0335 -0.3214
    5CHTO   O62 1774   6.105   3.345   2.965  0.5205 -0.2913 -0.1124
    5CHTO   C91 1775   5.987   3.327   3.042  0.0871  1.3394  0.5446
    5CHTO  H178 1776   6.001   3.354   3.147 -0.1444 -0.5807  1.0781
    5CHTO   C92 1777   5.950   3.174   3.031  0.1824 -0.1168  0.0415
    5CHTO  H179 1778   6.039   3.113   3.054 -1.8602 -4.0881 -2.0500
    5CHTO   O66 1779   5.857   3.147   3.142 -0.0334  0.2699 -0.9190
    5CHTO  H166 1780   5.804   3.074   3.118  1.6287 -2.0713  2.1883
    5CHTO   C93 1781   5.873   3.136   2.900  0.0159 -0.0136  0.0934
    5CHTO  H180 1782   5.828   3.036   2.916  1.7598 -0.9856 -0.8583
    5CHTO   N16 1783   5.975   3.123   2.793 -0.6047  0.0306  0.2201
    5CHTO  H172 1784   6.010   3.223   2.770 -0.1735 -0.5414 -1.7153
    5CHTO  H173 1785   5.937   3.071   2.706  0.7846 -2.1598  0.8777
    5CHTO   C94 1786   5.761   3.241   2.861 -0.5709 -0.0061  0.3784
    5CHTO  H181 1787   5.780   3.288   2.764  1.2611 -0.1988  0.6268
    5CHTO   O61 1788   5.748   3.349   2.946 -0.0572 -0.0464 -0.0491
    5CHTO   C95 1789   5.875   3.415   2.980 -0.0702 -0.4164 -0.5790
    5CHTO  H182 1790   5.916   3.461   2.890 -0.5214  0.2253 -0.4536
    5CHTO  C106 1791   5.839   3.534   3.083 -0.4713 -0.2353  0.2298
    5CHTO   O69 1792   5.746   3.628   3.036  0.1613 -0.3547  0.1869
    5CHTO  H169 1793   5.690   3.661   3.103  1.3686  0.4628  0.8027
    5CHTO   O63 1794   5.612   3.168   2.848  0.9951 -0.7586  0.4157
    5CHTO   C96 1795   5.589   3.075   2.737  0.7123 -0.1831  0.4908
    5CHTO  H183 1796   5.684   3.036   2.700 -1.2770 -1.7545 -3.1751
    5CHTO   C98 1797   5.519   3.134   2.606  0.1021 -0.3412  0.3320
    5CHTO  H185 1798   5.424   3.183   2.629  0.0217 -0.6640  0.6848
    5CHTO   O67 1799   5.601   3.241   2.562  0.4453 -0.0142  0.0575
    5CHTO  H167 1800   5.588   3.325   2.601  3.5664  1.1455 -1.1864
    5CHTO  C102 1801   5.515   3.027   2.485 -0.6265 -0.2754 -0.6455
    5CHTO  H189 1802   5.622   3.011   2.461 -0.4847  0.5103 -0.5306
    5CHTO   N18 1803   5.450   3.072   2.354  0.5030 -0.0707 -0.2598
    5CHTO  H176 1804   5.355   3.022   2.345  1.5223 -2.0871 -0.0821
    5CHTO  H177 1805   5.512   3.055   2.267  0.5150 -0.8271 -0.1022
    5CHTO  C105 1806   5.470   2.888   2.540  0.2828  0.8299 -0.4654
    5CHTO  H192 1807   5.363   2.885   2.562  1.2633 -1.1596  4.6529
    5CHTO   O65 1808   5.524   2.848   2.669  0.1655 -0.1671  0.0032
    5CHTO  C100 1809   5.509   2.937   2.774  0.0065  0.4265 -0.1767
    5CHTO  H187 1810   5.405   2.967   2.796 -0.1407  0.8373 -1.3384
    5CHTO  C107 1811   5.546   2.866   2.907  0.0188  0.6103  0.2986
    5CHTO   O70 1812   5.524   2.952   3.016 -0.1393 -0.1304 -0.1608
    5CHTO  H170 1813   5.450   3.006   2.999 -0.2200 -0.3709 -0.5784
    5CHTO   O57 1814   5.511   2.784   2.423 -0.3449 -0.3192  0.2703
    5CHTO   C85 1815   5.429   2.666   2.403 -0.3434  0.7328 -0.5844
    5CHTO  H157 1816   5.321   2.690   2.418 -0.1556  1.4538 -0.3550
    5CHTO   C83 1817   5.450   2.562   2.517 -0.1351  0.5230 -0.0110
    5CHTO  H155 1818   5.408   2.599   2.610  1.8292 -0.7182  1.4071
    5CHTO   O56 1819   5.595   2.558   2.545 -0.2228  0.1905 -0.2540
    5CHTO  H135 1820   5.627   2.630   2.596  0.7060 -0.5803  0.2686
    5CHTO   C81 1821   5.377   2.427   2.483  0.1971  0.4209  0.7250
    5CHTO  H153 1822   5.269   2.443   2.484  0.3173  1.3031  1.4723
    5CHTO   N14 1823   5.396   2.327   2.599  0.1859 -0.0352  0.1841
    5CHTO  H141 1824   5.500   2.301   2.607  0.3360  0.2572 -0.7536
    5CHTO  H142 1825   5.362   2.375   2.688 -1.1666  0.2969 -0.4943
    5CHTO   C79 1826   5.420   2.365   2.351  0.0011 -0.3402  0.0187
    5CHTO  H151 1827   5.350   2.283   2.335 -1.1924  0.7424 -0.4204
    5CHTO   O52 1828   5.390   2.464   2.247 -0.0311  0.5190  0.3560
    5CHTO   C86 1829   5.455   2.599   2.264  0.0671  0.2266 -0.3036
    5CHTO  H158 1830   5.565   2.589   2.255  0.2895  2.0613  0.2104
    5CHTO   C90 1831   5.411   2.693   2.142 -0.3731  0.5591  0.4580
    5CHTO   O60 1832   5.449   2.642   2.014  0.4644  0.1492 -0.3100
    5CHTO  H138 1833   5.517   2.578   2.020 -0.9451 -1.2928  0.7343
    5CHTO   O50 1834   5.550   2.316   2.330 -0.2020 -0.2282  0.5131
    5CHTO   C73 1835   5.624   2.207   2.278 -0.4211  0.2678  0.2076
    5CHTO  H145 1836   5.572   2.150   2.200  1.1780  0.2295 -0.8573
    5CHTO   C74 1837   5.652   2.106   2.398  0.0184 -0.2458  0.7579
    5CHTO  H146 1838   5.559   2.076   2.448 -0.4509 -1.0479 -0.5876
    5CHTO   O54 1839   5.701   1.986   2.337  0.0596  0.2456 -0.2144
    5CHTO  H133 1840   5.634   1.953   2.280 -0.3336  2.0219 -0.8315
    5CHTO   C75 1841   5.749   2.168   2.500  0.4324  0.1865  0.9320
    5CHTO  H147 1842   5.697   2.245   2.558  0.0117  0.6609 -0.0570
    5CHTO   N13 1843   5.792   2.071   2.605 -0.9773  0.1147 -0.1233
    5CHTO  H139 1844   5.813   2.120   2.699  2.4630  0.1780 -0.8776
    5CHTO  H140 1845   5.879   2.014   2.575  0.0166  0.2952  2.3197
    5CHTO   C76 1846   5.877   2.237   2.434  0.2490 -0.0753 -0.7677
    5CHTO  H148 1847   5.943   2.156   2.401 -0.2844 -1.2271  0.9081
    5CHTO   O49 1848   5.846   2.328   2.322 -0.2611  0.0981  0.1278
    5CHTO   C77 1849   5.765   2.260   2.220  0.6244 -0.1733 -0.3673
    5CHTO  H149 1850   5.817   2.173   2.180 -0.4944 -1.5856  1.1520
    5CHTO   C88 1851   5.744   2.363   2.107 -0.4133 -0.5296 -0.1320
    5CHTO   O58 1852   5.629   2.315   2.000 -0.0240  0.6337  0.4624
    5CHTO  H136 1853   5.547   2.358   2.019  0.8971  2.5479  0.1649
    5CHTO   O51 1854   5.937   2.338   2.556 -0.5759 -0.3492 -0.4004
    5CHTO   C78 1855   6.060   2.426   2.514 -0.1004  0.7910 -0.4902
    5CHTO  H150 1856   6.027   2.512   2.452 -1.3129  0.3205 -0.5044
    5CHTO   C80 1857   6.164   2.340   2.433  0.1898 -0.4940 -0.6816
    5CHTO  H152 1858   6.183   2.241   2.480 -0.7708 -0.5617 -0.4213
    5CHTO   O55 1859   6.123   2.318   2.297  0.0014  0.1101 -0.0960
    5CHTO  H134 1860   6.110   2.397   2.248 -2.2499  1.4693  2.6163
    5CHTO   C84 1861   6.305   2.421   2.435 -0.2913 -0.1480  0.0117
    5CHTO  H156 1862   6.293   2.508   2.371  0.9964  1.1948  1.5406
    5CHTO   N15 1863   6.412   2.334   2.380 -0.4765 -0.1242 -0.6572
    5CHTO  H143 1864   6.496   2.392   2.349 -0.9775  0.7164 -0.4625
    5CHTO  H144 1865   6.371   2.284   2.294  0.1908 -2.6039  0.4299
    5CHTO   C87 1866   6.339   2.480   2.572 -0.2210  0.0810  0.0712
    5CHTO  H159 1867   6.367   2.399   2.639  0.2688  1.0202  1.0075
    5CHTO   O53 1868   6.238   2.545   2.608  0.6508  0.0701 -0.0592
    5CHTO   C82 1869   6.118   2.478   2.643  0.0934  0.4307 -0.6739
    5CHTO  H154 1870   6.149   2.400   2.713 -1.4259  2.4918  2.4475
    5CHTO   C89 1871   6.028   2.581   2.725 -0.7078 -0.0151 -1.1712
    5CHTO   O59 1872   5.952   2.664   2.637 -0.1844 -0.5320 -0.5349
    5CHTO  H137 1873   6.011   2.736   2.627 -1.1208  0.4038  0.4795
    5CHTO   O45 1874   6.457   2.585   2.572  0.0619 -0.5317 -1.0758
    5CHTO   C67 1875   6.508   2.614   2.706  0.0769 -0.1556 -0.5305
    5CHTO  H124 1876   6.425   2.618   2.777 -0.4837  1.3055 -1.2475
    5CHTO   C65 1877   6.619   2.511   2.766 -0.2942 -0.6696 -0.1832
    5CHTO  H122 1878   6.662   2.463   2.678 -1.5562 -3.2090  0.5288
    5CHTO   O44 1879   6.555   2.413   2.840  0.4812 -1.1874  0.0718
    5CHTO  H102 1880   6.503   2.362   2.781  0.0318  1.5259 -1.9786
    5CHTO   C63 1881   6.739   2.602   2.833 -0.3406 -0.7187 -0.8149
    5CHTO  H120 1882   6.791   2.658   2.755  0.6887  1.2568  1.2226
    5CHTO   N11 1883   6.846   2.534   2.904  0.0767 -0.2102  0.3157
    5CHTO  H108 1884   6.884   2.450   2.851 -1.0557  0.8178 -2.1999
    5CHTO  H109 1885   6.812   2.508   3.003 -1.6984 -2.8986 -0.9550
    5CHTO   C61 1886   6.681   2.724   2.912  0.3453 -0.6354 -0.3370
    5CHTO  H118 1887   6.767   2.780   2.951 -1.2902  1.2098  0.6821
    5CHTO   O40 1888   6.607   2.812   2.828  0.7663  0.0758 -0.1111
    5CHTO   C68 1889   6.564   2.768   2.696 -0.3865  0.2730  0.0236
    5CHTO  H125 1890   6.652   2.773   2.629  0.3611  0.3257  1.0027
    5CHTO   C72 1891   6.459   2.864   2.641  1.1895 -0.4029  0.3105
    5CHTO   O48 1892   6.425   2.842   2.499  0.3294 -0.4085 -0.0422
    5CHTO  H105 1893   6.371   2.909   2.461  0.3588 -0.0549  0.5400
    5CHTO   O38 1894   6.601   2.687   3.028  0.7356  0.1145  0.2022
    5CHTO   C55 1895   6.542   2.792   3.103 -0.2453  0.1084 -0.1235
    5CHTO  H112 1896   6.554   2.890   3.054  0.3175  0.2469  0.2848
    5CHTO   C56 1897   6.608   2.789   3.247 -0.1251  0.1084  0.3385
    5CHTO  H113 1898   6.613   2.686   3.282  4.5241 -0.2915 -1.1342
    5CHTO   O42 1899   6.742   2.843   3.235  0.0924 -0.2876 -0.4355
    5CHTO  H100 1900   6.742   2.936   3.222 -0.2346 -0.1650  0.4129
    5CHTO   C57 1901   6.532   2.878   3.361 -0.1609 -0.0616  0.0562
    5CHTO  H114 1902   6.543   2.985   3.344  0.3726 -0.4771 -2.4288
    5CHTO   N10 1903   6.578   2.844   3.496 -0.6467 -0.4277  0.1805
    5CHTO  H106 1904   6.578   2.923   3.570  1.6116  1.1843 -1.4823
    5CHTO  H107 1905   6.537   2.754   3.541  2.3892 -0.3816  3.3126
    5CHTO   C58 1906   6.377   2.858   3.350  0.5715 -0.1798  0.4643
    5CHTO  H115 1907   6.355   2.753   3.380  1.2585  0.4646  3.3758
    5CHTO   O37 1908   6.351   2.875   3.210 -0.5943  0.1713  0.1369
    5CHTO   C59 1909   6.389   2.772   3.124  0.5363  0.1116 -0.0419
    5CHTO  H116 1910   6.373   2.673   3.167 -0.1633  0.1753 -0.1493
    5CHTO   C70 1911   6.301   2.751   2.995 -0.1204  0.2923 -0.3248
    5CHTO   O46 1912   6.165   2.692   3.007 -0.3928  0.4273 -0.0522
    5CHTO  H103 1913   6.140   2.727   3.090 -0.4300  0.4823 -0.0871
    5CHTO   O39 1914   6.287   2.953   3.442  0.2696 -0.1012  0.5399
    5CHTO   C60 1915   6.146   2.963   3.406 -0.4923 -0.0112  0.0253
    5CHTO  H117 1916   6.140   3.036   3.326 -3.8540  0.7263  0.8864
    5CHTO   C62 1917   6.081   2.823   3.362 -0.3845 -0.0927  0.6737
    5CHTO  H119 1918   6.146   2.782   3.283 -1.5856  0.6626 -0.7397
    5CHTO   O43 1919   6.086   2.727   3.465  0.2917 -0.9060 -0.5121
    5CHTO  H101 1920   6.165   2.746   3.512  0.8696  0.9777 -2.1615
    5CHTO   C66 1921   5.931   2.855   3.302 -0.1267 -0.2979 -0.1057
    5CHTO  H123 1922   5.939   2.934   3.228  0.7772  0.5346  0.8690
    5CHTO   N12 1923   5.866   2.742   3.226 -0.0223  0.6420 -0.1338
    5CHTO  H110 1924   5.898   2.751   3.123  3.1498 -2.2342  0.5127
    5CHTO  H111 1925   5.760   2.735   3.247 -0.0225  0.1773 -0.2801
    5CHTO   C69 1926   5.844   2.903   3.423 -0.0666  0.1037  0.0286
    5CHTO  H126 1927   5.862   2.828   3.502 -1.1793 -1.9271 -1.5806
    5CHTO   O41 1928   5.909   3.041   3.474 -0.1779  0.8595 -0.0098
    5CHTO   C64 1929   6.069   3.022   3.525  0.2743  0.1217 -0.1932
    5CHTO  H121 1930   6.076   2.963   3.619  0.6566 -0.8401 -0.8229
    5CHTO   C71 1931   6.119   3.163   3.556  0.4571 -0.2467 -0.6133
    5CHTO   O47 1932   6.055   3.208   3.671  0.1295  0.4720 -0.1196
    5CHTO  H104 1933   6.009   3.288   3.655 -1.1003 -0.4752 -1.4800
    5CHTO   O34 1934   5.692   2.915   3.391 -0.1806 -0.2550 -0.2442
    5CHTO   C49 1935   5.538   2.971   3.452  0.2151 -0.0767  0.2256
    5CHTO   H91 1936   5.484   2.879   3.476 -0.1206 -0.3054 -1.4004
    5CHTO   C47 1937   5.463   3.040   3.336  0.8949 -0.7134  0.5535
    5CHTO   H89 1938   5.407   2.967   3.275 -0.9946  0.3519  0.9747
    5CHTO   O33 1939   5.558   3.103   3.251  0.5252  0.2265 -0.4264
    5CHTO   H70 1940   5.641   3.100   3.295 -0.0313 -0.2268  0.5898
    5CHTO   C45 1941   5.364   3.152   3.398 -0.5037 -0.5531 -0.8137
    5CHTO   H87 1942   5.432   3.238   3.412 -0.6324 -0.5646 -0.1083
    5CHTO    N8 1943   5.265   3.188   3.293 -0.3544 -0.1737 -0.2143
    5CHTO   H75 1944   5.318   3.193   3.200  0.0113  1.2427  0.0731
    5CHTO   H76 1945   5.182   3.120   3.278 -0.8965  0.6440 -0.9350
    5CHTO   C43 1946   5.307   3.114   3.537  0.7543  0.8519  0.2632
    5CHTO   H85 1947   5.236   3.192   3.565  0.3895  0.3995  0.6180
    5CHTO   O29 1948   5.412   3.104   3.631  0.5196  0.1915 -0.1131
    5CHTO   C50 1949   5.541   3.054   3.583 -0.9233  0.3789  0.8156
    5CHTO   H92 1950   5.603   3.142   3.566  0.1823 -0.4389  0.5872
    5CHTO   C54 1951   5.597   2.974   3.703 -0.2979 -0.3373 -0.3045
    5CHTO   O36 1952   5.636   3.061   3.808 -0.3336 -0.1307  0.0502
    5CHTO   H72 1953   5.716   3.105   3.787 -0.1127 -0.2113  0.7213
    5CHTO   O27 1954   5.239   2.983   3.534 -0.1505 -0.2744  0.1676
    5CHTO   C37 1955   5.121   2.925   3.602 -0.3446  0.2652  0.1187
    5CHTO   H79 1956   5.075   2.993   3.675 -1.4013  0.2779 -0.5429
    5CHTO   C38 1957   5.014   2.896   3.498 -0.1420  0.6501  0.5504
    5CHTO   H80 1958   5.062   2.836   3.419  1.0439  0.7843  1.1520
    5CHTO   O31 1959   4.953   3.025   3.448 -0.3894 -0.0877 -0.1395
    5CHTO   H68 1960   4.864   3.010   3.423 -0.5142 -1.0891  0.8437
    5CHTO   C39 1961   4.907   2.795   3.559 -0.4878 -0.4838 -0.5101
    5CHTO   H81 1962   4.867   2.848   3.646  2.1486 -1.8595  1.5992
    5CHTO    N7 1963   4.794   2.756   3.469  0.4596 -0.0598 -0.2075
    5CHTO   H73 1964   4.736   2.843   3.443  0.5538 -0.5365 -2.1602
    5CHTO   H74 1965   4.832   2.709   3.379 -0.3996 -4.1113  1.4532
    5CHTO   C40 1966   4.976   2.677   3.631 -0.4656  0.1224 -0.2300
    5CHTO   H82 1967   5.027   2.609   3.562 -1.9508 -1.7441  0.4564
    5CHTO   O26 1968   5.061   2.727   3.729  0.2283 -0.2890  0.0641
    5CHTO   C41 1969   5.171   2.797   3.670 -0.2077  0.0203  0.0885
    5CHTO   H83 1970   5.208   2.727   3.594 -1.5975 -1.4000  0.6898
    5CHTO   C52 1971   5.277   2.835   3.779  0.3248  0.0209 -0.1031
    5CHTO   O35 1972   5.270   2.734   3.899  0.4438  0.3026 -0.1980
    5CHTO   H71 1973   5.260   2.646   3.868 -2.0738  0.3763  0.3415
    5CHTO   O28 1974   4.893   2.587   3.706 -0.1835 -0.0729 -0.0889
    5CHTO   C42 1975   4.871   2.573   3.847  0.0389  0.8960 -0.0327
    5CHTO   H84 1976   4.798   2.492   3.849  1.3092 -0.2535  1.0968
    5CHTO   C44 1977   4.806   2.697   3.922 -0.0164  0.2341  0.2188
    5CHTO   H86 1978   4.869   2.784   3.902 -0.4148  1.1101  2.4927
    5CHTO   O32 1979   4.670   2.729   3.878  0.4226  0.0512 -0.2663
    5CHTO   H69 1980   4.638   2.804   3.925 -0.1034  0.0732 -0.6500
    5CHTO   C48 1981   4.796   2.679   4.079  0.1970 -0.0955  0.4915
    5CHTO   H90 1982   4.718   2.606   4.100  0.5160 -0.4594  0.4119
    5CHTO    N9 1983   4.751   2.803   4.153  0.4026  0.4988 -0.8440
    5CHTO   H77 1984   4.666   2.840   4.099  0.9100  1.6803 -0.8580
    5CHTO   H78 1985   4.723   2.784   4.256 -3.1807 -0.4208 -1.9365
    5CHTO   C51 1986   4.928   2.622   4.144 -0.1549  0.4394  0.3489
    5CHTO   H93 1987   5.000   2.702   4.125 -0.0813 -0.1692 -2.0541
    5CHTO   O30 1988   4.956   2.506   4.069 -0.1399  0.0446  0.2118
    5CHTO   C46 1989   4.998   2.522   3.933  0.2804 -0.7448  0.5241
    5CHTO   H88 1990   5.070   2.604   3.934 -0.7166  0.1607 -0.6214
    5CHTO   C53 1991   5.056   2.396   3.870 -0.0724  0.1711  0.4965
    5CHTO   O72 1992   5.184   2.364   3.924  0.4171  0.0976 -0.1434
    5CHTO  H199 1993   5.217   2.299   3.864 -1.1798  0.7376 -1.7787
    5CHTO   O22 1994   4.916   2.583   4.282 -0.1081 -0.2407 -0.1646
    5CHTO   C31 1995   5.031   2.579   4.375  0.2470  0.1191 -0.0732
    5CHTO   H59 1996   4.992   2.562   4.478  0.9584 -3.2292 -0.3104
    5CHTO   C29 1997   5.129   2.460   4.340  0.3796  0.4656 -0.7333
    5CHTO   H57 1998   5.163   2.453   4.236 -1.9533 -0.0661 -1.5012
    5CHTO   O21 1999   5.067   2.330   4.352  0.2449  0.3699  0.4200
    5CHTO   H37 2000   5.035   2.311   4.267  0.6990  0.9779  0.1079
    5CHTO   C27 2001   5.255   2.480   4.436  1.5313 -0.3715  0.0947
    5CHTO   H55 2002   5.219   2.473   4.540 -0.1421  1.1510 -0.3569
    5CHTO    N5 2003   5.351   2.371   4.407 -0.4246 -0.3903  1.0275
    5CHTO   H43 2004   5.389   2.316   4.492  0.9644 -0.4786  0.3683
    5CHTO   H44 2005   5.429   2.404   4.340  0.2125  0.4968  2.1864
    5CHTO   C25 2006   5.315   2.619   4.411  0.0036 -0.1854  0.3338
    5CHTO   H53 2007   5.330   2.623   4.302 -1.6194 -0.7197  0.0810
    5CHTO   O17 2008   5.225   2.726   4.458 -0.3145  0.3949 -0.3837
    5CHTO   C32 2009   5.101   2.719   4.384 -0.0320 -0.1413  0.3506
    5CHTO   H60 2010   5.114   2.758   4.283 -0.1787 -0.7176  0.1071
    5CHTO   C36 2011   5.004   2.823   4.442  0.0828  0.3013 -0.1022
    5CHTO   O25 2012   4.965   2.787   4.575  0.4769 -0.4357  0.0947
    5CHTO   H40 2013   4.889   2.837   4.598  1.8294  1.7904 -0.0732
    5CHTO   O15 2014   5.441   2.646   4.498 -0.0303  0.1525  0.3359
    5CHTO   C19 2015   5.528   2.759   4.472 -1.1289 -0.0486  0.2462
    5CHTO   H47 2016   5.473   2.827   4.405 -0.3030  1.4811  1.0996
    5CHTO   C20 2017   5.564   2.842   4.602  0.2246 -0.1069  0.1623
    5CHTO   H48 2018   5.601   2.774   4.680 -0.4275 -2.6789 -1.6827
    5CHTO   O19 2019   5.435   2.897   4.646 -0.4076  0.0934 -0.2462
    5CHTO   H35 2020   5.392   2.948   4.580  0.6809  1.8703  0.3694
    5CHTO   C21 2021   5.663   2.959   4.571  0.5824 -0.4310 -0.1747
    5CHTO   H49 2022   5.614   3.025   4.499 -1.0485 -0.6838  0.6815
    5CHTO    N4 2023   5.694   3.041   4.692  0.4338  0.0735 -0.4008
    5CHTO   H41 2024   5.613   3.104   4.727  1.9309  0.6861  2.1383
    5CHTO   H42 2025   5.781   3.102   4.672  1.3268 -0.5412  1.4628
    5CHTO   C22 2026   5.787   2.905   4.494 -0.2793  0.2130 -0.7651
    5CHTO   H50 2027   5.840   2.833   4.556 -1.5295 -1.2158 -1.3062
    5CHTO   O14 2028   5.739   2.830   4.374 -0.1587 -0.1943 -0.0106
    5CHTO   C23 2029   5.661   2.714   4.394 -0.1133  0.2219  0.2743
    5CHTO   H51 2030   5.725   2.648   4.455  0.2040 -0.8155 -1.1500
    5CHTO   C34 2031   5.630   2.656   4.247 -0.1201  0.1030  0.1628
    5CHTO   O23 2032   5.606   2.513   4.272 -0.0285  0.1234  0.1460
    5CHTO   H38 2033   5.631   2.468   4.194  0.0290 -1.0177  0.8149
    5CHTO   O16 2034   5.885   3.009   4.450 -0.1550 -0.8857  0.0566
    5CHTO   C24 2035   6.037   2.958   4.402 -0.4469 -0.2569  0.6182
    5CHTO   H52 2036   6.040   2.851   4.383 -0.5413 -0.2437  0.5304
    5CHTO   C26 2037   6.148   2.989   4.506  0.4143 -1.0958  0.0021
    5CHTO   H54 2038   6.139   3.097   4.529 -0.3324 -0.5707 -2.6252
    5CHTO   O20 2039   6.116   2.920   4.631 -0.3173 -0.0653  0.3102
    5CHTO   H36 2040   6.169   2.943   4.706 -3.1510  1.7688  1.8411
    5CHTO   C30 2041   6.286   2.948   4.447  0.0084 -0.0004  0.0216
    5CHTO   H58 2042   6.293   2.840   4.426 -0.4348 -0.1800  0.7796
    5CHTO    N6 2043   6.399   2.979   4.531 -0.2628  0.0631  0.3968
    5CHTO   H45 2044   6.383   2.967   4.637  0.8673  0.7024  0.6530
    5CHTO   H46 2045   6.484   2.924   4.491  0.1326  1.3024 -0.5096
    5CHTO   C33 2046   6.301   3.021   4.307 -0.1994  0.3214 -1.0549
    5CHTO   H61 2047   6.297   3.131   4.313 -2.2199  0.2885 -1.3584
    5CHTO   O18 2048   6.190   2.985   4.233 -0.2200  0.1898  0.2465
    5CHTO   C28 2049   6.062   3.030   4.263  0.1979  0.0320 -0.3879
    5CHTO   H56 2050   6.078   3.137   4.277 -1.5176  0.4147 -1.2265
    5CHTO   C35 2051   5.965   2.990   4.142  0.3727  0.7488  0.9207
    5CHTO   O24 2052   5.968   2.850   4.122 -0.3872  0.4332  0.0739
    5CHTO   H39 2053   6.041   2.809   4.081 -0.7476 -0.9256  0.7799
    5CHTO    O9 2054   6.421   2.995   4.238 -0.5817  0.6827  0.1850
    5CHTO   C13 2055   6.447   2.843   4.184 -0.0383  0.0410 -0.1671
    5CHTO   H26 2056   6.359   2.782   4.213  0.6107 -0.8895 -0.1289
    5CHTO   C11 2057   6.586   2.786   4.248 -0.6213 -0.0036 -0.3292
    5CHTO   H24 2058   6.576   2.775   4.357 -0.2998  1.5668 -0.1288
    5CHTO    O8 2059   6.680   2.901   4.229 -0.0195 -0.6001  0.0943
    5CHTO    H3 2060   6.767   2.879   4.258  0.7709  2.1066 -0.0859
    5CHTO    C9 2061   6.625   2.650   4.176  0.7024 -0.1929 -0.7775
    5CHTO   H22 2062   6.531   2.593   4.182  1.4083 -1.3374 -0.5594
    5CHTO    N2 2063   6.735   2.589   4.255  0.1713 -0.0342  0.3466
    5CHTO   H10 2064   6.715   2.488   4.287 -1.6023  0.2075  0.0207
    5CHTO   H11 2065   6.831   2.598   4.206  1.4347 -2.2707  2.3203
    5CHTO    C7 2066   6.646   2.683   4.023 -0.0425 -0.5276 -0.3889
    5CHTO   H20 2067   6.583   2.605   3.975 -0.1958 -0.0601 -0.9584
    5CHTO    O4 2068   6.589   2.810   3.980  0.1117  0.1912  0.2053
    5CHTO   C14 2069   6.454   2.826   4.026 -0.7928  0.3798 -0.1703
    5CHTO   H27 2070   6.404   2.734   3.991  1.0821 -1.0365  0.7542
    5CHTO   C18 2071   6.392   2.943   3.945 -0.2394 -1.4231 -0.0920
    5CHTO   O13 2072   6.389   2.930   3.805 -0.1761 -0.8496  0.0037
    5CHTO    H7 2073   6.477   2.948   3.777  0.1645  2.3122  2.9010
    5CHTO    O2 2074   6.797   2.676   3.974 -0.0007 -0.2635  0.8444
    5CHTO    C1 2075   6.811   2.655   3.830 -0.5806  0.1877  0.1708
    5CHTO   H14 2076   6.716   2.679   3.779  0.2256  2.7855 -0.1891
    5CHTO    C2 2077   6.857   2.511   3.789 -0.1618  0.0585 -0.8082
    5CHTO   H15 2078   6.955   2.497   3.836  1.2811 -0.1188 -3.7802
    5CHTO    O6 2079   6.765   2.410   3.837  0.2016  0.3371  0.3676
    5CHTO    H1 2080   6.681   2.421   3.795 -0.4765 -2.3306  0.9105
    5CHTO    C3 2081   6.878   2.497   3.627  0.1888 -0.4173 -0.2505
    5CHTO   H16 2082   6.780   2.518   3.582  1.9214  0.2174 -3.8526
    5CHTO    N1 2083   6.920   2.355   3.595  0.2558 -0.0813 -0.7571
    5CHTO    H8 2084   6.921   2.343   3.488  1.5861 -2.8955 -0.4729
    5CHTO    H9 2085   7.021   2.345   3.632  0.2437 -1.1808 -1.0125
    5CHTO    C4 2086   6.971   2.612   3.577 -0.8976 -0.0038  0.7315
    5CHTO   H17 2087   7.071   2.592   3.614 -1.1821 -0.6638  1.1583
    5CHTO    O1 2088   6.920   2.737   3.634  0.0420 -0.4138  0.1082
    5CHTO    C5 2089   6.917   2.759   3.773  0.7032 -0.7796  0.5126
    5CHTO   H18 2090   7.017   2.744   3.815  0.7008 -3.5394 -0.3331
    5CHTO   C16 2091   6.877   2.906   3.789 -0.9172  0.2719  0.0379
    5CHTO   O11 2092   6.887   2.953   3.923  0.5028 -0.1971  0.1524
    5CHTO    H5 2093   6.846   3.037   3.927  1.0650  0.1505 -1.2058
    5CHTO    O3 2094   6.950   2.640   3.433 -0.2439 -0.4329 -0.9186
    5CHTO    C6 2095   7.071   2.652   3.352  0.0108  0.7528  0.3024
    5CHTO   H19 2096   7.153   2.643   3.423 -1.0280 -1.4543  1.2691
    5CHTO    C8 2097   7.081   2.539   3.235 -0.5559 -0.1474 -0.0669
    5CHTO   H21 2098   6.990   2.549   3.176  0.7332  0.6340 -1.9365
    5CHTO    O7 2099   7.091   2.407   3.287  0.4932 -0.0878  0.6232
    5CHTO    H2 2100   7.151   2.352   3.240 -1.2072 -1.3154 -0.1464
    5CHTO   C12 2101   7.194   2.570   3.130  0.5448 -0.7817 -0.4059
    5CHTO   H25 2102   7.291   2.570   3.185  0.6526  0.5204 -0.5934
    5CHTO    N3 2103   7.210   2.461   3.019  0.2556 -0.1935  0.5393
    5CHTO   H12 2104   7.282   2.384   3.043 -1.3297 -1.2657  1.9081
    5CHTO   H13 2105   7.113   2.428   2.987 -0.3021  0.3552  1.6453
    5CHTO   C15 2106   7.169   2.714   3.085 -0.2602  0.0568  0.4899
    5CHTO   H28 2107   7.071   2.739   3.045 -0.4547  0.2290  1.0720
    5CHTO   O10 2108   7.279   2.771   2.978 -0.9960  0.1414 -0.0316
    5CHTO    H4 2109   7.275   2.717   2.901 -3.6790  0.1393  0.0922
    5CHTO    O5 2110   7.186   2.807   3.189  0.4402  0.3358  0.7361
    5CHTO   C10 2111   7.078   2.792   3.282 -0.5870 -0.2309 -0.2647
    5CHTO   H23 2112   6.982   2.804   3.231 -0.8111  0.8026  0.3723
    5CHTO   C17 2113   7.086   2.908   3.381 -0.9039  0.1268  0.0249
    5CHTO   O12 2114   6.963   2.951   3.433  0.3972  0.4235 -0.1378
    5CHTO    H6 2115   6.906   2.980   3.365  0.0766  0.5659  0.1915
    6CHTO  H203 2116   6.857   3.895   0.344 -0.3293  1.1325  0.6671
    6CHTO   O82 2117   6.894   3.972   0.306  0.3739  0.5178  0.0816
    6CHTO  C123 2118   6.818   4.092   0.331  0.2724  0.1630  0.3010
    6CHTO  H227 2119   6.856   4.175   0.269 -2.8210  1.7134  0.3864
    6CHTO   O77 2120   6.689   4.051   0.269 -0.5140  0.9645 -0.0432
    6CHTO  C118 2121   6.584   4.144   0.272  0.3069 -0.8208  0.8884
    6CHTO  H222 2122   6.599   4.232   0.206  1.2299 -1.0386  0.8106
    6CHTO  C125 2123   6.471   4.064   0.217 -0.7988 -0.6910 -0.3536
    6CHTO   O84 2124   6.356   4.145   0.179  0.1598 -0.6167 -0.8814
    6CHTO  H205 2125   6.386   4.195   0.105  0.4111  1.2226  0.4369
    6CHTO  C114 2126   6.557   4.192   0.412  0.5278  0.0079 -0.9684
    6CHTO  H218 2127   6.517   4.111   0.472  0.9808  1.9393  2.1060
    6CHTO  C116 2128   6.681   4.237   0.488  0.2215  0.1874 -0.1658
    6CHTO  H220 2129   6.721   4.330   0.443  1.8244 -0.5674 -0.3560
    6CHTO   O79 2130   6.651   4.262   0.625 -0.0850  0.2187 -0.1038
    6CHTO  H201 2131   6.695   4.342   0.645 -1.2984  0.4967  1.4770
    6CHTO  C120 2132   6.792   4.121   0.482  0.0599 -0.1384 -0.0434
    6CHTO  H224 2133   6.755   4.031   0.536 -0.9846  0.5775  0.4439
    6CHTO   N21 2134   6.921   4.161   0.542  0.0545  0.1389  0.0517
    6CHTO  H211 2135   6.908   4.224   0.628  2.7554  0.2743  0.4028
    6CHTO  H212 2136   6.980   4.078   0.577  2.5808  0.9468 -2.1377
    6CHTO   O75 2137   6.448   4.287   0.400  0.3984 -0.1259  0.3199
    6CHTO  C112 2138   6.330   4.253   0.520  0.5091  0.2210  0.4877
    6CHTO  H216 2139   6.371   4.175   0.586  1.5581 -0.0711 -0.4973
    6CHTO   O73 2140   6.216   4.210   0.449 -0.4005 -0.4977  0.0053
    6CHTO  C113 2141   6.119   4.152   0.538 -0.3515 -0.4663  0.2019
    6CHTO  H217 2142   6.163   4.083   0.614  0.6565 -0.0433  0.0159
    6CHTO  C124 2143   6.015   4.080   0.462  0.1281 -0.5742  0.5266
    6CHTO   O83 2144   6.048   3.950   0.426  0.2991 -0.2949  0.6881
    6CHTO  H204 2145   5.985   3.885   0.452 -2.3770  2.0892  0.4807
    6CHTO  C109 2146   6.054   4.251   0.639 -0.2032  0.2280  0.2263
    6CHTO  H213 2147   5.999   4.323   0.575 -0.2248 -0.9534 -1.1192
    6CHTO  C110 2148   6.177   4.329   0.715  0.0406  0.3365 -0.3464
    6CHTO  H214 2149   6.216   4.263   0.793  0.9794 -0.6824 -1.6469
    6CHTO   O78 2150   6.120   4.439   0.786 -0.1389  0.1846 -0.4694
    6CHTO  H200 2151   6.093   4.411   0.871  3.6150 -3.3197 -0.2673
    6CHTO  C111 2152   6.288   4.374   0.611  0.4910 -0.2608 -0.4317
    6CHTO  H215 2153   6.247   4.453   0.547 -3.0995 -1.6012  0.0919
    6CHTO   N19 2154   6.405   4.433   0.677  0.0721 -0.1267  0.2117
    6CHTO  H207 2155   6.495   4.375   0.661  0.1753 -0.2659  1.2638
    6CHTO  H208 2156   6.389   4.448   0.783 -0.3466 -0.2177  0.1625
    6CHTO   O74 2157   5.957   4.188   0.729  0.5853  0.2912  0.6901
    6CHTO  C115 2158   5.864   4.277   0.828 -0.3542 -0.3025  0.4476
    6CHTO  H219 2159   5.922   4.321   0.909 -1.1058 -1.1390  1.4620
    6CHTO   O76 2160   5.789   4.406   0.753  0.6582 -0.2941 -0.6960
    6CHTO  C122 2161   5.710   4.484   0.836 -0.1695  0.3533 -0.1133
    6CHTO  H226 2162   5.647   4.542   0.769  1.4676  3.8136  1.2048
    6CHTO  C126 2163   5.790   4.593   0.919  0.1967 -0.1540 -0.4939
    6CHTO   O85 2164   5.870   4.538   1.020 -0.1633 -0.1136 -0.3771
    6CHTO  H206 2165   5.891   4.596   1.090  2.0131 -0.3177 -0.8040
    6CHTO  C121 2166   5.617   4.396   0.933  0.0659  0.1011  0.0487
    6CHTO  H225 2167   5.581   4.466   1.011  0.4069  1.2746 -0.8415
    6CHTO   O81 2168   5.503   4.353   0.860 -0.0016  0.1696  0.3928
    6CHTO  H202 2169   5.428   4.406   0.876 -2.2715 -2.8000 -0.0489
    6CHTO  C119 2170   5.685   4.278   0.999 -0.2456  0.8711 -0.2266
    6CHTO  H223 2171   5.773   4.306   1.057 -1.2035  0.8789  1.2528
    6CHTO  C117 2172   5.757   4.181   0.890  0.2393  0.3022 -0.2005
    6CHTO  H221 2173   5.692   4.139   0.813 -1.6346  0.0821  1.4510
    6CHTO   N20 2174   5.820   4.065   0.958 -0.0307 -0.3002 -0.3936
    6CHTO  H209 2175   5.839   3.992   0.881  1.6895  1.8996 -2.1247
    6CHTO  H210 2176   5.764   4.020   1.039  0.2218  1.7016  0.9189
    6CHTO   O80 2177   5.595   4.199   1.115 -0.1719  0.0411  0.2880
    6CHTO  C103 2178   5.572   4.262   1.258 -0.2686 -0.7809  0.0259
    6CHTO  H190 2179   5.662   4.248   1.318  0.6648 -0.8303 -1.3381
    6CHTO  C101 2180   5.530   4.407   1.267 -0.6322 -1.2528 -0.0773
    6CHTO  H188 2181   5.459   4.430   1.187 -1.0697  1.6511  1.0834
    6CHTO   O68 2182   5.662   4.513   1.248 -0.2359  0.2621 -0.1290
    6CHTO  H168 2183   5.651   4.562   1.168 -1.2005  1.4564  0.7185
    6CHTO   C99 2184   5.456   4.442   1.404  0.2924  0.3295  0.2971
    6CHTO  H186 2185   5.534   4.444   1.482  1.5196 -0.6902 -0.8881
    6CHTO   N17 2186   5.392   4.573   1.394 -0.6247  0.1299  0.1546
    6CHTO  H174 2187   5.352   4.602   1.491  1.5327  0.7205  0.9022
    6CHTO  H175 2188   5.463   4.650   1.367 -0.1929 -0.5624 -0.7077
    6CHTO   C97 2189   5.359   4.333   1.447  0.2148  0.3579  0.4679
    6CHTO  H184 2190   5.267   4.342   1.387  0.0407  1.4448  0.8747
    6CHTO   O64 2191   5.419   4.205   1.439  0.2314 -0.1947 -0.2682
    6CHTO  C104 2192   5.469   4.168   1.308  0.4122  0.2227 -0.8367
    6CHTO  H191 2193   5.388   4.172   1.236 -1.2641  1.5703  1.0589
    6CHTO  C108 2194   5.508   4.025   1.317  0.1654  0.3000 -0.9640
    6CHTO   O71 2195   5.404   3.926   1.324 -0.3812  0.1062 -0.7419
    6CHTO  H171 2196   5.386   3.899   1.412 -0.2948  1.1630 -0.3915
    6CHTO   O62 2197   5.336   4.332   1.584 -0.8808  0.1689  0.4336
    6CHTO   C91 2198   5.208   4.304   1.631  0.2106  0.4565  0.0868
    6CHTO  H178 2199   5.149   4.390   1.602  1.0772  1.4185  1.1050
    6CHTO   C92 2200   5.213   4.323   1.785  0.6404  0.6784  0.0043
    6CHTO  H179 2201   5.259   4.421   1.807 -0.5228  1.4394 -0.8961
    6CHTO   O66 2202   5.080   4.335   1.835  0.1913  0.2170 -0.2132
    6CHTO  H166 2203   5.081   4.336   1.929  1.4585 -0.3509 -0.2132
    6CHTO   C93 2204   5.288   4.199   1.852  0.0060 -0.6231  0.1560
    6CHTO  H180 2205   5.249   4.199   1.955 -1.4841 -0.6680 -0.3939
    6CHTO   N16 2206   5.435   4.214   1.863 -0.3720 -0.1023  0.3121
    6CHTO  H172 2207   5.475   4.289   1.796  0.3060  0.4910  1.3715
    6CHTO  H173 2208   5.493   4.123   1.855 -0.4225 -0.1273  0.2321
    6CHTO   C94 2209   5.250   4.066   1.783 -0.2272 -0.7239 -0.0489
    6CHTO  H181 2210   5.325   4.034   1.711  0.2200  0.8288 -0.2955
    6CHTO   O61 2211   5.131   4.070   1.703 -0.8050 -0.0035 -0.1955
    6CHTO   C95 2212   5.133   4.163   1.594  0.0028 -0.5429 -0.0408
    6CHTO  H182 2213   5.189   4.120   1.511 -1.9694  0.8936 -2.1527
    6CHTO  C106 2214   4.991   4.188   1.541 -0.3945  0.8449  0.8962
    6CHTO   O69 2215   4.930   4.065   1.501  0.1714  0.0045  0.9775
    6CHTO  H169 2216   4.971   4.025   1.426 -0.9466  1.3879 -0.4252
    6CHTO   O63 2217   5.227   3.972   1.889 -0.3229 -0.3109 -0.0867
    6CHTO   C96 2218   5.247   3.809   1.841  0.0298  0.2396  0.0065
    6CHTO  H183 2219   5.238   3.797   1.733 -0.0662 -1.4933  0.1953
    6CHTO   C98 2220   5.152   3.716   1.915  0.2757  1.1997  0.0107
    6CHTO  H185 2221   5.171   3.725   2.024 -3.1765 -1.5636  0.9175
    6CHTO   O67 2222   5.021   3.768   1.895  0.9406 -0.1381  0.1172
    6CHTO  H167 2223   5.010   3.834   1.960  2.1662  0.4382 -0.2500
    6CHTO  C102 2224   5.170   3.573   1.852  0.3114  0.3930 -0.4528
    6CHTO  H189 2225   5.132   3.583   1.749  0.1744 -1.0821 -0.5558
    6CHTO   N18 2226   5.096   3.457   1.913  0.3453 -0.1192  0.2112
    6CHTO  H176 2227   5.011   3.436   1.850  0.1863 -0.8115  0.6408
    6CHTO  H177 2228   5.154   3.367   1.927  1.0256 -0.2800 -3.2170
    6CHTO  C105 2229   5.321   3.540   1.835 -0.0929  0.7338 -0.4144
    6CHTO  H192 2230   5.346   3.448   1.887  0.3258  1.3608  0.5196
    6CHTO   O65 2231   5.420   3.628   1.891  0.1169 -0.0043 -0.0992
    6CHTO  C100 2232   5.391   3.768   1.886 -0.1585 -0.0913 -0.0234
    6CHTO  H187 2233   5.398   3.796   1.992 -0.3679 -0.5033  0.1036
    6CHTO  C107 2234   5.505   3.844   1.804  0.2953 -0.1726  0.1653
    6CHTO   O70 2235   5.495   3.818   1.661  0.0914 -0.4371 -0.4415
    6CHTO  H170 2236   5.412   3.844   1.625  0.5312 -0.5212 -1.5530
    6CHTO   O57 2237   5.350   3.534   1.702  0.0503  0.0032  0.4709
    6CHTO   C85 2238   5.411   3.423   1.630 -0.6379  0.0081  0.5673
    6CHTO  H157 2239   5.338   3.339   1.637 -3.1963  2.1353  0.3134
    6CHTO   C83 2240   5.545   3.370   1.696  0.5544  0.0578  0.1189
    6CHTO  H155 2241   5.510   3.317   1.785  3.5029  1.1944  2.0066
    6CHTO   O56 2242   5.628   3.481   1.738 -0.4903  0.5352 -0.0222
    6CHTO  H135 2243   5.672   3.460   1.818 -0.5012  2.5283  0.5483
    6CHTO   C81 2244   5.611   3.260   1.601  0.3510  1.0080 -0.2523
    6CHTO  H153 2245   5.538   3.179   1.595  0.6738  0.6891  0.1026
    6CHTO   N14 2246   5.724   3.194   1.657  0.4206 -0.0645 -0.4144
    6CHTO  H141 2247   5.750   3.113   1.593  0.1402 -1.1346  0.8189
    6CHTO  H142 2248   5.703   3.151   1.753  3.0423 -1.0156 -0.2187
    6CHTO   C79 2249   5.638   3.315   1.460  0.8184 -0.6599  0.1739
    6CHTO  H151 2250   5.661   3.230   1.396  1.1814 -0.4079 -0.0356
    6CHTO   O52 2251   5.510   3.363   1.407  0.0144 -0.5093  0.6159
    6CHTO   C86 2252   5.441   3.463   1.484  0.3743  0.4219 -0.1720
    6CHTO  H158 2253   5.513   3.547   1.479  0.7632  0.1446  0.7724
    6CHTO   C90 2254   5.311   3.509   1.406 -0.0565  0.6855  0.9262
    6CHTO   O60 2255   5.351   3.597   1.297  0.0821  0.5593 -0.7627
    6CHTO  H138 2256   5.427   3.566   1.250 -0.6184 -1.5032 -0.5896
    6CHTO   O50 2257   5.739   3.422   1.444 -0.0003  0.0984  0.0914
    6CHTO   C73 2258   5.882   3.433   1.474  0.1812  0.6501 -0.1590
    6CHTO  H145 2259   5.928   3.334   1.480  1.9420  1.2474 -3.0006
    6CHTO   C74 2260   5.902   3.513   1.604 -0.0618 -0.1783 -0.7433
    6CHTO  H146 2261   5.846   3.468   1.688 -0.0179  0.8922 -0.1406
    6CHTO   O54 2262   6.040   3.508   1.647 -0.3392 -0.4033  0.0777
    6CHTO  H133 2263   6.080   3.423   1.638 -0.5019 -0.2965 -1.9734
    6CHTO   C75 2264   5.847   3.658   1.572  0.4344  0.0823  0.3345
    6CHTO  H147 2265   5.744   3.646   1.536 -0.5559 -1.5792  3.5357
    6CHTO   N13 2266   5.835   3.746   1.691  0.4221 -0.4010  0.0975
    6CHTO  H139 2267   5.927   3.798   1.716 -1.2660  2.5155  0.4777
    6CHTO  H140 2268   5.753   3.816   1.690  0.8171  0.0650 -0.0438
    6CHTO   C76 2269   5.930   3.715   1.448 -0.0164  0.4256  0.2152
    6CHTO  H148 2270   6.038   3.718   1.464 -0.1332 -0.6996  1.3075
    6CHTO   O49 2271   5.901   3.635   1.334  0.7004 -0.0020  0.4298
    6CHTO   C77 2272   5.958   3.506   1.351 -0.1744  0.0184 -0.3478
    6CHTO  H149 2273   6.064   3.510   1.375  0.1455  1.1046 -1.8701
    6CHTO   C88 2274   5.935   3.423   1.228  0.8858  0.0781  0.0635
    6CHTO   O58 2275   5.787   3.421   1.185  0.5465  0.1393 -0.3541
    6CHTO  H136 2276   5.776   3.483   1.116  0.7511 -0.3971 -0.8709
    6CHTO   O51 2277   5.880   3.843   1.388  0.7640  0.2250  0.5741
    6CHTO   C78 2278   5.964   3.973   1.424 -0.6144  0.2214  0.1591
    6CHTO  H150 2279   6.032   3.953   1.510 -1.2835  1.7266  1.0529
    6CHTO   C80 2280   5.873   4.092   1.460  0.3704  0.7377  0.3017
    6CHTO  H152 2281   5.820   4.114   1.365  0.8750 -1.0438 -0.4232
    6CHTO   O55 2282   5.784   4.045   1.564  0.1063  0.0277 -0.7129
    6CHTO  H134 2283   5.845   4.025   1.633  0.7088 -0.9699 -1.5232
    6CHTO   C84 2284   5.952   4.218   1.507  0.5553  0.5220  0.0802
    6CHTO  H156 2285   5.997   4.196   1.604  0.8983  0.3559 -0.1140
    6CHTO   N15 2286   5.846   4.330   1.525 -0.0814  0.1777 -0.0093
    6CHTO  H143 2287   5.792   4.304   1.613  3.2099 -0.2759  1.9619
    6CHTO  H144 2288   5.775   4.352   1.449  0.0374  2.7504  0.5695
    6CHTO   C87 2289   6.064   4.251   1.404 -0.1606  1.2636  0.4608
    6CHTO  H159 2290   6.013   4.289   1.315  0.5088  0.4103 -0.2929
    6CHTO   O53 2291   6.144   4.112   1.373  0.2309 -0.0369  0.1129
    6CHTO   C82 2292   6.056   4.019   1.308 -0.6265  0.5078  0.7718
    6CHTO  H154 2293   6.002   4.070   1.227 -0.0984 -3.0762 -1.9747
    6CHTO   C89 2294   6.130   3.897   1.247 -0.2998  0.3484  0.3839
    6CHTO   O59 2295   6.204   3.919   1.128 -0.4235  0.6596 -0.7765
    6CHTO  H137 2296   6.160   3.960   1.057  1.0016 -0.4583 -2.3253
    6CHTO   O45 2297   6.156   4.374   1.468 -0.0948  0.3615  0.1429
    6CHTO   C67 2298   6.263   4.400   1.377  0.3719 -0.3057 -0.1923
    6CHTO  H124 2299   6.325   4.310   1.371 -0.8483 -1.2073  0.3901
    6CHTO   C65 2300   6.217   4.444   1.228 -0.8837 -0.1555 -0.3229
    6CHTO  H122 2301   6.110   4.458   1.239 -0.6630  1.3837 -0.0907
    6CHTO   O44 2302   6.229   4.334   1.142  0.2100  0.0692 -0.1817
    6CHTO  H102 2303   6.206   4.354   1.053  3.6507  1.5954 -0.8207
    6CHTO   C63 2304   6.277   4.586   1.185  0.1994 -0.6374 -0.2638
    6CHTO  H120 2305   6.236   4.665   1.249 -0.2025 -1.7225  0.8353
    6CHTO   N11 2306   6.240   4.633   1.050 -0.2224  0.0422 -0.5074
    6CHTO  H108 2307   6.290   4.572   0.978 -3.2115 -0.7327 -2.0062
    6CHTO  H109 2308   6.136   4.628   1.029 -0.4204  1.9650 -0.0515
    6CHTO   C61 2309   6.436   4.569   1.205 -0.1489  0.3045  0.1731
    6CHTO  H118 2310   6.470   4.669   1.175 -0.2580  0.3812  0.3037
    6CHTO   O40 2311   6.464   4.561   1.350  0.0706  0.2935  0.3221
    6CHTO   C68 2312   6.359   4.515   1.440 -0.1948  0.1376 -0.8002
    6CHTO  H125 2313   6.297   4.606   1.457 -1.1958 -0.7205  0.1648
    6CHTO   C72 2314   6.421   4.471   1.576 -0.3976  0.1334  0.2247
    6CHTO   O48 2315   6.493   4.571   1.649  0.0292  0.7053  0.5580
    6CHTO  H105 2316   6.537   4.634   1.595 -0.6213  2.4427  2.0062
    6CHTO   O38 2317   6.493   4.466   1.123 -0.1596 -0.2021 -0.2426
    6CHTO   C55 2318   6.638   4.490   1.105  0.6333 -0.7216  1.2081
    6CHTO  H112 2319   6.672   4.574   1.167  0.2306  0.9560 -0.7972
    6CHTO   C56 2320   6.671   4.512   0.948 -0.0990  0.5925 -0.5847
    6CHTO  H113 2321   6.636   4.427   0.888  1.7566  1.3127 -2.7526
    6CHTO   O42 2322   6.589   4.620   0.904 -0.2790  0.3645  0.6289
    6CHTO  H100 2323   6.598   4.686   0.971  0.0785  2.3894 -1.3479
    6CHTO   C57 2324   6.824   4.546   0.926  0.2093  0.5243  0.1576
    6CHTO  H114 2325   6.857   4.636   0.978  1.4913 -0.5680  1.2958
    6CHTO   N10 2326   6.858   4.566   0.789  0.3636  0.2692  0.4589
    6CHTO  H106 2327   6.963   4.545   0.779  0.4563  0.1406  1.6908
    6CHTO  H107 2328   6.837   4.662   0.744  0.3178 -0.8824 -2.0992
    6CHTO   C58 2329   6.898   4.422   0.987  0.9458  0.0522  0.0340
    6CHTO  H115 2330   6.868   4.333   0.929 -1.5279  2.5799 -2.6956
    6CHTO   O37 2331   6.860   4.401   1.129  0.3977 -0.5802  0.1423
    6CHTO   C59 2332   6.719   4.370   1.143 -0.9205  0.7147 -0.6515
    6CHTO  H116 2333   6.699   4.282   1.083  0.9791 -0.9260  1.0359
    6CHTO   C70 2334   6.682   4.315   1.283 -0.4275 -0.1269  0.0763
    6CHTO   O46 2335   6.728   4.388   1.397 -0.6735 -0.1918  0.1262
    6CHTO  H103 2336   6.819   4.366   1.408 -0.8494 -0.1956  1.6294
    6CHTO   O39 2337   7.051   4.444   0.967  0.4990 -0.8869  0.2155
    6CHTO   C60 2338   7.135   4.330   0.999  0.1234  0.1600  0.2751
    6CHTO  H117 2339   7.098   4.278   1.087  1.1821 -0.3148  0.4496
    6CHTO   C62 2340   7.131   4.227   0.886  0.3118 -0.1335 -0.0002
    6CHTO  H119 2341   7.024   4.196   0.884  0.7965 -1.8625 -0.5125
    6CHTO   O43 2342   7.176   4.286   0.761 -0.2831 -0.4862  0.1111
    6CHTO  H101 2343   7.173   4.224   0.690  2.7331 -1.0588  0.4253
    6CHTO   C66 2344   7.218   4.096   0.924  0.3369  0.5652  0.3099
    6CHTO  H123 2345   7.193   4.066   1.026 -1.1914  2.2910  0.4816
    6CHTO   N12 2346   7.174   3.988   0.827  0.1837  0.5735  0.0794
    6CHTO  H110 2347   7.067   3.983   0.815 -0.0706  0.1797  2.4079
    6CHTO  H111 2348   7.206   3.897   0.876 -1.2447 -0.4229 -0.8086
    6CHTO   C69 2349   7.367   4.141   0.942 -0.3113 -0.1360 -0.0323
    6CHTO  H126 2350   7.397   4.170   0.839  1.2664  0.8244  0.6856
    6CHTO   O41 2351   7.368   4.260   1.039 -0.3054 -0.3871  0.3009
    6CHTO   C64 2352   7.280   4.379   1.030 -0.2333 -0.9982  0.5210
    6CHTO  H121 2353   7.317   4.451   0.955 -1.1423 -2.2153 -1.1227
    6CHTO   C71 2354   7.285   4.449   1.165 -0.3625  0.3340  0.3875
    6CHTO   O47 2355   7.407   4.501   1.206 -0.1577 -0.0657 -0.3664
    6CHTO  H104 2356   7.391   4.531   1.294 -2.8609  0.7216 -1.0633
    6CHTO   O34 2357   7.461   4.039   0.993 -0.6869  0.2286  1.0136
    6CHTO   C49 2358   7.583   3.975   0.918 -0.0103 -0.8167 -0.7160
    6CHTO   H91 2359   7.552   3.925   0.826 -1.1902 -0.9413 -0.2686
    6CHTO   C47 2360   7.654   3.873   1.014  0.6444  0.3485  0.3976
    6CHTO   H89 2361   7.744   3.835   0.962 -0.0846 -0.8730  0.0070
    6CHTO   O33 2362   7.569   3.760   1.049 -0.2743  0.4771 -0.0399
    6CHTO   H70 2363   7.507   3.739   0.983  0.6514 -1.8421 -0.2387
    6CHTO   C45 2364   7.695   3.957   1.149 -0.0144  0.2767 -0.1014
    6CHTO   H87 2365   7.610   3.961   1.219  0.0431 -1.0717  0.0630
    6CHTO    N8 2366   7.807   3.887   1.218 -0.2719 -0.2371  0.0404
    6CHTO   H75 2367   7.884   3.955   1.248  0.4061 -1.0833  0.2453
    6CHTO   H76 2368   7.774   3.842   1.311  1.2036 -0.7671  0.3163
    6CHTO   C43 2369   7.720   4.113   1.125 -0.3387  0.1503  0.2531
    6CHTO   H85 2370   7.621   4.154   1.146 -1.6110 -2.6127 -0.0881
    6CHTO   O29 2371   7.762   4.144   0.990 -0.2224 -0.3879  0.1102
    6CHTO   C50 2372   7.681   4.092   0.885 -0.0825 -0.2595  0.1330
    6CHTO   H92 2373   7.621   4.176   0.847 -0.1480  0.6242  2.0962
    6CHTO   C54 2374   7.785   4.065   0.770 -0.0595 -0.4985 -0.2208
    6CHTO   O36 2375   7.861   4.186   0.736 -0.1945  0.4092 -0.1859
    6CHTO   H72 2376   7.932   4.208   0.793 -0.2651  1.7019 -0.5948
    6CHTO   O27 2377   7.810   4.175   1.218  0.0998  0.2124  0.2797
    6CHTO   C37 2378   7.871   4.308   1.251 -0.0183  0.0440  0.6019
    6CHTO   H79 2379   7.951   4.329   1.178 -0.7307  0.6458 -0.0150
    6CHTO   C38 2380   7.757   4.412   1.245 -0.4414 -0.2456 -0.4610
    6CHTO   H80 2381   7.677   4.367   1.306 -0.4223 -0.4690 -0.6017
    6CHTO   O31 2382   7.724   4.416   1.109 -0.2459  0.3414 -1.0378
    6CHTO   H68 2383   7.718   4.508   1.093 -1.5995  0.3876 -0.3688
    6CHTO   C39 2384   7.793   4.552   1.311 -0.3026 -0.0933  0.7736
    6CHTO   H81 2385   7.860   4.597   1.237 -0.8910  0.9554  0.8667
    6CHTO    N7 2386   7.675   4.644   1.320 -0.4890 -0.3648 -0.2572
    6CHTO   H73 2387   7.689   4.750   1.336 -2.5489 -0.0125 -0.6987
    6CHTO   H74 2388   7.576   4.606   1.299 -0.7555 -0.4924  1.1798
    6CHTO   C40 2389   7.857   4.526   1.452  0.1981  0.1166 -0.3962
    6CHTO   H82 2390   7.788   4.490   1.528  0.3560  0.3576 -0.1398
    6CHTO   O26 2391   7.967   4.437   1.439  0.0672 -0.1126 -0.5367
    6CHTO   C41 2392   7.934   4.302   1.397 -0.6741  0.3703 -0.1251
    6CHTO   H83 2393   7.858   4.262   1.467  0.7237  2.2435  2.5617
    6CHTO   C52 2394   8.052   4.201   1.399  0.8286 -0.5686 -0.4786
    6CHTO   O35 2395   8.076   4.149   1.536  0.2818  0.3161  0.0369
    6CHTO   H71 2396   8.099   4.058   1.534 -0.4418  0.1045  1.1423
    6CHTO   O28 2397   7.911   4.648   1.506 -0.2419 -1.3075  0.0434
    6CHTO   C42 2398   7.922   4.682   1.652  0.4440  0.7921 -0.1801
    6CHTO   H84 2399   8.026   4.715   1.654  0.4198  0.9095 -0.6495
    6CHTO   C44 2400   7.906   4.564   1.753 -0.0326 -0.3437  0.5355
    6CHTO   H86 2401   7.803   4.528   1.753 -0.6151  1.2178 -0.7324
    6CHTO   O32 2402   7.991   4.461   1.713  0.5700  0.1172  0.0869
    6CHTO   H69 2403   7.987   4.385   1.769 -2.4008  1.0940  1.3096
    6CHTO   C48 2404   7.934   4.618   1.899 -0.5310 -0.0800  0.2775
    6CHTO   H90 2405   8.032   4.664   1.910 -1.8888  2.5026  1.8545
    6CHTO    N9 2406   7.935   4.509   2.006  0.3550  0.1087  0.1636
    6CHTO   H77 2407   8.032   4.462   2.020  0.0594  0.7968  5.8337
    6CHTO   H78 2408   7.903   4.550   2.101 -0.2080  1.5849 -0.6569
    6CHTO   C51 2409   7.828   4.728   1.935  0.2855 -0.6164 -0.7187
    6CHTO   H93 2410   7.724   4.694   1.937  0.3023 -0.6360  1.5998
    6CHTO   O30 2411   7.844   4.835   1.845 -0.2775  0.5021  0.2901
    6CHTO   C46 2412   7.832   4.801   1.694 -0.3177 -0.5091  0.9034
    6CHTO   H88 2413   7.727   4.783   1.671 -0.5426  2.8153 -1.0309
    6CHTO   C53 2414   7.880   4.933   1.628 -0.0848  0.4617 -0.3256
    6CHTO   O72 2415   7.832   4.944   1.487  0.3114 -0.0951 -0.6090
    6CHTO  H199 2416   7.865   5.024   1.450 -2.2821  0.9304 -0.7612
    6CHTO   O22 2417   7.854   4.782   2.062 -0.3636  0.0325 -0.3479
    6CHTO   C31 2418   7.754   4.837   2.150 -0.7727  0.9361  0.2896
    6CHTO   H59 2419   7.796   4.936   2.175  0.1310  1.0815 -1.7443
    6CHTO   C29 2420   7.612   4.867   2.087 -0.1217  0.1095 -0.9328
    6CHTO   H57 2421   7.578   4.779   2.031  2.2967 -1.1049 -0.5511
    6CHTO   O21 2422   7.627   4.961   1.982 -0.3191  0.0443  0.1484
    6CHTO   H37 2423   7.675   4.928   1.909  1.2659 -3.3237  2.5521
    6CHTO   C27 2424   7.506   4.914   2.194 -0.7057 -0.2107 -0.3143
    6CHTO   H55 2425   7.523   5.020   2.220 -0.3199  0.2210 -2.2947
    6CHTO    N5 2426   7.374   4.909   2.132  0.3098 -0.1563  0.0670
    6CHTO   H43 2427   7.372   4.977   2.048  1.3434 -0.2877 -0.0701
    6CHTO   H44 2428   7.299   4.933   2.206  0.6051 -0.8274  0.5852
    6CHTO   C25 2429   7.520   4.832   2.335 -0.4343 -0.2184  0.1665
    6CHTO   H53 2430   7.478   4.731   2.322  3.6319 -1.8621 -1.1078
    6CHTO   O17 2431   7.656   4.819   2.375 -0.3093  0.2205  0.2415
    6CHTO   C32 2432   7.745   4.753   2.283  0.4435 -0.1948 -0.7569
    6CHTO   H60 2433   7.706   4.655   2.255  0.9217 -1.1460  1.7861
    6CHTO   C36 2434   7.882   4.726   2.356  0.7500 -1.0985 -0.0031
    6CHTO   O25 2435   7.885   4.619   2.456 -0.0004  0.4430 -0.0281
    6CHTO   H40 2436   7.863   4.538   2.414 -2.8883  1.8132 -1.3742
    6CHTO   O15 2437   7.436   4.899   2.444  0.1617  0.2422  0.0342
    6CHTO   C19 2438   7.338   4.990   2.519  0.9469  0.4152 -0.0762
    6CHTO   H47 2439   7.358   4.977   2.627  1.1491  1.4176  0.0111
    6CHTO   C20 2440   7.344   5.143   2.497 -0.2459 -0.0310  0.7954
    6CHTO   H48 2441   7.332   5.163   2.389  1.5292  0.1378  0.6103
    6CHTO   O19 2442   7.476   5.181   2.528 -0.2400 -0.5549 -0.1608
    6CHTO   H35 2443   7.491   5.270   2.501 -0.2161 -1.3567 -2.8752
    6CHTO   C21 2444   7.233   5.212   2.577  0.5801 -0.2395 -0.5697
    6CHTO   H49 2445   7.252   5.205   2.684 -0.2741  0.2257 -0.3848
    6CHTO    N4 2446   7.232   5.357   2.545 -0.6721  0.3246  0.3148
    6CHTO   H41 2447   7.318   5.407   2.588  0.9082 -3.2669  1.4781
    6CHTO   H42 2448   7.143   5.396   2.592 -1.4576 -0.7579 -0.2491
    6CHTO   C22 2449   7.095   5.149   2.547 -0.7767  0.4984  0.0961
    6CHTO   H50 2450   7.053   5.167   2.448 -0.5588 -0.8935 -0.2528
    6CHTO   O14 2451   7.111   5.008   2.567  0.4841 -0.3468  0.1055
    6CHTO   C23 2452   7.201   4.928   2.495 -0.2063  0.2085 -0.3915
    6CHTO   H51 2453   7.176   4.913   2.388 -3.3808 -1.1035  0.4743
    6CHTO   C34 2454   7.178   4.793   2.563 -0.2989  0.4009  0.2578
    6CHTO   O23 2455   7.278   4.699   2.527 -0.0534  0.2897 -0.1826
    6CHTO   H38 2456   7.359   4.736   2.555  0.9443 -1.0172 -1.2721
    6CHTO   O16 2457   6.992   5.182   2.640  0.0480 -0.2242  0.0533
    6CHTO   C24 2458   6.873   5.264   2.582 -0.6800 -0.4361  0.7509
    6CHTO   H52 2459   6.895   5.302   2.482  0.8830  0.2224  1.3346
    6CHTO   C26 2460   6.840   5.383   2.672 -0.3061  0.0015  0.0184
    6CHTO   H54 2461   6.820   5.341   2.773  1.4597 -1.9227 -0.3841
    6CHTO   O20 2462   6.950   5.475   2.683  0.6195  0.2383  0.6631
    6CHTO   H36 2463   6.936   5.527   2.760  0.1507 -0.0028  0.7434
    6CHTO   C30 2464   6.705   5.458   2.627  0.3295 -0.3830  0.0568
    6CHTO   H58 2465   6.725   5.512   2.534  0.8573  1.2931  1.1108
    6CHTO    N6 2466   6.657   5.571   2.718 -0.3853 -0.1727 -0.6714
    6CHTO   H45 2467   6.626   5.656   2.659 -1.8021 -0.2586 -0.0670
    6CHTO   H46 2468   6.736   5.602   2.786  0.2577  1.8368 -2.2630
    6CHTO   C33 2469   6.593   5.348   2.594  0.1804 -0.8454 -0.0618
    6CHTO   H61 2470   6.571   5.296   2.688  0.8963 -2.7649 -0.9296
    6CHTO   O18 2471   6.635   5.243   2.508  0.2573 -0.2329  0.2850
    6CHTO   C28 2472   6.746   5.173   2.565 -0.3506  0.1138  0.2238
    6CHTO   H56 2473   6.719   5.124   2.658  1.6236  0.7494  1.1656
    6CHTO   C35 2474   6.772   5.052   2.476 -0.1554  0.4707 -0.2603
    6CHTO   O24 2475   6.798   5.083   2.342  0.5115 -0.5093 -0.6667
    6CHTO   H39 2476   6.732   5.043   2.289  0.7862 -1.7338 -0.1098
    6CHTO    O9 2477   6.465   5.411   2.551  0.3147  0.5205 -0.5033
    6CHTO   C13 2478   6.340   5.379   2.634  0.1621  0.2073  0.1646
    6CHTO   H26 2479   6.364   5.338   2.735 -2.8330  1.3564  1.4209
    6CHTO   C11 2480   6.254   5.280   2.555  0.6157  0.2057  0.6459
    6CHTO   H24 2481   6.312   5.189   2.536  0.1102 -0.1000  0.5922
    6CHTO    O8 2482   6.223   5.330   2.424  0.6804  0.3477  0.5352
    6CHTO    H3 2483   6.151   5.287   2.381  2.0478 -2.9638  1.4057
    6CHTO    C9 2484   6.131   5.254   2.647 -0.4689  0.3370 -0.0068
    6CHTO   H22 2485   6.176   5.215   2.740  3.0172  2.0087 -0.8921
    6CHTO    N2 2486   6.042   5.148   2.597  0.4318  0.0576 -0.1350
    6CHTO   H10 2487   6.000   5.171   2.501 -2.2468 -0.0961  0.9414
    6CHTO   H11 2488   5.961   5.126   2.665 -0.9676  0.4966 -1.6242
    6CHTO    C7 2489   6.055   5.392   2.685 -0.5663 -0.3269 -0.1976
    6CHTO   H20 2490   6.068   5.393   2.795  1.9659  1.6233 -0.4860
    6CHTO    O4 2491   6.121   5.506   2.625  1.0373  0.4208 -0.4290
    6CHTO   C14 2492   6.259   5.520   2.671  0.9425  0.0934  0.5522
    6CHTO   H27 2493   6.263   5.540   2.780 -2.8154 -0.6568  0.8930
    6CHTO   C18 2494   6.310   5.648   2.605  0.2083 -0.6148 -0.5548
    6CHTO   O13 2495   6.222   5.758   2.623  0.0015  0.3102 -0.2251
    6CHTO    H7 2496   6.268   5.835   2.596  0.2779  0.9271  1.8848
    6CHTO    O2 2497   5.886   5.391   2.650  0.5103  0.1549 -0.2545
    6CHTO    C1 2498   5.806   5.447   2.757 -0.3157 -0.0125 -0.3993
    6CHTO   H14 2499   5.704   5.465   2.718 -1.1076 -0.1902  1.5423
    6CHTO    C2 2500   5.863   5.584   2.809 -0.2835 -0.5340  0.0589
    6CHTO   H15 2501   5.966   5.582   2.846  0.8831 -1.5326 -3.1353
    6CHTO    O6 2502   5.868   5.669   2.694 -0.6932  0.1485  0.2906
    6CHTO    H1 2503   5.940   5.660   2.634  0.9510 -0.6506  2.3188
    6CHTO    C3 2504   5.757   5.645   2.911  0.5867 -0.1823  0.2561
    6CHTO   H16 2505   5.661   5.662   2.861  1.0774  0.8370 -0.3338
    6CHTO    N1 2506   5.800   5.774   2.977  0.0302 -0.0747 -0.4319
    6CHTO    H8 2507   5.908   5.778   2.985 -0.1036  0.7753  1.2572
    6CHTO    H9 2508   5.738   5.802   3.061  0.8688  1.3549 -0.2814
    6CHTO    C4 2509   5.724   5.536   3.027 -0.5835  0.2170 -0.2355
    6CHTO   H17 2510   5.808   5.530   3.097 -1.2034 -1.6788  0.3928
    6CHTO    O1 2511   5.698   5.407   2.963 -0.4537  0.3976  0.2873
    6CHTO    C5 2512   5.802   5.351   2.882 -0.0302  0.2148 -0.0830
    6CHTO   H18 2513   5.901   5.358   2.927  1.1550 -0.2764 -2.5240
    6CHTO   C16 2514   5.771   5.200   2.834  0.3993  0.4903 -0.0358
    6CHTO   O11 2515   5.637   5.156   2.843 -0.0009  0.1895 -0.0157
    6CHTO    H5 2516   5.624   5.108   2.922 -0.3511 -1.6617 -1.1767
    6CHTO    O3 2517   5.603   5.566   3.097  0.4202  0.0941 -0.6584
    6CHTO    C6 2518   5.603   5.523   3.240  0.4711 -0.6443  0.0459
    6CHTO   H19 2519   5.675   5.443   3.262  1.4304 -0.2324 -1.4991
    6CHTO    C8 2520   5.639   5.643   3.338 -0.3026  0.3288 -0.3895
    6CHTO   H21 2521   5.578   5.728   3.307 -2.2397 -1.3177 -1.2176
    6CHTO    O7 2522   5.781   5.665   3.305 -0.2238  0.1142 -0.2294
    6CHTO    H2 2523   5.796   5.696   3.217  0.2109  1.7197  0.3979
    6CHTO   C12 2524   5.627   5.588   3.483  0.3271  0.1510 -0.8112
    6CHTO   H25 2525   5.701   5.505   3.488  0.1554  0.1205  2.4727
    6CHTO    N3 2526   5.658   5.697   3.589  0.1270 -0.4055  0.0504
    6CHTO   H12 2527   5.651   5.662   3.691  0.0397 -1.5293 -0.3270
    6CHTO   H13 2528   5.614   5.795   3.581  1.8514  0.2536 -1.7776
    6CHTO   C15 2529   5.488   5.527   3.495 -0.3211  0.4042  0.2972
    6CHTO   H28 2530   5.416   5.608   3.492  1.1360  1.8081  2.0128
    6CHTO   O10 2531   5.470   5.450   3.619 -0.0839 -0.2173  0.1684
    6CHTO    H4 2532   5.424   5.511   3.673  0.9315  1.2495 -0.5888
    6CHTO    O5 2533   5.456   5.426   3.400  0.4501  0.6270  0.1320
    6CHTO   C10 2534   5.459   5.465   3.263  0.0320  0.9317 -0.4586
    6CHTO   H23 2535   5.383   5.540   3.242  0.6490  1.8568  0.5834
    6CHTO   C17 2536   5.432   5.339   3.181 -0.0365  0.0246  0.7883
    6CHTO   O12 2537   5.291   5.304   3.167  0.4897  0.0604 -0.3806
    6CHTO    H6 2538   5.254   5.362   3.104  1.1552  1.1546  0.2309
    7CHTO  H203 2539   5.237   2.161   3.038 -0.5108 -0.1601  1.1190
    7CHTO   O82 2540   5.296   2.235   3.037 -0.2522 -0.3705  0.5879
    7CHTO  C123 2541   5.416   2.192   2.973 -0.1910 -1.3585  0.5273
    7CHTO  H227 2542   5.392   2.165   2.869 -1.5922 -2.4670  1.1338
    7CHTO   O77 2543   5.486   2.323   2.964 -0.3259 -0.0224  0.1329
    7CHTO  C118 2544   5.622   2.312   2.915  0.0899 -1.0396  0.8637
    7CHTO  H222 2545   5.613   2.280   2.811  0.5972  1.6265 -0.0417
    7CHTO  C125 2546   5.680   2.452   2.910  0.5448 -0.6192  0.0417
    7CHTO   O84 2547   5.616   2.541   2.818  0.2032  0.0298 -0.1883
    7CHTO  H205 2548   5.647   2.534   2.730  0.0569  0.3227 -0.2643
    7CHTO  C114 2549   5.712   2.225   3.004  0.3330  0.3939 -0.1644
    7CHTO  H218 2550   5.711   2.266   3.105 -0.9471  0.9891 -0.4025
    7CHTO  C116 2551   5.651   2.077   3.014  0.6675  0.1584  0.3171
    7CHTO  H220 2552   5.673   2.041   2.911  0.9707  0.9995  0.0849
    7CHTO   O79 2553   5.720   1.991   3.102 -0.4901  0.7240 -0.1945
    7CHTO  H201 2554   5.801   1.964   3.064 -1.4503 -2.3747 -0.1252
    7CHTO  C120 2555   5.498   2.082   3.051 -0.5444 -0.1059 -0.4437
    7CHTO  H224 2556   5.503   2.105   3.159  1.2838  0.6604 -0.6760
    7CHTO   N21 2557   5.436   1.947   3.020  0.5242 -0.0752 -0.1061
    7CHTO  H211 2558   5.491   1.903   2.938 -1.2340 -2.3524 -0.1049
    7CHTO  H212 2559   5.437   1.873   3.098 -0.5742 -0.0334 -0.0419
    7CHTO   O75 2560   5.845   2.233   2.940 -0.4366  0.7388  0.4336
    7CHTO  C112 2561   5.957   2.203   3.028  0.1671 -0.4682 -1.0910
    7CHTO  H216 2562   5.951   2.100   3.067 -0.8315 -1.5268 -3.9413
    7CHTO   O73 2563   5.957   2.300   3.136  0.6024 -0.3531 -0.1440
    7CHTO  C113 2564   6.054   2.281   3.235  0.6906 -0.3607  0.1473
    7CHTO  H217 2565   6.022   2.182   3.272 -0.8343 -0.5154 -1.4857
    7CHTO  C124 2566   6.044   2.383   3.348 -0.2694  0.1205  0.7918
    7CHTO   O83 2567   6.065   2.313   3.468 -0.2738 -0.1427  0.3882
    7CHTO  H204 2568   5.989   2.335   3.518 -0.7699  1.1901 -0.8984
    7CHTO  C109 2569   6.199   2.283   3.170 -0.3868  0.2649 -0.9733
    7CHTO  H213 2570   6.219   2.386   3.139  0.6751 -1.1225 -5.2863
    7CHTO  C110 2571   6.215   2.191   3.040 -0.0640  0.2506  0.3012
    7CHTO  H214 2572   6.209   2.086   3.069  1.1081 -0.5535 -2.2171
    7CHTO   O78 2573   6.348   2.204   2.984  0.2801 -0.0905  0.0671
    7CHTO  H200 2574   6.380   2.292   2.982  1.2949 -0.4552 -0.2631
    7CHTO  C111 2575   6.095   2.225   2.944  0.1701  0.7361 -0.2991
    7CHTO  H215 2576   6.101   2.333   2.923  0.4918  0.6347 -0.7222
    7CHTO   N19 2577   6.098   2.153   2.808 -0.0688 -0.2187  0.5072
    7CHTO  H207 2578   6.174   2.076   2.812  1.0751  0.9246  1.0618
    7CHTO  H208 2579   6.120   2.223   2.729 -0.2090  0.0123  0.6700
    7CHTO   O74 2580   6.306   2.245   3.258 -0.1606 -0.5965  0.1121
    7CHTO  C115 2581   6.418   2.345   3.253  0.7843  0.5836 -0.1246
    7CHTO  H219 2582   6.417   2.398   3.158  2.7515  0.6170 -0.1445
    7CHTO   O76 2583   6.404   2.451   3.363 -0.4905 -0.0161 -0.3617
    7CHTO  C122 2584   6.410   2.404   3.491 -0.2228  0.2331 -0.0050
    7CHTO  H226 2585   6.325   2.342   3.518 -0.7664  0.8466 -0.2891
    7CHTO  C126 2586   6.401   2.528   3.597 -0.1017  0.4589  0.2432
    7CHTO   O85 2587   6.365   2.489   3.730  0.1552  0.4141  0.0915
    7CHTO  H206 2588   6.272   2.505   3.727  0.4874  2.1230 -1.2266
    7CHTO  C121 2589   6.537   2.318   3.522 -0.1322 -0.3481  0.8415
    7CHTO  H225 2590   6.614   2.395   3.503 -0.4011 -0.3346 -0.2327
    7CHTO   O81 2591   6.530   2.280   3.656 -0.1874  0.4216 -0.2389
    7CHTO  H202 2592   6.513   2.357   3.707  1.4688  0.3646  0.4495
    7CHTO  C119 2593   6.549   2.204   3.415 -0.1436  0.1027  0.1253
    7CHTO  H223 2594   6.643   2.152   3.433 -0.2196 -0.5785 -1.4026
    7CHTO  C117 2595   6.546   2.263   3.266 -0.1607  0.5831 -0.1898
    7CHTO  H221 2596   6.546   2.185   3.189 -0.2756  0.3071  0.0903
    7CHTO   N20 2597   6.663   2.351   3.229 -0.1153 -0.2065 -0.5532
    7CHTO  H209 2598   6.709   2.387   3.319 -0.8066 -2.3246  0.6965
    7CHTO  H210 2599   6.739   2.290   3.181  1.4031  0.8477  0.4810
    7CHTO   O80 2600   6.469   2.098   3.430  0.5161 -0.0511 -0.1086
    7CHTO  C103 2601   6.492   1.965   3.355  0.7351 -0.8755  0.1305
    7CHTO  H190 2602   6.467   1.985   3.251  0.9314 -0.3123  0.1896
    7CHTO  C101 2603   6.628   1.887   3.361  0.4605 -0.3432 -0.0889
    7CHTO  H188 2604   6.673   1.889   3.460 -0.9026  0.7645  0.5347
    7CHTO   O68 2605   6.739   1.966   3.270 -0.8002  0.3534 -0.1201
    7CHTO  H168 2606   6.725   1.941   3.181  0.0154  1.3268 -0.5438
    7CHTO   C99 2607   6.592   1.734   3.330 -0.1514 -0.0987  0.0820
    7CHTO  H186 2608   6.563   1.738   3.223 -0.4996 -0.7451  0.1469
    7CHTO   N17 2609   6.701   1.631   3.331  0.5978 -0.1300  0.3178
    7CHTO  H174 2610   6.765   1.663   3.250 -0.8142 -0.3614 -0.9144
    7CHTO  H175 2611   6.653   1.537   3.306  0.2516  0.0636  0.2499
    7CHTO   C97 2612   6.464   1.677   3.400  0.0529 -0.3482 -0.1463
    7CHTO  H184 2613   6.481   1.674   3.509 -1.7551  2.1954  0.2372
    7CHTO   O64 2614   6.347   1.753   3.367 -0.2065 -0.0452 -0.2200
    7CHTO  C104 2615   6.362   1.885   3.419  0.0034  0.2767 -0.3177
    7CHTO  H191 2616   6.361   1.889   3.528  0.5187 -0.1912 -0.2970
    7CHTO  C108 2617   6.232   1.960   3.375 -0.3476  0.1185 -0.6696
    7CHTO   O71 2618   6.130   1.910   3.460 -0.3048  0.3265 -0.4089
    7CHTO  H171 2619   6.062   1.974   3.463 -2.3165 -1.6008 -2.6146
    7CHTO   O62 2620   6.413   1.557   3.349  0.6149 -0.1841  0.5187
    7CHTO   C91 2621   6.347   1.464   3.437  0.0337  0.0235 -0.4228
    7CHTO  H178 2622   6.301   1.391   3.371 -0.4405  0.3208 -0.4221
    7CHTO   C92 2623   6.218   1.524   3.513 -0.6532  0.0883 -0.5174
    7CHTO  H179 2624   6.262   1.611   3.564 -1.0628  1.1614 -1.9658
    7CHTO   O66 2625   6.133   1.573   3.409  0.3586  0.0150 -0.1620
    7CHTO  H166 2626   6.070   1.509   3.385  1.4223 -2.0224  2.2133
    7CHTO   C93 2627   6.151   1.413   3.604  0.8607 -0.1216 -0.7470
    7CHTO  H180 2628   6.119   1.339   3.529 -0.1928  0.5891 -1.0001
    7CHTO   N16 2629   6.026   1.455   3.674 -0.6751 -0.3494  0.4988
    7CHTO  H172 2630   5.939   1.400   3.643 -1.1316 -0.9421  2.7521
    7CHTO  H173 2631   6.007   1.561   3.666 -0.2382 -0.3279 -0.3633
    7CHTO   C94 2632   6.253   1.351   3.698  0.6785  0.0711 -0.1565
    7CHTO  H181 2633   6.294   1.428   3.764 -0.9918  1.1138 -0.2921
    7CHTO   O61 2634   6.358   1.301   3.615 -0.5414  0.3020  0.4694
    7CHTO   C95 2635   6.437   1.388   3.531  0.8704 -0.6097  0.0808
    7CHTO  H182 2636   6.487   1.463   3.593  0.0123 -1.2719  1.6148
    7CHTO  C106 2637   6.543   1.310   3.449  0.6514  0.3116  0.1991
    7CHTO   O69 2638   6.653   1.294   3.535  0.7173  0.1989  0.4458
    7CHTO  H169 2639   6.631   1.228   3.597  3.0649  1.1955  2.4014
    7CHTO   O63 2640   6.194   1.247   3.772 -0.1239 -0.1502 -0.0765
    7CHTO   C96 2641   6.243   1.245   3.941 -1.0052  0.1505 -0.7408
    7CHTO  H183 2642   6.223   1.344   3.981 -1.8684 -0.5004  0.4723
    7CHTO   C98 2643   6.394   1.192   3.956  0.0203  1.0964  1.2565
    7CHTO  H185 2644   6.461   1.234   3.880 -0.1117  1.0002  1.0872
    7CHTO   O67 2645   6.441   1.251   4.080  0.0035 -0.2362 -0.0887
    7CHTO  H167 2646   6.534   1.262   4.081  0.0822 -0.7936 -0.6198
    7CHTO  C102 2647   6.408   1.029   3.952 -0.1176 -0.2271 -0.0193
    7CHTO  H189 2648   6.508   1.010   3.994 -0.1292  1.7794  0.9974
    7CHTO   N18 2649   6.420   0.975   3.817  0.1776 -0.3130 -0.3243
    7CHTO  H176 2650   6.443   1.047   3.740  0.6830 -1.0736 -0.8951
    7CHTO  H177 2651   6.488   0.892   3.814 -1.1117 -1.5176  2.4612
    7CHTO  C105 2652   6.292   0.967   4.034  0.4702 -0.1961  0.2406
    7CHTO  H192 2653   6.228   0.906   3.970  1.7925 -1.9338  0.5333
    7CHTO   O65 2654   6.197   1.049   4.100  0.4463 -0.0061 -0.5898
    7CHTO  C100 2655   6.140   1.150   4.015 -0.0436 -0.2874  0.4108
    7CHTO  H187 2656   6.095   1.099   3.928  0.1728 -1.0962  0.7687
    7CHTO  C107 2657   6.041   1.234   4.092 -0.2124 -0.4646 -0.0925
    7CHTO   O70 2658   5.935   1.153   4.140  0.3899 -0.1256 -0.2970
    7CHTO  H170 2659   5.964   1.097   4.210 -1.9691 -1.5163 -0.3420
    7CHTO   O57 2660   6.366   0.892   4.127  0.3448  0.3768 -0.2796
    7CHTO   C85 2661   6.382   0.751   4.116  0.0304  0.3832  0.0336
    7CHTO  H157 2662   6.374   0.730   4.007 -0.8742  1.1955 -0.0715
    7CHTO   C83 2663   6.265   0.668   4.178  0.2821  0.1532 -0.0357
    7CHTO  H155 2664   6.175   0.688   4.121  0.5489  2.5209  0.3465
    7CHTO   O56 2665   6.243   0.736   4.302  0.3758  0.7211  0.1438
    7CHTO  H135 2666   6.161   0.781   4.310  0.6935  1.1665  0.9891
    7CHTO   C81 2667   6.298   0.513   4.181 -0.0956  0.7321  0.4706
    7CHTO  H153 2668   6.305   0.480   4.077 -0.0496  2.2506 -0.0162
    7CHTO   N14 2669   6.192   0.430   4.236 -0.0663  0.2609  0.4623
    7CHTO  H141 2670   6.219   0.327   4.247 -2.4503 -0.4195  0.2326
    7CHTO  H142 2671   6.180   0.482   4.329  1.2991  2.8628 -0.7499
    7CHTO   C79 2672   6.436   0.482   4.253  0.2570 -0.6200  0.5872
    7CHTO  H151 2673   6.463   0.381   4.223 -1.9131 -0.9606 -0.3581
    7CHTO   O52 2674   6.532   0.564   4.182 -0.5043 -0.0665  0.5800
    7CHTO   C86 2675   6.522   0.702   4.179 -0.1363 -0.5432 -0.0176
    7CHTO  H158 2676   6.533   0.730   4.285  1.1351 -2.5557  0.4054
    7CHTO   C90 2677   6.630   0.785   4.100 -0.2916  0.3335 -0.1592
    7CHTO   O60 2678   6.761   0.771   4.148  0.0285 -0.4585  0.5830
    7CHTO  H138 2679   6.797   0.857   4.144 -1.2580  0.0487 -0.2219
    7CHTO   O50 2680   6.437   0.512   4.396  0.3988  0.2390 -0.0536
    7CHTO   C73 2681   6.496   0.465   4.517  0.4264  0.0791 -0.2383
    7CHTO  H145 2682   6.602   0.435   4.503  0.9852  2.4443 -1.2416
    7CHTO   C74 2683   6.409   0.347   4.578  0.1140 -0.0242 -0.5201
    7CHTO  H146 2684   6.413   0.263   4.508  0.1704 -0.7887  0.3971
    7CHTO   O54 2685   6.469   0.288   4.691 -0.5263  0.1851 -0.9439
    7CHTO  H133 2686   6.456   0.196   4.693  0.0840  0.1028  0.4764
    7CHTO   C75 2687   6.257   0.399   4.606  0.6513  0.0350 -0.0706
    7CHTO  H147 2688   6.219   0.438   4.510  0.4861 -1.6395 -0.7062
    7CHTO   N13 2689   6.160   0.293   4.653  0.0176 -0.3597 -0.6792
    7CHTO  H139 2690   6.067   0.343   4.674  0.5581  0.1977  0.4376
    7CHTO  H140 2691   6.159   0.190   4.620 -0.2248 -0.4522 -0.3872
    7CHTO   C76 2692   6.261   0.525   4.700  0.1014  0.4097 -0.5582
    7CHTO  H148 2693   6.296   0.494   4.798 -0.7725  3.6150  0.8317
    7CHTO   O49 2694   6.351   0.630   4.646  0.2762  0.2129  0.2668
    7CHTO   C77 2695   6.492   0.591   4.623  0.2283 -0.3204  0.1340
    7CHTO  H149 2696   6.535   0.561   4.719  0.9142  1.4486  0.3981
    7CHTO   C88 2697   6.578   0.707   4.584  0.2356  0.3879  0.0259
    7CHTO   O58 2698   6.722   0.672   4.553  0.2074 -0.4280 -0.7671
    7CHTO  H136 2699   6.766   0.746   4.515 -1.6220  0.5553 -1.0518
    7CHTO   O51 2700   6.125   0.609   4.716  0.1323 -0.3285  0.0831
    7CHTO   C78 2701   6.076   0.631   4.859 -0.6550 -0.5721  0.0726
    7CHTO  H150 2702   6.119   0.571   4.942  2.0391  2.2480  0.8341
    7CHTO   C80 2703   5.927   0.617   4.860 -0.2463  0.3680 -0.2920
    7CHTO  H152 2704   5.881   0.677   4.778 -2.8286 -1.8683 -0.5291
    7CHTO   O55 2705   5.907   0.475   4.836 -0.0370  0.2147  0.2294
    7CHTO  H134 2706   5.891   0.462   4.745  3.6213 -0.0588 -0.4494
    7CHTO   C84 2707   5.866   0.663   5.003  0.5391 -0.0952 -0.2816
    7CHTO  H156 2708   5.921   0.603   5.076  1.1298  1.0763  0.2397
    7CHTO   N15 2709   5.725   0.630   5.007 -0.5609 -0.6039 -0.2551
    7CHTO  H143 2710   5.711   0.524   5.003 -0.7237 -0.6453  0.9661
    7CHTO  H144 2711   5.684   0.670   5.098  0.2949  2.0551 -0.9845
    7CHTO   C87 2712   5.894   0.811   5.022  0.0471  0.0841  0.6572
    7CHTO  H159 2713   5.855   0.886   4.953  0.6488  0.7605  1.0393
    7CHTO   O53 2714   6.048   0.816   5.026  0.1466 -0.2740 -0.0646
    7CHTO   C82 2715   6.108   0.777   4.899  0.3306 -0.2041  0.3325
    7CHTO  H154 2716   6.084   0.844   4.816  1.2301  1.4805  1.4004
    7CHTO   C89 2717   6.258   0.797   4.922  0.5618 -0.0735  0.2544
    7CHTO   O59 2718   6.303   0.933   4.924  0.4077 -0.2726 -0.9164
    7CHTO  H137 2719   6.242   1.000   4.945  0.0535 -1.0856  0.6957
    7CHTO   O45 2720   5.850   0.866   5.166 -0.6547  0.5563 -0.4427
    7CHTO   C67 2721   5.817   1.006   5.166 -0.1534  0.9172 -0.2462
    7CHTO  H124 2722   5.859   1.058   5.080 -0.3466  0.0889 -0.8475
    7CHTO   C65 2723   5.662   1.017   5.152 -0.0706 -0.2252  0.0994
    7CHTO  H122 2724   5.621   0.926   5.196  0.3498 -0.7466 -0.5789
    7CHTO   O44 2725   5.639   1.023   5.010  0.2044  0.2814  0.0484
    7CHTO  H102 2726   5.552   1.056   5.007 -0.8402 -2.2232  1.3985
    7CHTO   C63 2727   5.602   1.122   5.244 -0.2532  0.4720  0.4104
    7CHTO  H120 2728   5.608   1.089   5.348  0.6054  5.0612  1.9481
    7CHTO   N11 2729   5.459   1.144   5.228  1.0149  0.1640  0.6118
    7CHTO  H108 2730   5.442   1.249   5.225  0.5833  0.1144  1.4692
    7CHTO  H109 2731   5.425   1.116   5.130 -1.0830 -0.9751  1.6486
    7CHTO   C61 2732   5.688   1.253   5.239  0.6365 -0.2877  0.2323
    7CHTO  H118 2733   5.647   1.324   5.312  0.2743 -0.5692  0.3033
    7CHTO   O40 2734   5.833   1.223   5.275  1.0074  0.3432 -0.4163
    7CHTO   C68 2735   5.874   1.083   5.291 -0.2839 -0.6733  0.6784
    7CHTO  H125 2736   5.825   1.034   5.378  1.6576  0.6248  2.5355
    7CHTO   C72 2737   6.022   1.093   5.319 -0.6428 -0.1987  0.0854
    7CHTO   O48 2738   6.094   1.136   5.203  0.3738  0.1297 -0.0051
    7CHTO  H105 2739   6.054   1.111   5.122  0.2215 -4.4905  1.3738
    7CHTO   O38 2740   5.695   1.302   5.107 -0.6429  0.2933 -0.1803
    7CHTO   C55 2741   5.721   1.440   5.083 -0.1022  0.2545  0.0067
    7CHTO  H112 2742   5.750   1.489   5.177 -0.2507  2.0126 -0.8425
    7CHTO   C56 2743   5.588   1.495   5.028  0.2635  0.5663  0.1280
    7CHTO  H113 2744   5.560   1.431   4.944 -0.1966 -0.9324  1.4116
    7CHTO   O42 2745   5.484   1.491   5.128 -0.4198  0.4570  0.0615
    7CHTO  H100 2746   5.432   1.413   5.118 -1.5692  1.0608  1.1400
    7CHTO   C57 2747   5.622   1.645   4.979 -0.1428  0.3564  0.0723
    7CHTO  H114 2748   5.643   1.716   5.059 -0.8283  2.4139 -1.5568
    7CHTO   N10 2749   5.503   1.707   4.920  0.3985 -0.1733 -0.3573
    7CHTO  H106 2750   5.492   1.812   4.941 -2.0113 -0.2201 -1.2091
    7CHTO  H107 2751   5.502   1.699   4.813 -0.6320 -1.1873 -0.2880
    7CHTO   C58 2752   5.741   1.643   4.881  0.1899  0.0108  0.2366
    7CHTO  H115 2753   5.717   1.581   4.792  0.1099  1.3811 -0.7143
    7CHTO   O37 2754   5.859   1.583   4.939  0.2854  0.5109  0.1076
    7CHTO   C59 2755   5.837   1.446   4.976 -0.8722 -0.0475  0.5640
    7CHTO  H116 2756   5.806   1.387   4.889  1.7605 -0.7448  0.0354
    7CHTO   C70 2757   5.971   1.395   5.036  0.3837 -0.0293  0.8448
    7CHTO   O46 2758   6.088   1.439   4.970 -0.5621 -0.2064 -0.2578
    7CHTO  H103 2759   6.155   1.374   4.980  0.7430  1.4350  2.1629
    7CHTO   O39 2760   5.785   1.808   4.843  0.0234  0.5808 -0.4065
    7CHTO   C60 2761   5.895   1.810   4.754  0.4975  0.1387 -0.5142
    7CHTO  H117 2762   5.940   1.711   4.746  2.8535  1.1760 -0.4870
    7CHTO   C62 2763   5.839   1.870   4.621 -0.0502  0.0985  0.9954
    7CHTO  H119 2764   5.761   1.796   4.595 -1.5210  1.9141  0.0877
    7CHTO   O43 2765   5.784   2.004   4.630 -0.0474  0.0544 -0.5005
    7CHTO  H101 2766   5.850   2.070   4.642 -0.0691 -0.4206  2.7699
    7CHTO   C66 2767   5.950   1.858   4.504 -0.0137 -0.4232 -0.0145
    7CHTO  H123 2768   5.987   1.756   4.501  0.3703 -0.3395  1.4658
    7CHTO   N12 2769   5.896   1.895   4.366 -0.1019  0.1656 -0.0171
    7CHTO  H110 2770   5.832   1.981   4.363 -0.6166 -0.2545 -2.2287
    7CHTO  H111 2771   5.968   1.882   4.286 -2.5103 -1.8397 -1.9330
    7CHTO   C69 2772   6.074   1.939   4.547  0.3936  0.1040  0.0013
    7CHTO  H126 2773   6.040   2.044   4.538 -2.9994 -0.7971  1.4096
    7CHTO   O41 2774   6.119   1.898   4.693  0.0353  0.1741  0.0856
    7CHTO   C64 2775   6.011   1.899   4.807  0.4767 -0.0978 -0.1156
    7CHTO  H121 2776   5.960   1.996   4.828  0.9523 -0.0669  0.9422
    7CHTO   C71 2777   6.077   1.851   4.934 -0.5817  0.4224  0.5285
    7CHTO   O47 2778   5.995   1.855   5.046 -0.3041 -0.4000  0.2932
    7CHTO  H104 2779   6.009   1.934   5.094  1.2679  0.9037 -2.1683
    7CHTO   O34 2780   6.209   1.910   4.451 -0.4413  0.1241 -0.1688
    7CHTO   C49 2781   6.347   2.006   4.449 -0.3715 -0.4243  0.3459
    7CHTO   H91 2782   6.330   2.084   4.375  0.1377 -0.6296  0.0070
    7CHTO   C47 2783   6.462   1.915   4.412 -0.6091 -0.4520  0.0656
    7CHTO   H89 2784   6.552   1.980   4.405 -2.4493  2.3925  1.3434
    7CHTO   O33 2785   6.437   1.857   4.284 -0.0130  0.0915  0.1171
    7CHTO   H70 2786   6.519   1.860   4.239  0.1359  1.6059  0.4543
    7CHTO   C45 2787   6.486   1.803   4.531  0.6016 -0.3530  0.1673
    7CHTO   H87 2788   6.425   1.716   4.501 -0.1836 -1.4734  4.7422
    7CHTO    N8 2789   6.630   1.769   4.535 -0.7207 -0.7173  0.4386
    7CHTO   H75 2790   6.666   1.753   4.434 -0.3962 -0.0306  0.4405
    7CHTO   H76 2791   6.661   1.697   4.609 -2.4034 -1.7161  0.1964
    7CHTO   C43 2792   6.427   1.860   4.674 -0.2183  0.1028 -0.0628
    7CHTO   H85 2793   6.323   1.833   4.689 -0.1583  1.1765  2.7234
    7CHTO   O29 2794   6.451   1.996   4.692 -0.5344  0.3169  0.6273
    7CHTO   C50 2795   6.386   2.079   4.585  0.7446 -0.6824  0.8030
    7CHTO   H92 2796   6.287   2.098   4.630  0.9952  0.1361  1.0096
    7CHTO   C54 2797   6.454   2.220   4.564  0.0304  0.4531 -0.3794
    7CHTO   O36 2798   6.597   2.189   4.557 -0.1851  0.2954 -0.0226
    7CHTO   H72 2799   6.612   2.114   4.502  0.7595  1.0422 -0.7926
    7CHTO   O27 2800   6.477   1.797   4.794 -0.2280  0.0422  0.0080
    7CHTO   C37 2801   6.509   1.685   4.876 -0.3485 -0.1983  0.2583
    7CHTO   H79 2802   6.455   1.691   4.972  1.2271 -1.0580  1.2255
    7CHTO   C38 2803   6.461   1.551   4.830 -0.3724  0.6413  0.1310
    7CHTO   H80 2804   6.492   1.533   4.726  0.6258  0.6851  0.4159
    7CHTO   O31 2805   6.323   1.560   4.811 -0.1845  0.3538  0.4563
    7CHTO   H68 2806   6.299   1.485   4.760  1.4346  0.7992 -1.0140
    7CHTO   C39 2807   6.504   1.440   4.933  0.4284  0.2531  0.6401
    7CHTO   H81 2808   6.467   1.463   5.033 -0.4234  1.3978  0.0751
    7CHTO    N7 2809   6.464   1.296   4.887  0.5835 -0.2307 -0.2132
    7CHTO   H73 2810   6.488   1.276   4.784  1.2473  0.4341 -0.1922
    7CHTO   H74 2811   6.504   1.222   4.955  0.1972 -0.5500 -0.3287
    7CHTO   C40 2812   6.659   1.449   4.952 -0.3902 -0.5220 -0.4836
    7CHTO   H82 2813   6.711   1.432   4.858 -0.2975 -0.7326 -0.3946
    7CHTO   O26 2814   6.682   1.580   5.003 -0.6946 -0.0103  0.2596
    7CHTO   C41 2815   6.660   1.685   4.908 -0.4397  0.1635  0.3802
    7CHTO   H83 2816   6.717   1.682   4.814  1.4558  1.6685  1.4504
    7CHTO   C52 2817   6.721   1.806   4.980  0.7699  0.2978 -0.1886
    7CHTO   O35 2818   6.862   1.795   5.018  0.2061 -0.1420 -0.9742
    7CHTO   H71 2819   6.874   1.717   5.068 -0.2057  0.5014  0.1342
    7CHTO   O28 2820   6.710   1.360   5.046  0.2645  0.3739 -0.3766
    7CHTO   C42 2821   6.852   1.310   5.048 -0.3110  0.1407 -0.5954
    7CHTO   H84 2822   6.861   1.268   5.148  0.6197 -0.2119 -0.8238
    7CHTO   C44 2823   6.962   1.416   5.025 -0.0229  1.0033 -0.4281
    7CHTO   H86 2824   6.942   1.466   4.930 -0.6381  0.2563 -0.7016
    7CHTO   O32 2825   6.945   1.515   5.132 -0.2587 -0.1747  0.2784
    7CHTO   H69 2826   6.993   1.487   5.208  0.7949 -0.0913 -0.3455
    7CHTO   C48 2827   7.103   1.349   5.029 -0.8774  0.7684  0.1139
    7CHTO   H90 2828   7.117   1.295   5.123  2.7526  1.5145  0.0724
    7CHTO    N9 2829   7.214   1.445   5.016 -0.3116 -0.2339  0.1631
    7CHTO   H77 2830   7.222   1.486   4.917 -2.6454  1.9735  0.8393
    7CHTO   H78 2831   7.309   1.406   5.050 -0.0303  1.8479  1.8845
    7CHTO   C51 2832   7.098   1.242   4.904  0.1561 -0.8533  0.0527
    7CHTO   H93 2833   7.080   1.296   4.811  0.9653  2.5746  1.8125
    7CHTO   O30 2834   6.998   1.142   4.930  0.4984 -0.1711  0.1275
    7CHTO   C46 2835   6.868   1.187   4.943  0.5371 -0.3756  0.4691
    7CHTO   H88 2836   6.843   1.210   4.839 -0.6559 -0.2831  0.7745
    7CHTO   C53 2837   6.770   1.066   4.976  0.5588 -0.7465  0.2993
    7CHTO   O72 2838   6.781   0.977   4.867  1.1045  0.5936  0.3672
    7CHTO  H199 2839   6.718   1.005   4.804 -1.0138 -2.0445  1.2159
    7CHTO   O22 2840   7.229   1.177   4.888  0.9026 -0.4691 -0.0925
    7CHTO   C31 2841   7.273   1.112   4.764  0.1184 -0.5055  0.3386
    7CHTO   H59 2842   7.381   1.094   4.776  0.1814 -0.3174  0.0536
    7CHTO   C29 2843   7.203   0.977   4.739 -0.3839  0.3609  0.4908
    7CHTO   H57 2844   7.094   0.987   4.729 -0.2707  0.4777 -0.6611
    7CHTO   O21 2845   7.232   0.898   4.857  0.0385  0.2074 -0.6511
    7CHTO   H37 2846   7.158   0.841   4.866 -0.7148  1.0763 -1.1873
    7CHTO   C27 2847   7.263   0.905   4.609  0.1883 -0.4043 -0.3122
    7CHTO   H55 2848   7.370   0.882   4.622  0.2417  0.7723  1.6004
    7CHTO    N5 2849   7.192   0.782   4.572  0.7279 -0.3631 -0.4099
    7CHTO   H43 2850   7.254   0.718   4.512 -0.7671  0.0397 -2.4409
    7CHTO   H44 2851   7.173   0.718   4.657 -1.0193 -1.4140 -1.5785
    7CHTO   C25 2852   7.254   1.006   4.490 -0.4764  0.2323 -0.1559
    7CHTO   H53 2853   7.148   1.016   4.460 -0.4182 -2.1542 -1.3223
    7CHTO   O17 2854   7.317   1.135   4.523  0.0577  0.2603 -0.5031
    7CHTO   C32 2855   7.260   1.202   4.633  0.5510  0.4332  0.4357
    7CHTO   H60 2856   7.158   1.234   4.615  1.0554  0.7738 -2.0269
    7CHTO   C36 2857   7.344   1.332   4.655 -0.0355 -0.3537  0.3490
    7CHTO   O25 2858   7.330   1.406   4.531 -0.5706  0.5515 -0.1957
    7CHTO   H40 2859   7.301   1.494   4.543 -2.3710 -0.2678  1.8411
    7CHTO   O15 2860   7.321   0.957   4.372  0.8325  0.0686 -0.1594
    7CHTO   C19 2861   7.301   0.996   4.231 -0.2278  0.4808  0.1814
    7CHTO   H47 2862   7.378   0.942   4.174 -0.7109 -0.8202  0.7500
    7CHTO   C20 2863   7.164   0.953   4.174  0.3312  0.0445 -1.0117
    7CHTO   H48 2864   7.079   0.998   4.227  0.8685 -1.9075  1.5933
    7CHTO   O19 2865   7.160   0.806   4.192  0.1125  0.5841 -0.0114
    7CHTO   H35 2866   7.073   0.782   4.218  1.0899 -0.3508  2.4962
    7CHTO   C21 2867   7.154   0.995   4.021  0.2212  0.5475 -0.2966
    7CHTO   H49 2868   7.214   0.923   3.965 -1.3689 -1.4690  0.5345
    7CHTO    N4 2869   7.021   0.971   3.962  0.1804 -0.2546  0.0090
    7CHTO   H41 2870   6.949   1.012   4.031  0.6598 -0.6445  0.7408
    7CHTO   H42 2871   7.017   1.028   3.870 -2.7397  1.5341  1.1727
    7CHTO   C22 2872   7.199   1.144   4.008  0.6974 -0.8237 -0.0859
    7CHTO   H50 2873   7.131   1.199   4.072 -1.1634 -0.0153 -2.7054
    7CHTO   O14 2874   7.320   1.157   4.068 -0.7346  0.0101 -0.6622
    7CHTO   C23 2875   7.328   1.143   4.205  0.3534 -0.3479  0.0754
    7CHTO   H51 2876   7.250   1.208   4.247  2.0896  1.6912  0.2069
    7CHTO   C34 2877   7.465   1.171   4.271  0.0205 -0.3662  0.2173
    7CHTO   O23 2878   7.503   1.306   4.246 -0.9533 -0.0672  0.2131
    7CHTO   H38 2879   7.591   1.305   4.214 -0.8456  2.0298  0.3589
    7CHTO   O16 2880   7.198   1.189   3.875  0.1112 -0.5361 -0.0203
    7CHTO   C24 2881   7.159   1.340   3.857  0.0533  0.7446  0.2089
    7CHTO   H52 2882   7.134   1.386   3.953 -0.6863 -0.3902  0.5624
    7CHTO   C26 2883   7.034   1.346   3.774 -0.5221 -0.2752 -0.4772
    7CHTO   H54 2884   7.058   1.295   3.678  0.7937 -0.1718 -0.2220
    7CHTO   O20 2885   6.927   1.264   3.822 -0.1644  0.4813 -0.7023
    7CHTO   H36 2886   6.893   1.297   3.903  0.3175 -1.2734  0.2549
    7CHTO   C30 2887   6.986   1.493   3.756 -0.5044 -0.3923 -0.0061
    7CHTO   H58 2888   6.955   1.527   3.856  0.7903 -0.3055  0.3806
    7CHTO    N6 2889   6.869   1.505   3.664  0.3218 -0.6424  0.7320
    7CHTO   H45 2890   6.886   1.480   3.561  2.4531  1.9106  0.4265
    7CHTO   H46 2891   6.821   1.601   3.671  0.0866 -0.6369 -0.8712
    7CHTO   C33 2892   7.106   1.587   3.717  0.0771  0.3337 -0.3825
    7CHTO   H61 2893   7.126   1.571   3.610 -0.0486  1.9334 -0.6460
    7CHTO   O18 2894   7.226   1.567   3.795 -1.1778  0.5071 -0.0581
    7CHTO   C28 2895   7.273   1.430   3.803 -0.8991  0.6668 -0.4810
    7CHTO   H56 2896   7.298   1.404   3.700  0.3430 -2.3408  0.5309
    7CHTO   C35 2897   7.402   1.426   3.892 -0.6517 -0.6044  0.5710
    7CHTO   O24 2898   7.390   1.478   4.024 -0.0751 -0.1922  1.0480
    7CHTO   H39 2899   7.361   1.567   4.013 -1.2100 -0.7475 -0.6014
    7CHTO    O9 2900   7.061   1.725   3.729 -0.6214  0.2898  0.4496
    7CHTO   C13 2901   7.078   1.821   3.606  0.0224 -0.2129  0.3084
    7CHTO   H26 2902   7.039   1.771   3.515  1.3093  0.4886 -0.6583
    7CHTO   C11 2903   7.227   1.861   3.592 -0.5818  0.0236 -0.9882
    7CHTO   H24 2904   7.286   1.792   3.529 -0.8399 -0.6579 -0.4918
    7CHTO    O8 2905   7.290   1.858   3.723  0.0943  0.5361 -0.0435
    7CHTO    H3 2906   7.246   1.905   3.792  0.2886 -1.8865  1.7853
    7CHTO    C9 2907   7.243   2.002   3.537  0.3734 -0.5783  0.0478
    7CHTO   H22 2908   7.182   2.005   3.445  0.5859 -1.0860 -0.1148
    7CHTO    N2 2909   7.388   2.036   3.500  0.0556 -0.4763 -0.1343
    7CHTO   H10 2910   7.408   2.140   3.480 -0.3104 -0.3714  0.0400
    7CHTO   H11 2911   7.415   1.973   3.416 -2.3617  0.2070 -1.4540
    7CHTO    C7 2912   7.186   2.106   3.635 -0.8146  0.3605 -0.6840
    7CHTO   H20 2913   7.166   2.195   3.572  1.0994  0.4071 -1.2436
    7CHTO    O4 2914   7.064   2.064   3.699 -0.7927 -0.2621 -0.0931
    7CHTO   C14 2915   6.993   1.959   3.628  0.0510 -0.2217 -0.1223
    7CHTO   H27 2916   6.968   1.995   3.526  0.6323 -0.2153 -0.2663
    7CHTO   C18 2917   6.858   1.933   3.702  0.4256  0.0072  0.1353
    7CHTO   O13 2918   6.792   2.054   3.729  0.4054  0.0559 -0.3435
    7CHTO    H7 2919   6.737   2.081   3.658  1.6864 -0.7216 -1.6470
    7CHTO    O2 2920   7.298   2.151   3.755  0.8008  0.0006 -0.3378
    7CHTO    C1 2921   7.271   2.277   3.815  0.8759  0.0738 -0.1042
    7CHTO   H14 2922   7.163   2.298   3.808  0.4994 -1.5216  0.5975
    7CHTO    C2 2923   7.351   2.399   3.761  0.0245 -0.3791  0.3512
    7CHTO   H15 2924   7.458   2.374   3.770  0.3079  0.8561  0.3697
    7CHTO    O6 2925   7.321   2.413   3.618 -0.0806 -0.9596  0.2998
    7CHTO    H1 2926   7.245   2.465   3.598  0.6881 -0.3791 -1.2493
    7CHTO    C3 2927   7.315   2.535   3.840 -0.2701 -1.0450 -0.9028
    7CHTO   H16 2928   7.215   2.572   3.814 -0.7647  0.1439  2.4651
    7CHTO    N1 2929   7.407   2.644   3.811 -0.0237 -0.3343 -0.0786
    7CHTO    H8 2930   7.352   2.732   3.782 -2.7229 -1.2228  2.1122
    7CHTO    H9 2931   7.468   2.665   3.898  1.8601 -1.9501 -0.9583
    7CHTO    C4 2932   7.308   2.498   3.996 -0.2060 -0.3898  0.7458
    7CHTO   H17 2933   7.411   2.493   4.032  0.9955 -1.3316 -2.6959
    7CHTO    O1 2934   7.236   2.380   4.031  0.5021 -0.2389 -0.6968
    7CHTO    C5 2935   7.287   2.263   3.977 -0.1329 -0.0212 -0.0017
    7CHTO   H18 2936   7.388   2.237   4.009  0.2595 -1.7075 -2.4855
    7CHTO   C16 2937   7.199   2.146   4.022  0.3080 -1.0470 -0.3155
    7CHTO   O11 2938   7.211   2.110   4.165 -0.0292 -0.2693 -0.4283
    7CHTO    H5 2939   7.208   2.185   4.221  4.5460 -1.4138  1.5792
    7CHTO    O3 2940   7.231   2.598   4.067  0.0033 -0.5450 -0.4260
    7CHTO    C6 2941   7.296   2.695   4.144  0.8923 -0.3774  0.0678
    7CHTO   H19 2942   7.402   2.689   4.120  0.0901 -1.3132 -3.5709
    7CHTO    C8 2943   7.237   2.840   4.128 -0.7286  0.3380  0.3757
    7CHTO   H21 2944   7.137   2.843   4.171 -0.2004  0.6738  1.6181
    7CHTO    O7 2945   7.239   2.885   3.986 -0.3233  0.1586 -0.3109
    7CHTO    H2 2946   7.162   2.871   3.935 -0.6244 -1.1386  0.4878
    7CHTO   C12 2947   7.315   2.956   4.216 -0.0372  0.5680 -0.1977
    7CHTO   H25 2948   7.414   2.973   4.169  1.1932  2.2836  2.8112
    7CHTO    N3 2949   7.253   3.091   4.212  0.3711  0.8792 -0.2504
    7CHTO   H12 2950   7.299   3.158   4.141  0.6243 -0.0573 -0.9788
    7CHTO   H13 2951   7.152   3.072   4.179  0.7008 -0.5270 -0.4911
    7CHTO   C15 2952   7.336   2.904   4.367  0.5849  0.5486  0.5521
    7CHTO   H28 2953   7.244   2.905   4.426  0.5008 -1.5079  0.4951
    7CHTO   O10 2954   7.455   2.990   4.437  0.1083  0.3395 -0.1883
    7CHTO    H4 2955   7.540   2.953   4.451  0.3080  1.0873  0.5951
    7CHTO    O5 2956   7.377   2.765   4.377  0.9116 -0.7099 -0.0868
    7CHTO   C10 2957   7.285   2.673   4.301  0.8317  0.2408 -0.0669
    7CHTO   H23 2958   7.182   2.693   4.330  0.6222 -0.7194 -0.1454
    7CHTO   C17 2959   7.304   2.527   4.340  0.3152 -1.1416  0.2468
    7CHTO   O12 2960   7.305   2.528   4.481  0.3923 -0.1164  0.2873
    7CHTO    H6 2961   7.264   2.454   4.522 -2.2577  1.9512  1.6095
    8CHTO  H203 2962   7.827   6.616   0.303 -0.2784 -0.3987  0.1599
    8CHTO   O82 2963   7.825   6.709   0.313  0.2336 -0.3843  0.1223
    8CHTO  C123 2964   7.753   6.735   0.435 -0.0414  0.0753 -0.0212
    8CHTO  H227 2965   7.792   6.666   0.511  0.6312 -0.7681 -1.1110
    8CHTO   O77 2966   7.789   6.872   0.469 -0.9087 -0.2655 -0.4191
    8CHTO  C118 2967   7.732   6.913   0.598  0.7835 -0.1675  0.2661
    8CHTO  H222 2968   7.760   6.847   0.682  0.6203 -1.2806 -0.5383
    8CHTO  C125 2969   7.778   7.065   0.624 -0.9926 -0.1606  0.5877
    8CHTO   O84 2970   7.743   7.158   0.520  0.0994  0.5910 -0.4432
    8CHTO  H205 2971   7.656   7.154   0.483 -0.2610 -0.9976  0.5421
    8CHTO  C114 2972   7.579   6.921   0.597 -0.1348 -0.0546  0.3964
    8CHTO  H218 2973   7.545   6.982   0.513  0.7707 -0.8551 -0.5617
    8CHTO  C116 2974   7.527   6.777   0.556 -0.2470  0.2430  0.1464
    8CHTO  H220 2975   7.558   6.707   0.636 -0.4827  0.3521  0.3338
    8CHTO   O79 2976   7.382   6.797   0.546 -0.6255  0.5986 -0.0046
    8CHTO  H201 2977   7.336   6.716   0.542 -0.9672  0.5429  3.2894
    8CHTO  C120 2978   7.595   6.729   0.422 -0.3034  0.6104 -0.0065
    8CHTO  H224 2979   7.567   6.795   0.337 -2.6458 -0.8758 -0.4415
    8CHTO   N21 2980   7.542   6.593   0.398 -0.4638 -0.1183 -0.8429
    8CHTO  H211 2981   7.603   6.517   0.351  0.9456  0.8002 -0.5447
    8CHTO  H212 2982   7.445   6.589   0.352 -0.7678  0.1578 -0.2302
    8CHTO   O75 2983   7.523   6.965   0.726  0.3721 -0.5989  0.4062
    8CHTO  C112 2984   7.387   7.059   0.696 -0.2413  0.2249  0.3322
    8CHTO  H216 2985   7.321   7.017   0.618 -0.0677  1.5262 -0.5361
    8CHTO   O73 2986   7.430   7.190   0.655 -0.2222 -0.1526  0.0593
    8CHTO  C113 2987   7.321   7.277   0.630 -0.2633  0.7468 -0.3062
    8CHTO  H217 2988   7.247   7.227   0.564 -0.4777  0.0943  0.4252
    8CHTO  C124 2989   7.382   7.396   0.561  0.4865  0.6236  1.0572
    8CHTO   O83 2990   7.455   7.359   0.447 -0.8602  0.2535 -0.1346
    8CHTO  H204 2991   7.509   7.430   0.421 -0.0826  0.2250  1.3582
    8CHTO  C109 2992   7.246   7.310   0.764 -0.1847  0.7901 -0.3041
    8CHTO  H213 2993   7.321   7.357   0.829  1.0386 -1.2219 -0.2152
    8CHTO  C110 2994   7.198   7.175   0.833  0.1649 -0.5190  0.0704
    8CHTO  H214 2995   7.104   7.153   0.784  0.2416 -0.3671 -0.1478
    8CHTO   O78 2996   7.154   7.201   0.966 -0.2945 -0.0557  0.3039
    8CHTO  H200 2997   7.218   7.246   1.019  0.2050 -0.6462  0.2043
    8CHTO  C111 2998   7.307   7.062   0.829  0.2694 -0.3172  0.2665
    8CHTO  H215 2999   7.388   7.088   0.899  1.0737 -0.7198 -0.5005
    8CHTO   N19 3000   7.251   6.929   0.868  0.3790 -0.4201  0.6359
    8CHTO  H207 3001   7.180   6.896   0.793  0.8838 -1.4361  0.6003
    8CHTO  H208 3002   7.197   6.929   0.962 -1.3739  1.7249 -0.3407
    8CHTO   O74 3003   7.141   7.400   0.743 -0.5312  0.3964 -0.6860
    8CHTO  C115 3004   7.116   7.513   0.849  0.5238 -0.0041 -0.3019
    8CHTO  H219 3005   7.018   7.503   0.896  0.6126 -0.4041 -0.1906
    8CHTO   O76 3006   7.216   7.511   0.970  0.1006  0.6991 -0.1547
    8CHTO  C122 3007   7.208   7.619   1.067  0.0532 -0.5204  0.0084
    8CHTO  H226 3008   7.294   7.607   1.133 -0.8388 -1.2669  1.0563
    8CHTO  C126 3009   7.082   7.593   1.160  0.2539  0.5075  0.4488
    8CHTO   O85 3010   7.065   7.698   1.248  0.2891 -0.1396 -0.3464
    8CHTO  H206 3011   6.993   7.678   1.305  1.1928 -0.8458  0.5601
    8CHTO  C121 3012   7.205   7.759   1.001  0.4291  0.1350  0.1010
    8CHTO  H225 3013   7.179   7.839   1.073  1.1998  0.9769 -0.5426
    8CHTO   O81 3014   7.337   7.804   0.969 -0.1871 -0.1671 -0.7060
    8CHTO  H202 3015   7.335   7.879   0.913  0.4549 -0.6824 -1.4222
    8CHTO  C119 3016   7.106   7.764   0.880 -0.5053  0.2749  0.5200
    8CHTO  H223 3017   7.006   7.761   0.922 -1.8090 -1.6775 -2.5670
    8CHTO  C117 3018   7.118   7.648   0.773  0.2086  0.2990 -0.5539
    8CHTO  H221 3019   7.213   7.650   0.720  0.8747  2.7518  0.6642
    8CHTO   N20 3020   7.008   7.654   0.672 -0.1370 -0.6607  0.8074
    8CHTO  H209 3021   7.011   7.580   0.593  0.8590 -0.5852  0.7712
    8CHTO  H210 3022   7.019   7.752   0.630 -1.4205 -0.5803  0.6341
    8CHTO   O80 3023   7.102   7.907   0.817 -0.1692 -0.0711  0.1417
    8CHTO  C103 3024   7.055   8.017   0.896 -0.1145 -0.1269  0.0862
    8CHTO  H190 3025   7.006   7.985   0.988 -1.3659  0.3791 -0.4066
    8CHTO  C101 3026   7.157   8.137   0.932  0.3350 -0.2973 -0.4715
    8CHTO  H188 3027   7.229   8.145   0.850  0.8548 -0.6473 -0.0483
    8CHTO   O68 3028   7.251   8.081   1.056 -0.4590  0.4700  0.7001
    8CHTO  H168 3029   7.202   8.054   1.131 -2.0123  0.3794 -0.3296
    8CHTO   C99 3030   7.096   8.269   0.982 -0.1207 -0.1407 -0.7267
    8CHTO  H186 3031   7.035   8.254   1.074 -0.3382 -0.2854 -0.8938
    8CHTO   N17 3032   7.190   8.371   1.025 -0.1396  0.1155 -0.4706
    8CHTO  H174 3033   7.239   8.328   1.111 -3.0646 -0.0452  1.1596
    8CHTO  H175 3034   7.257   8.410   0.950  0.2536 -1.1601 -0.7845
    8CHTO   C97 3035   6.996   8.312   0.872  0.0942 -0.3381  0.4293
    8CHTO  H184 3036   7.052   8.339   0.781 -3.0184 -0.9996 -1.7661
    8CHTO   O64 3037   6.901   8.209   0.844  0.0275 -0.6905  0.4606
    8CHTO  C104 3038   6.946   8.081   0.797 -0.2549 -0.7620  0.1876
    8CHTO  H191 3039   6.991   8.099   0.700  1.2079  0.2984  1.0461
    8CHTO  C108 3040   6.831   7.986   0.782  0.5344  0.5357  0.2190
    8CHTO   O71 3041   6.739   8.040   0.680  0.0816  0.5662 -0.3945
    8CHTO  H171 3042   6.797   8.051   0.607  1.6351  0.5882  0.8050
    8CHTO   O62 3043   6.903   8.410   0.917 -0.1379  0.2151  0.4285
    8CHTO   C91 3044   6.909   8.537   0.851  0.5475 -0.0528  0.7144
    8CHTO  H178 3045   7.012   8.568   0.832 -0.5727  3.0310 -0.4964
    8CHTO   C92 3046   6.845   8.636   0.952  0.4484 -0.4966 -0.6937
    8CHTO  H179 3047   6.741   8.610   0.975  0.2113  2.0996  1.3007
    8CHTO   O66 3048   6.926   8.631   1.074  0.1393 -0.1426  0.3053
    8CHTO  H166 3049   6.890   8.684   1.143  3.2447  0.4345  1.5498
    8CHTO   C93 3050   6.848   8.790   0.904 -0.3706 -0.0926  0.1383
    8CHTO  H180 3051   6.952   8.824   0.897 -0.3825  0.4159  2.1523
    8CHTO   N16 3052   6.778   8.875   1.000  0.1477 -0.0544 -0.1641
    8CHTO  H172 3053   6.680   8.896   0.959 -0.6838 -0.3217  1.6479
    8CHTO  H173 3054   6.830   8.966   1.024  0.0944  0.8013 -3.0841
    8CHTO   C94 3055   6.784   8.797   0.759  0.4535 -0.0365  0.3954
    8CHTO  H181 3056   6.675   8.784   0.762  0.4655 -0.3075 -0.2882
    8CHTO   O61 3057   6.837   8.692   0.676 -0.5139  0.1628 -0.6662
    8CHTO   C95 3058   6.825   8.556   0.730  0.7259 -0.2849 -0.7044
    8CHTO  H182 3059   6.719   8.545   0.757  0.7083  0.7297 -0.3370
    8CHTO  C106 3060   6.846   8.463   0.604 -0.5179 -0.0392  0.9250
    8CHTO   O69 3061   6.985   8.454   0.570 -0.2175 -0.2389  0.0239
    8CHTO  H169 3062   6.993   8.375   0.521 -0.4885 -0.1879 -0.0978
    8CHTO   O63 3063   6.829   8.931   0.689  0.4332 -0.7041 -0.2670
    8CHTO   C96 3064   6.758   8.957   0.548  0.8144  0.2906 -0.4499
    8CHTO  H183 3065   6.691   8.877   0.517 -0.3095  1.0739 -0.1019
    8CHTO   C98 3066   6.854   8.975   0.435 -0.1413  0.2078  0.1634
    8CHTO  H185 3067   6.929   9.049   0.465 -0.7568  0.5302  0.9280
    8CHTO   O67 3068   6.928   8.849   0.423 -0.3234  0.4127 -0.9121
    8CHTO  H167 3069   6.975   8.852   0.342  1.7041  0.4002  0.2293
    8CHTO  C102 3070   6.776   9.002   0.292 -0.1508  0.1129 -0.1394
    8CHTO  H189 3071   6.703   8.922   0.270  0.1121 -0.6603  1.7211
    8CHTO   N18 3072   6.856   9.018   0.167 -0.1868  0.2764  0.4263
    8CHTO  H176 3073   6.813   8.955   0.091 -1.1514  2.8776 -1.2519
    8CHTO  H177 3074   6.961   8.997   0.178  0.0348  1.5674  0.8842
    8CHTO  C105 3075   6.682   9.125   0.320  0.1894  0.0774  0.4184
    8CHTO  H192 3076   6.739   9.218   0.327 -0.4520  0.3826  1.6606
    8CHTO   O65 3077   6.595   9.104   0.435  0.8435  0.1364  0.2172
    8CHTO  C100 3078   6.665   9.085   0.555 -0.5273 -0.3535  0.0725
    8CHTO  H187 3079   6.737   9.168   0.566  0.8043 -1.3430 -1.0228
    8CHTO  C107 3080   6.587   9.073   0.682  0.5215 -0.4348  0.1565
    8CHTO   O70 3081   6.478   9.163   0.691 -0.5224 -0.0960  0.2980
    8CHTO  H170 3082   6.482   9.203   0.776 -0.0373  0.7778 -0.1243
    8CHTO   O57 3083   6.582   9.126   0.187 -0.3032  0.3586 -0.5229
    8CHTO   C85 3084   6.573   9.253   0.113  0.2177 -0.3943  0.2183
    8CHTO  H157 3085   6.673   9.291   0.086  0.8993 -1.8215  0.7136
    8CHTO   C83 3086   6.512   9.368   0.200 -0.7986  0.1519  0.0284
    8CHTO  H155 3087   6.585   9.387   0.279 -2.4546  1.8230  1.2217
    8CHTO   O56 3088   6.394   9.317   0.268 -0.4809  0.4592  0.5822
    8CHTO  H135 3089   6.327   9.281   0.213  0.4989 -0.5625  0.0369
    8CHTO   C81 3090   6.484   9.496   0.116  0.2617  1.0833 -0.2015
    8CHTO  H153 3091   6.574   9.522   0.061 -0.0836  1.8490 -0.4154
    8CHTO   N14 3092   6.454   9.619   0.193 -0.2664  0.7469 -0.0090
    8CHTO  H141 3093   6.532   9.692   0.186  0.9910 -0.6077 -0.2827
    8CHTO  H142 3094   6.428   9.604   0.296  0.6528  1.2796  0.3015
    8CHTO   C79 3095   6.380   9.456   0.008 -0.1379  0.0736  0.2060
    8CHTO  H151 3096   6.369   9.546  -0.053  1.5402  2.2350  3.0186
    8CHTO   O52 3097   6.430   9.356  -0.078 -0.4471  0.5808 -0.8548
    8CHTO   C86 3098   6.481   9.231  -0.016  0.0521 -0.0157  0.2000
    8CHTO  H158 3099   6.385   9.180   0.008 -0.6662  2.1427  2.1577
    8CHTO   C90 3100   6.544   9.137  -0.119 -0.0775  0.5109 -0.2748
    8CHTO   O60 3101   6.618   9.222  -0.213 -0.8544  0.1246 -0.2899
    8CHTO  H138 3102   6.707   9.231  -0.187 -1.3956 -0.5103  1.9007
    8CHTO   O50 3103   6.247   9.410   0.059 -0.5767  0.2024 -0.2678
    8CHTO   C73 3104   6.107   9.425   0.052  0.4331 -1.0250  0.0946
    8CHTO  H145 3105   6.076   9.418  -0.053  2.5098 -2.6975 -0.4562
    8CHTO   C74 3106   6.071   9.566   0.119 -0.4766 -0.2618  0.0185
    8CHTO  H146 3107   6.124   9.642   0.060 -1.5611  0.6539  0.2084
    8CHTO   O54 3108   5.933   9.593   0.086  0.4882 -0.2591  0.5664
    8CHTO  H133 3109   5.926   9.623  -0.003  1.7187 -1.0529  0.1786
    8CHTO   C75 3110   6.094   9.580   0.269  0.4103  0.0523  0.0309
    8CHTO  H147 3111   6.202   9.581   0.290  0.7667  2.0342 -1.7643
    8CHTO   N13 3112   6.042   9.708   0.326  0.1773  0.0783  0.2383
    8CHTO  H139 3113   6.122   9.779   0.340  2.2881 -2.3634  1.0243
    8CHTO  H140 3114   5.966   9.747   0.260  2.0505  2.3607 -0.6433
    8CHTO   C76 3115   6.040   9.452   0.348  0.1061 -0.7007  0.0924
    8CHTO  H148 3116   5.933   9.465   0.364 -0.0244  0.2491 -1.4629
    8CHTO   O49 3117   6.068   9.321   0.271  0.1466  0.8345 -0.8119
    8CHTO   C77 3118   6.032   9.316   0.132 -0.2940 -0.8129  0.3789
    8CHTO  H149 3119   5.926   9.320   0.107  0.3865  3.6764 -2.3259
    8CHTO   C88 3120   6.078   9.175   0.078 -0.2955 -0.6251 -0.1963
    8CHTO   O58 3121   6.071   9.162  -0.059  0.0987 -0.3506  0.1358
    8CHTO  H136 3122   6.095   9.075  -0.084  0.4525  0.4198 -2.3519
    8CHTO   O51 3123   6.121   9.433   0.481  0.0169 -0.2796  0.2912
    8CHTO   C78 3124   6.055   9.337   0.565 -0.3279  0.5158  0.5809
    8CHTO  H150 3125   5.966   9.289   0.519 -1.0440  0.4104  2.0233
    8CHTO   C80 3126   6.014   9.408   0.695 -0.1553  0.1386  0.7317
    8CHTO  H152 3127   6.102   9.436   0.756 -0.0020 -1.1791  1.1447
    8CHTO   O55 3128   5.934   9.520   0.665 -0.3770 -0.0415  0.1992
    8CHTO  H134 3129   5.933   9.575   0.742 -2.2633 -1.3224  1.1255
    8CHTO   C84 3130   5.926   9.304   0.779 -0.0189  0.7242  0.5298
    8CHTO  H156 3131   5.841   9.270   0.720  0.4710 -0.3963  0.4596
    8CHTO   N15 3132   5.864   9.364   0.902 -0.0650  0.2222  0.1842
    8CHTO  H143 3133   5.807   9.296   0.962 -0.1502  1.2084  1.2460
    8CHTO  H144 3134   5.933   9.422   0.960  1.1117 -0.0721 -0.9088
    8CHTO   C87 3135   6.019   9.190   0.819  0.5920  0.3033  0.2487
    8CHTO  H159 3136   6.098   9.212   0.890  0.5337 -1.9437  1.0661
    8CHTO   O53 3137   6.077   9.129   0.694  0.2716 -0.1432  0.1495
    8CHTO   C82 3138   6.146   9.219   0.602 -0.4924 -0.1698  0.1734
    8CHTO  H154 3139   6.239   9.250   0.651  0.6140  0.4999 -2.2387
    8CHTO   C89 3140   6.189   9.128   0.479 -0.2732  0.6340  0.6215
    8CHTO   O59 3141   6.272   9.022   0.522  0.4437 -0.1243 -0.3984
    8CHTO  H137 3142   6.234   8.982   0.598  0.2104  0.1657 -0.3604
    8CHTO   O45 3143   5.946   9.062   0.884  0.1699 -0.3075 -0.0096
    8CHTO   C67 3144   6.029   8.950   0.915  0.1070 -0.2516  0.5867
    8CHTO  H124 3145   6.117   8.952   0.851 -0.0690  0.0264  0.3490
    8CHTO   C65 3146   6.072   8.947   1.068  0.0257 -0.2714  0.0641
    8CHTO  H122 3147   5.991   9.002   1.117  0.1534 -1.1716  1.2995
    8CHTO   O44 3148   6.193   9.026   1.072 -0.2959 -0.0031 -0.2883
    8CHTO  H102 3149   6.251   8.981   1.014  1.0501  0.3367  0.7725
    8CHTO   C63 3150   6.068   8.806   1.137 -0.2018  0.0576 -0.6167
    8CHTO  H120 3151   5.964   8.776   1.151  0.6273 -2.7083 -0.1849
    8CHTO   N11 3152   6.121   8.792   1.281 -0.3102  0.0337 -0.9780
    8CHTO  H108 3153   6.072   8.712   1.331 -1.0214  0.3674 -1.1444
    8CHTO  H109 3154   6.228   8.783   1.287  0.0948  3.5159 -1.7647
    8CHTO   C61 3155   6.124   8.697   1.038 -1.0506  1.0829 -0.2026
    8CHTO  H118 3156   6.082   8.603   1.077 -1.2627  1.2435 -0.0399
    8CHTO   O40 3157   6.079   8.715   0.907  0.3392  0.4355  0.0354
    8CHTO   C68 3158   5.975   8.814   0.873  0.1705  0.3426  0.4907
    8CHTO  H125 3159   5.882   8.799   0.932  0.6201 -1.2091  0.8388
    8CHTO   C72 3160   5.936   8.795   0.726 -0.7986  0.1510 -0.1625
    8CHTO   O48 3161   5.815   8.856   0.691  0.0328  0.3872 -0.1860
    8CHTO  H105 3162   5.825   8.946   0.716 -0.8271 -0.2671  2.6889
    8CHTO   O38 3163   6.273   8.699   1.026  0.1596  0.6429 -0.0864
    8CHTO   C55 3164   6.331   8.576   0.985  0.6168 -0.3781 -0.2288
    8CHTO  H112 3165   6.258   8.521   0.923 -1.5450  0.1737  1.7769
    8CHTO   C56 3166   6.383   8.482   1.101  0.0189  0.4265  0.0972
    8CHTO  H113 3167   6.451   8.548   1.157 -1.3911  0.4674  1.8032
    8CHTO   O42 3168   6.273   8.466   1.190 -0.2484  0.1980  0.6449
    8CHTO  H100 3169   6.272   8.525   1.263  0.6701  0.7469  0.2282
    8CHTO   C57 3170   6.438   8.347   1.035  0.5800  0.0119 -0.6342
    8CHTO  H114 3171   6.352   8.295   0.994  1.3176 -0.4221 -1.6483
    8CHTO   N10 3172   6.497   8.245   1.130  0.0936  0.0056  0.4574
    8CHTO  H106 3173   6.420   8.184   1.175 -2.2902  2.5292 -0.0543
    8CHTO  H107 3174   6.544   8.298   1.211  0.8861  0.5915 -0.3665
    8CHTO   C58 3175   6.543   8.379   0.921  0.2031 -0.2382 -0.5666
    8CHTO  H115 3176   6.640   8.409   0.966  1.1467 -0.5226 -2.3761
    8CHTO   O37 3177   6.496   8.480   0.821 -0.1015 -0.4343 -0.7343
    8CHTO   C59 3178   6.441   8.603   0.876 -0.6229  0.4276  1.1323
    8CHTO  H116 3179   6.528   8.655   0.917 -0.1334 -0.3277  1.0585
    8CHTO   C70 3180   6.384   8.683   0.757 -0.1674  0.1239 -0.3339
    8CHTO   O46 3181   6.324   8.804   0.792 -0.5817 -0.0041  0.0126
    8CHTO  H103 3182   6.395   8.864   0.783  1.9792 -2.9869 -0.6399
    8CHTO   O39 3183   6.567   8.231   0.813  0.0212 -0.7504  0.1509
    8CHTO   C60 3184   6.459   8.210   0.717 -0.8852 -0.0991 -0.1219
    8CHTO  H117 3185   6.373   8.261   0.761 -2.4226 -1.1357 -1.8403
    8CHTO   C62 3186   6.489   8.270   0.578 -0.7474 -0.1809 -0.1193
    8CHTO  H119 3187   6.525   8.375   0.587 -0.5396 -0.2118 -0.6105
    8CHTO   O43 3188   6.599   8.197   0.517 -0.0947  0.2535  0.2148
    8CHTO  H101 3189   6.604   8.215   0.426  0.3875  1.8069  0.5421
    8CHTO   C66 3190   6.356   8.274   0.501 -0.0329 -0.4455 -1.1189
    8CHTO  H123 3191   6.285   8.344   0.545  0.4694 -0.0855 -0.8896
    8CHTO   N12 3192   6.368   8.326   0.361 -0.0538  0.0272 -0.0442
    8CHTO  H110 3193   6.271   8.356   0.325  0.4445 -0.4045 -1.8181
    8CHTO  H111 3194   6.442   8.404   0.349  0.3066 -0.1748  0.8062
    8CHTO   C69 3195   6.295   8.135   0.488  0.2664 -0.2592 -0.2576
    8CHTO  H126 3196   6.358   8.071   0.422 -1.4049 -0.8208 -1.3614
    8CHTO   O41 3197   6.292   8.063   0.634 -0.3953 -0.2999  0.7726
    8CHTO   C64 3198   6.416   8.063   0.700  0.4249  0.0217  0.8349
    8CHTO  H121 3199   6.489   8.002   0.643 -1.2163 -0.0887 -1.2336
    8CHTO   C71 3200   6.397   7.985   0.830  0.3092  0.0488  0.1628
    8CHTO   O47 3201   6.292   8.036   0.908  0.5270 -0.4083  0.6097
    8CHTO  H104 3202   6.292   7.984   0.985 -1.0794 -0.4143  0.6300
    8CHTO   O34 3203   6.138   8.123   0.416 -0.2005  0.1349 -0.0021
    8CHTO   C49 3204   5.984   8.167   0.448  0.2499  0.0886  1.2237
    8CHTO   H91 3205   5.934   8.168   0.351 -0.7298  0.2352  1.7200
    8CHTO   C47 3206   5.980   8.314   0.504  0.2000  0.3162 -0.2456
    8CHTO   H89 3207   5.872   8.338   0.499  0.2807  0.8123  0.3433
    8CHTO   O33 3208   6.052   8.404   0.416  0.1469 -0.2395 -0.1573
    8CHTO   H70 3209   6.047   8.494   0.445  3.2502  0.6849 -2.2322
    8CHTO   C45 3210   6.031   8.315   0.656  0.0966 -0.0666 -0.1740
    8CHTO   H87 3211   6.130   8.266   0.652  0.2587  0.3744 -1.9986
    8CHTO    N8 3212   6.042   8.447   0.723 -0.0223  0.4123  0.0996
    8CHTO   H75 3213   6.009   8.437   0.826 -2.8342 -1.2165 -0.8934
    8CHTO   H76 3214   6.143   8.483   0.718 -0.3518  1.0156 -2.8512
    8CHTO   C43 3215   5.935   8.214   0.747 -1.0439  0.3990  0.3650
    8CHTO   H85 3216   5.977   8.212   0.847  2.7049 -1.6300 -1.1481
    8CHTO   O29 3217   5.936   8.080   0.687 -0.0572 -0.8430 -0.5587
    8CHTO   C50 3218   5.914   8.066   0.548  0.2513  0.1281 -0.0605
    8CHTO   H92 3219   5.957   7.969   0.520  2.1432  1.4529 -1.9283
    8CHTO   C54 3220   5.758   8.059   0.518 -0.5188  0.2891  0.3103
    8CHTO   O36 3221   5.696   7.957   0.591  0.3362 -0.1611  0.6737
    8CHTO   H72 3222   5.616   7.989   0.629  0.5691  0.5032  0.6055
    8CHTO   O27 3223   5.800   8.258   0.763 -0.2404 -0.4455  0.0238
    8CHTO   C37 3224   5.696   8.324   0.830 -0.1800  0.4827  0.6535
    8CHTO   H79 3225   5.625   8.264   0.889 -1.5648  2.7540  1.3866
    8CHTO   C38 3226   5.755   8.431   0.920  0.1934  0.5195  0.0811
    8CHTO   H80 3227   5.811   8.502   0.857 -0.1945  0.9351  0.2010
    8CHTO   O31 3228   5.844   8.377   1.023  0.0665  0.4058 -0.2737
    8CHTO   H68 3229   5.798   8.323   1.084 -0.0716 -0.3883 -1.0892
    8CHTO   C39 3230   5.642   8.521   0.988 -0.6841 -0.7060  0.2133
    8CHTO   H81 3231   5.578   8.449   1.040  0.3029 -1.4562  0.3956
    8CHTO    N7 3232   5.684   8.620   1.097 -0.0532  0.1831  0.2895
    8CHTO   H73 3233   5.737   8.701   1.049 -0.0446 -0.2271 -0.4016
    8CHTO   H74 3234   5.605   8.661   1.158 -0.4690  0.3625 -0.3602
    8CHTO   C40 3235   5.546   8.575   0.877 -0.6524 -0.1454  0.5270
    8CHTO   H82 3236   5.609   8.639   0.815 -2.5452  0.6279 -0.6487
    8CHTO   O26 3237   5.501   8.462   0.802  0.1636  0.5304 -0.0458
    8CHTO   C41 3238   5.608   8.397   0.732  0.6768 -0.6888 -0.0448
    8CHTO   H83 3239   5.662   8.465   0.665 -0.5899 -0.5050 -0.8972
    8CHTO   C52 3240   5.543   8.301   0.631  0.1728  0.1361 -0.0763
    8CHTO   O35 3241   5.440   8.349   0.559 -0.5649  0.0645 -0.4061
    8CHTO   H71 3242   5.396   8.281   0.511 -0.6920  0.0421 -0.2568
    8CHTO   O28 3243   5.439   8.652   0.928  0.1618  0.4927  0.1371
    8CHTO   C42 3244   5.362   8.735   0.844 -0.1575 -0.4934  0.1733
    8CHTO   H84 3245   5.285   8.777   0.910  0.5324 -0.1418  0.7601
    8CHTO   C44 3246   5.283   8.669   0.721 -0.1429  0.2421  0.1113
    8CHTO   H86 3247   5.352   8.607   0.664  0.1991  1.3700 -0.7329
    8CHTO   O32 3248   5.184   8.580   0.780 -0.2628  0.6051  0.3927
    8CHTO   H69 3249   5.128   8.542   0.715  1.1089 -2.8345  1.1120
    8CHTO   C48 3250   5.222   8.772   0.619  0.4004  0.0535  0.0740
    8CHTO   H90 3251   5.142   8.812   0.681 -0.3972 -1.3802 -0.0019
    8CHTO    N9 3252   5.166   8.715   0.488 -0.2945  0.3013  0.1045
    8CHTO   H77 3253   5.216   8.763   0.405  0.9207 -1.2721 -0.1021
    8CHTO   H78 3254   5.184   8.609   0.481 -0.8502  0.3576 -3.0276
    8CHTO   C51 3255   5.321   8.893   0.588  0.9147  0.0950 -0.0242
    8CHTO   H93 3256   5.403   8.864   0.522  0.5784  1.3055 -1.0147
    8CHTO   O30 3257   5.368   8.940   0.713  0.9957  0.2360  0.6895
    8CHTO   C46 3258   5.447   8.856   0.793 -0.2210 -0.2656  0.6711
    8CHTO   H88 3259   5.538   8.826   0.741  0.6468  1.1372  1.3541
    8CHTO   C53 3260   5.502   8.938   0.913  0.3056 -0.3387 -1.2305
    8CHTO   O72 3261   5.578   9.047   0.862  0.3520  0.8504 -0.4678
    8CHTO  H199 3262   5.588   9.114   0.927 -0.4680  1.1129 -0.6064
    8CHTO   O22 3263   5.255   9.009   0.533 -0.3403 -0.1794 -0.3128
    8CHTO   C31 3264   5.323   9.123   0.458 -0.1271  0.7574 -0.0230
    8CHTO   H59 3265   5.258   9.211   0.476 -3.1489 -1.3981 -0.2087
    8CHTO   C29 3266   5.463   9.156   0.505  0.2026  0.5359  0.5390
    8CHTO   H57 3267   5.522   9.063   0.498 -1.7463 -0.5446 -2.8052
    8CHTO   O21 3268   5.450   9.195   0.643  0.1120  0.3003 -0.1126
    8CHTO   H37 3269   5.406   9.278   0.643  1.0550  0.8108 -1.2715
    8CHTO   C27 3270   5.522   9.265   0.402  0.1242  0.0656 -0.4649
    8CHTO   H55 3271   5.454   9.351   0.409 -0.4095 -0.4701  1.0837
    8CHTO    N5 3272   5.657   9.308   0.435  0.3781  0.1571 -0.0121
    8CHTO   H43 3273   5.716   9.230   0.481 -1.1098 -0.2974  1.1465
    8CHTO   H44 3274   5.660   9.394   0.499  2.5549  0.6342 -0.6887
    8CHTO   C25 3275   5.513   9.203   0.258 -1.0582 -0.9709 -0.0937
    8CHTO   H53 3276   5.560   9.105   0.269 -1.1494 -0.7921  2.0121
    8CHTO   O17 3277   5.369   9.197   0.227 -0.0094  0.0336  0.0090
    8CHTO   C32 3278   5.318   9.091   0.309  0.1691 -0.6169  0.0335
    8CHTO   H60 3279   5.376   9.000   0.295  0.4937 -0.3318 -0.4809
    8CHTO   C36 3280   5.178   9.046   0.266  0.5186  0.3987 -0.4209
    8CHTO   O25 3281   5.179   8.971   0.143 -0.8089  0.0653 -0.4868
    8CHTO   H40 3282   5.117   8.902   0.155 -0.2481 -0.9941 -3.2874
    8CHTO   O15 3283   5.575   9.284   0.142  0.5854  0.4140 -0.2145
    8CHTO   C19 3284   5.596   9.284   0.002 -0.0294  0.4272  0.8078
    8CHTO   H47 3285   5.493   9.259  -0.025  0.6599 -0.2399 -1.3226
    8CHTO   C20 3286   5.643   9.427  -0.052  0.6786 -0.0530 -0.1805
    8CHTO   H48 3287   5.735   9.452   0.002 -1.0135  1.2429  2.2118
    8CHTO   O19 3288   5.548   9.526  -0.025  0.0383 -0.5895 -0.1400
    8CHTO   H35 3289   5.549   9.595  -0.089 -0.6526 -2.1490 -1.8923
    8CHTO   C21 3290   5.680   9.416  -0.212 -0.1898 -0.6923 -0.1648
    8CHTO   H49 3291   5.593   9.387  -0.270  0.5422 -3.9446  0.2944
    8CHTO    N4 3292   5.732   9.547  -0.275 -0.1840  0.5147  0.6525
    8CHTO   H41 3293   5.752   9.532  -0.380 -3.4847 -0.3454  0.0737
    8CHTO   H42 3294   5.654   9.621  -0.265 -1.9821 -1.2877  0.4416
    8CHTO   C22 3295   5.783   9.299  -0.230 -0.2104  0.0371 -0.6169
    8CHTO   H50 3296   5.863   9.311  -0.157 -0.2769  0.8010 -0.6743
    8CHTO   O14 3297   5.722   9.177  -0.191  0.3479  0.1964  0.5909
    8CHTO   C23 3298   5.688   9.168  -0.045 -0.1969  0.3838 -0.0421
    8CHTO   H51 3299   5.783   9.173   0.012  1.2044  3.4197 -2.5335
    8CHTO   C34 3300   5.617   9.041  -0.013  0.3634  0.3548 -0.3002
    8CHTO   O23 3301   5.678   8.917  -0.063  0.1270 -0.0403 -0.3605
    8CHTO   H38 3302   5.681   8.925  -0.157 -0.2485 -2.1797 -0.5905
    8CHTO   O16 3303   5.830   9.267  -0.365  0.6206  0.1577  0.4277
    8CHTO   C24 3304   5.949   9.187  -0.374 -0.3586 -0.0522  0.3666
    8CHTO   H52 3305   5.967   9.133  -0.281 -0.3081  0.9165  0.9234
    8CHTO   C26 3306   6.073   9.273  -0.395 -0.2502  0.2866 -0.0400
    8CHTO   H54 3307   6.076   9.315  -0.498 -1.5226 -2.0526 -1.0589
    8CHTO   O20 3308   6.089   9.368  -0.285  0.5073  0.3217 -0.6213
    8CHTO   H36 3309   6.127   9.448  -0.316 -0.1974  0.7382 -0.4165
    8CHTO   C30 3310   6.204   9.182  -0.407  0.0680 -0.3546  0.1500
    8CHTO   H58 3311   6.230   9.143  -0.307 -0.8347 -0.7701  0.2327
    8CHTO    N6 3312   6.320   9.267  -0.438  0.2632 -0.3126 -0.5861
    8CHTO   H45 3313   6.407   9.204  -0.452 -1.5179 -2.8463 -0.6775
    8CHTO   H46 3314   6.338   9.336  -0.356 -0.4011 -1.8871  0.9104
    8CHTO   C33 3315   6.181   9.057  -0.501  0.5516 -0.8181 -0.6722
    8CHTO   H61 3316   6.168   9.083  -0.607  3.8895 -0.8842 -1.1562
    8CHTO   O18 3317   6.061   8.999  -0.455  0.2247 -0.1990  0.0295
    8CHTO   C28 3318   5.948   9.080  -0.477 -0.2025 -0.7387  0.5524
    8CHTO   H56 3319   5.941   9.124  -0.576  2.0673 -0.3097  0.5688
    8CHTO   C35 3320   5.821   8.996  -0.468 -0.1916 -0.1901  0.5507
    8CHTO   O24 3321   5.811   8.927  -0.345  0.0693  0.0140  0.3362
    8CHTO   H39 3322   5.788   8.989  -0.279 -1.3463 -1.4846  1.3002
    8CHTO    O9 3323   6.293   8.965  -0.500 -0.3933 -0.4202 -0.3972
    8CHTO   C13 3324   6.309   8.865  -0.608  1.0638  0.3785  0.6757
    8CHTO   H26 3325   6.279   8.921  -0.699  1.3859 -0.4354  0.0660
    8CHTO   C11 3326   6.216   8.741  -0.591 -0.3975  0.1229 -0.4788
    8CHTO   H24 3327   6.112   8.776  -0.594 -1.2390 -2.0081  1.8072
    8CHTO    O8 3328   6.235   8.676  -0.460  0.4618  0.2512 -0.2965
    8CHTO    H3 3329   6.294   8.604  -0.473  0.2079 -0.2822  1.3211
    8CHTO    C9 3330   6.242   8.654  -0.720  0.2204 -0.1768  0.2634
    8CHTO   H22 3331   6.224   8.717  -0.808  0.9269 -1.4185 -0.7960
    8CHTO    N2 3332   6.142   8.547  -0.738 -0.0453 -0.0534  0.0321
    8CHTO   H10 3333   6.133   8.484  -0.651 -0.0571  1.4868  1.1462
    8CHTO   H11 3334   6.051   8.581  -0.784 -1.0021 -3.5844 -0.8601
    8CHTO    C7 3335   6.388   8.604  -0.725 -0.0869  0.4951 -0.0047
    8CHTO   H20 3336   6.409   8.565  -0.826  3.2852  4.6179 -1.0233
    8CHTO    O4 3337   6.479   8.715  -0.711 -0.6585 -0.4558 -0.5109
    8CHTO   C14 3338   6.453   8.831  -0.626 -0.3943 -0.2455  0.1091
    8CHTO   H27 3339   6.509   8.918  -0.667  0.8866 -2.0664 -2.0779
    8CHTO   C18 3340   6.524   8.799  -0.488  0.0462 -0.0474  0.1424
    8CHTO   O13 3341   6.666   8.778  -0.506  0.1145 -0.4844 -0.7750
    8CHTO    H7 3342   6.670   8.688  -0.531  1.3236 -1.0808  1.3753
    8CHTO    O2 3343   6.422   8.488  -0.598  0.1118  0.6675 -0.2984
    8CHTO    C1 3344   6.512   8.376  -0.618  0.1548 -0.9936 -0.0108
    8CHTO   H14 3345   6.565   8.349  -0.524  2.2327  1.3329 -0.4599
    8CHTO    C2 3346   6.631   8.404  -0.722 -0.4851  0.2594  0.0927
    8CHTO   H15 3347   6.584   8.435  -0.816 -0.6811  1.0969  0.4542
    8CHTO    O6 3348   6.708   8.513  -0.671 -0.1808 -0.2187 -0.0120
    8CHTO    H1 3349   6.784   8.533  -0.724  0.7517 -0.8889  1.0538
    8CHTO    C3 3350   6.716   8.261  -0.742 -0.0010 -0.2461 -0.1319
    8CHTO   H16 3351   6.784   8.235  -0.659 -0.5626  1.5324  0.9125
    8CHTO    N1 3352   6.803   8.281  -0.866 -0.0503 -0.1416  0.2943
    8CHTO    H8 3353   6.863   8.193  -0.884 -0.7225 -0.4148 -0.6311
    8CHTO    H9 3354   6.871   8.364  -0.857  0.1214 -0.5178  2.9751
    8CHTO    C4 3355   6.620   8.137  -0.753 -0.2337 -0.0690  0.0655
    8CHTO   H17 3356   6.568   8.145  -0.848 -0.0646 -1.6083 -0.1611
    8CHTO    O1 3357   6.519   8.132  -0.644  0.5097 -0.0099 -0.2144
    8CHTO    C5 3358   6.433   8.243  -0.654 -0.4812 -0.3993 -0.0249
    8CHTO   H18 3359   6.395   8.266  -0.754 -1.2812  1.9605  0.7939
    8CHTO   C16 3360   6.313   8.212  -0.557  0.0535 -0.3987 -0.1084
    8CHTO   O11 3361   6.242   8.096  -0.615  0.0070 -0.0189 -0.2463
    8CHTO    H5 3362   6.187   8.051  -0.553 -1.1570 -0.6180 -1.6899
    8CHTO    O3 3363   6.692   8.010  -0.747 -0.3230 -0.1399 -0.1447
    8CHTO    C6 3364   6.634   7.897  -0.821  0.0971 -0.1701  0.8550
    8CHTO   H19 3365   6.525   7.893  -0.821  0.0632 -0.0291 -1.3076
    8CHTO    C8 3366   6.676   7.897  -0.968 -0.0208 -0.2998  0.0531
    8CHTO   H21 3367   6.779   7.932  -0.972 -0.5153  1.5658  2.3501
    8CHTO    O7 3368   6.595   7.992  -1.033 -0.4086 -0.9089 -0.0683
    8CHTO    H2 3369   6.622   8.070  -0.988 -0.1431 -0.1940 -1.4451
    8CHTO   C12 3370   6.653   7.762  -1.043  0.6938  0.3395 -0.2826
    8CHTO   H25 3371   6.545   7.737  -1.053  0.4587  1.3146 -0.2699
    8CHTO    N3 3372   6.710   7.774  -1.187  0.4185  0.3729  0.0794
    8CHTO   H12 3373   6.637   7.830  -1.245 -0.3651 -0.1283  0.5683
    8CHTO   H13 3374   6.739   7.677  -1.224 -0.9670 -0.6289  1.5580
    8CHTO   C15 3375   6.722   7.651  -0.955  0.0535  0.1226  0.4670
    8CHTO   H28 3376   6.831   7.663  -0.953  0.1382 -0.3739 -0.8303
    8CHTO   O10 3377   6.687   7.520  -0.998  0.7793  0.0498  0.7244
    8CHTO    H4 3378   6.745   7.494  -1.067 -1.8106 -1.0318 -1.1094
    8CHTO    O5 3379   6.661   7.656  -0.825 -0.3002 -0.1632  0.2178
    8CHTO   C10 3380   6.685   7.769  -0.739 -0.4667 -0.2285  1.3668
    8CHTO   H23 3381   6.792   7.765  -0.718  0.0726  1.3585 -0.8568
    8CHTO   C17 3382   6.618   7.739  -0.604 -0.7724  0.1263 -0.6272
    8CHTO   O12 3383   6.617   7.848  -0.506 -0.1998 -0.0462  0.2688
    8CHTO    H6 3384   6.594   7.920  -0.560 -1.4579 -1.1213 -0.6378
    9CHTO  H203 3385   7.263   3.811   3.957  0.5016 -0.5168 -0.8508
    9CHTO   O82 3386   7.261   3.868   3.882 -0.1028  0.5133 -0.0749
    9CHTO  C123 3387   7.389   3.890   3.824  0.0183 -0.0048 -0.3761
    9CHTO  H227 3388   7.456   3.931   3.901 -1.2070  1.0390  0.1522
    9CHTO   O77 3389   7.426   3.757   3.787  0.4439 -0.3894  0.5533
    9CHTO  C118 3390   7.559   3.747   3.729  0.2457 -0.3108  0.0542
    9CHTO  H222 3391   7.638   3.787   3.793  1.0028  2.4495 -2.5056
    9CHTO  C125 3392   7.582   3.594   3.704 -0.2793 -0.2557 -0.0994
    9CHTO   O84 3393   7.616   3.512   3.816  0.3814  0.2372  0.0884
    9CHTO  H205 3394   7.709   3.512   3.826  0.3581  0.8402  0.3594
    9CHTO  C114 3395   7.573   3.827   3.599 -0.2233  0.5199  0.4096
    9CHTO  H218 3396   7.494   3.792   3.531 -0.0875 -1.3856  1.2065
    9CHTO  C116 3397   7.534   3.977   3.627 -0.0969  0.3180  0.1740
    9CHTO  H220 3398   7.614   4.024   3.687  0.4275 -0.5591  0.1816
    9CHTO   O79 3399   7.534   4.039   3.495 -0.5696 -0.4697 -0.1407
    9CHTO  H201 3400   7.450   4.077   3.476 -0.6916 -0.1135  1.0670
    9CHTO  C120 3401   7.391   3.981   3.701  0.1137  0.0280 -0.6862
    9CHTO  H224 3402   7.323   3.938   3.625  0.0531  2.4715 -2.0636
    9CHTO   N21 3403   7.362   4.121   3.732  0.4333  0.2154 -0.1630
    9CHTO  H211 3404   7.449   4.184   3.745 -0.0079  0.7357  0.2337
    9CHTO  H212 3405   7.298   4.168   3.659 -0.7034 -2.2481 -0.8051
    9CHTO   O75 3406   7.701   3.808   3.537 -0.3230 -0.4081  0.7261
    9CHTO  C112 3407   7.699   3.758   3.384  1.0141  0.3605  0.2473
    9CHTO  H216 3408   7.611   3.802   3.336  0.1817 -1.6387 -0.1066
    9CHTO   O73 3409   7.691   3.613   3.382  0.1916  0.1382  0.3554
    9CHTO  C113 3410   7.707   3.549   3.254  0.0784 -0.2264 -0.3377
    9CHTO  H217 3411   7.616   3.575   3.196 -0.4793  0.5714  0.8778
    9CHTO  C124 3412   7.689   3.403   3.278  0.4521 -0.1909 -0.2779
    9CHTO   O83 3413   7.799   3.347   3.354  0.2703  0.0736  0.0012
    9CHTO  H204 3414   7.877   3.397   3.343 -0.9803  2.0820 -0.0746
    9CHTO  C109 3415   7.832   3.592   3.182  0.9390  0.4996 -0.6699
    9CHTO  H213 3416   7.916   3.549   3.239 -0.7204 -2.6351 -0.5028
    9CHTO  C110 3417   7.833   3.749   3.177 -0.2589 -0.0467  0.4186
    9CHTO  H214 3418   7.751   3.786   3.115 -1.4218 -0.4505  1.6750
    9CHTO   O78 3419   7.954   3.781   3.113 -0.0179 -0.2856 -0.2888
    9CHTO  H200 3420   7.935   3.787   3.022 -0.1885  1.1016 -0.1838
    9CHTO  C111 3421   7.829   3.813   3.320 -0.0015  0.2370  0.1209
    9CHTO  H215 3422   7.917   3.778   3.377  0.9654  0.9608 -0.9031
    9CHTO   N19 3423   7.845   3.963   3.326 -0.1251  0.3070  0.2178
    9CHTO  H207 3424   7.830   4.008   3.229 -0.4303 -2.6733 -1.1723
    9CHTO  H208 3425   7.780   3.997   3.405  0.2451 -0.1883  0.7340
    9CHTO   O74 3426   7.827   3.543   3.044  0.3010 -0.2896 -0.6092
    9CHTO  C115 3427   7.962   3.468   2.998 -0.6063  0.1111 -0.2651
    9CHTO  H219 3428   8.052   3.523   3.028 -0.5313 -0.4652  0.5812
    9CHTO   O76 3429   7.977   3.319   3.068  0.2980 -0.5182  0.1500
    9CHTO  C122 3430   7.889   3.216   3.016 -0.0735 -0.0831  0.1371
    9CHTO  H226 3431   7.787   3.237   3.050  0.1856  0.3850  0.6285
    9CHTO  C126 3432   7.937   3.083   3.085 -0.1047 -0.1452 -0.1029
    9CHTO   O85 3433   7.956   3.084   3.226  0.3333  0.5905  0.3205
    9CHTO  H206 3434   7.887   3.138   3.259 -1.1454 -0.3409 -1.1444
    9CHTO  C121 3435   7.899   3.198   2.861 -0.3402 -0.4471 -0.1497
    9CHTO  H225 3436   8.000   3.168   2.826  0.1575  1.7407 -0.6332
    9CHTO   O81 3437   7.794   3.099   2.831 -0.7028  0.1782 -0.2795
    9CHTO  H202 3438   7.792   3.083   2.738 -1.1322  2.3702 -0.6760
    9CHTO  C119 3439   7.865   3.333   2.794 -1.4464 -0.6098  0.1487
    9CHTO  H223 3440   7.878   3.328   2.686  1.6066 -1.0142  0.4935
    9CHTO  C117 3441   7.953   3.461   2.836  0.0008  0.6985 -0.1902
    9CHTO  H221 3442   7.918   3.560   2.805  0.4209  0.8396 -0.2093
    9CHTO   N20 3443   8.095   3.448   2.772  0.2703  0.2918  0.7258
    9CHTO  H209 3444   8.097   3.438   2.664  3.3783  0.5141  0.7143
    9CHTO  H210 3445   8.150   3.534   2.808 -0.4281  1.1438 -0.2045
    9CHTO   O80 3446   7.707   3.367   2.810  0.0164 -0.4101 -0.2627
    9CHTO  C103 3447   7.636   3.477   2.716  0.1276  0.5544 -0.2756
    9CHTO  H190 3448   7.681   3.572   2.744  0.3890  0.0685  1.0256
    9CHTO  C101 3449   7.646   3.457   2.565  0.6750  0.2594 -0.1011
    9CHTO  H188 3450   7.614   3.356   2.542  1.5277 -0.3528  1.3774
    9CHTO   O68 3451   7.790   3.480   2.521 -0.0194 -0.0443 -0.2435
    9CHTO  H168 3452   7.787   3.440   2.436 -1.4768 -1.0956  0.2616
    9CHTO   C99 3453   7.551   3.562   2.493  0.3111  0.0731  0.6000
    9CHTO  H186 3454   7.587   3.666   2.506  0.4748  0.2827 -1.4247
    9CHTO   N17 3455   7.546   3.550   2.348  0.0347 -0.5637 -0.5212
    9CHTO  H174 3456   7.557   3.449   2.310 -1.7277 -0.4762 -1.3180
    9CHTO  H175 3457   7.625   3.614   2.313  1.4813 -0.2726  3.0560
    9CHTO   C97 3458   7.409   3.555   2.562 -0.2705 -0.5068  0.2103
    9CHTO  H184 3459   7.356   3.461   2.541  1.7934 -1.3301 -1.3693
    9CHTO   O64 3460   7.413   3.584   2.699 -0.5296 -0.6182 -0.1202
    9CHTO  C104 3461   7.485   3.479   2.772  0.3856 -0.0359 -0.3972
    9CHTO  H191 3462   7.439   3.381   2.767 -1.5965  0.6958  2.3673
    9CHTO  C108 3463   7.481   3.518   2.925 -0.3011  0.0365  0.6737
    9CHTO   O71 3464   7.354   3.483   2.984 -0.1385  0.1319 -0.0593
    9CHTO  H171 3465   7.343   3.392   2.964  5.5279 -0.1190 -3.0130
    9CHTO   O62 3466   7.334   3.677   2.531  0.0606  0.5610  1.1247
    9CHTO   C91 3467   7.229   3.671   2.436  0.6606  0.2184  0.6780
    9CHTO  H178 3468   7.265   3.619   2.347  0.0906  0.7173  0.1446
    9CHTO   C92 3469   7.191   3.811   2.384  0.3387 -0.0411 -0.1492
    9CHTO  H179 3470   7.287   3.859   2.357  1.2145 -1.6274  0.0825
    9CHTO   O66 3471   7.122   3.784   2.258  0.4853  0.5903 -0.5512
    9CHTO  H166 3472   7.092   3.865   2.223 -0.0508  1.2889  1.4995
    9CHTO   C93 3473   7.092   3.895   2.468  0.1432 -0.3251  0.3061
    9CHTO  H180 3474   7.043   3.970   2.404  1.6473  0.7001  0.3239
    9CHTO   N16 3475   7.159   3.972   2.572  0.0770  0.3720 -0.8114
    9CHTO  H172 3476   7.097   4.041   2.626  1.1530  0.4482  0.3616
    9CHTO  H173 3477   7.242   4.032   2.538  1.1515 -1.4739 -1.5088
    9CHTO   C94 3478   6.977   3.800   2.529 -0.3110  0.5789 -0.4232
    9CHTO  H181 3479   6.987   3.781   2.636  0.3196  1.7857 -0.2707
    9CHTO   O61 3480   6.968   3.673   2.461  0.6362  0.2651  0.5207
    9CHTO   C95 3481   7.091   3.604   2.497 -0.2745 -0.0359  0.3194
    9CHTO  H182 3482   7.100   3.604   2.606  0.6164  1.4924  0.2606
    9CHTO  C106 3483   7.076   3.453   2.465 -0.6662 -0.3115  0.3416
    9CHTO   O69 3484   6.960   3.390   2.535  0.0564 -0.5749 -0.2382
    9CHTO  H169 3485   6.959   3.299   2.512  0.2998  0.2387 -3.6473
    9CHTO   O63 3486   6.852   3.873   2.506  0.1342 -0.2545 -0.3132
    9CHTO   C96 3487   6.750   3.855   2.609  0.7946  0.0321 -0.4662
    9CHTO  H183 3488   6.792   3.823   2.704 -1.8492 -0.0132  0.7347
    9CHTO   C98 3489   6.642   3.743   2.572  0.3577 -0.9868  0.1280
    9CHTO  H185 3490   6.588   3.758   2.478  1.7618 -0.4421 -0.6102
    9CHTO   O67 3491   6.712   3.616   2.559 -0.0344 -0.2284  0.2231
    9CHTO  H167 3492   6.785   3.600   2.615 -0.1665 -0.8257  0.2285
    9CHTO  C102 3493   6.527   3.741   2.689  0.1940  0.3823 -0.2550
    9CHTO  H189 3494   6.582   3.729   2.783  1.7431 -1.6443 -1.3596
    9CHTO   N18 3495   6.429   3.631   2.682  0.2035  0.6232  0.1468
    9CHTO  H176 3496   6.379   3.613   2.588  0.5942 -0.2124  0.0894
    9CHTO  H177 3497   6.357   3.648   2.760  0.7526 -0.1027  0.8134
    9CHTO  C105 3498   6.472   3.887   2.677  0.9818 -0.1966 -0.7810
    9CHTO  H192 3499   6.436   3.905   2.576 -0.1309 -2.6164 -0.8469
    9CHTO   O65 3500   6.573   3.988   2.704 -0.4390 -0.1194 -0.7592
    9CHTO  C100 3501   6.683   3.992   2.614  0.4803  0.2762  0.5982
    9CHTO  H187 3502   6.656   4.022   2.512 -1.1169  0.6065  1.1053
    9CHTO  C107 3503   6.782   4.096   2.662 -0.1498 -0.3469 -0.2647
    9CHTO   O70 3504   6.722   4.231   2.659  0.0289 -0.1443 -0.3761
    9CHTO  H170 3505   6.761   4.282   2.728  1.2796 -0.5665 -0.7528
    9CHTO   O57 3506   6.375   3.899   2.766 -0.5462  0.0884 -0.1944
    9CHTO   C85 3507   6.269   3.990   2.751 -0.8153 -0.5225 -0.1309
    9CHTO  H157 3508   6.232   3.964   2.650  0.4070  1.0949 -1.0206
    9CHTO   C83 3509   6.304   4.139   2.749 -0.3390  0.6777  0.6272
    9CHTO  H155 3510   6.368   4.152   2.661  2.1131 -0.5923  2.1788
    9CHTO   O56 3511   6.372   4.175   2.866  0.2408  0.3538 -0.4141
    9CHTO  H135 3512   6.417   4.255   2.846  0.6321  0.0110 -0.9175
    9CHTO   C81 3513   6.170   4.214   2.727  0.2391  0.0859 -0.0261
    9CHTO  H153 3514   6.119   4.169   2.642 -0.9561 -1.6086  1.5305
    9CHTO   N14 3515   6.181   4.354   2.678  0.2604  0.5145 -0.3383
    9CHTO  H141 3516   6.285   4.380   2.669  0.4518  1.3299  3.3642
    9CHTO  H142 3517   6.131   4.427   2.738  0.4110 -1.3077  2.0688
    9CHTO   C79 3518   6.081   4.192   2.856 -0.9829  0.1116 -0.2507
    9CHTO  H151 3519   5.988   4.247   2.842 -1.5088 -0.3327  1.3841
    9CHTO   O52 3520   6.044   4.046   2.868  0.2417  0.0141 -0.0114
    9CHTO   C86 3521   6.160   3.953   2.864  0.4567 -0.3564  0.3718
    9CHTO  H158 3522   6.209   3.957   2.963 -0.7751 -1.1139  1.0270
    9CHTO   C90 3523   6.111   3.803   2.850 -0.1755 -0.2766 -0.4041
    9CHTO   O60 3524   5.998   3.792   2.763 -0.1435  0.5232  0.1162
    9CHTO  H138 3525   6.011   3.702   2.736  0.7973  0.2308  1.5017
    9CHTO   O50 3526   6.145   4.242   2.978  0.0961 -0.3250  0.2254
    9CHTO   C73 3527   6.160   4.325   3.097  0.0861  0.2840  0.2892
    9CHTO  H145 3528   6.061   4.334   3.145  0.6250  0.8697  1.2912
    9CHTO   C74 3529   6.203   4.469   3.065  0.5463  0.7820 -0.2193
    9CHTO  H146 3530   6.131   4.506   2.991 -0.9157 -1.4979 -0.0060
    9CHTO   O54 3531   6.176   4.547   3.179 -0.3899  0.1014  0.3635
    9CHTO  H133 3532   6.187   4.635   3.147  0.3113  0.1234  0.6423
    9CHTO   C75 3533   6.357   4.469   3.012 -0.0916  0.9885  0.2187
    9CHTO  H147 3534   6.356   4.423   2.911 -0.0612  0.5877  0.3990
    9CHTO   N13 3535   6.414   4.605   2.995  0.3466  0.0587  0.0555
    9CHTO  H139 3536   6.356   4.687   3.034  4.3169  2.3689  1.3764
    9CHTO  H140 3537   6.438   4.627   2.892  1.7988  0.6501  0.5099
    9CHTO   C76 3538   6.455   4.380   3.095 -0.0335 -0.3630 -0.1729
    9CHTO  H148 3539   6.485   4.443   3.178  1.0841  0.8550 -1.4729
    9CHTO   O49 3540   6.397   4.258   3.147  0.0449 -0.1482 -0.2457
    9CHTO   C77 3541   6.261   4.259   3.198 -0.1565  0.3679  0.0600
    9CHTO  H149 3542   6.265   4.321   3.287 -0.3551 -0.3377  0.5627
    9CHTO   C88 3543   6.214   4.122   3.242 -0.0766 -0.2394  0.1016
    9CHTO   O58 3544   6.104   4.123   3.321  0.3652  0.2647  0.6373
    9CHTO  H136 3545   6.085   4.033   3.338 -0.0129  0.0409 -0.8519
    9CHTO   O51 3546   6.572   4.332   3.013  0.2518 -0.1206 -0.0963
    9CHTO   C78 3547   6.719   4.316   3.077  0.1613  0.3025 -0.0878
    9CHTO  H150 3548   6.708   4.289   3.184 -0.4269  1.8163  0.2448
    9CHTO   C80 3549   6.798   4.449   3.066 -0.1119  0.3299  0.1181
    9CHTO  H152 3550   6.808   4.468   2.957 -1.5849  3.5323  0.5068
    9CHTO   O55 3551   6.722   4.548   3.133 -0.1532 -0.2078 -0.4018
    9CHTO  H134 3552   6.705   4.623   3.079  0.4659 -0.5094 -1.0128
    9CHTO   C84 3553   6.947   4.437   3.118  0.3783 -1.0317 -0.5296
    9CHTO  H156 3554   6.934   4.419   3.224 -0.3073 -0.6585 -0.5463
    9CHTO   N15 3555   7.030   4.563   3.112  0.3321  0.2877 -0.2695
    9CHTO  H143 3556   7.115   4.564   3.177  0.6853  1.5271 -0.7292
    9CHTO  H144 3557   7.059   4.576   3.010 -1.2202  0.6457 -0.6768
    9CHTO   C87 3558   7.014   4.316   3.040 -0.1716  0.2621  1.2322
    9CHTO  H159 3559   7.010   4.340   2.933 -1.9064  1.0934  1.4604
    9CHTO   O53 3560   6.918   4.197   3.064 -0.0358  0.3955 -0.1466
    9CHTO   C82 3561   6.784   4.195   3.008 -0.0738 -0.7037 -0.1216
    9CHTO  H154 3562   6.782   4.205   2.900  2.5716 -0.9518 -0.2174
    9CHTO   C89 3563   6.715   4.060   3.045  0.0336 -1.0230 -0.3858
    9CHTO   O59 3564   6.777   3.940   2.985  1.0598 -0.2843  0.4951
    9CHTO  H137 3565   6.755   3.864   3.035 -0.1205 -0.3203 -0.0594
    9CHTO   O45 3566   7.169   4.292   3.096 -0.1362 -0.0109  0.2019
    9CHTO   C67 3567   7.191   4.163   3.151  0.0409 -0.0960 -0.2302
    9CHTO  H124 3568   7.096   4.116   3.174 -1.1765  2.1784 -0.4497
    9CHTO   C65 3569   7.262   4.072   3.049  0.4083  0.7084  0.7304
    9CHTO  H122 3570   7.304   4.144   2.979 -0.7888 -0.8633 -1.6819
    9CHTO   O44 3571   7.172   4.004   2.959  0.0809  0.7727 -0.0365
    9CHTO  H102 3572   7.215   3.950   2.896 -0.5988  1.3538 -1.0043
    9CHTO   C63 3573   7.382   3.990   3.123 -0.4481  0.4094  0.8900
    9CHTO  H120 3574   7.464   4.059   3.140 -0.1218  1.3550 -3.7979
    9CHTO   N11 3575   7.456   3.889   3.042  0.2122  0.0422 -0.2159
    9CHTO  H108 3576   7.475   3.919   2.941  0.7758 -1.0859 -0.4559
    9CHTO  H109 3577   7.537   3.839   3.090 -0.7015 -0.6666  0.6138
    9CHTO   C61 3578   7.333   3.936   3.262 -0.1176  0.0032  0.4296
    9CHTO  H118 3579   7.411   3.875   3.309  0.2869  0.6673  0.6234
    9CHTO   O40 3580   7.303   4.051   3.352 -0.2072  0.2876  0.1018
    9CHTO   C68 3581   7.254   4.179   3.289  0.1095 -0.2799  0.0175
    9CHTO  H125 3582   7.341   4.245   3.268 -0.8016 -0.1756 -3.8467
    9CHTO   C72 3583   7.161   4.253   3.392 -0.0110 -0.3953  0.4187
    9CHTO   O48 3584   7.034   4.191   3.420  0.3861 -0.3551  0.5883
    9CHTO  H105 3585   7.045   4.116   3.475 -1.4638 -0.3523  1.0037
    9CHTO   O38 3586   7.219   3.848   3.245 -0.3267  0.4278 -0.0543
    9CHTO   C55 3587   7.162   3.777   3.355  0.2587  0.2638 -0.3215
    9CHTO  H112 3588   7.173   3.839   3.445  0.3259  0.8530 -0.7313
    9CHTO   C56 3589   7.230   3.633   3.375 -0.4563 -0.5074 -0.5267
    9CHTO  H113 3590   7.224   3.580   3.279  2.6130 -2.1620  0.1461
    9CHTO   O42 3591   7.372   3.646   3.390 -0.2263 -0.0455  0.5435
    9CHTO  H100 3592   7.409   3.575   3.438 -0.8624 -0.0203  1.0806
    9CHTO   C57 3593   7.158   3.559   3.496  0.7832  0.0487  0.4600
    9CHTO  H114 3594   7.202   3.606   3.584  1.8593 -1.1326  0.5746
    9CHTO   N10 3595   7.191   3.413   3.499  0.3158 -0.5276  0.2652
    9CHTO  H106 3596   7.279   3.388   3.442 -0.7783 -1.9810 -0.8366
    9CHTO  H107 3597   7.207   3.393   3.604 -4.1978 -3.2207  0.5793
    9CHTO   C58 3598   7.005   3.574   3.498  0.2404 -0.1321  0.6493
    9CHTO  H115 3599   6.958   3.493   3.438  2.2180 -0.0460 -1.0487
    9CHTO   O37 3600   6.961   3.698   3.439  0.7010 -0.1183  0.1822
    9CHTO   C59 3601   7.010   3.761   3.320 -0.3069  0.5799 -0.4369
    9CHTO  H116 3602   7.001   3.704   3.227 -0.8957 -0.3013  0.1590
    9CHTO   C70 3603   6.931   3.890   3.301  0.4787 -0.2091  0.2947
    9CHTO   O46 3604   6.790   3.863   3.292  0.5466 -0.2691 -0.7435
    9CHTO  H103 3605   6.747   3.946   3.296  1.4702  0.2111 -0.6149
    9CHTO   O39 3606   6.942   3.585   3.659 -0.0160  0.2203  0.3772
    9CHTO   C60 3607   6.799   3.569   3.668 -0.1117  0.0817  0.4408
    9CHTO  H117 3608   6.754   3.656   3.620  2.9746  0.5885 -1.7519
    9CHTO   C62 3609   6.754   3.431   3.614  0.3300 -0.2751 -0.0241
    9CHTO  H119 3610   6.778   3.428   3.506 -0.2060 -0.6082 -0.1404
    9CHTO   O43 3611   6.827   3.323   3.681  0.4902  0.1378  0.2691
    9CHTO  H101 3612   6.823   3.349   3.771  0.6045 -0.8478  0.5605
    9CHTO   C66 3613   6.588   3.413   3.633  0.0000 -0.4056  0.1941
    9CHTO  H123 3614   6.538   3.501   3.591 -2.0573 -2.2356 -1.3107
    9CHTO   N12 3615   6.518   3.291   3.578 -0.2860 -0.7048 -0.5134
    9CHTO  H110 3616   6.508   3.315   3.474 -1.6944  0.2972 -0.1553
    9CHTO  H111 3617   6.585   3.208   3.596  0.4343  0.0124  0.1684
    9CHTO   C69 3618   6.551   3.430   3.777 -1.0320 -0.6845  0.3109
    9CHTO  H126 3619   6.594   3.342   3.828  0.9002  0.8155  1.3400
    9CHTO   O41 3620   6.625   3.565   3.841  0.4656 -0.0244 -0.0889
    9CHTO   C64 3621   6.759   3.576   3.811  0.0432 -0.0339 -0.4153
    9CHTO  H121 3622   6.799   3.491   3.869 -0.7553  0.5177  0.9543
    9CHTO   C71 3623   6.813   3.703   3.882 -0.0947 -0.0885  0.0692
    9CHTO   O47 3624   6.767   3.706   4.018 -0.3300  0.1032  0.4774
    9CHTO  H104 3625   6.767   3.795   4.049 -0.3400  0.6125 -0.9816
    9CHTO   O34 3626   6.393   3.443   3.798 -0.0657 -0.2060 -0.5168
    9CHTO   C49 3627   6.255   3.472   3.882  0.3261 -0.0144 -0.4134
    9CHTO   H91 3628   6.175   3.501   3.813 -1.1223 -1.5811  0.5518
    9CHTO   C47 3629   6.286   3.585   3.982 -0.0639  0.5383  0.5492
    9CHTO   H89 3630   6.185   3.605   4.023 -0.1975  0.8241  0.0785
    9CHTO   O33 3631   6.325   3.703   3.905 -0.5546 -0.3943  0.1912
    9CHTO   H70 3632   6.266   3.698   3.832 -3.7999 -0.3722  2.6549
    9CHTO   C45 3633   6.399   3.537   4.096  0.6379  0.0369 -0.2974
    9CHTO   H87 3634   6.499   3.568   4.064  1.4466 -1.3357  0.8433
    9CHTO    N8 3635   6.366   3.606   4.227 -0.2141 -0.2930 -0.2809
    9CHTO   H75 3636   6.272   3.569   4.265  1.5162 -2.0927  2.4327
    9CHTO   H76 3637   6.372   3.713   4.221 -0.3287 -0.2419  0.4537
    9CHTO   C43 3638   6.391   3.386   4.110  0.1121 -0.1449  0.2918
    9CHTO   H85 3639   6.450   3.343   4.028  1.3698 -2.5722  2.3650
    9CHTO   O29 3640   6.254   3.339   4.108 -0.3404  0.4304 -0.0207
    9CHTO   C50 3641   6.201   3.354   3.972  0.4917 -0.2659  0.4567
    9CHTO   H92 3642   6.213   3.257   3.921 -2.3637 -0.2231 -0.3842
    9CHTO   C54 3643   6.055   3.351   3.994  0.1759 -0.4392 -0.2306
    9CHTO   O36 3644   5.994   3.472   4.054  0.0507  0.3680  0.0007
    9CHTO   H72 3645   6.047   3.522   4.112 -1.0979  0.4680  0.9915
    9CHTO   O27 3646   6.465   3.328   4.218 -0.1074  0.4851 -0.2556
    9CHTO   C37 3647   6.598   3.304   4.270 -0.4966  0.4884 -0.2286
    9CHTO   H79 3648   6.603   3.208   4.323  2.0736  0.2834 -0.7847
    9CHTO   C38 3649   6.694   3.289   4.146 -0.3771  0.0626  0.2227
    9CHTO   H80 3650   6.677   3.372   4.076 -0.0975  1.0220  1.2596
    9CHTO   O31 3651   6.656   3.173   4.071  0.2529  0.0969  0.1480
    9CHTO   H68 3652   6.573   3.134   4.090  0.1666 -0.0426 -0.5122
    9CHTO   C39 3653   6.845   3.296   4.190 -0.1457 -0.7950 -0.0845
    9CHTO   H81 3654   6.863   3.214   4.260  0.8324 -2.1685 -1.9077
    9CHTO    N7 3655   6.949   3.289   4.075  0.4725  0.1099  0.1537
    9CHTO   H73 3656   7.051   3.292   4.111  0.5844  2.5248 -0.2484
    9CHTO   H74 3657   6.949   3.194   4.025 -1.7687  0.6721 -0.9976
    9CHTO   C40 3658   6.863   3.426   4.278 -0.9719 -0.8640 -0.5048
    9CHTO   H82 3659   6.831   3.516   4.225 -1.4553 -0.6403  0.1710
    9CHTO   O26 3660   6.787   3.403   4.397  0.9570  0.7701 -0.4220
    9CHTO   C41 3661   6.646   3.417   4.362  0.2851  0.3062  1.2137
    9CHTO   H83 3662   6.621   3.517   4.324 -0.7579  1.1060  3.8862
    9CHTO   C52 3663   6.581   3.399   4.498  0.6481  0.0021  0.1115
    9CHTO   O35 3664   6.456   3.443   4.518 -0.0012  0.1921  0.3799
    9CHTO   H71 3665   6.423   3.404   4.596  1.8466 -1.4820  0.3924
    9CHTO   O28 3666   6.997   3.446   4.332  0.3800  0.3549  0.5128
    9CHTO   C42 3667   7.027   3.574   4.366  0.5220  0.0077 -0.2921
    9CHTO   H84 3668   7.121   3.558   4.419  0.1053 -3.7066 -0.5207
    9CHTO   C44 3669   6.936   3.640   4.474 -0.1348 -0.0608 -0.0293
    9CHTO   H86 3670   6.830   3.624   4.451 -1.0980  1.7041  2.9154
    9CHTO   O32 3671   6.959   3.567   4.598  0.2225  0.1149 -0.6726
    9CHTO   H69 3672   7.047   3.539   4.614 -0.0131  0.3395  1.1674
    9CHTO   C48 3673   6.968   3.792   4.477 -0.0594  0.2120  0.3017
    9CHTO   H90 3674   7.068   3.797   4.520 -0.0560 -2.4175  0.6972
    9CHTO    N9 3675   6.875   3.864   4.576 -0.0834  0.6685 -0.0509
    9CHTO   H77 3676   6.821   3.945   4.529 -0.5890  3.4499  5.0077
    9CHTO   H78 3677   6.933   3.909   4.655 -0.7638 -0.0861  0.8896
    9CHTO   C51 3678   6.963   3.853   4.340  0.3047 -0.4996  0.6998
    9CHTO   H93 3679   6.868   3.816   4.301  0.4720  0.5183 -0.6945
    9CHTO   O30 3680   7.068   3.811   4.252  0.2309  0.1568  0.5782
    9CHTO   C46 3681   7.055   3.662   4.237 -0.0823  0.0562 -0.6692
    9CHTO   H88 3682   6.962   3.646   4.182 -1.6683  3.0580  1.0194
    9CHTO   C53 3683   7.172   3.610   4.148 -0.0518 -0.2974  0.3366
    9CHTO   O72 3684   7.130   3.585   4.018 -0.0388 -0.5929 -0.1465
    9CHTO  H199 3685   7.196   3.601   3.953  0.3033 -0.4248  0.2426
    9CHTO   O22 3686   6.972   3.998   4.339  0.5370 -0.2244 -0.4336
    9CHTO   C31 3687   6.908   4.079   4.227  0.5192 -0.2711  0.3416
    9CHTO   H59 3688   6.921   4.185   4.259 -1.1211 -0.4178  1.5744
    9CHTO   C29 3689   6.982   4.068   4.093  0.5192  0.0013 -0.5730
    9CHTO   H57 3690   6.981   3.961   4.068  1.3174 -0.0036 -0.6032
    9CHTO   O21 3691   7.118   4.104   4.113 -0.2396  0.0254  0.0685
    9CHTO   H37 3692   7.174   4.060   4.053  0.0156  1.7819 -1.0031
    9CHTO   C27 3693   6.912   4.141   3.969 -0.3858 -0.1392  0.5452
    9CHTO   H55 3694   6.919   4.250   3.982 -2.8903 -0.0443  1.3781
    9CHTO    N5 3695   6.979   4.110   3.841 -0.5542 -0.0796  0.5846
    9CHTO   H43 3696   7.035   4.196   3.807  1.1545 -1.7012 -0.7896
    9CHTO   H44 3697   7.051   4.036   3.872 -0.6496 -0.9109 -1.1128
    9CHTO   C25 3698   6.758   4.109   3.969 -0.2153 -0.5654  0.6536
    9CHTO   H53 3699   6.751   4.000   3.957  1.8227 -0.6463  0.0661
    9CHTO   O17 3700   6.706   4.155   4.102 -0.0255  0.4614  0.2821
    9CHTO   C32 3701   6.757   4.063   4.205  0.2738  0.3066 -0.3000
    9CHTO   H60 3702   6.735   3.964   4.164 -2.3370  0.6486  0.1810
    9CHTO   C36 3703   6.667   4.079   4.333  0.3257 -0.1766 -0.7180
    9CHTO   O25 3704   6.532   4.053   4.303 -0.0450 -0.4540 -0.0097
    9CHTO   H40 3705   6.475   4.105   4.356  0.5856  0.0267  0.2048
    9CHTO   O15 3706   6.688   4.202   3.841 -0.3166  0.3312  0.4449
    9CHTO   C19 3707   6.577   4.164   3.753  0.4236 -0.3482 -0.0211
    9CHTO   H47 3708   6.532   4.262   3.732 -0.8748 -0.7100  0.9328
    9CHTO   C20 3709   6.624   4.090   3.624  0.0201 -0.5022  0.0354
    9CHTO   H48 3710   6.677   3.996   3.647 -1.5135 -1.1580  0.9778
    9CHTO   O19 3711   6.714   4.184   3.561  0.1335 -0.3410  0.0585
    9CHTO   H35 3712   6.716   4.162   3.469  0.5157 -2.2907  0.5172
    9CHTO   C21 3713   6.499   4.066   3.531  0.2689 -0.4145 -0.0873
    9CHTO   H49 3714   6.446   4.160   3.519 -1.6374 -1.6881 -1.9583
    9CHTO    N4 3715   6.532   4.004   3.398  0.6148  0.1154 -0.0114
    9CHTO   H41 3716   6.440   3.999   3.342  0.5176  0.1818  0.1407
    9CHTO   H42 3717   6.569   3.904   3.413 -0.2136 -0.1642  0.1930
    9CHTO   C22 3718   6.398   3.986   3.621  0.1473 -0.8217 -0.1785
    9CHTO   H50 3719   6.455   3.894   3.631 -1.7585 -2.1604 -1.2611
    9CHTO   O14 3720   6.358   4.051   3.739 -0.3584 -0.4649  0.0717
    9CHTO   C23 3721   6.473   4.083   3.826 -0.2213  0.7641  0.1054
    9CHTO   H51 3722   6.517   3.994   3.872  1.0098  1.6791  0.7144
    9CHTO   C34 3723   6.428   4.169   3.940 -0.2891 -0.6285 -0.0961
    9CHTO   O23 3724   6.312   4.116   4.009  0.2356  0.3330  0.5754
    9CHTO   H38 3725   6.265   4.191   4.042  1.0540  0.1377  2.2682
    9CHTO   O16 3726   6.275   3.964   3.546  0.3281  0.3575  0.0848
    9CHTO   C24 3727   6.162   3.853   3.597  0.9403  0.3694 -0.3836
    9CHTO   H52 3728   6.173   3.828   3.703 -2.1588  0.5873  0.0163
    9CHTO   C26 3729   6.179   3.735   3.498  0.3826 -0.1808  0.7464
    9CHTO   H54 3730   6.180   3.783   3.398  0.8816  1.1984  1.4134
    9CHTO   O20 3731   6.307   3.669   3.529  0.2998 -0.4140  0.3460
    9CHTO   H36 3732   6.372   3.736   3.536  0.9823 -1.1917  1.5232
    9CHTO   C30 3733   6.061   3.632   3.498 -0.6921 -0.3609  1.0638
    9CHTO   H58 3734   6.051   3.576   3.593  1.1257 -1.3970  0.6867
    9CHTO    N6 3735   6.078   3.536   3.390 -0.3360  0.4758  0.3632
    9CHTO   H45 3736   6.017   3.451   3.413  0.4670 -0.7441 -1.8743
    9CHTO   H46 3737   6.050   3.579   3.295  0.9546  3.6596  1.3415
    9CHTO   C33 3738   5.923   3.711   3.484 -0.1797 -0.0642 -0.0707
    9CHTO   H61 3739   5.896   3.762   3.391  0.0644 -0.9242 -0.6146
    9CHTO   O18 3740   5.922   3.812   3.589 -0.0210 -0.2400 -0.3537
    9CHTO   C28 3741   6.022   3.909   3.582 -0.5163 -0.4642  0.3056
    9CHTO   H56 3742   6.016   3.960   3.486 -0.2916  0.7315  0.9164
    9CHTO   C35 3743   6.009   4.013   3.692  0.2454 -0.7737 -0.8915
    9CHTO   O24 3744   5.897   4.098   3.670  0.0215 -0.0756  0.2854
    9CHTO   H39 3745   5.883   4.144   3.750 -0.9335  0.5791 -0.2586
    9CHTO    O9 3746   5.818   3.616   3.503  0.2692 -0.7492 -0.3805
    9CHTO   C13 3747   5.685   3.639   3.420 -0.0097  0.7331 -0.1237
    9CHTO   H26 3748   5.716   3.673   3.319 -0.7193  1.7573 -0.0032
    9CHTO   C11 3749   5.581   3.739   3.489 -0.8661 -0.0853  0.2020
    9CHTO   H24 3750   5.615   3.838   3.454 -0.6055 -0.9620 -2.1073
    9CHTO    O8 3751   5.593   3.740   3.637  0.3452 -0.2962  0.0217
    9CHTO    H3 3752   5.567   3.654   3.664  1.5570 -0.6024  0.2334
    9CHTO    C9 3753   5.439   3.715   3.431 -0.2607  0.0014 -0.2511
    9CHTO   H22 3754   5.450   3.704   3.322  1.3898 -1.3629  0.0277
    9CHTO    N2 3755   5.355   3.826   3.461 -0.2199 -0.9895 -0.2426
    9CHTO   H10 3756   5.254   3.798   3.486  0.1038 -2.0738 -0.1170
    9CHTO   H11 3757   5.355   3.890   3.374  1.3656 -0.1393  0.3573
    9CHTO    C7 3758   5.398   3.578   3.488 -0.3353 -0.6839 -0.5171
    9CHTO   H20 3759   5.304   3.554   3.434  0.6891 -5.1143 -0.5213
    9CHTO    O4 3760   5.499   3.478   3.466  0.8845  0.1397  0.1320
    9CHTO   C14 3761   5.612   3.502   3.378  0.7086  0.0138 -0.0171
    9CHTO   H27 3762   5.565   3.507   3.278  0.7049  1.4223  0.0501
    9CHTO   C18 3763   5.717   3.379   3.376  0.1072 -0.7360  0.2604
    9CHTO   O13 3764   5.765   3.342   3.508  0.3601  0.0396  0.5500
    9CHTO    H7 3765   5.858   3.349   3.517  0.1603 -0.9671  3.7664
    9CHTO    O2 3766   5.356   3.584   3.650 -0.0118 -0.4153  0.1795
    9CHTO    C1 3767   5.323   3.456   3.703 -0.0269 -0.1782 -0.5377
    9CHTO   H14 3768   5.372   3.373   3.647  0.5891  0.1241 -0.4570
    9CHTO    C2 3769   5.164   3.433   3.712  0.0856 -0.3260  0.1321
    9CHTO   H15 3770   5.122   3.520   3.764  2.4123 -0.3727  2.1466
    9CHTO    O6 3771   5.113   3.431   3.575  0.1601 -0.9367  0.2478
    9CHTO    H1 3772   5.022   3.453   3.572  0.3011 -0.0635  1.7729
    9CHTO    C3 3773   5.131   3.296   3.792 -0.2574 -0.0623  0.0288
    9CHTO   H16 3774   5.162   3.204   3.739  2.4478  0.7826  0.0640
    9CHTO    N1 3775   4.982   3.267   3.808 -0.3140 -0.0358 -0.1497
    9CHTO    H8 3776   4.976   3.161   3.788  4.2341 -0.4718  0.2716
    9CHTO    H9 3777   4.923   3.318   3.734 -0.3805 -2.5179 -1.8655
    9CHTO    C4 3778   5.205   3.305   3.927 -0.7891 -0.0130  0.5038
    9CHTO   H17 3779   5.174   3.398   3.975 -1.7361 -1.1158  2.0513
    9CHTO    O1 3780   5.345   3.321   3.902  0.0926  0.1332 -0.3182
    9CHTO    C5 3781   5.387   3.445   3.840 -0.0533 -0.4629 -0.1010
    9CHTO   H18 3782   5.346   3.527   3.898 -0.9773 -0.5917 -0.5685
    9CHTO   C16 3783   5.545   3.449   3.841  0.5535 -0.0444 -0.4933
    9CHTO   O11 3784   5.616   3.346   3.782 -0.1758  0.5816  0.0772
    9CHTO    H5 3785   5.620   3.356   3.689  1.2081  0.4922  0.1197
    9CHTO    O3 3786   5.203   3.187   4.009  0.1483  0.4111 -0.2540
    9CHTO    C6 3787   5.224   3.215   4.151 -0.1171 -0.8299  0.3901
    9CHTO   H19 3788   5.274   3.311   4.167  1.0175 -1.4082  0.3521
    9CHTO    C8 3789   5.095   3.234   4.232 -0.2011 -0.2243  0.4400
    9CHTO   H21 3790   5.046   3.137   4.233 -1.0535  0.1099 -2.4917
    9CHTO    O7 3791   5.013   3.341   4.179  0.2372  0.0249  0.5413
    9CHTO    H2 3792   5.063   3.417   4.155 -0.9216  0.1492 -1.6288
    9CHTO   C12 3793   5.133   3.258   4.383  0.5724  0.2321 -0.4453
    9CHTO   H25 3794   5.199   3.347   4.388 -1.0601  1.5972 -2.5484
    9CHTO    N3 3795   5.015   3.297   4.472 -0.5349  0.2292  0.1158
    9CHTO   H12 3796   5.021   3.262   4.573  0.7304 -0.2300 -0.1096
    9CHTO   H13 3797   4.922   3.255   4.436  1.3209 -4.2766  0.3193
    9CHTO   C15 3798   5.215   3.132   4.435  0.4927 -0.1031  0.2066
    9CHTO   H28 3799   5.159   3.038   4.435 -0.0932  0.2275 -1.5723
    9CHTO   O10 3800   5.281   3.171   4.586 -0.3312 -0.2925 -0.1338
    9CHTO    H4 3801   5.314   3.259   4.596  0.7207 -0.6916 -0.0459
    9CHTO    O5 3802   5.329   3.106   4.357 -0.1167 -0.0104  0.5793
    9CHTO   C10 3803   5.311   3.104   4.213  0.4222 -0.0632  0.5957
    9CHTO   H23 3804   5.279   3.001   4.195  2.0188 -0.4341 -0.2140
    9CHTO   C17 3805   5.452   3.098   4.155 -0.8410  0.2508 -0.1221
    9CHTO   O12 3806   5.501   2.967   4.127  0.0616  0.4525 -0.1319
    9CHTO    H6 3807   5.552   2.955   4.050  0.2507 -0.2121  0.0961
   10CHTO  H203 3808   5.674   6.145   3.201  0.4075  0.9409 -0.8212
   10CHTO   O82 3809   5.599   6.153   3.146 -0.0433  0.0594 -0.3411
   10CHTO  C123 3810   5.495   6.173   3.241 -0.1280  0.0604 -0.2092
   10CHTO  H227 3811   5.415   6.228   3.191  0.5709 -0.8840 -2.3992
   10CHTO   O77 3812   5.460   6.034   3.269 -0.1403 -0.1364  0.4051
   10CHTO  C118 3813   5.340   6.018   3.341 -0.0802 -0.2090  0.0577
   10CHTO  H222 3814   5.259   6.068   3.286 -0.6239  0.3736  1.3656
   10CHTO  C125 3815   5.310   5.860   3.355  0.0167 -0.6116 -0.1632
   10CHTO   O84 3816   5.244   5.803   3.243 -0.2886  0.1459 -0.1436
   10CHTO  H205 3817   5.289   5.726   3.214  1.4149  1.7051 -1.8368
   10CHTO  C114 3818   5.360   6.069   3.489  0.2055 -0.3218  0.8492
   10CHTO  H218 3819   5.427   5.997   3.536  0.1330 -1.4847 -0.7908
   10CHTO  C116 3820   5.427   6.211   3.497  0.1606 -0.0648  0.4817
   10CHTO  H220 3821   5.355   6.295   3.490  1.6085  1.0874 -1.0978
   10CHTO   O79 3822   5.486   6.227   3.627  0.3192  0.2339 -0.4829
   10CHTO  H201 3823   5.549   6.158   3.641 -0.0958 -0.2252 -0.8665
   10CHTO  C120 3824   5.538   6.233   3.381 -0.3388 -0.2065  0.0647
   10CHTO  H224 3825   5.617   6.165   3.419 -0.0366 -0.7004 -1.4066
   10CHTO   N21 3826   5.584   6.373   3.362 -0.1054 -0.2895 -0.4242
   10CHTO  H211 3827   5.622   6.391   3.263  1.1182  0.4123  0.1622
   10CHTO  H212 3828   5.649   6.400   3.444 -3.2192  0.4490  1.9172
   10CHTO   O75 3829   5.226   6.065   3.546  0.0064 -0.1305  0.0653
   10CHTO  C112 3830   5.230   6.066   3.704 -0.2632 -0.4901  0.0116
   10CHTO  H216 3831   5.296   6.139   3.753  0.4966 -1.6400  0.7216
   10CHTO   O73 3832   5.261   5.934   3.748 -0.3459 -0.2171 -0.1084
   10CHTO  C113 3833   5.246   5.909   3.883 -0.4671  0.6335 -0.3839
   10CHTO  H217 3834   5.303   5.989   3.935 -0.3141  0.2090  0.1097
   10CHTO  C124 3835   5.300   5.773   3.922  0.0219 -0.2377  0.7318
   10CHTO   O83 3836   5.252   5.651   3.861  0.2491 -0.0515 -0.0551
   10CHTO  H204 3837   5.314   5.581   3.865  0.5374  0.2657  1.2469
   10CHTO  C109 3838   5.096   5.929   3.923 -0.5047  0.1838  0.3760
   10CHTO  H213 3839   5.039   5.854   3.867 -0.1054  0.2340 -0.0964
   10CHTO  C110 3840   5.048   6.075   3.892 -0.3787 -0.0624  1.3379
   10CHTO  H214 3841   5.102   6.145   3.956 -2.7005  0.8720  2.3216
   10CHTO   O78 3842   4.906   6.072   3.905 -0.4458  0.4093  0.1211
   10CHTO  H200 3843   4.872   6.090   3.990  1.3877 -2.4632  1.5217
   10CHTO  C111 3844   5.077   6.113   3.748 -0.1576 -0.4149 -0.5043
   10CHTO  H215 3845   5.009   6.054   3.685  1.0393 -2.9373  0.4814
   10CHTO   N19 3846   5.056   6.259   3.725  0.4582 -0.2486  0.4661
   10CHTO  H207 3847   4.981   6.306   3.786  1.9892  2.4822  0.3419
   10CHTO  H208 3848   5.152   6.309   3.717 -0.5299  1.6241 -0.0643
   10CHTO   O74 3849   5.070   5.908   4.066 -0.2027 -0.3961 -0.8344
   10CHTO  C115 3850   4.941   5.786   4.094  0.2638 -0.3818  0.6941
   10CHTO  H219 3851   4.842   5.823   4.068  0.3186 -1.3668 -1.0108
   10CHTO   O76 3852   4.955   5.658   4.003  0.5176 -0.0602  0.0896
   10CHTO  C122 3853   4.878   5.538   4.035  0.0253 -0.0341 -0.5369
   10CHTO  H226 3854   4.924   5.456   3.981  1.3047 -0.0702  0.5804
   10CHTO  C126 3855   4.739   5.560   3.966  0.9026 -0.7988 -0.0868
   10CHTO   O85 3856   4.652   5.448   3.967 -0.0060  0.3662 -0.0225
   10CHTO  H206 3857   4.589   5.459   3.898  2.6629  2.2811 -2.2493
   10CHTO  C121 3858   4.869   5.506   4.191  0.6933  0.5086 -0.2981
   10CHTO  H225 3859   4.796   5.423   4.205  1.2074 -0.1339 -1.3375
   10CHTO   O81 3860   4.997   5.451   4.222 -0.0865  0.9584 -0.2861
   10CHTO  H202 3861   5.017   5.441   4.313 -0.2796  1.2908 -0.2066
   10CHTO  C119 3862   4.838   5.636   4.277  0.2881 -0.3332  0.1214
   10CHTO  H223 3863   4.742   5.678   4.245  0.4387  0.0026  0.1039
   10CHTO  C117 3864   4.948   5.749   4.246 -0.7380  0.7158 -0.6707
   10CHTO  H221 3865   5.051   5.722   4.270 -0.4957  0.3055 -2.1623
   10CHTO   N20 3866   4.915   5.874   4.319 -0.1092 -0.1696 -0.5694
   10CHTO  H209 3867   4.979   5.951   4.277  0.7188 -0.6443 -0.2063
   10CHTO  H210 3868   4.815   5.909   4.299  0.4331  2.3476  0.8116
   10CHTO   O80 3869   4.802   5.602   4.430 -0.1636  0.1355 -0.1022
   10CHTO  C103 3870   4.681   5.485   4.458 -0.4518  0.1549 -0.5933
   10CHTO  H190 3871   4.645   5.454   4.360 -3.1077 -1.3281  0.7849
   10CHTO  C101 3872   4.712   5.355   4.545  0.4300 -0.4167 -0.3313
   10CHTO  H188 3873   4.772   5.394   4.627 -1.5933  0.5759  0.7007
   10CHTO   O68 3874   4.809   5.254   4.460  0.2275 -0.0421 -0.3957
   10CHTO  H168 3875   4.877   5.294   4.410  0.4687  0.6094  0.4431
   10CHTO   C99 3876   4.576   5.285   4.599  0.0013  0.1087  0.7889
   10CHTO  H186 3877   4.531   5.248   4.504  0.0669  0.6613  0.5400
   10CHTO   N17 3878   4.599   5.162   4.675  0.1319 -0.7130 -0.0312
   10CHTO  H174 3879   4.704   5.137   4.683  0.0515 -0.7789  0.9411
   10CHTO  H175 3880   4.565   5.167   4.777 -0.4028 -1.0874 -0.1913
   10CHTO   C97 3881   4.473   5.393   4.649 -0.2933  0.3238 -0.5074
   10CHTO  H184 3882   4.501   5.434   4.747  0.3859 -2.3875  0.4736
   10CHTO   O64 3883   4.456   5.490   4.551  0.0561  0.2731 -0.0010
   10CHTO  C104 3884   4.568   5.575   4.523 -0.2024 -0.4907 -0.6615
   10CHTO  H191 3885   4.599   5.621   4.617  0.4948  1.1163 -1.6469
   10CHTO  C108 3886   4.519   5.698   4.437 -0.6670  0.1102  0.6962
   10CHTO   O71 3887   4.605   5.809   4.417  0.9663 -0.4214  0.2203
   10CHTO  H171 3888   4.575   5.867   4.349 -1.0659 -1.1581  0.4550
   10CHTO   O62 3889   4.345   5.339   4.646 -0.1911  0.0916  0.1897
   10CHTO   C91 3890   4.259   5.336   4.765 -0.4202 -0.2013  0.5730
   10CHTO  H178 3891   4.331   5.335   4.848 -0.5180  2.1244  0.7141
   10CHTO   C92 3892   4.185   5.190   4.771  0.1793  0.4198  0.4586
   10CHTO  H179 3893   4.138   5.177   4.673  0.1803  1.5410  0.3019
   10CHTO   O66 3894   4.280   5.083   4.787 -0.1450 -0.0112 -0.2168
   10CHTO  H166 3895   4.255   5.011   4.733 -0.5675  0.8201 -1.1466
   10CHTO   C93 3896   4.071   5.183   4.880 -0.7433  0.5231  0.0762
   10CHTO  H180 3897   4.126   5.177   4.975 -3.4511 -2.1726  1.5354
   10CHTO   N16 3898   3.990   5.063   4.871  0.0739  0.0674 -0.3659
   10CHTO  H172 3899   3.890   5.068   4.829 -0.2385  0.1517  0.3882
   10CHTO  H173 3900   4.046   4.982   4.827 -1.2752 -1.5617  0.8579
   10CHTO   C94 3901   3.977   5.313   4.883 -0.0672  0.4066 -0.0929
   10CHTO  H181 3902   3.913   5.319   4.796 -1.7589  1.3568  1.1836
   10CHTO   O61 3903   4.059   5.435   4.883  0.2869 -0.2385  0.3789
   10CHTO   C95 3904   4.154   5.449   4.774 -0.1402 -0.0040  0.0190
   10CHTO  H182 3905   4.095   5.454   4.683 -3.5208 -1.0390  2.0855
   10CHTO  C106 3906   4.209   5.588   4.795 -0.4526 -0.1634  0.4646
   10CHTO   O69 3907   4.243   5.663   4.676 -0.0922  0.2591 -0.0196
   10CHTO  H169 3908   4.204   5.747   4.691 -3.2029 -0.8802 -1.2006
   10CHTO   O63 3909   3.884   5.310   5.025  0.0352 -0.1176 -0.2074
   10CHTO   C96 3910   3.935   5.349   5.149 -0.2596 -0.3926  0.0648
   10CHTO  H183 3911   4.032   5.395   5.132  0.3684 -1.6985  0.0871
   10CHTO   C98 3912   3.948   5.238   5.262  0.1137 -0.0807  0.3807
   10CHTO  H185 3913   3.853   5.183   5.272  0.3096 -0.4842  0.0539
   10CHTO   O67 3914   4.041   5.144   5.208 -0.0329 -0.0043  0.1424
   10CHTO  H167 3915   4.126   5.176   5.188 -0.5774  1.7495  0.5614
   10CHTO  C102 3916   4.006   5.295   5.402 -0.0972 -0.7349 -0.9281
   10CHTO  H189 3917   4.115   5.300   5.387  0.5020 -1.6948  2.5130
   10CHTO   N18 3918   3.989   5.202   5.519 -0.3960 -0.3898  0.2403
   10CHTO  H176 3919   3.959   5.104   5.483 -0.6678 -0.7882  1.5508
   10CHTO  H177 3920   3.947   5.241   5.610 -0.3482  0.9737 -0.3101
   10CHTO  C105 3921   3.957   5.440   5.437  0.0667  0.7538 -0.2407
   10CHTO  H192 3922   3.879   5.436   5.513  0.1150  2.4005 -0.0803
   10CHTO   O65 3923   3.909   5.517   5.327  0.0017 -0.1148  0.3817
   10CHTO  C100 3924   3.852   5.468   5.201  0.5798  0.1477  0.4172
   10CHTO  H187 3925   3.751   5.427   5.213  0.7020 -0.0653  0.7459
   10CHTO  C107 3926   3.848   5.592   5.110 -0.1624 -0.1730  0.0843
   10CHTO   O70 3927   3.762   5.552   5.003  0.3536 -0.0419  0.7300
   10CHTO  H170 3928   3.719   5.629   4.972 -0.4318 -1.5946 -2.1913
   10CHTO   O57 3929   4.074   5.502   5.499 -0.2605  0.5619  0.1291
   10CHTO   C85 3930   4.064   5.624   5.581  1.1658 -0.1098 -0.0424
   10CHTO  H157 3931   3.959   5.637   5.616  2.2267  2.3828  2.3590
   10CHTO   C83 3932   4.086   5.754   5.499  0.0371 -0.5989  0.2632
   10CHTO  H155 3933   4.015   5.761   5.416 -1.1959  1.4131  1.4489
   10CHTO   O56 3934   4.218   5.751   5.446  0.4667  0.3129 -0.1969
   10CHTO  H135 3935   4.217   5.712   5.361 -2.1643 -0.7779  0.2656
   10CHTO   C81 3936   4.067   5.876   5.596 -0.3984 -0.4310  0.3349
   10CHTO  H153 3937   3.968   5.870   5.640 -0.5342  1.2969  0.2946
   10CHTO   N14 3938   4.075   6.012   5.541 -0.0890  0.0983  0.2624
   10CHTO  H141 3939   4.053   6.090   5.611 -1.3220  0.3917 -0.4265
   10CHTO  H142 3940   4.000   6.011   5.464 -1.1413 -1.5733  1.3061
   10CHTO   C79 3941   4.182   5.855   5.713  0.0703 -0.0268 -0.2139
   10CHTO  H151 3942   4.164   5.934   5.786 -0.0300  0.2679 -0.5571
   10CHTO   O52 3943   4.155   5.732   5.791 -0.1772 -0.5484 -0.6564
   10CHTO   C86 3944   4.170   5.620   5.703 -0.2722 -0.0331 -0.5176
   10CHTO  H158 3945   4.275   5.618   5.669  0.8023 -0.7716  2.6599
   10CHTO   C90 3946   4.144   5.497   5.792  0.0366  0.7739 -0.2531
   10CHTO   O60 3947   4.248   5.475   5.883 -0.4896 -0.0934 -0.7908
   10CHTO  H138 3948   4.332   5.454   5.846 -0.3386 -1.0511  0.0634
   10CHTO   O50 3949   4.315   5.873   5.667  0.2696  0.4885  0.4644
   10CHTO   C73 3950   4.456   5.853   5.663  0.1692  0.4626  0.0153
   10CHTO  H145 3951   4.476   5.802   5.567  2.5191  2.2933 -0.5102
   10CHTO   C74 3952   4.507   5.766   5.784  0.3725 -0.2426  0.1852
   10CHTO  H146 3953   4.439   5.680   5.778  0.6204 -0.3720 -0.8024
   10CHTO   O54 3954   4.640   5.721   5.752 -0.7182  0.4555  0.0968
   10CHTO  H133 3955   4.665   5.659   5.818  1.5281  0.1538 -1.0043
   10CHTO   C75 3956   4.487   5.844   5.912  0.8563 -0.4740 -0.0132
   10CHTO  H147 3957   4.383   5.874   5.929  0.5287 -0.7002 -1.6214
   10CHTO   N13 3958   4.533   5.773   6.033  0.4301  0.2538 -0.1811
   10CHTO  H139 3959   4.637   5.750   6.014  0.4991  0.4833 -0.0902
   10CHTO  H140 3960   4.528   5.834   6.122  2.3447  1.9280 -1.1696
   10CHTO   C76 3961   4.564   5.985   5.895 -1.2068 -0.2146  0.6928
   10CHTO  H148 3962   4.666   5.960   5.863 -1.2416 -1.1966  1.3191
   10CHTO   O49 3963   4.498   6.065   5.786  0.0144  0.1967  1.3663
   10CHTO   C77 3964   4.522   5.993   5.662  0.1861  0.4990  0.0644
   10CHTO  H149 3965   4.630   5.986   5.652  0.4586  3.1057  0.8364
   10CHTO   C88 3966   4.473   6.075   5.544 -0.2627 -0.9741 -0.3757
   10CHTO   O58 3967   4.522   6.235   5.556 -0.8124 -0.4128  0.0673
   10CHTO  H136 3968   4.537   6.272   5.472 -0.1797 -0.4630  0.1570
   10CHTO   O51 3969   4.544   6.072   6.024 -0.9311 -0.5145  0.1467
   10CHTO   C78 3970   4.666   6.181   6.059  0.3016 -0.5567  0.2073
   10CHTO  H150 3971   4.719   6.207   5.965  0.1759 -2.0577 -0.2969
   10CHTO   C80 3972   4.776   6.121   6.152  0.2898  0.3007  0.2559
   10CHTO  H152 3973   4.728   6.077   6.243  0.4095 -1.5865 -0.5804
   10CHTO   O55 3974   4.847   6.023   6.077  0.0604 -0.0033 -0.1783
   10CHTO  H134 3975   4.886   5.960   6.134 -1.2575 -1.5991 -1.0063
   10CHTO   C84 3976   4.889   6.230   6.187  0.0768  0.0671 -0.0490
   10CHTO  H156 3977   4.955   6.257   6.104 -0.3641 -0.2493 -0.5025
   10CHTO   N15 3978   4.991   6.175   6.289  0.4968  0.2405 -0.4150
   10CHTO  H143 3979   4.950   6.199   6.385 -0.0835 -0.3189 -0.5178
   10CHTO  H144 3980   4.985   6.068   6.286 -1.2790  0.2361  1.8046
   10CHTO   C87 3981   4.827   6.362   6.235 -0.0742  0.2341 -0.4230
   10CHTO  H159 3982   4.784   6.349   6.334 -0.8482 -1.8207 -1.0065
   10CHTO   O53 3983   4.721   6.410   6.143 -0.0392  0.2266 -0.6019
   10CHTO   C82 3984   4.618   6.311   6.118 -0.6318 -0.6119 -0.4574
   10CHTO  H154 3985   4.562   6.294   6.210  0.5490 -1.1547  0.1589
   10CHTO   C89 3986   4.519   6.381   6.025 -0.0067  0.0671 -0.4674
   10CHTO   O59 3987   4.381   6.389   6.077 -0.3025  0.2194 -0.3382
   10CHTO  H137 3988   4.382   6.419   6.166  0.1463  0.0370 -0.2767
   10CHTO   O45 3989   4.934   6.484   6.243  0.1587  0.5108 -0.0194
   10CHTO   C67 3990   4.897   6.609   6.298 -0.3675 -0.1740 -0.6670
   10CHTO  H124 3991   4.799   6.618   6.345 -0.4467  1.5455 -1.1252
   10CHTO   C65 3992   5.001   6.659   6.399 -0.7621  0.0992 -0.8634
   10CHTO  H122 3993   5.004   6.580   6.473 -1.5778  2.0950  1.3489
   10CHTO   O44 3994   4.960   6.785   6.461 -0.4454  0.7926 -0.0394
   10CHTO  H102 3995   4.871   6.801   6.437 -1.3882  0.2626  2.8392
   10CHTO   C63 3996   5.147   6.665   6.329 -0.7197  0.1380  1.3894
   10CHTO  H120 3997   5.164   6.571   6.277 -1.9429  0.3522  0.5997
   10CHTO   N11 3998   5.273   6.696   6.417  0.5503 -0.4120  0.0195
   10CHTO  H108 3999   5.281   6.798   6.447  2.3159 -0.2802 -0.8238
   10CHTO  H109 4000   5.269   6.633   6.503 -2.5767 -3.2702 -2.0780
   10CHTO   C61 4001   5.125   6.764   6.202 -0.6401 -0.2238  0.0907
   10CHTO  H118 4002   5.216   6.738   6.146  0.1506 -1.2281  1.7860
   10CHTO   O40 4003   5.019   6.734   6.121 -0.3105 -0.4663 -0.5226
   10CHTO   C68 4004   4.879   6.699   6.173  0.7276 -0.0237  0.0716
   10CHTO  H125 4005   4.843   6.626   6.097  0.7662 -0.9208  0.9086
   10CHTO   C72 4006   4.778   6.818   6.172 -0.3812  0.1189 -0.3800
   10CHTO   O48 4007   4.756   6.856   6.034  0.1966 -0.2155  0.1767
   10CHTO  H105 4008   4.720   6.942   6.028  0.4729 -0.1051  0.0763
   10CHTO   O38 4009   5.129   6.903   6.245 -0.0702  0.1521 -0.2037
   10CHTO   C55 4010   5.205   6.991   6.166  0.2293 -0.8166  0.0742
   10CHTO  H112 4011   5.237   6.951   6.068 -0.6317  2.4431 -1.6470
   10CHTO   C56 4012   5.329   7.034   6.259 -0.1936 -0.1525  0.0825
   10CHTO  H113 4013   5.289   7.059   6.359  0.3199 -1.5500  0.6583
   10CHTO   O42 4014   5.423   6.923   6.282 -0.6787 -0.2540  0.1468
   10CHTO  H100 4015   5.379   6.863   6.338 -1.6444 -0.8879 -1.2711
   10CHTO   C57 4016   5.408   7.154   6.189 -0.1432 -0.3098 -0.1015
   10CHTO  H114 4017   5.452   7.113   6.098 -0.7028  0.4757 -0.7393
   10CHTO   N10 4018   5.512   7.212   6.272 -0.1581 -0.0544 -0.0093
   10CHTO  H106 4019   5.517   7.319   6.259  1.3060 -0.1382 -0.1760
   10CHTO  H107 4020   5.492   7.189   6.375  1.9605  1.0629  0.6707
   10CHTO   C58 4021   5.308   7.263   6.143  0.1186  0.0006 -0.2867
   10CHTO  H115 4022   5.266   7.313   6.233  2.9041  1.3805  0.3011
   10CHTO   O37 4023   5.209   7.212   6.060  0.2317 -0.7851  0.4033
   10CHTO   C59 4024   5.123   7.117   6.121 -0.2295  0.9135  0.4408
   10CHTO  H116 4025   5.069   7.167   6.201  0.9188  1.8640  0.6352
   10CHTO   C70 4026   5.030   7.078   6.008 -0.3057 -0.0211 -0.5826
   10CHTO   O46 4027   4.937   7.175   5.962 -0.3602  0.1467  0.1717
   10CHTO  H103 4028   4.981   7.257   5.966  0.0160 -0.0187 -0.5591
   10CHTO   O39 4029   5.380   7.374   6.039  0.2125 -0.0575 -0.2469
   10CHTO   C60 4030   5.316   7.496   6.050  0.3718 -0.2676 -0.2341
   10CHTO  H117 4031   5.215   7.483   6.088  1.5982 -1.1454  2.8638
   10CHTO   C62 4032   5.405   7.583   6.145  0.5529 -0.7746  0.3074
   10CHTO  H119 4033   5.386   7.544   6.247 -1.1669  1.7125  0.9843
   10CHTO   O43 4034   5.549   7.590   6.120 -0.0193  0.2353  0.4866
   10CHTO  H101 4035   5.592   7.558   6.197 -1.2272 -2.1660  0.2190
   10CHTO   C66 4036   5.344   7.731   6.152  0.0517 -0.2754  0.3794
   10CHTO  H123 4037   5.238   7.725   6.176 -0.0219 -1.2182 -0.1287
   10CHTO   N12 4038   5.402   7.812   6.261 -0.2459 -0.2918  0.1923
   10CHTO  H110 4039   5.368   7.914   6.252 -0.5206 -0.4982 -1.3129
   10CHTO  H111 4040   5.510   7.801   6.259 -0.3384 -1.4661  0.9664
   10CHTO   C69 4041   5.349   7.801   6.014 -0.0949  0.1298 -0.2545
   10CHTO  H126 4042   5.453   7.802   5.975  0.0772  2.7530  0.1588
   10CHTO   O41 4043   5.258   7.716   5.903  0.7004 -0.2455 -0.6161
   10CHTO   C64 4044   5.310   7.562   5.905 -0.0072 -0.8643  0.5112
   10CHTO  H121 4045   5.412   7.559   5.861  0.3815 -1.4222  1.4334
   10CHTO   C71 4046   5.211   7.475   5.823  0.2341  1.0071 -0.4764
   10CHTO   O47 4047   5.079   7.512   5.860 -0.3340  0.2617 -0.7739
   10CHTO  H104 4048   5.047   7.464   5.933 -0.3408  0.8127 -0.4137
   10CHTO   O34 4049   5.311   7.951   6.016  0.1213  0.0530  0.1132
   10CHTO   C49 4050   5.322   8.066   5.927  0.1263 -0.6755  0.2451
   10CHTO   H91 4051   5.402   8.041   5.857 -0.2877 -3.2882  0.6851
   10CHTO   C47 4052   5.342   8.196   6.013  0.6424  0.5020  0.6685
   10CHTO   H89 4053   5.340   8.285   5.947 -2.5355  1.3754  1.8205
   10CHTO   O33 4054   5.475   8.190   6.079  0.9635  0.0591 -0.1169
   10CHTO   H70 4055   5.545   8.180   6.017 -0.6739 -0.8339 -1.8414
   10CHTO   C45 4056   5.210   8.196   6.106 -0.5921  0.0131 -0.4296
   10CHTO   H87 4057   5.198   8.100   6.160  0.3587  0.4041  0.5007
   10CHTO    N8 4058   5.221   8.302   6.209  0.0676  0.4379  0.0919
   10CHTO   H75 4059   5.134   8.304   6.273  1.9287  2.0726  2.6374
   10CHTO   H76 4060   5.310   8.289   6.268 -0.3196 -0.8614  0.4138
   10CHTO   C43 4061   5.077   8.216   6.011  0.1279 -0.2790 -0.4421
   10CHTO   H85 4062   4.987   8.206   6.072 -0.5613  3.6810 -0.6643
   10CHTO   O29 4063   5.076   8.120   5.909  0.3035 -0.6594 -0.0613
   10CHTO   C50 4064   5.198   8.088   5.840  0.5415 -1.0389  0.6114
   10CHTO   H92 4065   5.186   7.992   5.787  4.0405 -2.0000  1.4336
   10CHTO   C54 4066   5.213   8.191   5.730 -0.2691  0.3008  0.0419
   10CHTO   O36 4067   5.331   8.171   5.648  0.3129 -0.6599 -0.0636
   10CHTO   H72 4068   5.341   8.090   5.602  0.6724 -0.6224 -0.0533
   10CHTO   O27 4069   5.076   8.352   5.965  0.2026  0.2188  0.1935
   10CHTO   C37 4070   5.051   8.460   5.872  0.3468 -0.1072 -0.4195
   10CHTO   H79 4071   5.113   8.437   5.784 -0.7041  0.0240 -1.2014
   10CHTO   C38 4072   4.908   8.459   5.820 -0.0802 -0.4692  0.4669
   10CHTO   H80 4073   4.840   8.465   5.907  0.9561  3.5985  1.1128
   10CHTO   O31 4074   4.891   8.328   5.767  0.9836 -0.5470 -0.6400
   10CHTO   H68 4075   4.810   8.325   5.719 -1.1603 -0.5561  2.8171
   10CHTO   C39 4076   4.877   8.577   5.713 -0.0873 -0.3817  0.1761
   10CHTO   H81 4077   4.935   8.559   5.622  0.4130 -1.4171  0.6925
   10CHTO    N7 4078   4.730   8.587   5.676  0.0034  0.2826 -0.0063
   10CHTO   H73 4079   4.706   8.678   5.729 -0.2865 -1.7715  3.5715
   10CHTO   H74 4080   4.675   8.510   5.729  0.1129 -1.1873 -1.9846
   10CHTO   C40 4081   4.931   8.713   5.771 -0.0838  0.4105  0.0474
   10CHTO   H82 4082   4.861   8.754   5.843 -1.7197 -0.6248 -0.9246
   10CHTO   O26 4083   5.066   8.703   5.816  0.0406  0.2222 -0.0987
   10CHTO   C41 4084   5.088   8.603   5.919 -0.1003 -0.7010  0.0198
   10CHTO   H83 4085   5.030   8.629   6.009  2.2162  2.7335  0.6409
   10CHTO   C52 4086   5.241   8.611   5.950  0.5250 -0.2047 -0.2728
   10CHTO   O35 4087   5.279   8.735   6.003 -0.5216 -0.1863 -0.5786
   10CHTO   H71 4088   5.271   8.732   6.096  1.9593  0.4951 -0.3058
   10CHTO   O28 4089   4.963   8.807   5.671 -0.6719  0.1181 -0.0274
   10CHTO   C42 4090   4.928   8.949   5.686 -0.2861  0.6103 -0.1302
   10CHTO   H84 4091   4.874   8.971   5.779  0.2232 -0.0919  0.3395
   10CHTO   C44 4092   4.837   8.994   5.577 -0.9441 -0.1003 -0.0027
   10CHTO   H86 4093   4.887   8.983   5.481 -4.2444 -1.0034 -1.7000
   10CHTO   O32 4094   4.725   8.911   5.582  0.6281 -0.6801 -0.4951
   10CHTO   H69 4095   4.727   8.836   5.525 -0.4292 -2.5305  1.8289
   10CHTO   C48 4096   4.809   9.145   5.589  0.0305 -0.6156  0.3046
   10CHTO   H90 4097   4.764   9.157   5.687  1.0926  0.0018  0.7227
   10CHTO    N9 4098   4.710   9.202   5.485  0.1767  0.7391 -0.3528
   10CHTO   H77 4099   4.742   9.219   5.383 -2.3176 -1.7713 -1.6068
   10CHTO   H78 4100   4.612   9.158   5.488 -0.4007  2.0853  3.1150
   10CHTO   C51 4101   4.944   9.229   5.583 -0.6448 -0.2866  0.0785
   10CHTO   H93 4102   4.996   9.214   5.488 -0.5325  0.5209  0.0043
   10CHTO   O30 4103   5.016   9.185   5.695  0.0757  0.2059  0.4594
   10CHTO   C46 4104   5.059   9.038   5.692 -0.2268  0.1139  0.8137
   10CHTO   H88 4105   5.127   9.013   5.610  1.6998  2.4392  1.6428
   10CHTO   C53 4106   5.130   9.019   5.819 -0.2824  0.1401  0.2518
   10CHTO   O72 4107   5.253   9.092   5.832  0.2709 -0.1685 -0.5219
   10CHTO  H199 4108   5.305   9.040   5.891  1.5161  1.0902 -0.4885
   10CHTO   O22 4109   4.925   9.372   5.603  0.2147  0.4493 -0.3262
   10CHTO   C31 4110   5.038   9.468   5.571  0.2328 -0.4736 -0.0247
   10CHTO   H59 4111   5.010   9.561   5.624  4.4661  0.2424  1.1326
   10CHTO   C29 4112   5.183   9.432   5.622 -0.7338 -0.0398 -0.4609
   10CHTO   H57 4113   5.201   9.339   5.566  4.2176  0.4007  0.1696
   10CHTO   O21 4114   5.183   9.383   5.760 -0.3761 -0.5860  0.9812
   10CHTO   H37 4115   5.256   9.325   5.774 -0.1725 -0.2241  1.4514
   10CHTO   C27 4116   5.296   9.539   5.583 -0.3673  0.0168 -0.0554
   10CHTO   H55 4117   5.272   9.635   5.631  0.2069 -0.3203  0.9161
   10CHTO    N5 4118   5.434   9.496   5.613  0.1646  0.1893  0.2159
   10CHTO   H43 4119   5.447   9.516   5.718  1.5679 -1.4212  0.3761
   10CHTO   H44 4120   5.443   9.391   5.589  1.3445  0.9416 -2.8973
   10CHTO   C25 4121   5.276   9.570   5.430  1.2173  0.0769 -0.9190
   10CHTO   H53 4122   5.298   9.491   5.356  2.3158  0.5349 -1.0884
   10CHTO   O17 4123   5.140   9.606   5.400 -0.3318 -0.0012  0.0029
   10CHTO   C32 4124   5.050   9.500   5.422  0.9483 -0.2158  0.7217
   10CHTO   H60 4125   5.081   9.408   5.373 -2.0813 -0.8539 -0.0949
   10CHTO   C36 4126   4.911   9.544   5.358 -0.5700  0.5114 -0.4936
   10CHTO   O25 4127   4.854   9.658   5.421  0.0182 -0.1732  0.0349
   10CHTO   H40 4128   4.763   9.665   5.399 -0.1859  1.1436  1.1815
   10CHTO   O15 4129   5.354   9.674   5.389 -0.1771  0.0011 -0.3301
   10CHTO   C19 4130   5.394   9.807   5.339 -0.5809  0.4251  0.0811
   10CHTO   H47 4131   5.346   9.813   5.241 -0.9258  3.0691  0.3771
   10CHTO   C20 4132   5.335   9.926   5.426 -0.3825  0.3401  0.3517
   10CHTO   H48 4133   5.369   9.921   5.530 -0.5906 -0.3006  0.3859
   10CHTO   O19 4134   5.188   9.915   5.408  0.0648  0.0635 -0.5728
   10CHTO   H35 4135   5.146   9.994   5.437 -1.9308 -1.5389  0.9871
   10CHTO   C21 4136   5.382  10.069   5.365 -0.3632 -0.4237 -0.0398
   10CHTO   H49 4137   5.339  10.083   5.266 -0.2849  0.7505  0.0839
   10CHTO    N4 4138   5.333  10.176   5.459  0.1715  0.7563 -0.1085
   10CHTO   H41 4139   5.225  10.184   5.464  0.1963  1.3524 -0.5004
   10CHTO   H42 4140   5.374  10.151   5.556 -2.0371 -1.0723  0.4234
   10CHTO   C22 4141   5.535  10.058   5.352  0.0306  0.1216 -0.2188
   10CHTO   H50 4142   5.571  10.052   5.454  0.9724  0.1449 -0.5474
   10CHTO   O14 4143   5.579   9.956   5.273 -0.0685 -0.0397  0.0394
   10CHTO   C23 4144   5.543   9.821   5.317 -0.5807 -0.2716  0.4920
   10CHTO   H51 4145   5.598   9.806   5.411  0.4527 -1.1849 -0.2464
   10CHTO   C34 4146   5.589   9.713   5.220 -0.1024  0.0948  0.2357
   10CHTO   O23 4147   5.556   9.733   5.083 -0.9021  0.3768  0.2862
   10CHTO   H38 4148   5.463   9.723   5.083 -0.6972 -1.7195  0.8149
   10CHTO   O16 4149   5.587  10.177   5.278  0.3754 -0.6849 -0.1851
   10CHTO   C24 4150   5.724  10.222   5.307 -0.7040 -0.0954 -0.4387
   10CHTO   H52 4151   5.784  10.141   5.349  0.8944  1.3221  0.0268
   10CHTO   C26 4152   5.725  10.335   5.415  0.9871 -0.5058 -0.1696
   10CHTO   H54 4153   5.662  10.417   5.375  0.2858 -1.8498 -1.8648
   10CHTO   O20 4154   5.665  10.293   5.538  0.0724  0.1925 -0.1020
   10CHTO   H36 4155   5.579  10.263   5.519  0.3585 -2.2213  2.2487
   10CHTO   C30 4156   5.862  10.393   5.440 -0.0975 -0.2343 -0.0415
   10CHTO   H58 4157   5.921  10.331   5.509  0.9319  0.6728 -0.0965
   10CHTO    N6 4158   5.857  10.519   5.522 -0.3567 -0.8962  0.4976
   10CHTO   H45 4159   5.757  10.557   5.537 -0.2778 -0.3184 -0.4304
   10CHTO   H46 4160   5.912  10.523   5.615 -1.5292 -1.1771  1.2091
   10CHTO   C33 4161   5.943  10.416   5.310 -0.7442  0.4124 -0.1473
   10CHTO   H61 4162   5.908  10.507   5.259  1.1542  1.4656  0.3825
   10CHTO   O18 4163   5.931  10.310   5.214  0.3311  0.4311  0.3040
   10CHTO   C28 4164   5.799  10.263   5.176 -1.0248  0.4703  0.3255
   10CHTO   H56 4165   5.740  10.339   5.125 -1.5503 -1.8663 -2.6383
   10CHTO   C35 4166   5.834  10.147   5.077 -0.1104 -0.6050 -0.3218
   10CHTO   O24 4167   5.726  10.086   5.009  0.2387 -0.0829 -0.2887
   10CHTO   H39 4168   5.687  10.026   5.069  0.3199  0.1235 -0.0310
   10CHTO    O9 4169   6.081  10.436   5.342  0.4425 -0.3234  0.4665
   10CHTO   C13 4170   6.190  10.440   5.226  0.1098 -0.3604 -0.1050
   10CHTO   H26 4171   6.143  10.456   5.127 -1.7724 -1.4377  0.5855
   10CHTO   C11 4172   6.257  10.300   5.226 -0.9038 -0.4282 -0.5396
   10CHTO   H24 4173   6.186  10.220   5.203 -0.8511 -0.8148  0.6029
   10CHTO    O8 4174   6.310  10.268   5.356  0.1668 -0.0120 -0.1683
   10CHTO    H3 4175   6.371  10.197   5.345  0.6688  0.0480  1.9678
   10CHTO    C9 4176   6.362  10.300   5.114 -0.4423  0.5619  0.8388
   10CHTO   H22 4177   6.307  10.322   5.021 -1.6091 -2.5604  0.7345
   10CHTO    N2 4178   6.407  10.159   5.086 -0.5203 -0.4812 -0.6435
   10CHTO   H10 4179   6.512  10.161   5.059 -0.2778 -1.0187  0.2328
   10CHTO   H11 4180   6.346  10.123   5.006  0.8030 -1.7444 -1.0944
   10CHTO    C7 4181   6.471  10.413   5.138  0.4069 -0.2760 -0.4439
   10CHTO   H20 4182   6.492  10.469   5.044 -0.3108 -0.5593 -0.7792
   10CHTO    O4 4183   6.428  10.496   5.250  0.1060  0.7954  0.6587
   10CHTO   C14 4184   6.299  10.555   5.246 -0.1136  0.5381 -0.1127
   10CHTO   H27 4185   6.298  10.624   5.159 -0.1187 -0.3392 -0.8185
   10CHTO   C18 4186   6.291  10.643   5.377  0.3539 -0.2645  0.0936
   10CHTO   O13 4187   6.345  10.571   5.486 -0.0044 -0.3774  0.2692
   10CHTO    H7 4188   6.307  10.601   5.566 -1.1073 -2.4509  0.5606
   10CHTO    O2 4189   6.624  10.345   5.179 -0.4046  0.0699  0.1837
   10CHTO    C1 4190   6.730  10.446   5.186 -0.1860  0.2039  0.2119
   10CHTO   H14 4191   6.689  10.542   5.225 -1.1150  0.2503 -0.8347
   10CHTO    C2 4192   6.809  10.479   5.049 -0.1141  0.1980  0.9475
   10CHTO   H15 4193   6.870  10.392   5.022  0.8850 -0.0877  3.9365
   10CHTO    O6 4194   6.720  10.509   4.942 -0.0163  0.3486  0.1448
   10CHTO    H1 4195   6.766  10.541   4.867  0.4545  0.6058  0.5476
   10CHTO    C3 4196   6.918  10.597   5.090  0.6553 -0.4187 -0.1834
   10CHTO   H16 4197   6.864  10.689   5.117 -2.6361 -2.4943  0.6551
   10CHTO    N1 4198   7.014  10.635   4.989  0.2617 -0.6256 -0.2150
   10CHTO    H8 4199   7.103  10.688   5.018 -0.6604  0.2716  1.0313
   10CHTO    H9 4200   6.957  10.691   4.916 -0.8084 -0.1764  0.9365
   10CHTO    C4 4201   7.006  10.562   5.222 -0.0518 -0.6926 -0.8513
   10CHTO   H17 4202   7.087  10.497   5.190  1.9855  1.4126 -0.1186
   10CHTO    O1 4203   6.928  10.498   5.325 -0.2000 -0.0141 -0.9030
   10CHTO    C5 4204   6.826  10.398   5.299  0.2798 -0.1225  0.2331
   10CHTO   H18 4205   6.864  10.308   5.251 -1.3746 -0.5211 -0.3579
   10CHTO   C16 4206   6.742  10.358   5.429 -0.6964 -0.3370  0.2422
   10CHTO   O11 4207   6.823  10.270   5.509 -0.0569  0.3195 -0.1040
   10CHTO    H5 4208   6.844  10.318   5.587 -1.2901  2.7082 -1.2031
   10CHTO    O3 4209   7.049  10.680   5.285 -0.5223 -0.5000 -0.4316
   10CHTO    C6 4210   7.196  10.702   5.291  0.1286  0.2812  0.5447
   10CHTO   H19 4211   7.246  10.656   5.206 -2.5130  1.2325 -1.6055
   10CHTO    C8 4212   7.235  10.850   5.280  0.3164  0.1262  0.4341
   10CHTO   H21 4213   7.193  10.898   5.368 -1.3814 -0.0372 -0.2633
   10CHTO    O7 4214   7.173  10.897   5.155  0.7432 -0.3598 -0.5284
   10CHTO    H2 4215   7.236  10.950   5.110  0.1121 -0.0067 -0.9914
   10CHTO   C12 4216   7.389  10.874   5.290  0.0964  0.4681 -0.7620
   10CHTO   H25 4217   7.428  10.837   5.193  2.4838  0.9067  0.0030
   10CHTO    N3 4218   7.414  11.022   5.294  0.3374 -0.2931 -0.0022
   10CHTO   H12 4219   7.393  11.060   5.393  2.2213  0.0112  0.3017
   10CHTO   H13 4220   7.340  11.068   5.231  0.1454 -1.8344 -0.9101
   10CHTO   C15 4221   7.452  10.788   5.412  0.8885 -0.2566  0.2928
   10CHTO   H28 4222   7.442  10.835   5.510 -0.1488 -1.1270  0.6115
   10CHTO   O10 4223   7.592  10.761   5.404  0.1922  0.1398 -0.0266
   10CHTO    H4 4224   7.636  10.839   5.379  2.4071 -1.2721 -0.6255
   10CHTO    O5 4225   7.400  10.658   5.411  0.4534  0.1595  0.2548
   10CHTO   C10 4226   7.256  10.644   5.423 -0.2473 -0.6842  0.3886
   10CHTO   H23 4227   7.225  10.705   5.508  1.4931 -2.4691  2.3801
   10CHTO   C17 4228   7.221  10.502   5.464  0.1961 -0.4906 -0.0039
   10CHTO   O12 4229   7.216  10.483   5.599 -0.3129  0.0986 -0.4293
   10CHTO    H6 4230   7.127  10.501   5.622 -1.2186 -0.3755 -3.4272
   11CHTO  H203 4231   6.890   4.423   4.296 -1.1295  2.0983  1.9812
   11CHTO   O82 4232   6.818   4.431   4.237  0.3115 -0.3064 -0.2008
   11CHTO  C123 4233   6.705   4.491   4.304 -0.1519 -0.7857  1.0706
   11CHTO  H227 4234   6.620   4.454   4.245  0.6255  0.0329 -0.6031
   11CHTO   O77 4235   6.705   4.428   4.435 -0.0723  0.1564 -0.3939
   11CHTO  C118 4236   6.587   4.457   4.510  1.3591  0.1493 -0.6583
   11CHTO  H222 4237   6.501   4.424   4.450  0.5365  0.8349  0.1281
   11CHTO  C125 4238   6.596   4.369   4.641  0.7450  0.2019  0.4536
   11CHTO   O84 4239   6.696   4.400   4.731  0.3558 -0.2439  0.2561
   11CHTO  H205 4240   6.656   4.462   4.789 -0.1643 -0.4507  0.1264
   11CHTO  C114 4241   6.582   4.606   4.550 -0.0261  0.3195 -0.5898
   11CHTO  H218 4242   6.657   4.636   4.623 -0.4019  0.3401 -0.2098
   11CHTO  C116 4243   6.590   4.699   4.416  0.5276  0.2011 -0.3313
   11CHTO  H220 4244   6.498   4.677   4.358  1.0404  1.9466 -1.8372
   11CHTO   O79 4245   6.587   4.844   4.437 -0.2862  0.7206  0.6809
   11CHTO  H201 4246   6.675   4.873   4.453  0.8979  0.3584 -4.2820
   11CHTO  C120 4247   6.709   4.650   4.323  0.0693  0.1528  0.5747
   11CHTO  H224 4248   6.805   4.680   4.370  0.7962 -0.1275 -0.7011
   11CHTO   N21 4249   6.703   4.710   4.188  0.4864  0.4782  0.2037
   11CHTO  H211 4250   6.657   4.648   4.113 -3.0048  0.9881  1.8109
   11CHTO  H212 4251   6.660   4.809   4.180 -0.1939  0.3775  2.2207
   11CHTO   O75 4252   6.449   4.615   4.612 -0.5893  0.6838 -0.0485
   11CHTO  C112 4253   6.451   4.722   4.760  0.0688  1.0477  0.0557
   11CHTO  H216 4254   6.542   4.783   4.746  0.7324  0.6495  2.3106
   11CHTO   O73 4255   6.463   4.638   4.874 -0.1097  0.3082 -0.0600
   11CHTO  C113 4256   6.475   4.710   4.996  0.4480  0.9566 -0.0219
   11CHTO  H217 4257   6.573   4.761   5.002  1.2505 -0.8347  3.1376
   11CHTO  C124 4258   6.481   4.603   5.109 -0.3445 -0.2477  0.3225
   11CHTO   O83 4259   6.602   4.528   5.115  0.1576 -0.6680 -0.1463
   11CHTO  H204 4260   6.672   4.580   5.080  0.2025  0.5667  1.7180
   11CHTO  C109 4261   6.357   4.805   5.024  0.0685 -0.0167  0.8272
   11CHTO  H213 4262   6.268   4.743   5.037 -1.7217  1.8801 -1.8242
   11CHTO  C110 4263   6.331   4.891   4.897  0.2445  0.1015 -0.1116
   11CHTO  H214 4264   6.407   4.970   4.896 -0.4475  0.8146  1.4749
   11CHTO   O78 4265   6.209   4.957   4.926  0.2794  0.1359 -0.1334
   11CHTO  H200 4266   6.168   4.988   4.848 -0.3008 -0.8047 -0.2035
   11CHTO  C111 4267   6.324   4.807   4.768  0.6102 -0.2105 -0.3320
   11CHTO  H215 4268   6.230   4.749   4.769  0.0964  0.5857 -1.3953
   11CHTO   N19 4269   6.316   4.893   4.647 -0.3494 -0.3153  0.2810
   11CHTO  H207 4270   6.248   4.974   4.668  0.6492  0.0185  2.4010
   11CHTO  H208 4271   6.416   4.925   4.622 -0.0891 -0.7638  0.7407
   11CHTO   O74 4272   6.368   4.893   5.142  0.1035 -0.0427 -0.1170
   11CHTO  C115 4273   6.239   4.896   5.250 -0.1271  0.5575  0.1697
   11CHTO  H219 4274   6.143   4.882   5.200  0.0809 -2.7713  0.5720
   11CHTO   O76 4275   6.253   4.787   5.356 -0.0560  0.0184 -0.3710
   11CHTO  C122 4276   6.149   4.778   5.452  0.1687  0.6872 -0.0296
   11CHTO  H226 4277   6.185   4.700   5.519 -0.6834 -0.0101 -0.3669
   11CHTO  C126 4278   6.013   4.726   5.393 -0.4686  0.0782  0.3362
   11CHTO   O85 4279   6.008   4.595   5.341  0.0908  0.1359 -0.3924
   11CHTO  H206 4280   5.922   4.581   5.305  0.2208  0.7653 -0.9496
   11CHTO  C121 4281   6.136   4.914   5.530  0.2332 -0.5468  0.1233
   11CHTO  H225 4282   6.043   4.908   5.592  0.1525  1.5821  0.2644
   11CHTO   O81 4283   6.243   4.917   5.625  0.3197  0.1614  0.0053
   11CHTO  H202 4284   6.257   5.006   5.653  2.0125  0.1168 -0.6524
   11CHTO  C119 4285   6.124   5.039   5.427 -1.0715 -0.4242 -0.6132
   11CHTO  H223 4286   6.029   5.021   5.378 -2.1033  0.3230  1.0646
   11CHTO  C117 4287   6.232   5.034   5.322 -0.3963  0.1099 -0.9059
   11CHTO  H221 4288   6.333   5.061   5.352 -1.1199 -0.0715  1.7980
   11CHTO   N20 4289   6.207   5.141   5.218  0.2386  0.2196 -0.2285
   11CHTO  H209 4290   6.187   5.101   5.120  0.3156 -0.4139  0.0166
   11CHTO  H210 4291   6.291   5.209   5.217  0.9169 -0.6135 -0.3241
   11CHTO   O80 4292   6.091   5.184   5.488 -0.1347  0.0484 -0.2509
   11CHTO  C103 4293   6.138   5.221   5.616 -0.6090 -0.1229  0.3078
   11CHTO  H190 4294   6.128   5.140   5.688  0.7405 -0.4805  0.1174
   11CHTO  C101 4295   6.293   5.278   5.606 -0.8423 -0.1255  0.5901
   11CHTO  H188 4296   6.296   5.340   5.517  2.2876 -0.2590  0.5760
   11CHTO   O68 4297   6.388   5.176   5.587  0.1292 -0.3424 -0.1169
   11CHTO  H168 4298   6.443   5.183   5.510 -1.2696  0.1458 -1.0848
   11CHTO   C99 4299   6.322   5.378   5.735  0.1500 -0.1545  0.2967
   11CHTO  H186 4300   6.323   5.312   5.824  1.5443 -2.6443 -1.5066
   11CHTO   N17 4301   6.458   5.452   5.727  1.2701  0.1533 -0.3956
   11CHTO  H174 4302   6.454   5.560   5.737  0.6523  0.2646 -1.7397
   11CHTO  H175 4303   6.546   5.402   5.765  2.5489  2.8987  0.3784
   11CHTO   C97 4304   6.201   5.479   5.759 -0.3633  0.0763 -0.7120
   11CHTO  H184 4305   6.196   5.536   5.665 -1.3126  1.9821  0.4754
   11CHTO   O64 4306   6.083   5.401   5.784  0.5453  0.5990 -0.1377
   11CHTO  C104 4307   6.038   5.336   5.662  0.1194 -0.3085  0.6335
   11CHTO  H191 4308   6.034   5.410   5.582  0.7468 -1.2566 -0.3081
   11CHTO  C108 4309   5.895   5.282   5.686  0.0928 -0.3530  0.2142
   11CHTO   O71 4310   5.896   5.183   5.789 -0.2633  0.2943 -0.3043
   11CHTO  H171 4311   5.814   5.137   5.781 -0.0165  0.1856 -2.8230
   11CHTO   O62 4312   6.215   5.555   5.884 -0.3620 -0.2136  0.2362
   11CHTO   C91 4313   6.164   5.686   5.890  0.1630 -0.8810 -0.2747
   11CHTO  H178 4314   6.091   5.704   5.811 -2.0551  0.0465  1.9349
   11CHTO   C92 4315   6.288   5.773   5.850  0.0225  0.1784 -0.9398
   11CHTO  H179 4316   6.382   5.729   5.886 -1.2062 -1.2216  0.6200
   11CHTO   O66 4317   6.306   5.774   5.707  0.0141  0.3623  0.4789
   11CHTO  H166 4318   6.314   5.685   5.676 -2.0422 -0.2270  1.4984
   11CHTO   C93 4319   6.272   5.928   5.897 -0.2732  0.5483  0.0863
   11CHTO  H180 4320   6.188   5.978   5.847  0.0776  0.4195 -0.6345
   11CHTO   N16 4321   6.385   6.012   5.868 -0.5059  0.2718  0.4572
   11CHTO  H172 4322   6.354   6.101   5.815  0.1052  0.6792  0.7687
   11CHTO  H173 4323   6.454   5.968   5.797 -0.8248 -1.7227  1.3445
   11CHTO   C94 4324   6.238   5.926   6.054 -0.0584 -0.0349  0.3407
   11CHTO  H181 4325   6.315   5.874   6.112  0.5560  0.0461 -0.3899
   11CHTO   O61 4326   6.113   5.863   6.066 -0.8988  0.2245  0.1679
   11CHTO   C95 4327   6.105   5.721   6.032  0.3131  0.0936  0.8032
   11CHTO  H182 4328   6.161   5.663   6.105  0.4583 -0.3889  0.3092
   11CHTO  C106 4329   5.949   5.678   6.047 -0.2545 -0.2523  0.1073
   11CHTO   O69 4330   5.933   5.546   6.022  0.1990  0.6874  0.0755
   11CHTO  H169 4331   5.850   5.529   6.062  0.2826 -0.1048 -0.0605
   11CHTO   O63 4332   6.202   6.070   6.110  0.1200  0.1538 -0.8505
   11CHTO   C96 4333   6.212   6.079   6.272 -0.1178  0.1990  0.0124
   11CHTO  H183 4334   6.225   5.982   6.319 -1.4140  0.9243  1.8764
   11CHTO   C98 4335   6.082   6.135   6.330 -0.1714 -1.4184 -0.4695
   11CHTO  H185 4336   6.050   6.223   6.272 -2.0314 -2.9177 -1.7374
   11CHTO   O67 4337   5.966   6.047   6.317 -0.3930  0.1583 -0.5723
   11CHTO  H167 4338   5.967   6.004   6.234  1.1223  1.4902 -1.2592
   11CHTO  C102 4339   6.100   6.185   6.479 -0.0687 -0.6932  0.3714
   11CHTO  H189 4340   6.130   6.096   6.536 -0.4445  0.8087  2.9757
   11CHTO   N18 4341   5.990   6.245   6.560  0.5486 -0.1077  0.8347
   11CHTO  H176 4342   5.939   6.311   6.491  0.0980 -2.4270 -1.1082
   11CHTO  H177 4343   5.927   6.161   6.586 -0.8868  0.8618  0.5505
   11CHTO  C105 4344   6.220   6.285   6.481 -0.5048 -0.1896 -0.2529
   11CHTO  H192 4345   6.213   6.364   6.406  2.7569  0.0756 -0.3726
   11CHTO   O65 4346   6.334   6.203   6.452 -0.1172  1.0411 -0.6733
   11CHTO  C100 4347   6.339   6.174   6.311 -1.1140  0.6962  0.6765
   11CHTO  H187 4348   6.330   6.270   6.259  2.1429  1.8205  2.0144
   11CHTO  C107 4349   6.477   6.113   6.274  0.3078 -0.3063  0.1684
   11CHTO   O70 4350   6.486   5.989   6.336 -0.4313 -0.2588  0.5072
   11CHTO  H170 4351   6.514   6.002   6.425 -0.4340  1.6452  0.2417
   11CHTO   O57 4352   6.238   6.356   6.644  0.5230 -0.1242 -0.0647
   11CHTO   C85 4353   6.350   6.432   6.689 -0.4214  0.2853 -0.1844
   11CHTO  H157 4354   6.328   6.444   6.797 -0.2190 -1.4335  0.0641
   11CHTO   C83 4355   6.347   6.565   6.629 -0.1261  0.1907 -0.2468
   11CHTO  H155 4356   6.246   6.601   6.644 -0.0028 -0.3580  1.9879
   11CHTO   O56 4357   6.360   6.550   6.486 -0.0467 -0.0393 -0.6791
   11CHTO  H135 4358   6.435   6.501   6.459 -0.4758 -0.0882 -1.7817
   11CHTO   C81 4359   6.454   6.652   6.694  0.1077  0.1542 -0.1221
   11CHTO  H153 4360   6.441   6.645   6.802  0.5563  0.3666 -0.0545
   11CHTO   N14 4361   6.420   6.795   6.664 -0.2196  0.4963  0.3371
   11CHTO  H141 4362   6.389   6.821   6.565 -1.2788 -0.4603  0.4110
   11CHTO  H142 4363   6.508   6.853   6.684  0.2988 -0.1988  0.0971
   11CHTO   C79 4364   6.594   6.592   6.662  0.3303  0.2736  0.6247
   11CHTO  H151 4365   6.667   6.645   6.723 -0.0079 -0.3194  1.5468
   11CHTO   O52 4366   6.611   6.453   6.706  0.7549  0.1503 -0.2784
   11CHTO   C86 4367   6.501   6.369   6.664 -0.2408  0.5322 -0.4114
   11CHTO  H158 4368   6.524   6.345   6.558  1.4654 -0.1333  0.0950
   11CHTO   C90 4369   6.501   6.237   6.739 -0.0881 -0.1265 -0.4190
   11CHTO   O60 4370   6.610   6.164   6.682  0.1912 -0.2785 -0.0675
   11CHTO  H138 4371   6.663   6.120   6.746 -1.0854 -2.1166 -0.2593
   11CHTO   O50 4372   6.636   6.617   6.528  0.5670 -0.5427 -0.0778
   11CHTO   C73 4373   6.729   6.661   6.424 -0.3722  0.1975 -0.0280
   11CHTO  H145 4374   6.747   6.769   6.432  0.8347  0.0349 -0.3444
   11CHTO   C74 4375   6.675   6.634   6.276 -0.3608 -0.2542 -0.4373
   11CHTO  H146 4376   6.583   6.693   6.268 -0.0666 -0.0098 -2.0737
   11CHTO   O54 4377   6.770   6.691   6.186 -0.1560 -0.5871  0.3239
   11CHTO  H133 4378   6.860   6.682   6.208  0.2210  4.0387  1.2766
   11CHTO   C75 4379   6.649   6.483   6.266  0.3371  0.2843 -0.0836
   11CHTO  H147 4380   6.587   6.457   6.353  0.5963  0.2264  0.0837
   11CHTO   N13 4381   6.586   6.438   6.141 -0.0148  0.6738 -0.0236
   11CHTO  H139 4382   6.485   6.475   6.142 -0.6396 -0.9709  1.7819
   11CHTO  H140 4383   6.597   6.335   6.110 -0.5797  0.9814 -1.3044
   11CHTO   C76 4384   6.787   6.407   6.295 -0.6675 -0.9369  0.0335
   11CHTO  H148 4385   6.851   6.443   6.214 -0.9336 -2.2980 -0.8035
   11CHTO   O49 4386   6.842   6.442   6.420  0.3191  0.2713 -0.8992
   11CHTO   C77 4387   6.866   6.586   6.435 -0.3938 -0.3252 -0.1925
   11CHTO  H149 4388   6.935   6.629   6.362 -0.7183 -1.3023 -1.0824
   11CHTO   C88 4389   6.947   6.621   6.567  0.0861  0.4943 -0.3135
   11CHTO   O58 4390   7.085   6.553   6.570 -0.0809  0.2718  0.2379
   11CHTO  H136 4391   7.145   6.609   6.615  2.5621 -2.2884  0.0642
   11CHTO   O51 4392   6.788   6.261   6.306 -0.0421 -0.2502 -0.4498
   11CHTO   C78 4393   6.891   6.185   6.217  0.2386  0.1268  0.8707
   11CHTO  H150 4394   6.960   6.257   6.167  0.2356  1.1295  2.2850
   11CHTO   C80 4395   6.814   6.091   6.115 -0.2575  0.3405  0.5805
   11CHTO  H152 4396   6.734   6.039   6.171  0.3954  0.3709  1.5595
   11CHTO   O55 4397   6.748   6.185   6.029  0.7768  0.4125 -0.1631
   11CHTO  H134 4398   6.703   6.136   5.964  0.7671  0.0469  0.1175
   11CHTO   C84 4399   6.914   5.992   6.033 -0.6816  0.1625 -0.5011
   11CHTO  H156 4400   6.960   6.059   5.960 -0.0771  0.7327  0.4008
   11CHTO   N15 4401   6.814   5.898   5.955 -0.9560  0.4495  0.0347
   11CHTO  H143 4402   6.765   5.946   5.873 -3.2578  2.0465  2.2842
   11CHTO  H144 4403   6.879   5.821   5.919 -1.6269  0.1771 -0.6215
   11CHTO   C87 4404   7.018   5.926   6.126 -0.1199  0.6495  0.2878
   11CHTO  H159 4405   6.957   5.862   6.188  1.9851  1.3298  3.1487
   11CHTO   O53 4406   7.088   6.034   6.214 -0.5129 -0.0149 -0.2887
   11CHTO   C82 4407   6.994   6.099   6.298 -0.7739 -0.2937  0.0610
   11CHTO  H154 4408   6.950   6.025   6.363  1.3587 -0.7992  0.9726
   11CHTO   C89 4409   7.060   6.195   6.393 -0.3968 -0.4528  0.4858
   11CHTO   O59 4410   7.132   6.123   6.492 -0.0529 -0.0038  0.4498
   11CHTO  H137 4411   7.163   6.187   6.553  1.0516 -0.0840 -0.0223
   11CHTO   O45 4412   7.143   5.843   6.055  0.3012  0.2104  0.4227
   11CHTO   C67 4413   7.172   5.866   5.920 -0.0314 -0.1245 -0.0499
   11CHTO  H124 4414   7.084   5.844   5.860 -0.1557 -0.4595  0.2601
   11CHTO   C65 4415   7.209   6.013   5.889 -0.0714  0.4963 -0.3235
   11CHTO  H122 4416   7.181   6.065   5.981  2.1539  1.7901 -0.3291
   11CHTO   O44 4417   7.125   6.060   5.781  0.3329  0.6133 -0.6240
   11CHTO  H102 4418   7.037   6.077   5.809  0.4030  0.6849 -0.4510
   11CHTO   C63 4419   7.364   6.035   5.868  0.6672 -0.1620 -0.0664
   11CHTO  H120 4420   7.413   5.995   5.957  0.0604 -0.6895  0.0389
   11CHTO   N11 4421   7.409   6.177   5.864  0.0741 -0.2935  0.1754
   11CHTO  H108 4422   7.381   6.224   5.956  0.0984 -2.9934  1.6277
   11CHTO  H109 4423   7.516   6.180   5.855 -0.0124 -0.3970 -0.9279
   11CHTO   C61 4424   7.411   5.944   5.754 -0.2187 -0.2067  0.5644
   11CHTO  H118 4425   7.520   5.928   5.755  0.0677  1.3916 -1.1588
   11CHTO   O40 4426   7.348   5.816   5.750 -0.1734 -0.1597 -0.6057
   11CHTO   C68 4427   7.289   5.767   5.873 -0.4600  0.5885  0.4383
   11CHTO  H125 4428   7.366   5.760   5.952  2.5814  1.1066 -2.3672
   11CHTO   C72 4429   7.226   5.628   5.861  0.3857  0.3180 -0.2588
   11CHTO   O48 4430   7.129   5.619   5.756  0.4605  0.7128 -0.0316
   11CHTO  H105 4431   7.053   5.662   5.790  0.0500 -0.9652  1.2867
   11CHTO   O38 4432   7.366   6.007   5.630 -0.3468  0.2800  0.0292
   11CHTO   C55 4433   7.443   5.956   5.518 -0.0076 -0.8771 -0.2380
   11CHTO  H112 4434   7.491   5.860   5.540  1.3283 -0.6244 -1.9344
   11CHTO   C56 4435   7.545   6.067   5.462  0.3927 -1.0351  0.7391
   11CHTO  H113 4436   7.494   6.163   5.478 -1.3838 -1.3978 -2.4610
   11CHTO   O42 4437   7.651   6.053   5.559 -0.0731  0.7085 -0.2176
   11CHTO  H100 4438   7.707   5.979   5.541 -1.8255 -0.5230 -0.6975
   11CHTO   C57 4439   7.603   6.047   5.312 -0.1004  0.1193 -0.0635
   11CHTO  H114 4440   7.683   5.972   5.307 -0.1158  0.0258  0.9704
   11CHTO   N10 4441   7.677   6.162   5.263 -0.3506 -0.5735 -0.4411
   11CHTO  H106 4442   7.627   6.251   5.296  0.3275  0.1383 -1.3086
   11CHTO  H107 4443   7.779   6.168   5.298  0.0858 -1.4691 -1.5416
   11CHTO   C58 4444   7.482   6.004   5.225 -0.7594 -0.4320  0.3965
   11CHTO  H115 4445   7.410   6.088   5.230  0.0433  0.3528 -1.0183
   11CHTO   O37 4446   7.419   5.886   5.281 -0.2967  0.4610 -0.7650
   11CHTO   C59 4447   7.344   5.927   5.403 -0.5899  0.0474  1.1517
   11CHTO  H116 4448   7.281   6.013   5.382  1.0921  1.0675  0.1221
   11CHTO   C70 4449   7.244   5.806   5.418  0.3837  0.1625  0.3222
   11CHTO   O46 4450   7.140   5.793   5.511  0.7225  0.1461 -0.5517
   11CHTO  H103 4451   7.173   5.816   5.596 -0.1953 -1.0534  0.1586
   11CHTO   O39 4452   7.538   5.957   5.079 -0.5822 -0.2574 -0.8448
   11CHTO   C60 4453   7.427   5.950   4.994 -0.3849  0.4275 -0.6013
   11CHTO  H117 4454   7.338   5.933   5.054  0.9538 -0.0523  1.2836
   11CHTO   C62 4455   7.404   6.081   4.927  0.2089 -0.1686 -0.1455
   11CHTO  H119 4456   7.377   6.152   5.008 -0.7318  0.5849 -1.0954
   11CHTO   O43 4457   7.521   6.119   4.865 -0.4268  0.0840  0.4584
   11CHTO  H101 4458   7.569   6.176   4.922  2.0869 -1.1074 -0.3962
   11CHTO   C66 4459   7.278   6.095   4.823 -0.7596  0.0465  0.0220
   11CHTO  H123 4460   7.186   6.063   4.872  0.0520  0.2072  1.7012
   11CHTO   N12 4461   7.248   6.227   4.764  0.0136  0.2615  0.1210
   11CHTO  H110 4462   7.246   6.217   4.656 -1.0846  0.3361  0.1389
   11CHTO  H111 4463   7.318   6.305   4.793 -1.5124  2.2305 -1.3244
   11CHTO   C69 4464   7.308   5.985   4.713  0.2225  0.0046 -0.0929
   11CHTO  H126 4465   7.403   6.002   4.658 -1.9132  2.8013 -3.1310
   11CHTO   O41 4466   7.327   5.834   4.778 -0.3699  0.1621  0.0906
   11CHTO   C64 4467   7.444   5.833   4.889 -0.0308 -0.1849  0.6618
   11CHTO  H121 4468   7.542   5.830   4.837  0.0756 -2.5208  0.9286
   11CHTO   C71 4469   7.437   5.688   4.946  0.0816  0.1218 -0.5446
   11CHTO   O47 4470   7.307   5.633   4.965 -0.7629 -0.0417  0.7720
   11CHTO  H104 4471   7.296   5.569   4.896 -1.5322 -0.8513  1.6227
   11CHTO   O34 4472   7.186   5.981   4.611 -0.2531  0.2374  0.1654
   11CHTO   C49 4473   7.191   5.906   4.480  0.1511 -0.2810  0.6203
   11CHTO   H91 4474   7.296   5.896   4.453  0.1916 -3.0187  1.5812
   11CHTO   C47 4475   7.105   5.978   4.376  0.7326  0.3363  0.1822
   11CHTO   H89 4476   7.112   5.914   4.285  0.2313 -0.8869  0.9919
   11CHTO   O33 4477   7.158   6.111   4.353  0.0965 -0.2940  0.3709
   11CHTO   H70 4478   7.244   6.120   4.317  0.2584  0.4034  0.9379
   11CHTO   C45 4479   6.951   5.988   4.414 -0.2101  0.1652  0.2575
   11CHTO   H87 4480   6.938   6.084   4.465 -1.0499 -0.0816  0.5187
   11CHTO    N8 4481   6.867   5.977   4.292 -0.3580  0.1761  0.1809
   11CHTO   H75 4482   6.885   5.881   4.245  1.1324 -0.1417  1.3563
   11CHTO   H76 4483   6.766   5.987   4.328  0.0222  1.9722  0.7977
   11CHTO   C43 4484   6.914   5.876   4.528 -0.1608 -0.7071  0.2378
   11CHTO   H85 4485   6.943   5.917   4.625 -0.3218  1.6786 -0.6919
   11CHTO   O29 4486   6.982   5.751   4.489 -0.0064  0.5793  0.1846
   11CHTO   C50 4487   7.119   5.766   4.504 -0.4428  0.6074  0.6851
   11CHTO   H92 4488   7.135   5.741   4.610 -2.3682 -2.2487  0.3565
   11CHTO   C54 4489   7.181   5.654   4.415 -0.3452  0.3233 -0.4868
   11CHTO   O36 4490   7.317   5.673   4.371 -0.1777  0.4164  0.7270
   11CHTO   H72 4491   7.334   5.746   4.314  0.1276  0.4565  0.8717
   11CHTO   O27 4492   6.773   5.848   4.544 -0.2002  0.1768 -0.2621
   11CHTO   C37 4493   6.695   5.779   4.647 -0.2221  0.7864 -0.1058
   11CHTO   H79 4494   6.738   5.682   4.677  0.7756  0.8439 -1.3214
   11CHTO   C38 4495   6.676   5.870   4.772  0.3685  0.5355 -0.4967
   11CHTO   H80 4496   6.631   5.963   4.736 -1.3676 -0.0370  0.1661
   11CHTO   O31 4497   6.811   5.897   4.816 -0.5919  0.4556 -0.1199
   11CHTO   H68 4498   6.822   5.940   4.899 -2.5979  1.2473 -0.2289
   11CHTO   C39 4499   6.582   5.808   4.878 -0.4542 -0.0282 -0.2210
   11CHTO   H81 4500   6.627   5.715   4.913 -0.5093 -0.2541 -0.7493
   11CHTO    N7 4501   6.553   5.885   5.001 -0.7005 -0.4833  0.1114
   11CHTO   H73 4502   6.527   5.988   4.982 -0.5091 -0.1699  1.5151
   11CHTO   H74 4503   6.466   5.834   5.039 -0.2631 -1.0003  0.4103
   11CHTO   C40 4504   6.444   5.772   4.813  0.7807  0.8270 -0.0843
   11CHTO   H82 4505   6.366   5.847   4.801  0.2546  0.5004  1.2248
   11CHTO   O26 4506   6.465   5.692   4.696  0.2485  0.3005 -0.0565
   11CHTO   C41 4507   6.552   5.751   4.592  0.0829 -0.0652  0.2135
   11CHTO   H83 4508   6.503   5.846   4.565 -1.2434 -0.6933  0.3378
   11CHTO   C52 4509   6.566   5.644   4.475  0.0662 -0.2400  0.2721
   11CHTO   O35 4510   6.612   5.700   4.354 -0.3564 -0.3747 -0.2995
   11CHTO   H71 4511   6.542   5.720   4.295  0.0381 -1.3731 -1.1110
   11CHTO   O28 4512   6.384   5.663   4.875  0.1063  0.3518  0.1558
   11CHTO   C42 4513   6.237   5.629   4.869 -0.0121 -0.5372 -0.1959
   11CHTO   H84 4514   6.204   5.672   4.774 -0.2604  2.1968  1.0809
   11CHTO   C44 4515   6.148   5.697   4.979  0.3090  1.1093  0.2021
   11CHTO   H86 4516   6.197   5.680   5.075 -1.6171 -0.4868  0.9536
   11CHTO   O32 4517   6.138   5.830   4.938 -0.0309 -0.4418  0.0840
   11CHTO   H69 4518   6.132   5.892   5.008 -1.2396  0.2762 -0.6273
   11CHTO   C48 4519   6.001   5.639   4.980  0.4879 -0.0468  0.7215
   11CHTO   H90 4520   5.943   5.682   4.898  1.8306  0.6370  0.1092
   11CHTO    N9 4521   5.928   5.694   5.097  0.0883 -0.1173 -0.1477
   11CHTO   H77 4522   5.904   5.799   5.093 -2.8651 -0.7103  0.3765
   11CHTO   H78 4523   5.972   5.659   5.190 -1.7431  2.1051  1.6109
   11CHTO   C51 4524   5.999   5.481   4.979  0.0069 -0.3147  0.5802
   11CHTO   H93 4525   6.048   5.454   5.072  0.3252 -1.7512  0.0078
   11CHTO   O30 4526   6.074   5.441   4.868  0.1487 -0.0314  0.2162
   11CHTO   C46 4527   6.211   5.471   4.860  0.0420 -0.0643  0.5211
   11CHTO   H88 4528   6.254   5.428   4.950  0.5403  0.1014  0.3635
   11CHTO   C53 4529   6.271   5.409   4.728 -0.1752  0.4095 -0.1639
   11CHTO   O72 4530   6.282   5.268   4.732 -0.1653  0.3449  0.1980
   11CHTO  H199 4531   6.345   5.244   4.798 -0.0721 -0.2585 -0.1028
   11CHTO   O22 4532   5.861   5.429   4.984 -0.3116 -0.2397  0.9827
   11CHTO   C31 4533   5.860   5.292   5.033  0.2448  0.0508 -0.3459
   11CHTO   H59 4534   5.965   5.256   5.034  0.4562  0.6259  1.3091
   11CHTO   C29 4535   5.805   5.277   5.181  0.1190 -0.2379 -0.2281
   11CHTO   H57 4536   5.704   5.320   5.180  0.8146  1.6147  1.9839
   11CHTO   O21 4537   5.887   5.347   5.273 -0.9323  0.1333 -0.7409
   11CHTO   H37 4538   5.832   5.370   5.345  0.6443 -2.0212  1.2463
   11CHTO   C27 4539   5.806   5.123   5.229  0.2150  1.0583  0.2525
   11CHTO   H55 4540   5.909   5.088   5.245 -0.8874 -1.3648  2.4306
   11CHTO    N5 4541   5.734   5.101   5.359  0.0982 -0.8292 -0.7670
   11CHTO   H43 4542   5.712   4.998   5.382 -0.5193 -0.7866 -1.1255
   11CHTO   H44 4543   5.779   5.155   5.441 -1.2401 -1.3490  0.3169
   11CHTO   C25 4544   5.740   5.033   5.123  0.7622 -0.4844 -0.2409
   11CHTO   H53 4545   5.631   5.041   5.133  0.7083 -1.0324 -0.3544
   11CHTO   O17 4546   5.786   5.059   4.986  0.3967  0.5073  0.2642
   11CHTO   C32 4547   5.786   5.190   4.937 -0.1605  0.1472  0.7874
   11CHTO   H60 4548   5.681   5.218   4.944 -0.0527  0.6140  0.5687
   11CHTO   C36 4549   5.853   5.186   4.800 -0.1699  1.1222  0.1206
   11CHTO   O25 4550   5.774   5.134   4.700  0.3949  0.4423  0.4768
   11CHTO   H40 4551   5.781   5.041   4.706  5.1577  0.6303 -0.2682
   11CHTO   O15 4552   5.774   4.892   5.158  0.4538 -0.0517 -0.0427
   11CHTO   C19 4553   5.725   4.761   5.134 -0.0854  0.6180  0.6196
   11CHTO   H47 4554   5.786   4.686   5.186 -1.2834 -0.5980  0.2729
   11CHTO   C20 4555   5.580   4.743   5.183 -0.5077 -0.0449  0.0898
   11CHTO   H48 4556   5.507   4.797   5.121 -1.3603 -0.2870  0.8766
   11CHTO   O19 4557   5.574   4.781   5.321 -0.3978 -0.4684 -0.6680
   11CHTO   H35 4558   5.588   4.872   5.341  0.3867 -1.1145  2.0230
   11CHTO   C21 4559   5.536   4.596   5.170 -0.6325 -0.8332  0.8471
   11CHTO   H49 4560   5.610   4.540   5.226  1.3728  0.6606 -0.2421
   11CHTO    N4 4561   5.395   4.564   5.219 -0.3211  0.0675 -0.4377
   11CHTO   H41 4562   5.333   4.647   5.189  2.0105  1.9865 -0.1263
   11CHTO   H42 4563   5.393   4.550   5.326  0.0296 -0.2353 -0.4717
   11CHTO   C22 4564   5.551   4.552   5.021 -0.1998  0.5751 -0.8588
   11CHTO   H50 4565   5.476   4.606   4.964  0.1068 -0.4672 -2.3089
   11CHTO   O14 4566   5.684   4.587   4.970 -0.7019 -0.1334 -0.8091
   11CHTO   C23 4567   5.729   4.721   4.981 -0.1615 -0.3604 -0.3452
   11CHTO   H51 4568   5.660   4.783   4.921 -0.7178 -1.3729 -0.7695
   11CHTO   C34 4569   5.870   4.729   4.919  0.1674 -0.1377  0.0155
   11CHTO   O23 4570   5.968   4.639   4.983  0.2257 -0.0850 -0.5612
   11CHTO   H38 4571   5.941   4.550   4.966 -3.4865  0.5271  1.5713
   11CHTO   O16 4572   5.536   4.410   5.008 -0.3861  0.0245  1.0518
   11CHTO   C24 4573   5.515   4.361   4.845  0.0328  0.8954  0.3148
   11CHTO   H52 4574   5.551   4.436   4.774  0.1771 -0.7063 -1.3354
   11CHTO   C26 4575   5.369   4.328   4.816  0.2501 -0.0153  0.1056
   11CHTO   H54 4576   5.332   4.250   4.885 -1.7646  0.0155 -0.9057
   11CHTO   O20 4577   5.299   4.450   4.829 -0.2909  0.0761  0.8314
   11CHTO   H36 4578   5.282   4.470   4.919 -2.4349  3.2818 -0.1912
   11CHTO   C30 4579   5.352   4.265   4.673 -0.1856  0.3386  1.0775
   11CHTO   H58 4580   5.361   4.346   4.598  0.4249 -1.2788 -0.6436
   11CHTO    N6 4581   5.225   4.209   4.633 -0.1402 -0.1255 -0.7788
   11CHTO   H45 4582   5.162   4.284   4.590 -0.7528  0.9451  1.8535
   11CHTO   H46 4583   5.176   4.167   4.720  0.4982  0.5760 -0.0687
   11CHTO   C33 4584   5.464   4.163   4.631  0.1040 -0.6993 -0.2114
   11CHTO   H61 4585   5.449   4.066   4.679 -2.8838 -0.8197 -1.2635
   11CHTO   O18 4586   5.594   4.213   4.678  0.2400  0.3436  0.3900
   11CHTO   C28 4587   5.605   4.237   4.818  0.8979 -0.2667 -0.3192
   11CHTO   H56 4588   5.568   4.154   4.878 -0.7210 -0.7681 -1.9661
   11CHTO   C35 4589   5.750   4.272   4.872 -0.5705  0.2452  0.2808
   11CHTO   O24 4590   5.841   4.166   4.829  0.0040  0.3770 -0.4486
   11CHTO   H39 4591   5.823   4.140   4.740  3.1091 -1.1645 -0.6890
   11CHTO    O9 4592   5.460   4.136   4.489  0.3674  0.3099  0.3479
   11CHTO   C13 4593   5.522   4.265   4.391 -0.2604 -0.1040  0.0030
   11CHTO   H26 4594   5.511   4.355   4.455  0.4495 -1.2042  1.6851
   11CHTO   C11 4595   5.430   4.277   4.257  0.4034 -0.5768 -0.1826
   11CHTO   H24 4596   5.332   4.306   4.298  1.2330  0.5775  1.0131
   11CHTO    O8 4597   5.406   4.148   4.197 -0.0101 -0.6052 -0.2061
   11CHTO    H3 4598   5.347   4.103   4.255  1.9989  0.4084  2.7547
   11CHTO    C9 4599   5.480   4.392   4.166 -0.3038  0.5800 -0.4671
   11CHTO   H22 4600   5.455   4.482   4.223 -0.0115  0.9654 -0.9417
   11CHTO    N2 4601   5.403   4.403   4.039  0.1918 -0.6639  0.1221
   11CHTO   H10 4602   5.419   4.321   3.969  0.9133  0.8048 -1.4763
   11CHTO   H11 4603   5.423   4.496   3.988  0.4800 -1.8672 -2.0562
   11CHTO    C7 4604   5.635   4.391   4.160  0.6173  0.2614  0.1847
   11CHTO   H20 4605   5.659   4.466   4.237  1.3317 -0.8281  1.0322
   11CHTO    O4 4606   5.686   4.261   4.198 -0.5951 -0.1328 -0.7199
   11CHTO   C14 4607   5.673   4.241   4.344 -0.8226  0.0736 -0.0910
   11CHTO   H27 4608   5.744   4.305   4.399 -1.0353  0.6394 -0.4737
   11CHTO   C18 4609   5.713   4.093   4.375  0.3305 -0.7639  1.0581
   11CHTO   O13 4610   5.838   4.046   4.318 -0.2721  0.4899 -0.6947
   11CHTO    H7 4611   5.820   4.023   4.228 -1.9690 -3.3148  0.5045
   11CHTO    O2 4612   5.703   4.437   4.016 -0.4311 -0.0924 -0.0277
   11CHTO    C1 4613   5.804   4.538   4.036 -0.0110 -0.2809  0.1246
   11CHTO   H14 4614   5.842   4.530   4.140  0.9616 -0.5590 -0.2413
   11CHTO    C2 4615   5.760   4.684   4.011 -0.2654 -0.2265  0.5211
   11CHTO   H15 4616   5.719   4.686   3.909 -0.1770 -1.9181  0.4245
   11CHTO    O6 4617   5.653   4.717   4.101 -0.6885  0.3820  0.0034
   11CHTO    H1 4618   5.579   4.759   4.063  0.6193  0.9234 -1.9836
   11CHTO    C3 4619   5.880   4.794   4.019  0.6642  0.3346  0.0564
   11CHTO   H16 4620   5.914   4.800   4.124  1.1468 -0.7773 -0.0355
   11CHTO    N1 4621   5.841   4.935   3.968  0.5812  0.9150 -0.7263
   11CHTO    H8 4622   5.735   4.936   3.947 -0.0531 -1.2202  2.2286
   11CHTO    H9 4623   5.866   5.015   4.036  1.5056  0.0822 -0.0734
   11CHTO    C4 4624   6.008   4.751   3.937  0.6049 -0.2425 -0.0935
   11CHTO   H17 4625   5.983   4.763   3.831 -0.8063 -1.1031  0.1266
   11CHTO    O1 4626   6.035   4.609   3.956  0.3464 -0.4751 -0.1112
   11CHTO    C5 4627   5.928   4.513   3.952 -0.1332 -1.0722 -0.2496
   11CHTO   H18 4628   5.897   4.518   3.848 -0.6421 -1.4959 -0.1176
   11CHTO   C16 4629   5.974   4.368   3.973  0.4751 -0.8536 -0.1806
   11CHTO   O11 4630   6.042   4.359   4.094  0.2613  0.3188  0.5669
   11CHTO    H5 4631   6.084   4.275   4.092 -0.4763 -0.0585  0.6307
   11CHTO    O3 4632   6.134   4.814   3.977  0.1335  0.4269  0.2880
   11CHTO    C6 4633   6.228   4.828   3.864  0.3913  0.6438 -0.4905
   11CHTO   H19 4634   6.185   4.774   3.779 -1.3775 -0.0972  0.8333
   11CHTO    C8 4635   6.240   4.971   3.811 -0.8153 -0.5817 -0.5694
   11CHTO   H21 4636   6.260   5.035   3.897  0.9769 -0.1156 -1.3097
   11CHTO    O7 4637   6.116   5.016   3.756  0.4547 -0.2557 -0.4127
   11CHTO    H2 4638   6.068   5.067   3.818  0.6282 -0.4153 -0.1445
   11CHTO   C12 4639   6.358   4.986   3.702  0.6322  0.7410 -0.0793
   11CHTO   H25 4640   6.327   4.921   3.619  1.4006 -2.6746  2.2102
   11CHTO    N3 4641   6.360   5.132   3.656  0.0975 -0.5501 -0.4202
   11CHTO   H12 4642   6.351   5.130   3.549 -3.3639 -0.1346 -0.1746
   11CHTO   H13 4643   6.455   5.168   3.694  0.2604 -0.7399 -0.6359
   11CHTO   C15 4644   6.490   4.923   3.766 -0.1822  0.0200  0.2666
   11CHTO   H28 4645   6.517   4.979   3.856 -1.6289 -1.1014  1.4116
   11CHTO   O10 4646   6.613   4.929   3.655 -0.3652 -0.1474 -0.4738
   11CHTO    H4 4647   6.618   5.015   3.618 -0.0643 -0.3104 -0.8100
   11CHTO    O5 4648   6.466   4.784   3.797 -0.2559 -0.1255  0.5239
   11CHTO   C10 4649   6.368   4.765   3.903 -0.2919 -0.7652 -0.2677
   11CHTO   H23 4650   6.417   4.801   3.994 -0.4461  2.0898 -1.2943
   11CHTO   C17 4651   6.358   4.616   3.934 -1.1804 -0.1495  0.0718
   11CHTO   O12 4652   6.295   4.542   3.831  0.6235 -0.2093  0.0501
   11CHTO    H6 4653   6.347   4.532   3.754  0.5218 -1.0909  0.0951
   12CHTO  H203 4654   5.147   1.715   4.592  0.9417 -0.4048 -0.3466
   12CHTO   O82 4655   5.119   1.640   4.542  0.0709 -0.2806 -0.0478
   12CHTO  C123 4656   5.210   1.533   4.579 -0.3920  0.2684  0.8097
   12CHTO  H227 4657   5.311   1.573   4.566 -0.9257  2.4862  3.1091
   12CHTO   O77 4658   5.174   1.502   4.711  0.5901 -0.4740 -0.5071
   12CHTO  C118 4659   5.262   1.408   4.778 -0.9619  0.2599  0.2139
   12CHTO  H222 4660   5.367   1.435   4.761 -0.9394 -0.1487 -0.2972
   12CHTO  C125 4661   5.230   1.413   4.933  1.1366 -0.1595 -0.2281
   12CHTO   O84 4662   5.089   1.406   4.956 -0.1284  0.2600 -0.2836
   12CHTO  H205 4663   5.063   1.385   5.044 -0.1002  1.0334 -0.0951
   12CHTO  C114 4664   5.241   1.274   4.703 -0.5329 -0.4593  0.0684
   12CHTO  H218 4665   5.137   1.242   4.710 -0.5404 -1.2660 -2.8419
   12CHTO  C116 4666   5.262   1.286   4.550  0.0351 -0.4670 -0.1015
   12CHTO  H220 4667   5.370   1.299   4.529  0.9148 -1.0068  3.7476
   12CHTO   O79 4668   5.224   1.150   4.505  0.6852 -0.5099  0.1974
   12CHTO  H201 4669   5.294   1.087   4.506  0.7084 -0.5141  2.6452
   12CHTO  C120 4670   5.185   1.409   4.487 -0.8638 -0.7625 -0.8728
   12CHTO  H224 4671   5.076   1.384   4.484 -1.1395  0.0503  1.7660
   12CHTO   N21 4672   5.216   1.434   4.342  0.2725 -0.6140  0.4912
   12CHTO  H211 4673   5.240   1.342   4.291  2.5056  0.1965  0.0113
   12CHTO  H212 4674   5.130   1.488   4.302 -0.5617 -1.2171  1.4563
   12CHTO   O75 4675   5.333   1.184   4.768 -0.5309 -0.1043  0.1624
   12CHTO  C112 4676   5.267   1.039   4.819  0.4290  0.1257 -0.0547
   12CHTO  H216 4677   5.202   1.006   4.736  2.4372 -0.2805 -1.5122
   12CHTO   O73 4678   5.196   1.056   4.940 -0.6737  0.1780  0.5699
   12CHTO  C113 4679   5.120   0.943   4.983 -0.6219 -0.3370 -0.0063
   12CHTO  H217 4680   5.060   0.913   4.895  0.7430 -1.6804 -0.4987
   12CHTO  C124 4681   5.022   0.992   5.096 -0.1766  0.4148  0.0472
   12CHTO   O83 4682   5.070   1.068   5.205 -0.3832 -0.3278 -0.3458
   12CHTO  H204 4683   5.075   1.158   5.179  1.7220 -0.7287 -1.3829
   12CHTO  C109 4684   5.218   0.826   5.020 -0.4693 -0.0532  0.3041
   12CHTO  H213 4685   5.279   0.858   5.105 -1.2087 -0.8649  1.1590
   12CHTO  C110 4686   5.311   0.798   4.896 -0.2415  0.1300  0.1421
   12CHTO  H214 4687   5.254   0.751   4.816 -1.1827  0.0737  0.8342
   12CHTO   O78 4688   5.411   0.706   4.931  0.1934  0.5516 -0.3450
   12CHTO  H200 4689   5.446   0.730   5.014  0.5069 -1.0077 -0.0123
   12CHTO  C111 4690   5.377   0.927   4.844 -0.1844  0.5797  0.1374
   12CHTO  H215 4691   5.437   0.968   4.926  0.5990  1.4143 -0.8436
   12CHTO   N19 4692   5.468   0.916   4.730 -0.1749 -0.1718 -0.3544
   12CHTO  H207 4693   5.568   0.952   4.752 -0.5384  1.7644 -1.7448
   12CHTO  H208 4694   5.480   0.812   4.703  0.0309 -0.5968  1.3146
   12CHTO   O74 4695   5.147   0.708   5.060  0.4192  0.8800  0.6200
   12CHTO  C115 4696   5.205   0.610   5.167 -0.3621 -0.4848  0.3502
   12CHTO  H219 4697   5.304   0.644   5.196 -0.0416 -1.5168  0.4677
   12CHTO   O76 4698   5.114   0.603   5.300  0.4233  0.1647  0.3313
   12CHTO  C122 4699   4.983   0.572   5.270  0.3406 -0.6429 -0.3149
   12CHTO  H226 4700   4.937   0.661   5.228  0.1534 -0.7402 -0.3152
   12CHTO  C126 4701   4.918   0.544   5.411 -0.0855 -0.1849 -0.5110
   12CHTO   O85 4702   4.904   0.659   5.493 -0.3963  0.5630 -0.5332
   12CHTO  H206 4703   4.983   0.687   5.535 -0.0698 -2.3789  0.9193
   12CHTO  C121 4704   4.970   0.443   5.172 -0.2514 -0.0297  0.0961
   12CHTO  H225 4705   4.901   0.375   5.225  0.6091  0.5579  2.0201
   12CHTO   O81 4706   4.901   0.482   5.051 -0.8219 -0.6644  0.9159
   12CHTO  H202 4707   4.810   0.493   5.072 -1.1081 -1.1973 -0.0358
   12CHTO  C119 4708   5.104   0.370   5.141  0.7385  0.1730 -0.4854
   12CHTO  H223 4709   5.130   0.321   5.234  1.0715  0.6376 -0.3371
   12CHTO  C117 4710   5.218   0.469   5.098  0.4098  0.7408 -0.1715
   12CHTO  H221 4711   5.222   0.487   4.991 -1.2391 -0.6247 -0.4792
   12CHTO   N20 4712   5.352   0.408   5.128 -0.0674  0.2433  0.6398
   12CHTO  H209 4713   5.417   0.473   5.185  2.2224  1.5141 -3.2396
   12CHTO  H210 4714   5.404   0.371   5.041 -1.7970  0.6543 -0.5840
   12CHTO   O80 4715   5.083   0.245   5.052  0.2353  0.3849 -0.4428
   12CHTO  C103 4716   5.060   0.104   5.112 -0.2594  0.1832 -0.1038
   12CHTO  H190 4717   5.140   0.085   5.183  1.8822  3.4596 -1.4788
   12CHTO  C101 4718   4.922   0.057   5.172  0.4017  0.9386 -0.3308
   12CHTO  H188 4719   4.851   0.105   5.105  0.8040  0.4054 -1.1444
   12CHTO   O68 4720   4.898   0.122   5.305  0.2242  0.1323 -0.3513
   12CHTO  H168 4721   4.826   0.079   5.346  0.0853 -0.2596 -0.9923
   12CHTO   C99 4722   4.899  -0.106   5.181 -0.4106 -0.0875  0.0714
   12CHTO  H186 4723   4.967  -0.143   5.261 -1.8235 -1.4025  0.6752
   12CHTO   N17 4724   4.760  -0.145   5.210 -0.3715 -0.1702  0.3654
   12CHTO  H174 4725   4.725  -0.071   5.280  1.1982  1.0151 -0.0893
   12CHTO  H175 4726   4.693  -0.136   5.126 -2.1593 -2.9557  1.4107
   12CHTO   C97 4727   4.958  -0.172   5.045  0.5623 -0.0368 -0.1092
   12CHTO  H184 4728   4.885  -0.142   4.968 -0.7154 -0.5965  0.8589
   12CHTO   O64 4729   5.087  -0.125   5.015 -0.2349 -0.2324  0.1875
   12CHTO  C104 4730   5.093   0.017   4.988  0.3964  0.1756  0.1557
   12CHTO  H191 4731   5.025   0.041   4.906  1.2174 -0.6599 -0.7911
   12CHTO  C108 4732   5.233   0.054   4.937  0.1174  0.6327 -0.0363
   12CHTO   O71 4733   5.271   0.020   4.806  0.2110 -0.1522 -0.8525
   12CHTO  H171 4734   5.325   0.085   4.767 -0.0336  1.1989  1.0051
   12CHTO   O62 4735   4.966  -0.317   5.047 -0.0198 -0.3150  0.7777
   12CHTO   C91 4736   4.962  -0.386   4.923  0.3528  0.0820  0.4218
   12CHTO  H178 4737   4.981  -0.307   4.851  2.2547 -0.2409  0.5249
   12CHTO   C92 4738   4.819  -0.442   4.888 -0.5085  0.4467  0.3556
   12CHTO  H179 4739   4.789  -0.506   4.973  1.6571 -1.2590 -0.1077
   12CHTO   O66 4740   4.726  -0.332   4.873  0.1318 -0.0893 -0.2250
   12CHTO  H166 4741   4.642  -0.367   4.848  0.6549 -0.3442 -1.6871
   12CHTO   C93 4742   4.822  -0.527   4.754 -0.6886 -0.7305  0.1629
   12CHTO  H180 4743   4.837  -0.451   4.676  0.0127 -0.3265  0.6771
   12CHTO   N16 4744   4.695  -0.595   4.735  0.1711  0.2530 -0.0006
   12CHTO  H172 4745   4.705  -0.702   4.722 -1.4165  0.3714 -2.4476
   12CHTO  H173 4746   4.613  -0.573   4.801 -1.0438  1.8541 -1.9835
   12CHTO   C94 4747   4.940  -0.622   4.755  0.3460  0.3078 -0.6453
   12CHTO  H181 4748   4.931  -0.698   4.833  0.0247 -0.4144 -1.3667
   12CHTO   O61 4749   5.060  -0.551   4.780  0.4283 -0.0573  0.6495
   12CHTO   C95 4750   5.068  -0.494   4.912  0.3478 -0.4175 -0.4738
   12CHTO  H182 4751   5.056  -0.572   4.988  1.3556 -0.5127 -0.3993
   12CHTO  C106 4752   5.219  -0.453   4.952  0.4052 -0.0815  0.5713
   12CHTO   O69 4753   5.235  -0.430   5.093 -0.3636  0.2123 -0.3389
   12CHTO  H169 4754   5.178  -0.363   5.124 -0.7799  0.6072 -1.9085
   12CHTO   O63 4755   4.961  -0.707   4.599 -0.1945  0.2170  0.3489
   12CHTO   C96 4756   5.070  -0.807   4.610  0.0222  0.1280  0.0739
   12CHTO  H183 4757   5.112  -0.801   4.711  1.6131 -0.3525 -0.5362
   12CHTO   C98 4758   5.189  -0.778   4.519 -0.9052  0.5010  0.3385
   12CHTO  H185 4759   5.161  -0.780   4.413 -1.9641  0.3729  0.6116
   12CHTO   O67 4760   5.228  -0.641   4.539 -0.0547  0.1110 -0.2726
   12CHTO  H167 4761   5.172  -0.595   4.480  0.1767 -0.5975 -1.0456
   12CHTO  C102 4762   5.317  -0.876   4.538  0.3952  0.0937  0.2583
   12CHTO  H189 4763   5.357  -0.853   4.638 -1.9480  1.4351  0.9374
   12CHTO   N18 4764   5.424  -0.852   4.439  0.3404  0.1132 -0.0417
   12CHTO  H176 4765   5.395  -0.867   4.336  0.2173 -0.2308  0.0418
   12CHTO  H177 4766   5.481  -0.764   4.465  0.2732 -0.3496  1.7938
   12CHTO  C105 4767   5.266  -1.025   4.530 -0.1905  0.3713  0.7990
   12CHTO  H192 4768   5.231  -1.040   4.428 -0.5633  0.3970  0.9219
   12CHTO   O65 4769   5.156  -1.034   4.618 -0.1816 -0.6236 -0.5575
   12CHTO  C100 4770   5.038  -0.961   4.584 -0.1219  0.1710 -0.3300
   12CHTO  H187 4771   5.012  -0.971   4.478  0.8034 -1.7132 -0.4015
   12CHTO  C107 4772   4.926  -1.017   4.669  0.1761 -0.4326  0.1333
   12CHTO   O70 4773   4.801  -0.951   4.683 -0.7251 -0.1580  0.3351
   12CHTO  H170 4774   4.740  -0.989   4.622 -3.5752  2.5204  1.3734
   12CHTO   O57 4775   5.387  -1.138   4.565  0.5665  0.0563  0.0825
   12CHTO   C85 4776   5.374  -1.279   4.602 -0.2750 -0.0878 -0.0266
   12CHTO  H157 4777   5.293  -1.322   4.540 -0.3705 -0.9054  0.6520
   12CHTO   C83 4778   5.318  -1.296   4.750  0.0328 -0.3622  0.3565
   12CHTO  H155 4779   5.218  -1.253   4.749 -0.3561 -1.1334  2.4189
   12CHTO   O56 4780   5.393  -1.214   4.842  0.3162 -0.1489  0.0265
   12CHTO  H135 4781   5.346  -1.198   4.921 -1.2228 -1.8614 -0.5021
   12CHTO   C81 4782   5.312  -1.441   4.800 -0.2578  0.1069  0.6056
   12CHTO  H153 4783   5.253  -1.498   4.728 -0.3698  0.5398  0.3532
   12CHTO   N14 4784   5.241  -1.464   4.934  0.1397 -0.2985  0.2117
   12CHTO  H141 4785   5.202  -1.371   4.972  1.1785 -0.0990  0.8091
   12CHTO  H142 4786   5.159  -1.530   4.916 -0.5862  0.7889 -0.5857
   12CHTO   C79 4787   5.462  -1.496   4.794 -0.3909 -0.2095 -0.4025
   12CHTO  H151 4788   5.462  -1.603   4.818 -0.5430 -0.1791 -0.2663
   12CHTO   O52 4789   5.505  -1.496   4.650  0.0258 -0.4279 -0.5773
   12CHTO   C86 4790   5.503  -1.363   4.588 -0.2595 -0.5394 -0.4614
   12CHTO  H158 4791   5.580  -1.309   4.647 -1.9460  0.2388  1.0756
   12CHTO   C90 4792   5.548  -1.378   4.441 -0.3881 -0.2658 -0.2961
   12CHTO   O60 4793   5.560  -1.250   4.381  0.3512  0.7383  0.0318
   12CHTO  H138 4794   5.480  -1.204   4.397  0.4066  0.9169 -0.2178
   12CHTO   O50 4795   5.560  -1.438   4.875 -0.0747  0.0084  0.3260
   12CHTO   C73 4796   5.604  -1.461   5.011 -0.2201  0.8892  0.3954
   12CHTO  H145 4797   5.531  -1.531   5.052 -2.3106  2.8299  0.0746
   12CHTO   C74 4798   5.588  -1.345   5.104  0.5687 -0.8127  0.4243
   12CHTO  H146 4799   5.488  -1.311   5.075  0.6918 -0.4381  0.4354
   12CHTO   O54 4800   5.583  -1.369   5.248  0.6341 -0.0435  0.0504
   12CHTO  H133 4801   5.507  -1.414   5.278  0.2764  0.3552 -0.2516
   12CHTO   C75 4802   5.699  -1.236   5.064  0.0902  0.4764 -0.0284
   12CHTO  H147 4803   5.688  -1.210   4.957 -1.1196  0.4360  0.0798
   12CHTO   N13 4804   5.699  -1.110   5.151  0.0916  0.6523  0.2268
   12CHTO  H139 4805   5.777  -1.040   5.125  1.9048 -1.3976  0.0225
   12CHTO  H140 4806   5.606  -1.056   5.140 -0.6389 -0.6449 -0.1705
   12CHTO   C76 4807   5.845  -1.295   5.047 -0.0602 -0.7967 -0.5719
   12CHTO  H148 4808   5.886  -1.311   5.147  0.9395  2.5733 -0.3752
   12CHTO   O49 4809   5.839  -1.421   4.970 -0.0341  0.2217 -0.5826
   12CHTO   C77 4810   5.746  -1.516   5.022 -0.0022 -0.3136  0.4741
   12CHTO  H149 4811   5.772  -1.540   5.125  1.9233 -0.3020  0.0159
   12CHTO   C88 4812   5.771  -1.641   4.937 -0.1676 -0.1839 -0.1776
   12CHTO   O58 4813   5.668  -1.742   4.971 -0.1210 -0.9494 -0.0130
   12CHTO  H136 4814   5.593  -1.723   4.918 -0.2137  1.0905  0.8286
   12CHTO   O51 4815   5.935  -1.210   4.966 -0.0713 -0.2008  0.5705
   12CHTO   C78 4816   6.076  -1.272   4.951  0.9594  0.5504  0.1815
   12CHTO  H150 4817   6.067  -1.382   4.939 -2.5414  0.8467 -0.4304
   12CHTO   C80 4818   6.181  -1.232   5.067  0.9010 -0.2922 -0.2901
   12CHTO  H152 4819   6.174  -1.121   5.072  0.7362 -0.2247 -1.8521
   12CHTO   O55 4820   6.122  -1.291   5.183  0.3243 -0.3983 -0.9357
   12CHTO  H134 4821   6.107  -1.383   5.176 -0.3465 -0.3434 -0.1915
   12CHTO   C84 4822   6.331  -1.276   5.043  0.4524 -0.1953  0.4030
   12CHTO  H156 4823   6.343  -1.384   5.055  0.1202 -0.2412  0.3224
   12CHTO   N15 4824   6.432  -1.221   5.132 -0.1804  0.2024  0.3785
   12CHTO  H143 4825   6.510  -1.290   5.157  0.0035 -0.2793 -1.4072
   12CHTO  H144 4826   6.384  -1.195   5.223 -1.0236 -0.6782  0.1988
   12CHTO   C87 4827   6.369  -1.238   4.899 -0.6746  0.1488 -0.1921
   12CHTO  H159 4828   6.392  -1.134   4.877 -0.8250  0.3899  0.7484
   12CHTO   O53 4829   6.257  -1.285   4.804  0.5027 -0.1321 -0.5948
   12CHTO   C82 4830   6.128  -1.231   4.815  0.9797  0.8737 -0.4775
   12CHTO  H154 4831   6.128  -1.122   4.802  0.3560  0.9881  0.4606
   12CHTO   C89 4832   6.038  -1.284   4.692 -0.3092  0.4479  0.0366
   12CHTO   O59 4833   6.050  -1.192   4.584 -0.0236 -0.2165 -0.6998
   12CHTO  H137 4834   5.969  -1.207   4.538  0.2759 -1.0836 -0.9479
   12CHTO   O45 4835   6.505  -1.337   4.868 -0.4226 -0.4101  0.1549
   12CHTO   C67 4836   6.542  -1.338   4.726  0.5338  0.0910 -0.5434
   12CHTO  H124 4837   6.470  -1.282   4.666  0.2091 -0.6903 -0.8926
   12CHTO   C65 4838   6.691  -1.287   4.709  0.0107  0.3904  0.3194
   12CHTO  H122 4839   6.689  -1.200   4.775 -3.0038  1.0076 -0.4781
   12CHTO   O44 4840   6.697  -1.255   4.571 -0.4770 -0.2027 -0.0824
   12CHTO  H102 4841   6.660  -1.311   4.505  2.5058 -0.8424 -1.2940
   12CHTO   C63 4842   6.796  -1.382   4.774  0.0618  1.1593 -0.3543
   12CHTO  H120 4843   6.772  -1.389   4.880  0.1285  1.6027 -0.3085
   12CHTO   N11 4844   6.931  -1.328   4.781 -0.1101 -0.1502 -0.2206
   12CHTO  H108 4845   7.001  -1.408   4.793 -0.0022  0.0406  0.4167
   12CHTO  H109 4846   6.948  -1.275   4.690 -2.4017  0.7249 -0.1767
   12CHTO   C61 4847   6.780  -1.528   4.708  1.1577  0.3181 -0.1812
   12CHTO  H118 4848   6.836  -1.603   4.767  0.4021  0.5638  0.8689
   12CHTO   O40 4849   6.648  -1.575   4.713  0.1959  0.0092 -0.0887
   12CHTO   C68 4850   6.533  -1.490   4.678 -0.4674  0.2512 -0.0323
   12CHTO  H125 4851   6.446  -1.537   4.729 -1.5497  1.3741 -0.8313
   12CHTO   C72 4852   6.511  -1.491   4.530  0.4597 -0.6725 -1.0166
   12CHTO   O48 4853   6.455  -1.619   4.486  0.5156  0.5458  0.0229
   12CHTO  H105 4854   6.513  -1.668   4.431  0.2285 -1.0843  1.1271
   12CHTO   O38 4855   6.826  -1.536   4.571 -0.3005  0.4389 -0.0510
   12CHTO   C55 4856   6.920  -1.638   4.534 -0.4568 -0.1971 -0.1186
   12CHTO  H112 4857   6.956  -1.683   4.628  0.7652 -0.6835 -0.7957
   12CHTO   C56 4858   7.045  -1.574   4.453 -0.1917  0.1760 -0.0082
   12CHTO  H113 4859   7.009  -1.522   4.362 -1.3169  0.2334  0.4569
   12CHTO   O42 4860   7.108  -1.468   4.524  0.0922  0.0464 -0.5378
   12CHTO  H100 4861   7.070  -1.387   4.496  0.2529 -0.3928 -2.0356
   12CHTO   C57 4862   7.143  -1.696   4.416 -0.0817 -0.2537 -0.4057
   12CHTO  H114 4863   7.171  -1.746   4.508  0.3071  1.2229  0.2970
   12CHTO   N10 4864   7.259  -1.648   4.332  0.6917 -0.1787  0.1956
   12CHTO  H106 4865   7.281  -1.543   4.340  0.5077 -0.1192 -0.1017
   12CHTO  H107 4866   7.351  -1.703   4.350  1.9858  0.7979 -3.2162
   12CHTO   C58 4867   7.058  -1.795   4.330  0.5571 -0.2970 -0.3963
   12CHTO  H115 4868   7.023  -1.748   4.236 -0.5050 -0.1436  0.0592
   12CHTO   O37 4869   6.950  -1.846   4.401 -0.1017  0.5334 -0.1747
   12CHTO   C59 4870   6.850  -1.745   4.445 -0.4647 -0.0766  0.2587
   12CHTO  H116 4871   6.822  -1.700   4.350 -0.2373 -0.5352 -0.0306
   12CHTO   C70 4872   6.753  -1.826   4.530 -0.0160 -0.2068 -0.5352
   12CHTO   O46 4873   6.668  -1.917   4.457  0.1137  0.0231 -0.2387
   12CHTO  H103 4874   6.595  -1.940   4.511 -0.6194  1.8264 -0.4356
   12CHTO   O39 4875   7.160  -1.934   4.297 -0.0018  0.3902  0.1031
   12CHTO   C60 4876   7.121  -2.008   4.173 -0.4941 -0.4905 -0.4146
   12CHTO  H117 4877   7.013  -2.006   4.159 -0.3798  0.2610 -1.2018
   12CHTO   C62 4878   7.190  -1.959   4.042 -0.1507  0.2043  0.1781
   12CHTO  H119 4879   7.163  -1.852   4.034 -2.2820 -0.4755 -2.3881
   12CHTO   O43 4880   7.334  -1.972   4.041  0.2763 -0.6466  0.1930
   12CHTO  H101 4881   7.372  -1.950   4.124 -0.1407  3.0115 -0.4961
   12CHTO   C66 4882   7.110  -2.047   3.933 -0.0700  0.0535 -0.4977
   12CHTO  H123 4883   7.003  -2.030   3.941 -0.0216  1.6264 -2.7060
   12CHTO   N12 4884   7.139  -2.007   3.796 -0.7089  0.0736  0.3916
   12CHTO  H110 4885   7.078  -2.054   3.721 -0.7429 -0.3980  0.7135
   12CHTO  H111 4886   7.244  -2.010   3.772 -0.9665 -1.7125 -0.5462
   12CHTO   C69 4887   7.147  -2.200   3.952  0.3457 -0.5031  0.4444
   12CHTO  H126 4888   7.257  -2.208   3.939  0.1028 -0.4938 -1.8266
   12CHTO   O41 4889   7.111  -2.244   4.075  0.4180  0.9217 -0.1964
   12CHTO   C64 4890   7.158  -2.160   4.194 -0.0212  0.2603  0.0671
   12CHTO  H121 4891   7.268  -2.173   4.195  0.0126  0.4393 -0.7744
   12CHTO   C71 4892   7.104  -2.221   4.330  0.1356  0.4853  0.0323
   12CHTO   O47 4893   6.965  -2.190   4.359  0.3273  0.5889 -0.1716
   12CHTO  H104 4894   6.932  -2.214   4.443  0.2123  5.5280  1.3578
   12CHTO   O34 4895   7.095  -2.308   3.841  0.4190 -0.1439 -0.1455
   12CHTO   C49 4896   7.176  -2.415   3.756 -0.5692 -0.3693  0.1532
   12CHTO   H91 4897   7.234  -2.360   3.682  0.0549 -0.2795  0.7036
   12CHTO   C47 4898   7.076  -2.512   3.695  0.0440 -0.0181 -0.5701
   12CHTO   H89 4899   7.133  -2.561   3.612 -0.7625 -2.6772  0.3897
   12CHTO   O33 4900   6.970  -2.441   3.633 -0.4620  0.1864 -0.5145
   12CHTO   H70 4901   6.989  -2.367   3.578 -0.5194 -1.2521 -2.5234
   12CHTO   C45 4902   7.010  -2.612   3.800  0.1362 -0.1791  0.1924
   12CHTO   H87 4903   6.907  -2.583   3.827  0.6292  1.4609  0.3567
   12CHTO    N8 4904   7.007  -2.748   3.741  0.2551 -0.0056 -0.3355
   12CHTO   H75 4905   6.957  -2.738   3.646  0.1463 -0.3639 -0.3184
   12CHTO   H76 4906   6.932  -2.808   3.792  0.3660 -0.7206 -1.0096
   12CHTO   C43 4907   7.083  -2.599   3.948 -0.9413  0.4111  0.4199
   12CHTO   H85 4908   7.047  -2.507   3.994  2.7714  1.5688  1.2009
   12CHTO   O29 4909   7.226  -2.597   3.933 -0.3835 -0.0981 -0.6478
   12CHTO   C50 4910   7.279  -2.495   3.846  0.8475 -0.1661 -0.5538
   12CHTO   H92 4911   7.339  -2.424   3.904  1.6665 -1.4605  0.1886
   12CHTO   C54 4912   7.385  -2.559   3.756  0.1525 -0.2603  0.4539
   12CHTO   O36 4913   7.495  -2.598   3.840  0.0065  0.2076  0.1298
   12CHTO   H72 4914   7.512  -2.523   3.893  0.6952  0.0775  0.0972
   12CHTO   O27 4915   7.026  -2.695   4.036 -0.0398 -0.1126 -0.6388
   12CHTO   C37 4916   6.977  -2.712   4.168 -0.1986 -0.3363 -0.1867
   12CHTO   H79 4917   6.964  -2.819   4.194 -0.6781 -0.8589 -2.4684
   12CHTO   C38 4918   7.088  -2.659   4.267  0.3060  0.0054  0.0409
   12CHTO   H80 4919   7.124  -2.562   4.231 -0.1649  0.1913  0.0632
   12CHTO   O31 4920   7.203  -2.747   4.260  0.1335 -0.4736 -0.1833
   12CHTO   H68 4921   7.164  -2.832   4.254  1.1944 -0.8598 -2.2172
   12CHTO   C39 4922   7.026  -2.647   4.422 -0.1209  0.5233  0.7693
   12CHTO   H81 4923   7.017  -2.753   4.442 -0.7172 -0.2852 -3.3439
   12CHTO    N7 4924   7.116  -2.586   4.525 -0.5806  0.1043 -0.6529
   12CHTO   H73 4925   7.198  -2.652   4.550 -0.6681 -0.3373 -1.5003
   12CHTO   H74 4926   7.146  -2.485   4.502 -2.2484  0.6346 -0.5478
   12CHTO   C40 4927   6.881  -2.592   4.430 -0.7909 -0.2558 -0.3998
   12CHTO   H82 4928   6.891  -2.485   4.413 -1.1799 -0.4227 -1.8004
   12CHTO   O26 4929   6.804  -2.660   4.327 -0.0817 -0.3652  0.4431
   12CHTO   C41 4930   6.842  -2.637   4.187 -0.4258 -0.2879 -0.4136
   12CHTO   H83 4931   6.861  -2.530   4.170  2.2456 -0.5271  0.8439
   12CHTO   C52 4932   6.725  -2.675   4.087  0.1714 -0.6128 -0.2990
   12CHTO   O35 4933   6.609  -2.601   4.120 -0.1989  0.2399  0.2495
   12CHTO   H71 4934   6.585  -2.638   4.203  0.9119 -0.3207  0.3307
   12CHTO   O28 4935   6.820  -2.628   4.558  0.1445 -0.0909 -0.4257
   12CHTO   C42 4936   6.695  -2.565   4.596  0.9504 -0.2179 -0.6548
   12CHTO   H84 4937   6.698  -2.588   4.703  0.1241 -0.1130 -0.6045
   12CHTO   C44 4938   6.565  -2.621   4.534  0.8975  0.0014 -0.2455
   12CHTO   H86 4939   6.574  -2.620   4.426  3.0201 -3.7126 -0.2030
   12CHTO   O32 4940   6.568  -2.753   4.589  0.4402 -0.1522  0.1716
   12CHTO   H69 4941   6.590  -2.821   4.528  1.6759 -2.7493  3.3119
   12CHTO   C48 4942   6.437  -2.545   4.572  0.8682 -0.0011 -0.4974
   12CHTO   H90 4943   6.407  -2.559   4.676 -0.2086  0.0966 -0.7967
   12CHTO    N9 4944   6.322  -2.594   4.498  0.0436  0.0665 -0.3230
   12CHTO   H77 4945   6.225  -2.561   4.532 -0.0563  0.4609 -0.9653
   12CHTO   H78 4946   6.331  -2.577   4.392 -5.0075  1.3651 -0.6798
   12CHTO   C51 4947   6.450  -2.384   4.562 -0.4452 -0.3692 -0.0262
   12CHTO   H93 4948   6.454  -2.350   4.459  0.8104  3.0503  1.1147
   12CHTO   O30 4949   6.564  -2.347   4.637  0.4376 -0.7237  0.3052
   12CHTO   C46 4950   6.691  -2.407   4.585 -0.8885 -0.8440 -0.0952
   12CHTO   H88 4951   6.705  -2.383   4.480 -1.0493  1.6776  0.4360
   12CHTO   C53 4952   6.815  -2.355   4.663  0.2475  0.4506 -0.1874
   12CHTO   O72 4953   6.871  -2.236   4.614 -0.0040 -0.1954  0.5711
   12CHTO  H199 4954   6.911  -2.254   4.531  3.0064  2.4817  1.3169
   12CHTO   O22 4955   6.342  -2.319   4.631  0.2767  0.1368  0.5451
   12CHTO   C31 4956   6.324  -2.174   4.659 -0.1895  0.0524  1.1119
   12CHTO   H59 4957   6.233  -2.167   4.722 -1.1672 -1.2352 -0.1286
   12CHTO   C29 4958   6.438  -2.105   4.739 -0.0751  0.3200 -0.1891
   12CHTO   H57 4959   6.533  -2.107   4.684 -0.5352  2.0917 -1.1060
   12CHTO   O21 4960   6.460  -2.176   4.865 -0.0429  0.6914  0.8343
   12CHTO   H37 4961   6.548  -2.201   4.881  0.0730  0.6593  0.1505
   12CHTO   C27 4962   6.394  -1.961   4.769 -0.2856 -0.0783 -0.7583
   12CHTO   H55 4963   6.304  -1.965   4.831  0.5045 -0.8663  0.3702
   12CHTO    N5 4964   6.498  -1.875   4.845  0.1474 -0.0618 -0.1513
   12CHTO   H43 4965   6.577  -1.933   4.889  0.2354  0.2567  0.1006
   12CHTO   H44 4966   6.527  -1.791   4.783  1.0841 -1.0622 -1.0838
   12CHTO   C25 4967   6.334  -1.878   4.645  0.1198  0.0547 -0.3079
   12CHTO   H53 4968   6.420  -1.843   4.587 -0.0381  3.9600  1.6243
   12CHTO   O17 4969   6.249  -1.966   4.557 -0.0446  0.3976 -0.5952
   12CHTO   C32 4970   6.297  -2.094   4.534 -0.2135  0.0872  0.0067
   12CHTO   H60 4971   6.391  -2.074   4.483  0.7659 -1.5985  1.0930
   12CHTO   C36 4972   6.190  -2.160   4.443 -0.2749  0.3859 -0.6832
   12CHTO   O25 4973   6.252  -2.226   4.337 -0.0361 -0.3046  0.7129
   12CHTO   H40 4974   6.205  -2.210   4.258  1.0418  0.4859  0.2285
   12CHTO   O15 4975   6.248  -1.743   4.687  0.2418 -0.5810 -0.1417
   12CHTO   C19 4976   6.107  -1.706   4.659 -0.3922 -0.5265  0.2307
   12CHTO   H47 4977   6.092  -1.628   4.736 -0.6873 -0.6399  0.2878
   12CHTO   C20 4978   6.083  -1.637   4.522 -0.3039 -0.1275  0.1460
   12CHTO   H48 4979   6.095  -1.708   4.439  0.6022  1.7446 -1.3848
   12CHTO   O19 4980   6.170  -1.524   4.497  0.7269 -0.1814  0.2081
   12CHTO   H35 4981   6.160  -1.452   4.556  0.4054  0.6099 -0.7796
   12CHTO   C21 4982   5.928  -1.593   4.524  0.0018  0.3955 -0.2578
   12CHTO   H49 4983   5.913  -1.528   4.610  2.0830 -0.1221  0.5133
   12CHTO    N4 4984   5.892  -1.535   4.395  0.4370 -0.4209 -0.7268
   12CHTO   H41 4985   5.795  -1.487   4.391 -0.3196 -2.0278 -2.4168
   12CHTO   H42 4986   5.971  -1.470   4.362  0.9286  1.0936  3.1712
   12CHTO   C22 4987   5.841  -1.719   4.555  0.1532 -0.1152  0.3800
   12CHTO   H50 4988   5.864  -1.788   4.474 -3.2459  0.5527 -1.2349
   12CHTO   O14 4989   5.873  -1.774   4.687 -0.5473 -0.2650  0.0953
   12CHTO   C23 4990   6.014  -1.821   4.695 -0.2059  0.1341 -0.2846
   12CHTO   H51 4991   6.024  -1.905   4.626  2.5128  0.6336 -0.5450
   12CHTO   C34 4992   6.034  -1.879   4.838  0.3273 -0.7585  0.1966
   12CHTO   O23 4993   6.000  -2.017   4.831 -0.0857  0.8999 -0.8321
   12CHTO   H38 4994   6.071  -2.077   4.823 -1.2949 -0.5254 -1.1140
   12CHTO   O16 4995   5.695  -1.700   4.561 -0.8301 -0.5320 -0.1718
   12CHTO   C24 4996   5.615  -1.801   4.482 -0.3223 -0.0559 -0.3471
   12CHTO   H52 4997   5.660  -1.900   4.488  1.7733  1.0348  3.6521
   12CHTO   C26 4998   5.609  -1.771   4.330 -0.1853  0.4570  0.1854
   12CHTO   H54 4999   5.576  -1.665   4.318  0.4041  0.8325  1.7238
   12CHTO   O20 5000   5.739  -1.807   4.269 -0.8819  0.5909  0.5329
   12CHTO   H36 5001   5.807  -1.758   4.310 -0.8247 -0.6973  2.0119
   12CHTO   C30 5002   5.499  -1.852   4.254  0.4304 -0.1541 -0.6104
   12CHTO   H58 5003   5.525  -1.959   4.243 -0.6814 -0.3476 -1.4557
   12CHTO    N6 5004   5.484  -1.807   4.113  0.3710  0.0696  0.0254
   12CHTO   H45 5005   5.460  -1.889   4.047 -1.2495  0.8158 -0.3442
   12CHTO   H46 5006   5.407  -1.732   4.102 -1.8601 -1.8386  1.8648
   12CHTO   C33 5007   5.369  -1.850   4.337 -0.3065 -0.5091 -0.0755
   12CHTO   H61 5008   5.327  -1.749   4.351  0.4897 -0.1921  0.0430
   12CHTO   O18 5009   5.396  -1.898   4.466  0.0412 -0.2820 -0.2954
   12CHTO   C28 5010   5.474  -1.808   4.548  0.0300 -1.1683 -0.3089
   12CHTO   H56 5011   5.434  -1.706   4.549 -0.9059 -1.5409  0.5506
   12CHTO   C35 5012   5.485  -1.864   4.693 -0.5078  0.3877 -0.6856
   12CHTO   O24 5013   5.365  -1.844   4.766 -0.0622 -0.2007 -0.6691
   12CHTO   H39 5014   5.307  -1.917   4.758  1.3922 -1.7583  2.3199
   12CHTO    O9 5015   5.261  -1.922   4.276 -0.1670  0.3424  0.1912
   12CHTO   C13 5016   5.291  -2.087   4.275  0.4454  0.2136 -0.1198
   12CHTO   H26 5017   5.383  -2.110   4.333  0.4347  1.2600  0.3207
   12CHTO   C11 5018   5.300  -2.142   4.126  0.4136 -0.0141  0.0342
   12CHTO   H24 5019   5.386  -2.103   4.070 -0.8382 -2.1116 -3.5453
   12CHTO    O8 5020   5.179  -2.094   4.053  0.3019 -0.1599 -0.0694
   12CHTO    H3 5021   5.111  -2.157   4.063 -0.8044  1.0802  0.2729
   12CHTO    C9 5022   5.302  -2.300   4.130  0.1314  0.1123  0.9589
   12CHTO   H22 5023   5.386  -2.325   4.196 -0.2708  2.6535  2.4989
   12CHTO    N2 5024   5.326  -2.365   3.995 -0.3080 -0.1355  0.3684
   12CHTO   H10 5025   5.361  -2.468   3.998 -0.3308 -0.2986 -3.2926
   12CHTO   H11 5026   5.242  -2.356   3.928 -0.1497 -1.5793 -0.0382
   12CHTO    C7 5027   5.170  -2.361   4.203  0.0672  0.2352  0.4768
   12CHTO   H20 5028   5.217  -2.428   4.278  0.6657  0.0244 -0.0855
   12CHTO    O4 5029   5.099  -2.250   4.269 -0.3788  0.1469 -0.1826
   12CHTO   C14 5030   5.175  -2.166   4.356  0.4885  0.3854  0.2548
   12CHTO   H27 5031   5.212  -2.235   4.435 -2.1638 -0.9391  0.4046
   12CHTO   C18 5032   5.068  -2.071   4.423  0.1267  0.0419 -0.1790
   12CHTO   O13 5033   4.992  -2.125   4.532 -0.0601  0.7069  0.4686
   12CHTO    H7 5034   4.967  -2.212   4.510 -0.7067  0.5691  1.6604
   12CHTO    O2 5035   5.049  -2.450   4.090 -0.8262  0.1558 -0.4003
   12CHTO    C1 5036   4.992  -2.562   4.158  1.2322  0.3194  0.6976
   12CHTO   H14 5037   5.006  -2.559   4.269  1.4778 -1.2071  0.7237
   12CHTO    C2 5038   5.055  -2.704   4.109  0.3428 -0.4545 -0.1479
   12CHTO   H15 5039   5.059  -2.707   3.999 -1.7836 -1.4618 -0.2144
   12CHTO    O6 5040   5.188  -2.706   4.163  0.3216 -0.3080 -0.4227
   12CHTO    H1 5041   5.236  -2.757   4.100  0.8316  1.7553 -1.7820
   12CHTO    C3 5042   4.968  -2.831   4.170  0.5256 -0.6044  0.4602
   12CHTO   H16 5043   4.997  -2.831   4.277 -0.1083 -1.6030  0.6359
   12CHTO    N1 5044   4.998  -2.970   4.124  0.0645  0.0101  0.3776
   12CHTO    H8 5045   5.106  -2.963   4.114 -0.1545  1.3644 -1.3584
   12CHTO    H9 5046   4.971  -2.982   4.020  0.5670 -1.5541  0.4148
   12CHTO    C4 5047   4.814  -2.803   4.158 -0.0729  0.4212  0.2222
   12CHTO   H17 5048   4.786  -2.815   4.053  1.0152 -2.0103  0.1548
   12CHTO    O1 5049   4.772  -2.671   4.203  0.0107 -0.6427 -0.7186
   12CHTO    C5 5050   4.834  -2.559   4.135  0.0584  0.8245  0.1679
   12CHTO   H18 5051   4.817  -2.581   4.030  3.0355 -1.6403  0.1201
   12CHTO   C16 5052   4.785  -2.418   4.170  0.2485 -0.3559  0.5782
   12CHTO   O11 5053   4.646  -2.398   4.146 -0.6564  0.0657 -0.0039
   12CHTO    H5 5054   4.597  -2.413   4.224 -1.0565 -0.7115 -0.3912
   12CHTO    O3 5055   4.744  -2.896   4.241  0.3275  0.2162 -0.0976
   12CHTO    C6 5056   4.602  -2.921   4.226  0.2203  0.2627  0.0738
   12CHTO   H19 5057   4.555  -2.848   4.160  1.8437 -0.3749 -1.8632
   12CHTO    C8 5058   4.592  -3.057   4.164 -0.1452  0.2735  0.6984
   12CHTO   H21 5059   4.656  -3.128   4.216  1.9180 -1.0587 -3.4539
   12CHTO    O7 5060   4.644  -3.040   4.029  0.9382  0.2244 -0.5232
   12CHTO    H2 5061   4.602  -2.977   3.974 -2.7370 -2.7823 -1.4024
   12CHTO   C12 5062   4.446  -3.112   4.149 -0.6537 -0.2244  0.1618
   12CHTO   H25 5063   4.387  -3.059   4.071  0.6824 -0.3666 -0.9638
   12CHTO    N3 5064   4.429  -3.248   4.097 -0.0696  0.5539  0.7601
   12CHTO   H12 5065   4.324  -3.269   4.087  0.2868 -1.1520  0.3521
   12CHTO   H13 5066   4.484  -3.323   4.151 -0.9810 -0.2718  0.5540
   12CHTO   C15 5067   4.378  -3.098   4.288 -0.5895 -0.2348 -0.0944
   12CHTO   H28 5068   4.412  -3.174   4.358  0.9023  0.5520  0.0460
   12CHTO   O10 5069   4.223  -3.120   4.289  0.4038 -0.1198  0.2083
   12CHTO    H4 5070   4.207  -3.196   4.237 -1.6552  1.5685 -1.7363
   12CHTO    O5 5071   4.392  -2.969   4.333  0.5657 -0.0038  0.6236
   12CHTO   C10 5072   4.526  -2.921   4.363 -0.0783  1.1091  0.3582
   12CHTO   H23 5073   4.566  -2.989   4.438 -1.4798  0.6362  0.6813
   12CHTO   C17 5074   4.505  -2.782   4.423 -0.2760  0.0136  0.4616
   12CHTO   O12 5075   4.465  -2.683   4.329  0.4907  0.1533 -0.1494
   12CHTO    H6 5076   4.529  -2.670   4.262  1.3056  1.9131  0.9197
   13CHTO  H203 5077   7.670   3.828   1.509  0.0642 -1.6054 -0.7824
   13CHTO   O82 5078   7.689   3.867   1.592 -0.9628 -0.5104 -1.0390
   13CHTO  C123 5079   7.684   4.011   1.586 -0.2140  0.8924  0.5432
   13CHTO  H227 5080   7.750   4.052   1.509 -0.9935  0.0868 -0.5763
   13CHTO   O77 5081   7.550   4.021   1.539 -0.6260 -0.2619  0.4636
   13CHTO  C118 5082   7.502   4.153   1.516  0.3916 -0.4931 -1.1727
   13CHTO  H222 5083   7.568   4.195   1.439  0.9278  0.9258  0.0328
   13CHTO  C125 5084   7.358   4.144   1.463  0.5197 -0.3641  0.5566
   13CHTO   O84 5085   7.351   4.059   1.353  0.4964 -0.6296 -0.0684
   13CHTO  H205 5086   7.328   4.116   1.282 -1.4892 -1.7913 -0.3832
   13CHTO  C114 5087   7.509   4.237   1.647  0.3359 -0.4551 -0.5717
   13CHTO  H218 5088   7.445   4.189   1.721 -1.3275  0.2735 -1.5213
   13CHTO  C116 5089   7.649   4.233   1.704 -0.1949 -0.1264 -0.0994
   13CHTO  H220 5090   7.710   4.283   1.626 -0.1067  0.8654  0.5976
   13CHTO   O79 5091   7.647   4.312   1.818 -0.7234 -0.2914  0.2615
   13CHTO  H201 5092   7.607   4.267   1.890 -0.7210  1.7472  1.5539
   13CHTO  C120 5093   7.693   4.083   1.728 -0.4616  0.0059  0.0639
   13CHTO  H224 5094   7.619   4.036   1.797 -1.5297  0.6467 -0.6259
   13CHTO   N21 5095   7.822   4.084   1.797  0.0027 -0.1120  0.0444
   13CHTO  H211 5096   7.820   4.077   1.905 -0.8800  0.0643  0.0358
   13CHTO  H212 5097   7.880   4.006   1.749  2.3214  0.5420  1.6810
   13CHTO   O75 5098   7.448   4.368   1.626  0.4060  0.0224 -0.3882
   13CHTO  C112 5099   7.342   4.442   1.735  0.0164  0.1267 -0.2662
   13CHTO  H216 5100   7.396   4.457   1.830 -0.1198 -1.2604  0.0357
   13CHTO   O73 5101   7.232   4.351   1.753  0.8991 -0.2502  0.4097
   13CHTO  C113 5102   7.137   4.401   1.844 -0.1599 -0.1772  0.1882
   13CHTO  H217 5103   7.188   4.421   1.940  1.7689 -1.2678 -0.5771
   13CHTO  C124 5104   7.032   4.290   1.863  0.2194  0.2010  0.3166
   13CHTO   O83 5105   7.078   4.181   1.946  0.1049  0.0721  0.1118
   13CHTO  H204 5106   7.041   4.098   1.921  1.2991 -0.0456 -1.3471
   13CHTO  C109 5107   7.070   4.528   1.807  0.4967 -0.3703 -0.3991
   13CHTO  H213 5108   7.010   4.505   1.718 -1.0619 -2.2603  1.1055
   13CHTO  C110 5109   7.173   4.643   1.774  0.7127 -0.1436  0.2498
   13CHTO  H214 5110   7.216   4.671   1.870  0.5212  0.6688  0.1003
   13CHTO   O78 5111   7.116   4.759   1.713  0.2930 -0.2293 -0.2794
   13CHTO  H200 5112   7.188   4.813   1.684  0.8208 -1.9643 -2.3656
   13CHTO  C111 5113   7.289   4.582   1.685  0.1691  0.1265  0.6197
   13CHTO  H215 5114   7.247   4.556   1.587 -0.9150  1.7776  0.6364
   13CHTO   N19 5115   7.401   4.678   1.657  0.1275  0.6702  0.3649
   13CHTO  H207 5116   7.491   4.676   1.715  1.6331  0.5927 -1.9125
   13CHTO  H208 5117   7.414   4.699   1.552 -0.6489  4.0838  0.8812
   13CHTO   O74 5118   6.986   4.581   1.918 -0.0870 -0.2194 -0.0034
   13CHTO  C115 5119   6.863   4.636   1.863  0.1758  0.5834  0.1780
   13CHTO  H219 5120   6.876   4.663   1.758  3.0239  0.5064  0.4778
   13CHTO   O76 5121   6.756   4.528   1.860 -0.0260 -0.7745  0.0534
   13CHTO  C122 5122   6.675   4.507   1.979 -0.1034 -0.9529  0.3175
   13CHTO  H226 5123   6.739   4.489   2.065 -1.2583  1.1395  1.6721
   13CHTO  C126 5124   6.582   4.376   1.962 -0.0681 -0.3101 -0.4134
   13CHTO   O85 5125   6.651   4.260   1.911  0.5520  0.0812  0.0455
   13CHTO  H206 5126   6.659   4.200   1.983  1.6717  1.0676  0.7739
   13CHTO  C121 5127   6.593   4.645   2.011  0.4918 -0.3958  0.0378
   13CHTO  H225 5128   6.494   4.626   1.965 -0.7821  0.1285  2.5156
   13CHTO   O81 5129   6.590   4.654   2.152  0.1694  0.5954 -0.3753
   13CHTO  H202 5130   6.549   4.577   2.186  0.7223  0.7630  0.6974
   13CHTO  C119 5131   6.658   4.777   1.954 -0.0355  0.2013 -0.0356
   13CHTO  H223 5132   6.627   4.787   1.850 -0.0029  0.2374 -0.0418
   13CHTO  C117 5133   6.819   4.767   1.953 -0.2613  0.2507  0.0097
   13CHTO  H221 5134   6.875   4.753   2.045 -2.5389 -0.4661  1.3203
   13CHTO   N20 5135   6.875   4.892   1.888  0.0271  0.1860  0.5034
   13CHTO  H209 5136   6.959   4.931   1.944  0.8081 -0.4122 -0.2275
   13CHTO  H210 5137   6.804   4.958   1.841  0.5105 -0.2968 -0.9345
   13CHTO   O80 5138   6.587   4.904   2.010 -0.1011 -0.1418 -0.3675
   13CHTO  C103 5139   6.437   4.949   1.956  0.1104 -0.3243 -0.1301
   13CHTO  H190 5140   6.428   5.057   1.969 -3.4156 -0.7372  1.3578
   13CHTO  C101 5141   6.399   4.892   1.806 -0.1301 -0.3980  0.4191
   13CHTO  H188 5142   6.411   4.784   1.802 -0.6560 -0.4128 -1.4845
   13CHTO   O68 5143   6.499   4.971   1.712 -0.2356 -0.2227 -0.1507
   13CHTO  H168 5144   6.477   5.061   1.723  0.3460 -0.0486 -0.4411
   13CHTO   C99 5145   6.242   4.924   1.779  0.0010  0.5673 -0.5291
   13CHTO  H186 5146   6.227   5.034   1.773  0.4575  0.5936 -1.3849
   13CHTO   N17 5147   6.201   4.876   1.641  0.2316  0.5771  0.3301
   13CHTO  H174 5148   6.152   4.781   1.656  0.9452  0.2422  0.5626
   13CHTO  H175 5149   6.124   4.942   1.603  0.9524  0.1333 -1.9884
   13CHTO   C97 5150   6.151   4.870   1.890 -0.0373  0.2579 -0.2426
   13CHTO  H184 5151   6.139   4.761   1.896  3.6172 -0.0626  2.9330
   13CHTO   O64 5152   6.200   4.919   2.011  0.4363 -0.3950 -0.1778
   13CHTO  C104 5153   6.333   4.892   2.052 -0.6222 -0.3021 -0.0123
   13CHTO  H191 5154   6.342   4.783   2.053  2.2027 -0.0911  1.3476
   13CHTO  C108 5155   6.327   4.937   2.204 -0.1467  0.3963  0.0918
   13CHTO   O71 5156   6.458   4.939   2.271  0.9146  0.5263 -0.0360
   13CHTO  H171 5157   6.497   5.022   2.248  0.5181  0.7816  0.1979
   13CHTO   O62 5158   6.019   4.932   1.884  0.3645 -0.2971 -0.2824
   13CHTO   C91 5159   5.903   4.849   1.918  0.4679 -1.0375 -0.0477
   13CHTO  H178 5160   5.937   4.765   1.977 -0.1726 -1.6932 -0.6082
   13CHTO   C92 5161   5.835   4.789   1.794 -0.2937 -0.7415  1.4046
   13CHTO  H179 5162   5.789   4.863   1.726  0.8824 -1.3226 -0.0517
   13CHTO   O66 5163   5.931   4.714   1.718 -0.5426  0.2436 -0.1849
   13CHTO  H166 5164   5.889   4.662   1.652 -0.2247 -1.3014  0.8140
   13CHTO   C93 5165   5.715   4.697   1.831  0.1342 -0.9849 -0.0485
   13CHTO  H180 5166   5.767   4.615   1.881  0.8033 -0.9323 -0.6465
   13CHTO   N16 5167   5.638   4.633   1.719 -0.0008  0.3336 -0.2344
   13CHTO  H172 5168   5.548   4.591   1.761  0.0572 -1.7633 -2.1124
   13CHTO  H173 5169   5.617   4.713   1.650  0.5619  0.0405 -0.7442
   13CHTO   C94 5170   5.620   4.778   1.938 -0.2097  0.0557  0.0633
   13CHTO  H181 5171   5.569   4.865   1.897  0.6363  1.7135  2.3614
   13CHTO   O61 5172   5.698   4.830   2.047  0.3338  0.1515  0.3056
   13CHTO   C95 5173   5.798   4.924   2.009  0.4729  0.1004 -0.2161
   13CHTO  H182 5174   5.748   5.000   1.949 -1.2839 -0.5870  0.3497
   13CHTO  C106 5175   5.865   4.990   2.131 -0.2569  0.4491 -0.4994
   13CHTO   O69 5176   5.944   4.904   2.212 -0.1027  0.7872 -0.2493
   13CHTO  H169 5177   5.994   4.953   2.275  0.9291  0.5582 -0.8754
   13CHTO   O63 5178   5.521   4.676   2.000 -0.6353  0.3602 -0.1188
   13CHTO   C96 5179   5.386   4.747   2.077 -0.6066 -0.4548 -0.7759
   13CHTO  H183 5180   5.349   4.821   2.006 -2.4567  0.3493  0.9787
   13CHTO   C98 5181   5.430   4.805   2.216 -0.7786  0.6470 -0.6023
   13CHTO  H185 5182   5.512   4.879   2.214 -1.3158  1.3451  1.6394
   13CHTO   O67 5183   5.310   4.881   2.252 -0.5832  0.6391  0.0789
   13CHTO  H167 5184   5.226   4.839   2.251 -0.0993 -0.3021 -0.9280
   13CHTO  C102 5185   5.462   4.694   2.321 -0.1168  0.5477 -0.2647
   13CHTO  H189 5186   5.446   4.747   2.416 -0.4083 -1.0258  0.5733
   13CHTO   N18 5187   5.601   4.646   2.328 -0.1488  0.1263 -0.3971
   13CHTO  H176 5188   5.614   4.580   2.411  1.3527 -0.2196 -0.8931
   13CHTO  H177 5189   5.664   4.732   2.347 -0.0220  0.0168 -0.3250
   13CHTO  C105 5190   5.356   4.579   2.317  0.0864  0.1554 -0.2474
   13CHTO  H192 5191   5.400   4.487   2.279  0.6435  1.0939 -1.8976
   13CHTO   O65 5192   5.243   4.607   2.228 -0.4491 -0.1859 -0.0101
   13CHTO  C100 5193   5.274   4.634   2.092 -0.4877 -0.2180  0.0102
   13CHTO  H187 5194   5.318   4.539   2.059 -2.4932 -1.4365  0.7091
   13CHTO  C107 5195   5.142   4.670   2.020  0.1607  0.1970  0.2432
   13CHTO   O70 5196   5.168   4.672   1.877 -0.0750 -0.1967 -0.3846
   13CHTO  H170 5197   5.113   4.605   1.841 -1.6469 -0.9553  3.1782
   13CHTO   O57 5198   5.311   4.561   2.477  0.4699 -0.3711 -0.6198
   13CHTO   C85 5199   5.246   4.441   2.524 -0.0090  0.7023  0.0263
   13CHTO  H157 5200   5.257   4.368   2.441 -0.9449  0.7191 -0.1112
   13CHTO   C83 5201   5.092   4.470   2.551  0.9629  0.4873 -0.2710
   13CHTO  H155 5202   5.042   4.500   2.459 -1.5771 -0.1220  0.8652
   13CHTO   O56 5203   5.075   4.584   2.640  0.3257  0.3145 -0.3464
   13CHTO  H135 5204   4.983   4.601   2.645  0.9033  3.3961  0.8978
   13CHTO   C81 5205   5.026   4.336   2.603  0.2169  0.5734 -0.2753
   13CHTO  H153 5206   5.038   4.262   2.524 -0.3276  1.5761 -1.3095
   13CHTO   N14 5207   4.880   4.330   2.618 -0.1851  0.5089 -0.3828
   13CHTO  H141 5208   4.834   4.240   2.581  0.9845 -0.2880  0.0820
   13CHTO  H142 5209   4.834   4.414   2.570  2.0868  1.5311 -0.8149
   13CHTO   C79 5210   5.101   4.275   2.727  0.5734 -0.0770 -0.3664
   13CHTO  H151 5211   5.058   4.175   2.739  0.3961 -0.3880 -3.2430
   13CHTO   O52 5212   5.244   4.261   2.707 -0.2179  0.6344 -0.6155
   13CHTO   C86 5213   5.309   4.387   2.651 -0.1743  0.7741  0.2817
   13CHTO  H158 5214   5.290   4.457   2.735  0.7348  1.5491 -0.1616
   13CHTO   C90 5215   5.466   4.375   2.644  0.1531 -0.0266 -0.2494
   13CHTO   O60 5216   5.515   4.331   2.776  0.2563  0.1049  0.0802
   13CHTO  H138 5217   5.599   4.371   2.783  0.2790  0.0105  0.3692
   13CHTO   O50 5218   5.081   4.348   2.851 -0.4069 -0.4209  0.0985
   13CHTO   C73 5219   5.021   4.299   2.966 -0.9833 -0.2976 -0.0588
   13CHTO  H145 5220   5.014   4.189   2.969  0.0499 -0.3423  1.1632
   13CHTO   C74 5221   4.878   4.345   2.973  0.5326 -0.3942 -0.1338
   13CHTO  H146 5222   4.821   4.308   2.887  0.6765 -0.9935  0.0287
   13CHTO   O54 5223   4.808   4.277   3.077 -0.3745  0.1465  0.0239
   13CHTO  H133 5224   4.851   4.307   3.154  2.0406  0.5530 -1.4389
   13CHTO   C75 5225   4.875   4.503   2.979 -0.0358  0.0156 -0.2293
   13CHTO  H147 5226   4.926   4.540   2.888 -0.9063  0.6431 -0.4695
   13CHTO   N13 5227   4.745   4.570   2.972  0.4154  0.4425 -0.5022
   13CHTO  H139 5228   4.668   4.496   2.955 -1.6540  2.5817 -0.6957
   13CHTO  H140 5229   4.748   4.639   2.889 -1.6487  0.3715 -0.6425
   13CHTO   C76 5230   4.955   4.545   3.112  0.1206 -0.6236  0.2594
   13CHTO  H148 5231   4.893   4.512   3.194  1.3206  1.0160  1.8831
   13CHTO   O49 5232   5.088   4.482   3.112 -0.0994  0.0546 -0.0637
   13CHTO   C77 5233   5.090   4.340   3.103  1.1830  0.1797 -0.2681
   13CHTO  H149 5234   5.025   4.303   3.182  0.1122 -1.2314 -1.7602
   13CHTO   C88 5235   5.229   4.282   3.138  0.0144 -0.3229 -0.2541
   13CHTO   O58 5236   5.345   4.310   3.023  0.4325  0.2979 -0.2905
   13CHTO  H136 5237   5.404   4.380   3.044 -0.6220  1.2506 -0.3949
   13CHTO   O51 5238   4.989   4.721   3.103 -0.0257  0.1809  0.4031
   13CHTO   C78 5239   5.081   4.762   3.238  0.6337 -0.0056  1.5774
   13CHTO  H150 5240   5.141   4.674   3.269 -0.8165 -1.2171  0.9685
   13CHTO   C80 5241   5.003   4.809   3.355  0.3163  0.2235 -0.7141
   13CHTO  H152 5242   4.953   4.906   3.335 -1.0759 -0.5029 -0.8460
   13CHTO   O55 5243   4.909   4.704   3.380 -0.0641 -0.1037 -0.6325
   13CHTO  H134 5244   4.834   4.727   3.328 -0.8249  0.6769  0.7645
   13CHTO   C84 5245   5.097   4.827   3.483  0.0351  0.3223 -0.4271
   13CHTO  H156 5246   5.133   4.728   3.513 -0.5028 -0.2066 -1.4944
   13CHTO   N15 5247   5.025   4.887   3.606  0.3351 -0.1023  0.4957
   13CHTO  H143 5248   5.062   4.988   3.606 -1.2801  0.5173 -2.0950
   13CHTO  H144 5249   5.057   4.834   3.693  2.5979  0.1439 -0.1533
   13CHTO   C87 5250   5.218   4.913   3.443  0.2519 -0.0704  0.4531
   13CHTO  H159 5251   5.190   5.019   3.443 -0.8783 -0.3539 -0.4490
   13CHTO   O53 5252   5.287   4.873   3.301 -0.2065 -0.1418 -0.1231
   13CHTO   C82 5253   5.188   4.869   3.196  0.0182  0.4025 -0.1292
   13CHTO  H154 5254   5.138   4.962   3.172 -0.8872  0.8356  3.2629
   13CHTO   C89 5255   5.256   4.816   3.068  0.0895 -0.4359 -0.1877
   13CHTO   O59 5256   5.322   4.690   3.093 -0.0957  0.5233  0.4973
   13CHTO  H137 5257   5.334   4.643   3.013 -2.1967 -0.4172  0.6918
   13CHTO   O45 5258   5.343   4.887   3.563 -0.0877  0.5785 -0.1109
   13CHTO   C67 5259   5.479   4.854   3.539  0.7375  0.5426 -0.1126
   13CHTO  H124 5260   5.494   4.790   3.452 -0.7825  0.1869 -0.1299
   13CHTO   C65 5261   5.565   4.990   3.530 -0.2306  0.3075 -0.3412
   13CHTO  H122 5262   5.505   5.072   3.569  0.9803  0.5688  1.0096
   13CHTO   O44 5263   5.594   5.019   3.393  0.2197 -0.6194  0.3139
   13CHTO  H102 5264   5.682   5.004   3.364  0.7062 -1.2212  2.0923
   13CHTO   C63 5265   5.696   4.980   3.619 -0.0237 -0.1722 -0.5221
   13CHTO  H120 5266   5.677   4.988   3.726  0.1215 -0.5298 -0.4692
   13CHTO   N11 5267   5.784   5.100   3.606  0.1261  0.2792 -0.3924
   13CHTO  H108 5268   5.726   5.187   3.633  0.1925  0.2438 -0.1385
   13CHTO  H109 5269   5.875   5.097   3.662  0.2087  1.2746 -0.4578
   13CHTO   C61 5270   5.762   4.841   3.605 -1.0311  0.3610 -0.1797
   13CHTO  H118 5271   5.852   4.838   3.669  0.1204  1.1092 -1.7157
   13CHTO   O40 5272   5.666   4.741   3.660 -0.2835  0.3794 -0.5913
   13CHTO   C68 5273   5.518   4.766   3.658  0.7853  0.2195 -0.1626
   13CHTO  H125 5274   5.503   4.812   3.757  1.4006 -1.1869  0.5922
   13CHTO   C72 5275   5.448   4.628   3.660 -0.2069 -0.2943  0.7741
   13CHTO   O48 5276   5.310   4.647   3.696  0.0616 -0.3337  0.5961
   13CHTO  H105 5277   5.308   4.667   3.788 -0.8603  1.3715  0.2160
   13CHTO   O38 5278   5.806   4.802   3.474 -0.7223  0.4400 -0.1977
   13CHTO   C55 5279   5.934   4.735   3.453  0.3279  0.6755  0.2416
   13CHTO  H112 5280   5.933   4.707   3.347  0.1076 -0.8338  0.6267
   13CHTO   C56 5281   5.955   4.610   3.550  0.3460 -0.2634  0.2846
   13CHTO  H113 5282   5.953   4.641   3.656  0.9076 -1.6983  0.7148
   13CHTO   O42 5283   5.845   4.514   3.540  0.0160  0.1686  0.2362
   13CHTO  H100 5284   5.759   4.548   3.528  0.2284 -0.0049 -1.9671
   13CHTO   C57 5285   6.092   4.529   3.507 -0.4465  0.1024 -0.5782
   13CHTO  H114 5286   6.073   4.511   3.402 -1.9609  2.9171 -0.8450
   13CHTO   N10 5287   6.118   4.407   3.589  0.2832 -0.1291  0.0400
   13CHTO  H106 5288   6.088   4.431   3.689  1.3707  0.8406  0.1435
   13CHTO  H107 5289   6.224   4.386   3.584  0.4591  0.8891 -0.6451
   13CHTO   C58 5290   6.209   4.630   3.517 -0.2605  0.2511  0.5772
   13CHTO  H115 5291   6.229   4.668   3.619  0.1119  0.7486  0.3227
   13CHTO   O37 5292   6.179   4.742   3.436  0.9575 -0.8458 -0.5848
   13CHTO   C59 5293   6.062   4.825   3.470 -0.2859 -0.0505  0.0365
   13CHTO  H116 5294   6.067   4.859   3.573  1.8368 -1.1823  0.3241
   13CHTO   C70 5295   6.061   4.945   3.366 -0.1987  0.2543  0.4923
   13CHTO   O46 5296   6.171   5.038   3.372 -0.0629  0.1053 -0.0131
   13CHTO  H103 5297   6.243   4.985   3.343 -0.5531 -0.6700  0.1727
   13CHTO   O39 5298   6.345   4.582   3.440  0.6415 -0.4472 -0.2864
   13CHTO   C60 5299   6.470   4.638   3.497  0.0654  0.2461 -1.0427
   13CHTO  H117 5300   6.450   4.716   3.570  2.8905  0.4031 -0.3966
   13CHTO   C62 5301   6.556   4.526   3.570 -0.1175  0.1707  0.3412
   13CHTO  H119 5302   6.486   4.477   3.641  0.9783  0.1833  1.4510
   13CHTO   O43 5303   6.610   4.428   3.481 -0.3193 -0.1880 -0.2290
   13CHTO  H101 5304   6.626   4.466   3.396  4.0952 -0.8486  0.1613
   13CHTO   C66 5305   6.677   4.602   3.639 -0.0702 -1.1839  0.1493
   13CHTO  H123 5306   6.637   4.672   3.712 -1.1387  0.9527 -2.3798
   13CHTO   N12 5307   6.759   4.512   3.726  0.1356 -0.0215 -0.1864
   13CHTO  H110 5308   6.732   4.408   3.738  0.4580 -0.3164 -1.8703
   13CHTO  H111 5309   6.837   4.554   3.787 -1.3646  0.6455  1.3031
   13CHTO   C69 5310   6.770   4.679   3.535 -0.1100 -0.2781 -0.5871
   13CHTO  H126 5311   6.829   4.604   3.479 -1.4952 -1.3278 -0.6555
   13CHTO   O41 5312   6.668   4.759   3.428  0.2855 -0.0582 -0.1727
   13CHTO   C64 5313   6.552   4.702   3.382 -0.7701  0.1198  0.0276
   13CHTO  H121 5314   6.581   4.620   3.313  1.3291  0.2810  0.6824
   13CHTO   C71 5315   6.471   4.803   3.302  0.1257 -0.4855 -0.8594
   13CHTO   O47 5316   6.438   4.921   3.375  0.1965  0.2564  0.4152
   13CHTO  H104 5317   6.427   4.897   3.465  1.5380 -0.9200  0.2798
   13CHTO   O34 5318   6.868   4.780   3.594  0.6750 -0.2847  0.2392
   13CHTO   C49 5319   6.975   4.861   3.487  0.4295 -0.5177 -0.4355
   13CHTO   H91 5320   7.007   4.785   3.416  2.4224  0.2861 -0.4543
   13CHTO   C47 5321   7.091   4.907   3.572  0.8966  0.3076 -0.2249
   13CHTO   H89 5322   7.162   4.942   3.494  0.1843  2.2676 -0.0167
   13CHTO   O33 5323   7.156   4.802   3.645  0.0445 -0.2185  0.1128
   13CHTO   H70 5324   7.217   4.837   3.708  0.4711  2.3412 -1.6666
   13CHTO   C45 5325   7.045   5.032   3.669 -0.2245  0.0530  0.0057
   13CHTO   H87 5326   7.009   4.983   3.760 -1.4087 -2.3478 -1.6822
   13CHTO    N8 5327   7.172   5.105   3.698  0.0829 -0.0650  0.5487
   13CHTO   H75 5328   7.164   5.212   3.685 -0.0691 -0.3332 -1.7067
   13CHTO   H76 5329   7.201   5.074   3.798  0.3155 -1.5710  0.0204
   13CHTO   C43 5330   6.914   5.118   3.619  0.2304  0.3648  0.7348
   13CHTO   H85 5331   6.829   5.063   3.659  1.6043 -1.7242  0.8699
   13CHTO   O29 5332   6.917   5.113   3.472 -0.0416 -0.7029  0.3257
   13CHTO   C50 5333   6.894   4.979   3.415 -1.1028  0.2531 -0.3091
   13CHTO   H92 5334   6.786   4.961   3.425 -0.7576 -0.5012  2.2700
   13CHTO   C54 5335   6.922   4.993   3.265  0.1433 -0.8305  0.7598
   13CHTO   O36 5336   6.876   4.879   3.193  0.3851 -0.1689 -0.8281
   13CHTO   H72 5337   6.942   4.852   3.132  0.4622  1.1065 -1.3278
   13CHTO   O27 5338   6.890   5.254   3.667  0.4131 -0.1178 -0.3682
   13CHTO   C37 5339   6.767   5.322   3.685  0.2813 -0.7494  0.2330
   13CHTO   H79 5340   6.685   5.256   3.655 -0.5877 -0.2382  1.4575
   13CHTO   C38 5341   6.737   5.358   3.835 -0.2327  0.0698  0.6666
   13CHTO   H80 5342   6.835   5.381   3.880 -0.7641  0.0272  1.8622
   13CHTO   O31 5343   6.697   5.238   3.899  0.5527 -0.2870 -0.2681
   13CHTO   H68 5344   6.606   5.248   3.919  1.0471  0.6985  1.5876
   13CHTO   C39 5345   6.642   5.484   3.861  0.4908  0.9340  0.4157
   13CHTO   H81 5346   6.539   5.449   3.852  0.2349  2.0728 -1.4183
   13CHTO    N7 5347   6.658   5.531   4.006 -0.1339  0.0446  0.1816
   13CHTO   H73 5348   6.763   5.538   4.031  0.3771 -2.1787 -1.1543
   13CHTO   H74 5349   6.607   5.623   4.031 -1.5465 -0.8953  0.7918
   13CHTO   C40 5350   6.663   5.595   3.751 -0.6618 -0.5880 -0.4589
   13CHTO   H82 5351   6.759   5.645   3.769 -0.4120 -2.1294  2.7460
   13CHTO   O26 5352   6.657   5.537   3.620 -0.5815 -0.2756 -0.2627
   13CHTO   C41 5353   6.766   5.446   3.590  0.2528  0.1441  0.6613
   13CHTO   H83 5354   6.858   5.505   3.607  0.5257  0.1648 -0.7697
   13CHTO   C52 5355   6.750   5.415   3.438  0.2081  0.9373 -0.2160
   13CHTO   O35 5356   6.609   5.346   3.433  0.6189  0.4308 -0.3887
   13CHTO   H71 5357   6.552   5.415   3.403 -0.9319 -0.2178  0.9581
   13CHTO   O28 5358   6.557   5.694   3.779  0.6608 -0.1819 -0.2092
   13CHTO   C42 5359   6.566   5.833   3.723 -0.6078 -0.8143  0.4497
   13CHTO   H84 5360   6.627   5.826   3.633 -1.3734  2.0811 -0.3184
   13CHTO   C44 5361   6.640   5.931   3.816  0.1558 -0.0449  0.6113
   13CHTO   H86 5362   6.586   5.924   3.911 -3.3810 -2.6955 -1.4538
   13CHTO   O32 5363   6.767   5.878   3.853  0.0968 -0.4579 -0.0141
   13CHTO   H69 5364   6.826   5.945   3.883  0.2883 -0.7718  0.3114
   13CHTO   C48 5365   6.657   6.079   3.756 -0.2346  0.1200 -0.3920
   13CHTO   H90 5366   6.721   6.077   3.668 -1.0598  0.0329 -0.9950
   13CHTO    N9 5367   6.721   6.172   3.852  0.2170 -0.1445 -0.6196
   13CHTO   H77 5368   6.719   6.273   3.813 -0.6922  0.7341  1.6102
   13CHTO   H78 5369   6.812   6.125   3.885 -0.6833 -2.2558 -1.0943
   13CHTO   C51 5370   6.514   6.126   3.699 -0.4004 -0.7611  0.1378
   13CHTO   H93 5371   6.447   6.150   3.782 -1.5170 -0.7518 -0.7559
   13CHTO   O30 5372   6.463   6.026   3.618  0.1954  1.1605 -0.6518
   13CHTO   C46 5373   6.432   5.900   3.684  0.1636  0.0509  1.5049
   13CHTO   H88 5374   6.375   5.923   3.773 -0.6769  1.0408  0.7219
   13CHTO   C53 5375   6.344   5.810   3.591 -0.2693  0.0362  0.1957
   13CHTO   O72 5376   6.416   5.798   3.466 -0.3233  0.2301  0.4056
   13CHTO  H199 5377   6.368   5.736   3.415  2.8839 -1.9508 -0.0806
   13CHTO   O22 5378   6.518   6.246   3.614 -0.1245  0.2631  0.2715
   13CHTO   C31 5379   6.401   6.334   3.608  0.2550 -0.6250 -0.1030
   13CHTO   H59 5380   6.319   6.282   3.661 -0.2063 -0.2035 -0.3948
   13CHTO   C29 5381   6.415   6.469   3.679 -0.6828 -0.3175 -0.6432
   13CHTO   H57 5382   6.489   6.523   3.618  1.3437  0.3710  2.3334
   13CHTO   O21 5383   6.474   6.453   3.807  0.1423 -0.1788  0.2286
   13CHTO   H37 5384   6.497   6.535   3.847 -0.9484 -0.9678  2.5567
   13CHTO   C27 5385   6.277   6.555   3.685 -0.2004  0.2543 -0.5860
   13CHTO   H55 5386   6.210   6.502   3.755 -0.0043  1.9420  0.9149
   13CHTO    N5 5387   6.295   6.689   3.735  0.2432 -0.3064  0.0626
   13CHTO   H43 5388   6.395   6.728   3.724  0.0999  0.2379  0.6825
   13CHTO   H44 5389   6.288   6.690   3.843  0.4265 -0.4609  0.0747
   13CHTO   C25 5390   6.217   6.547   3.539 -0.3429 -0.4743 -0.1879
   13CHTO   H53 5391   6.268   6.621   3.476 -1.9540 -0.3950 -1.4144
   13CHTO   O17 5392   6.214   6.423   3.469 -0.1896  0.1615 -0.7414
   13CHTO   C32 5393   6.344   6.368   3.467 -0.1355  0.4107  0.2200
   13CHTO   H60 5394   6.416   6.431   3.414  0.0074  0.8887  0.9704
   13CHTO   C36 5395   6.353   6.242   3.379  0.4878  0.6691 -0.0695
   13CHTO   O25 5396   6.325   6.266   3.244  0.0574 -0.2249 -0.1587
   13CHTO   H40 5397   6.299   6.186   3.204 -0.3324 -0.5345  0.7040
   13CHTO   O15 5398   6.048   6.613   3.544 -0.0492 -0.1011 -0.4163
   13CHTO   C19 5399   5.931   6.605   3.628 -0.4601  0.5066 -0.0834
   13CHTO   H47 5400   5.963   6.620   3.733 -0.8534 -0.6719  0.2128
   13CHTO   C20 5401   5.831   6.723   3.602 -0.0853 -0.3249 -0.5551
   13CHTO   H48 5402   5.767   6.706   3.514  1.5974 -1.5944 -1.5656
   13CHTO   O19 5403   5.901   6.845   3.577 -0.3105  0.0678  0.1354
   13CHTO   H35 5404   5.945   6.842   3.495  0.5609 -0.0722  0.5982
   13CHTO   C21 5405   5.733   6.731   3.723  0.3824  0.4194  0.0165
   13CHTO   H49 5406   5.792   6.734   3.815  1.5642 -2.7552 -0.5536
   13CHTO    N4 5407   5.642   6.849   3.720  0.2355  0.1516  0.4212
   13CHTO   H41 5408   5.676   6.926   3.787  0.1186  0.0322  0.6189
   13CHTO   H42 5409   5.621   6.895   3.625  1.2335  1.7235  0.9491
   13CHTO   C22 5410   5.661   6.595   3.739 -0.0921 -0.2949 -0.3028
   13CHTO   H50 5411   5.598   6.577   3.652  0.0115 -0.9294 -0.2445
   13CHTO   O14 5412   5.752   6.482   3.737  0.2181  0.4842 -0.3135
   13CHTO   C23 5413   5.844   6.474   3.624 -0.2059 -0.2313 -0.1777
   13CHTO   H51 5414   5.796   6.458   3.527  0.7220  0.7117 -0.8083
   13CHTO   C34 5415   5.942   6.350   3.645 -0.2010 -0.2677 -0.2469
   13CHTO   O23 5416   5.891   6.221   3.648  0.6259 -0.3910  0.1879
   13CHTO   H38 5417   5.918   6.179   3.728 -0.3259  1.3415  1.4594
   13CHTO   O16 5418   5.590   6.578   3.862  0.1693  0.1176 -0.1085
   13CHTO   C24 5419   5.442   6.512   3.843  0.9453  0.2182  0.3028
   13CHTO   H52 5420   5.441   6.434   3.767 -0.7163  0.1001  0.4255
   13CHTO   C26 5421   5.328   6.613   3.801  0.1326 -0.9544  0.4365
   13CHTO   H54 5422   5.351   6.715   3.839  1.6217 -0.5320 -1.5607
   13CHTO   O20 5423   5.324   6.627   3.657  0.3565  0.3978 -0.2518
   13CHTO   H36 5424   5.378   6.698   3.627  0.1656  0.7302  0.1803
   13CHTO   C30 5425   5.184   6.588   3.849  0.1830  0.2416  0.1792
   13CHTO   H58 5426   5.126   6.520   3.785 -2.0752  2.8287 -0.6631
   13CHTO    N6 5427   5.102   6.713   3.855  0.4535 -0.5230 -0.4785
   13CHTO   H45 5428   5.151   6.777   3.927 -0.7808  0.5698 -0.5868
   13CHTO   H46 5429   5.000   6.693   3.885 -0.6653  3.3189 -1.3446
   13CHTO   C33 5430   5.185   6.528   3.989 -0.4050  0.7758  0.1923
   13CHTO   H61 5431   5.234   6.599   4.057 -0.0095 -1.3803  2.2311
   13CHTO   O18 5432   5.266   6.415   3.989 -0.0526  0.2730 -0.5098
   13CHTO   C28 5433   5.404   6.442   3.978 -0.2051  0.0319  0.0518
   13CHTO   H56 5434   5.445   6.496   4.063 -0.4932  1.1199 -0.4852
   13CHTO   C35 5435   5.482   6.312   3.972  0.0557 -0.6955 -0.7109
   13CHTO   O24 5436   5.611   6.333   4.019 -0.6788 -0.3892  0.3857
   13CHTO   H39 5437   5.611   6.307   4.109  0.1285 -1.2683  0.1421
   13CHTO    O9 5438   5.054   6.498   4.045 -0.3050  0.3777 -0.2567
   13CHTO   C13 5439   5.064   6.489   4.218  0.0184 -0.5927 -0.1090
   13CHTO   H26 5440   5.144   6.556   4.255 -1.3109  1.2912 -0.5829
   13CHTO   C11 5441   5.094   6.332   4.258 -0.6151  0.3223 -0.0079
   13CHTO   H24 5442   5.202   6.318   4.244 -1.0809 -1.9627 -1.5583
   13CHTO    O8 5443   5.019   6.247   4.171  0.6155 -0.0671  0.0882
   13CHTO    H3 5444   5.010   6.157   4.196 -0.5762  0.0099 -0.0372
   13CHTO    C9 5445   5.064   6.321   4.415  0.5806  0.1572  0.2683
   13CHTO   H22 5446   5.114   6.406   4.463  1.2832 -0.2161  0.1979
   13CHTO    N2 5447   5.110   6.199   4.479  0.5899  0.3718  0.3435
   13CHTO   H10 5448   5.108   6.110   4.418  0.9535 -1.8252  3.3968
   13CHTO   H11 5449   5.200   6.209   4.539  0.5666  1.1758  0.2443
   13CHTO    C7 5450   4.905   6.333   4.433 -0.1110 -0.3467  1.0486
   13CHTO   H20 5451   4.891   6.390   4.527  1.5274  1.6363  0.1255
   13CHTO    O4 5452   4.848   6.412   4.324  0.6225  0.3265  0.1093
   13CHTO   C14 5453   4.931   6.526   4.288 -0.1963  0.3191 -0.1676
   13CHTO   H27 5454   4.954   6.571   4.387  3.0046 -3.1741  0.8069
   13CHTO   C18 5455   4.845   6.621   4.208 -0.4549 -0.1552  0.0590
   13CHTO   O13 5456   4.733   6.657   4.280 -0.3619  0.6004 -0.7943
   13CHTO    H7 5457   4.705   6.743   4.256 -1.7976 -0.2066 -2.1141
   13CHTO    O2 5458   4.819   6.181   4.460 -0.4593 -0.1275 -0.0227
   13CHTO    C1 5459   4.727   6.179   4.578 -0.1690  0.1945 -0.1518
   13CHTO   H14 5460   4.748   6.267   4.642  0.3414 -0.0856  0.0652
   13CHTO    C2 5461   4.723   6.048   4.667  0.3745 -0.1383  0.7805
   13CHTO   H15 5462   4.699   5.962   4.602  1.3112 -0.1530  0.4378
   13CHTO    O6 5463   4.856   6.029   4.717 -0.0579  0.3293  0.2002
   13CHTO    H1 5464   4.902   5.971   4.659 -0.5073 -0.9538  1.0791
   13CHTO    C3 5465   4.612   6.053   4.787 -0.9689  0.0475  0.0830
   13CHTO   H16 5466   4.623   6.133   4.861  0.2263  0.2260 -0.2759
   13CHTO    N1 5467   4.614   5.923   4.865 -0.3642  0.6901  0.0082
   13CHTO    H8 5468   4.511   5.890   4.874 -0.5755  1.6398  1.2156
   13CHTO    H9 5469   4.638   5.944   4.968 -3.6206 -3.8436  1.8583
   13CHTO    C4 5470   4.465   6.075   4.715 -0.2531 -0.3143 -0.1676
   13CHTO   H17 5471   4.432   5.982   4.668  0.1445 -1.6292  2.1011
   13CHTO    O1 5472   4.466   6.185   4.615 -0.0817  0.3178 -0.3261
   13CHTO    C5 5473   4.578   6.188   4.520  0.1982  0.0218 -0.3295
   13CHTO   H18 5474   4.574   6.104   4.450 -0.1677  0.5085 -0.8904
   13CHTO   C16 5475   4.551   6.322   4.434  0.2463 -0.0406 -0.2974
   13CHTO   O11 5476   4.554   6.441   4.507 -0.0487 -0.8348  0.2441
   13CHTO    H5 5477   4.639   6.444   4.547 -1.0524  0.9770  2.3230
   13CHTO    O3 5478   4.365   6.122   4.810 -0.1590 -0.7789  0.5413
   13CHTO    C6 5479   4.259   6.019   4.824  0.2335 -0.1859  0.6540
   13CHTO   H19 5480   4.290   5.917   4.801 -2.8990 -1.0898  0.1519
   13CHTO    C8 5481   4.217   6.016   4.977  0.5266  0.3692 -0.0181
   13CHTO   H21 5482   4.170   6.111   5.001 -0.5436  0.5144 -2.4727
   13CHTO    O7 5483   4.339   5.995   5.050 -0.1890 -0.6268 -0.1128
   13CHTO    H2 5484   4.376   6.081   5.058  1.5387 -1.2262 -1.4728
   13CHTO   C12 5485   4.109   5.905   4.999  0.5812  0.2628 -0.4366
   13CHTO   H25 5486   4.156   5.810   4.966  0.5668  1.1898 -3.3062
   13CHTO    N3 5487   4.070   5.887   5.140  0.6696  0.1427  0.1094
   13CHTO   H12 5488   4.001   5.808   5.164  1.2107 -0.9293 -1.7682
   13CHTO   H13 5489   4.139   5.927   5.212  2.1346 -0.0842 -1.1201
   13CHTO   C15 5490   3.989   5.928   4.904  0.4021 -0.4037  0.7164
   13CHTO   H28 5491   3.928   6.012   4.938 -1.0445  0.2253 -3.1753
   13CHTO   O10 5492   3.900   5.792   4.885 -0.4094 -0.3430 -0.0428
   13CHTO    H4 5493   3.817   5.796   4.841 -0.4831  0.0661  0.1328
   13CHTO    O5 5494   4.025   5.949   4.761  0.0966  0.0571  0.0274
   13CHTO   C10 5495   4.128   6.053   4.739  0.3012 -0.1302 -0.6930
   13CHTO   H23 5496   4.075   6.143   4.770  1.5097  0.1259  0.6585
   13CHTO   C17 5497   4.160   6.065   4.585 -0.1185 -0.0967 -0.1091
   13CHTO   O12 5498   4.206   5.942   4.515 -0.2248  0.2555  0.1000
   13CHTO    H6 5499   4.238   5.967   4.431 -2.5529  1.5608 -0.4185
   14CHTO  H203 5500   5.799   4.849   3.161  0.6819  0.2136  0.2807
   14CHTO   O82 5501   5.797   4.819   3.072  0.4651  0.0408  0.3437
   14CHTO  C123 5502   5.834   4.678   3.061  0.5375  0.3265 -0.4694
   14CHTO  H227 5503   5.933   4.655   3.103 -0.2912 -0.3102  1.1453
   14CHTO   O77 5504   5.726   4.633   3.149  0.6343 -0.1431 -0.0112
   14CHTO  C118 5505   5.758   4.500   3.186 -0.0025  0.5177  0.0008
   14CHTO  H222 5506   5.858   4.508   3.231 -0.4487  1.7056  0.8205
   14CHTO  C125 5507   5.661   4.451   3.293  0.1432  0.2036  0.3016
   14CHTO   O84 5508   5.519   4.474   3.279  0.4217 -0.6315 -0.0376
   14CHTO  H205 5509   5.495   4.537   3.213  1.7799  0.3663  0.4044
   14CHTO  C114 5510   5.756   4.406   3.064 -0.4555  0.2128 -0.6834
   14CHTO  H218 5511   5.654   4.374   3.043 -0.7229  0.9493 -0.5256
   14CHTO  C116 5512   5.827   4.458   2.932 -0.1525  0.5577  0.5280
   14CHTO  H220 5513   5.936   4.435   2.923  0.1286  1.9861  0.1306
   14CHTO   O79 5514   5.792   4.395   2.809  0.3296  0.3632 -0.5684
   14CHTO  H201 5515   5.793   4.303   2.829  0.4978  0.1383 -1.5511
   14CHTO  C120 5516   5.808   4.614   2.916  0.6024 -0.0118  0.2722
   14CHTO  H224 5517   5.711   4.636   2.866  1.9039  2.2879 -1.3426
   14CHTO   N21 5518   5.910   4.671   2.825  0.4591 -0.4876 -0.2902
   14CHTO  H211 5519   5.882   4.666   2.720 -2.6751  2.2926  0.3478
   14CHTO  H212 5520   6.007   4.633   2.854  0.9411  0.1053 -1.1183
   14CHTO   O75 5521   5.823   4.294   3.115  0.1296  0.1615 -0.8322
   14CHTO  C112 5522   5.781   4.134   3.078 -0.6084  0.4846 -0.0572
   14CHTO  H216 5523   5.871   4.076   3.102 -1.4738 -0.4104  1.1172
   14CHTO   O73 5524   5.749   4.138   2.934 -0.9129  0.0768  0.1583
   14CHTO  C113 5525   5.706   4.015   2.886  0.3456 -0.4440  0.2780
   14CHTO  H217 5526   5.778   3.934   2.908  1.1555 -0.0222 -0.7877
   14CHTO  C124 5527   5.702   4.026   2.729  0.9244  0.5946  0.1214
   14CHTO   O83 5528   5.697   3.891   2.675  0.1526  1.0030 -0.7926
   14CHTO  H204 5529   5.692   3.900   2.582  2.1410  0.7993 -0.9281
   14CHTO  C109 5530   5.564   3.981   2.935 -0.1829 -0.1882 -0.2555
   14CHTO  H213 5531   5.503   4.068   2.909  1.4432  1.2007  0.4749
   14CHTO  C110 5532   5.586   3.966   3.089  0.0616  0.2303 -0.3560
   14CHTO  H214 5533   5.644   3.876   3.112 -0.2571  0.5368  1.7160
   14CHTO   O78 5534   5.457   3.945   3.150 -0.4209  0.4306  0.2681
   14CHTO  H200 5535   5.428   3.862   3.117  0.9873  0.4024 -0.9411
   14CHTO  C111 5536   5.659   4.093   3.158  0.6256 -0.0579 -0.2303
   14CHTO  H215 5537   5.593   4.181   3.161  0.2988 -0.2770 -0.8707
   14CHTO   N19 5538   5.697   4.066   3.297 -0.0469  0.1747  0.2263
   14CHTO  H207 5539   5.749   4.147   3.345 -0.0001 -0.1425  0.7194
   14CHTO  H208 5540   5.774   3.992   3.285  0.8578  1.1215  0.1558
   14CHTO   O74 5541   5.504   3.866   2.871  0.6755 -0.0705 -0.2239
   14CHTO  C115 5542   5.378   3.893   2.776  0.0085  0.6871 -0.1605
   14CHTO  H219 5543   5.358   3.999   2.761  0.4812  0.7606 -0.2839
   14CHTO   O76 5544   5.400   3.821   2.612 -0.2951  0.1345 -0.7360
   14CHTO  C122 5545   5.350   3.686   2.614  0.0663 -0.1558 -0.4335
   14CHTO  H226 5546   5.390   3.640   2.704  0.4628  0.8813 -0.0745
   14CHTO  C126 5547   5.402   3.593   2.498  0.3499  0.1935  0.5201
   14CHTO   O85 5548   5.546   3.581   2.520  0.5568  0.0015 -0.0072
   14CHTO  H206 5549   5.569   3.491   2.511  1.7533  0.1640  1.2065
   14CHTO  C121 5550   5.190   3.685   2.638  0.1112 -0.0881  0.2583
   14CHTO  H225 5551   5.134   3.694   2.543  0.5579  1.3588  0.1282
   14CHTO   O81 5552   5.157   3.557   2.692  0.2298  0.3865 -0.2972
   14CHTO  H202 5553   5.065   3.544   2.702  0.2423 -0.7440 -1.6325
   14CHTO  C119 5554   5.142   3.791   2.730 -0.5347  0.0933  0.1043
   14CHTO  H223 5555   5.147   3.873   2.659  0.0310 -0.0307 -0.0011
   14CHTO  C117 5556   5.250   3.823   2.841  0.3943 -0.6220  0.4372
   14CHTO  H221 5557   5.288   3.735   2.892  0.8776 -0.5126  0.2711
   14CHTO   N20 5558   5.194   3.911   2.942  0.2079  0.3356  0.2459
   14CHTO  H209 5559   5.163   4.003   2.894  0.8131 -0.1472 -1.0830
   14CHTO  H210 5560   5.272   3.935   3.013  0.6068  1.2737 -0.4876
   14CHTO   O80 5561   4.979   3.790   2.768 -0.3821 -0.2252  0.3660
   14CHTO  C103 5562   4.876   3.905   2.705  0.2693 -0.6924  0.1771
   14CHTO  H190 5563   4.932   3.998   2.693 -1.1820  0.4165  1.8217
   14CHTO  C101 5564   4.804   3.872   2.568 -0.7667  0.3458 -0.1082
   14CHTO  H188 5565   4.743   3.783   2.582  0.1021 -0.3243 -0.5322
   14CHTO   O68 5566   4.919   3.846   2.452 -0.0463 -0.2936 -0.2176
   14CHTO  H168 5567   4.923   3.933   2.418 -3.7841 -0.3609 -1.0074
   14CHTO   C99 5568   4.705   3.985   2.528  0.1175 -0.5143 -0.2286
   14CHTO  H186 5569   4.764   4.074   2.496 -0.9653 -0.3387 -1.7962
   14CHTO   N17 5570   4.626   3.946   2.399 -0.2120  0.8215 -0.2950
   14CHTO  H174 5571   4.611   4.039   2.346  1.2685  0.4233 -1.4383
   14CHTO  H175 5572   4.686   3.888   2.331 -1.1561 -0.6195  0.0853
   14CHTO   C97 5573   4.617   4.038   2.645  0.0837 -0.5640 -0.1865
   14CHTO  H184 5574   4.548   3.953   2.656 -1.6896  1.0090  1.2385
   14CHTO   O64 5575   4.700   4.059   2.764 -0.2790  0.2312 -0.5104
   14CHTO  C104 5576   4.761   3.942   2.816 -0.2370 -0.2370 -0.1825
   14CHTO  H191 5577   4.686   3.863   2.819  0.4420 -0.8680  0.8264
   14CHTO  C108 5578   4.802   3.968   2.963 -0.8124  0.5140 -0.5422
   14CHTO   O71 5579   4.854   3.850   3.018 -0.3327 -0.6131 -0.0236
   14CHTO  H171 5580   4.789   3.783   3.008  1.2795 -1.6663 -4.2885
   14CHTO   O62 5581   4.541   4.157   2.608 -0.1945  0.7163  0.0225
   14CHTO   C91 5582   4.447   4.215   2.696 -0.1102 -0.2608 -0.1652
   14CHTO  H178 5583   4.417   4.144   2.773  1.0171 -1.3131 -0.6807
   14CHTO   C92 5584   4.325   4.247   2.615 -0.2312 -0.0216  0.0669
   14CHTO  H179 5585   4.298   4.157   2.556 -0.4836 -1.7760  2.7827
   14CHTO   O66 5586   4.207   4.264   2.702 -0.2700 -0.3663 -0.4973
   14CHTO  H166 5587   4.134   4.225   2.658 -0.8620  0.7778 -0.5658
   14CHTO   C93 5588   4.343   4.370   2.519 -0.0815  0.0461  0.1867
   14CHTO  H180 5589   4.246   4.423   2.519  0.9930  2.1584  3.1640
   14CHTO   N16 5590   4.382   4.344   2.377  0.2990  0.2001  0.1329
   14CHTO  H172 5591   4.324   4.413   2.319  0.9231  0.4391 -0.2164
   14CHTO  H173 5592   4.349   4.248   2.340 -0.5413  0.9535 -1.0945
   14CHTO   C94 5593   4.448   4.473   2.574 -0.0438  0.7656 -0.7687
   14CHTO  H181 5594   4.549   4.453   2.538 -1.1825 -2.2484 -2.4529
   14CHTO   O61 5595   4.447   4.462   2.723  0.1684 -0.0097 -0.2324
   14CHTO   C95 5596   4.498   4.342   2.772  0.2073 -0.1332  0.3916
   14CHTO  H182 5597   4.607   4.341   2.767  0.3031 -1.3941  2.1600
   14CHTO  C106 5598   4.466   4.346   2.925  0.1609 -0.1465 -0.3108
   14CHTO   O69 5599   4.521   4.236   2.993  0.1259 -0.5936  0.5544
   14CHTO  H169 5600   4.522   4.155   2.946  1.4674 -0.2104 -0.0964
   14CHTO   O63 5601   4.406   4.640   2.533 -0.2325 -0.2103  0.4386
   14CHTO   C96 5602   4.534   4.714   2.509  0.3725 -0.3655  0.4289
   14CHTO  H183 5603   4.508   4.814   2.473  1.0436  0.0371  1.0412
   14CHTO   C98 5604   4.636   4.668   2.398  0.1766 -0.0222 -0.3581
   14CHTO  H185 5605   4.672   4.565   2.414  1.4793  0.3961 -0.5161
   14CHTO   O67 5606   4.561   4.668   2.277 -0.1443 -0.1756  0.2770
   14CHTO  H167 5607   4.607   4.611   2.218 -1.8510 -0.4888 -0.8015
   14CHTO  C102 5608   4.767   4.770   2.391  1.1377 -0.2400  0.0225
   14CHTO  H189 5609   4.730   4.861   2.341 -0.4002 -1.2386 -0.6970
   14CHTO   N18 5610   4.870   4.708   2.304 -0.5734  0.5229 -0.0084
   14CHTO  H176 5611   4.897   4.761   2.215  2.4500 -1.0094 -0.0664
   14CHTO  H177 5612   4.833   4.609   2.284  1.4126 -0.3223  0.3894
   14CHTO  C105 5613   4.816   4.790   2.538  0.5168  0.6728 -0.4879
   14CHTO  H192 5614   4.863   4.697   2.571  1.7822  2.0573  1.7927
   14CHTO   O65 5615   4.719   4.825   2.635 -0.2961  0.1645  0.2886
   14CHTO  C100 5616   4.600   4.742   2.648 -0.9987 -1.1839  0.1996
   14CHTO  H187 5617   4.634   4.648   2.694 -2.1982 -0.9994  1.4988
   14CHTO  C107 5618   4.519   4.806   2.766  0.0337  0.0778  0.2339
   14CHTO   O70 5619   4.411   4.889   2.723 -0.2878  0.1049  0.1557
   14CHTO  H170 5620   4.451   4.972   2.705  0.8128 -0.3234  0.5808
   14CHTO   O57 5621   4.926   4.913   2.530  0.2628  0.3066  0.0222
   14CHTO   C85 5622   5.002   4.934   2.649  0.7533  0.3155 -0.2190
   14CHTO  H157 5623   5.006   4.837   2.703  1.3574 -0.5678 -1.8434
   14CHTO   C83 5624   4.927   5.031   2.754  0.6080  0.0592  0.4298
   14CHTO  H155 5625   4.848   4.967   2.794  0.1284 -0.3743 -1.1899
   14CHTO   O56 5626   4.865   5.135   2.676 -0.2164 -0.2762 -0.2362
   14CHTO  H135 5627   4.854   5.113   2.586  1.1744  1.7992 -0.9602
   14CHTO   C81 5628   5.021   5.071   2.868  0.3469 -0.3323 -0.8454
   14CHTO  H153 5629   5.056   4.979   2.915  0.9152 -0.2663 -1.1458
   14CHTO   N14 5630   4.964   5.158   2.974 -0.5641  0.1542 -0.3454
   14CHTO  H141 5631   4.951   5.256   2.931 -3.8391 -1.5064 -3.4059
   14CHTO  H142 5632   5.031   5.160   3.057  0.1727  2.2714 -0.9445
   14CHTO   C79 5633   5.146   5.151   2.811  0.5238 -0.1605 -1.0182
   14CHTO  H151 5634   5.216   5.169   2.893  0.1956  2.1304 -1.2089
   14CHTO   O52 5635   5.219   5.049   2.730  0.2242  0.1232 -0.1243
   14CHTO   C86 5636   5.147   4.989   2.615 -0.3575 -0.3226  0.2728
   14CHTO  H158 5637   5.148   5.070   2.539 -2.4310 -1.8400 -1.4216
   14CHTO   C90 5638   5.240   4.877   2.559  0.2903 -0.2823 -0.0825
   14CHTO   O60 5639   5.275   4.778   2.654  0.3378 -0.3080 -0.3952
   14CHTO  H138 5640   5.339   4.811   2.715 -0.2728  1.0975 -0.4991
   14CHTO   O50 5641   5.116   5.267   2.736  0.4338 -0.5546 -0.1977
   14CHTO   C73 5642   5.119   5.411   2.704 -0.2411 -0.3977  0.3121
   14CHTO  H145 5643   5.086   5.471   2.790 -1.2081 -0.8496  0.2636
   14CHTO   C74 5644   5.022   5.450   2.587  0.1972 -0.8957  0.0349
   14CHTO  H146 5645   4.918   5.422   2.610 -0.2201 -0.3993 -1.2384
   14CHTO   O54 5646   5.027   5.594   2.579 -0.0140  0.1066  0.2219
   14CHTO  H133 5647   4.938   5.619   2.566 -0.0206 -0.6477 -1.3640
   14CHTO   C75 5648   5.072   5.380   2.454  0.3032 -1.0170 -0.2317
   14CHTO  H147 5649   5.066   5.271   2.463 -0.5084 -0.8822  0.9562
   14CHTO   N13 5650   5.004   5.420   2.325  0.2621  0.0269 -0.0968
   14CHTO  H139 5651   4.898   5.438   2.337  0.2968  0.1808 -0.0098
   14CHTO  H140 5652   5.005   5.329   2.267  0.7333 -0.3760  0.5296
   14CHTO   C76 5653   5.229   5.413   2.432  0.2805 -0.4146 -0.7865
   14CHTO  H148 5654   5.227   5.518   2.403 -0.6944 -0.4836 -1.0039
   14CHTO   O49 5655   5.308   5.373   2.550 -0.8120 -0.1997 -0.2694
   14CHTO   C77 5656   5.264   5.454   2.667  0.5321 -0.1363  0.7472
   14CHTO  H149 5657   5.265   5.562   2.657 -2.5079 -0.1335 -0.1295
   14CHTO   C88 5658   5.359   5.441   2.780 -0.0271 -0.1327 -0.6289
   14CHTO   O58 5659   5.478   5.519   2.746  0.2726 -0.3770  0.2599
   14CHTO  H136 5660   5.549   5.512   2.807  0.6412 -0.0814 -0.1276
   14CHTO   O51 5661   5.287   5.318   2.307  0.1910  0.3836  0.2044
   14CHTO   C78 5662   5.422   5.383   2.257  0.1002  0.3921  0.2448
   14CHTO  H150 5663   5.464   5.470   2.312  0.4638 -0.6825  1.6994
   14CHTO   C80 5664   5.395   5.429   2.114  0.0769  0.3033  0.4864
   14CHTO  H152 5665   5.369   5.339   2.054  1.3189 -0.7667  1.5305
   14CHTO   O55 5666   5.289   5.524   2.116  0.6690  0.3501 -0.1282
   14CHTO  H134 5667   5.211   5.472   2.118  0.6761  0.3787  0.7970
   14CHTO   C84 5668   5.525   5.491   2.052 -0.1618 -0.4756  0.2828
   14CHTO  H156 5669   5.573   5.554   2.128 -1.1308  0.3613  0.2228
   14CHTO   N15 5670   5.507   5.561   1.924  0.2735 -0.2033  0.6885
   14CHTO  H143 5671   5.566   5.516   1.846 -1.0544  2.3739 -1.8831
   14CHTO  H144 5672   5.531   5.665   1.926 -1.4181  0.1814  1.6476
   14CHTO   C87 5673   5.632   5.382   2.054  0.1893 -0.2540  0.8793
   14CHTO  H159 5674   5.599   5.306   1.983  0.8547 -0.2011  0.5132
   14CHTO   O53 5675   5.651   5.337   2.197 -0.5504  0.0712 -0.6224
   14CHTO   C82 5676   5.531   5.275   2.249 -0.1203  0.0928 -0.3736
   14CHTO  H154 5677   5.502   5.198   2.177  0.9641 -0.4766 -0.2095
   14CHTO   C89 5678   5.564   5.210   2.377  0.1940 -0.1304 -0.2249
   14CHTO   O59 5679   5.459   5.118   2.425  0.3334 -0.5001  0.2706
   14CHTO  H137 5680   5.493   5.030   2.427  1.6791 -0.0120 -0.7533
   14CHTO   O45 5681   5.795   5.455   2.024 -0.3408  0.2549 -0.6157
   14CHTO   C67 5682   5.869   5.353   1.953 -0.2594 -0.2699  0.5665
   14CHTO  H124 5683   5.867   5.255   2.000 -1.7517 -0.8567 -0.6834
   14CHTO   C65 5684   5.811   5.341   1.802  0.5426  0.1721 -0.0818
   14CHTO  H122 5685   5.703   5.356   1.803  0.1723 -2.4059  0.1514
   14CHTO   O44 5686   5.837   5.209   1.752  0.1232  0.8547 -0.1560
   14CHTO  H102 5687   5.832   5.144   1.819 -0.9228  0.6943 -0.3869
   14CHTO   C63 5688   5.877   5.452   1.714 -0.6572  0.5045 -0.5822
   14CHTO  H120 5689   5.867   5.551   1.758  0.9148  1.0250 -1.3815
   14CHTO   N11 5690   5.804   5.456   1.578  0.0335  0.1448 -0.0584
   14CHTO  H108 5691   5.802   5.355   1.543 -1.6093 -0.7030  2.3412
   14CHTO  H109 5692   5.838   5.517   1.497  0.5589 -1.8233 -1.3496
   14CHTO   C61 5693   6.029   5.433   1.710  0.5354 -0.1438  1.0387
   14CHTO  H118 5694   6.062   5.515   1.645 -0.6925 -1.0415 -0.7505
   14CHTO   O40 5695   6.083   5.468   1.844 -0.3556  0.1153 -0.1603
   14CHTO   C68 5696   6.027   5.395   1.957 -0.2100  0.6271 -0.2512
   14CHTO  H125 5697   6.042   5.456   2.049  0.2029  0.7024 -0.3691
   14CHTO   C72 5698   6.119   5.265   1.981  0.0443 -0.0050  0.3514
   14CHTO   O48 5699   6.087   5.205   2.109 -0.1245 -0.0157  0.2312
   14CHTO  H105 5700   5.995   5.187   2.107 -0.1051 -0.1632  0.8154
   14CHTO   O38 5701   6.070   5.308   1.657  0.1724 -0.6366  0.3977
   14CHTO   C55 5702   6.165   5.312   1.548  0.4068  0.2188 -0.2533
   14CHTO  H112 5703   6.180   5.416   1.515 -3.3934  0.5920 -1.0003
   14CHTO   C56 5704   6.109   5.221   1.431 -0.1041 -0.1729  0.2460
   14CHTO  H113 5705   6.074   5.132   1.486  1.1214 -2.0684 -1.9610
   14CHTO   O42 5706   5.987   5.275   1.376  0.1470  0.5687 -0.7606
   14CHTO  H100 5707   5.990   5.361   1.340 -1.4452  0.2265 -1.7760
   14CHTO   C57 5708   6.221   5.182   1.319  0.4090  0.3121 -0.7169
   14CHTO  H114 5709   6.222   5.271   1.256 -1.2948  1.5853  1.0033
   14CHTO   N10 5710   6.183   5.064   1.236 -0.2163 -0.8276  0.0403
   14CHTO  H106 5711   6.133   5.095   1.145  1.2021  5.7727  1.2305
   14CHTO  H107 5712   6.114   5.007   1.297 -0.4749  0.2998  0.8207
   14CHTO   C58 5713   6.362   5.159   1.378 -0.1001  0.3386 -0.2920
   14CHTO  H115 5714   6.362   5.067   1.440  0.7465  0.7704  0.3584
   14CHTO   O37 5715   6.396   5.264   1.472  0.1958 -0.2949 -0.0165
   14CHTO   C59 5716   6.309   5.268   1.588 -0.0208  0.3450  0.5395
   14CHTO  H116 5717   6.304   5.167   1.630  0.1831  0.5270  0.9977
   14CHTO   C70 5718   6.376   5.372   1.681 -0.2017 -0.1708 -0.2570
   14CHTO   O46 5719   6.493   5.309   1.748  0.4108 -0.0397 -0.4247
   14CHTO  H103 5720   6.560   5.368   1.776  0.9169 -0.3131 -1.0587
   14CHTO   O39 5721   6.463   5.150   1.277  0.5826 -0.6881 -0.0854
   14CHTO   C60 5722   6.584   5.073   1.295 -0.1544 -0.1643  0.0613
   14CHTO  H117 5723   6.660   5.149   1.313 -0.3991  0.9443 -3.3069
   14CHTO   C62 5724   6.588   4.961   1.397 -0.3642 -0.1939 -0.2463
   14CHTO  H119 5725   6.578   5.010   1.497  0.0312  0.6236 -0.6006
   14CHTO   O43 5726   6.483   4.860   1.383  0.0191 -0.3180  0.0200
   14CHTO  H101 5727   6.402   4.872   1.428 -0.0379 -0.8372  0.0588
   14CHTO   C66 5728   6.739   4.886   1.404 -0.3969 -0.8086  0.0878
   14CHTO  H123 5729   6.812   4.962   1.430 -0.6078 -1.4820  2.7733
   14CHTO   N12 5730   6.761   4.795   1.517  0.4186  0.2798 -0.0480
   14CHTO  H110 5731   6.843   4.725   1.509 -0.1447 -0.3077 -0.7224
   14CHTO  H111 5732   6.670   4.780   1.574 -0.8438  0.7163 -1.8862
   14CHTO   C69 5733   6.761   4.816   1.265 -0.0323  0.1020  0.8410
   14CHTO  H126 5734   6.682   4.739   1.256  1.4396 -1.3177 -0.1953
   14CHTO   O41 5735   6.751   4.930   1.160  0.0491 -0.2432 -0.3139
   14CHTO   C64 5736   6.617   5.007   1.155  0.6498  0.4636  0.2194
   14CHTO  H121 5737   6.540   4.929   1.133 -0.7094  1.4498  1.4519
   14CHTO   C71 5738   6.626   5.106   1.039 -0.1767  0.4347 -0.6066
   14CHTO   O47 5739   6.645   5.025   0.922  0.1964 -0.4927  0.2989
   14CHTO  H104 5740   6.705   5.068   0.864  0.6094 -0.7587  0.5315
   14CHTO   O34 5741   6.891   4.761   1.254  0.3101 -0.4718  0.2882
   14CHTO   C49 5742   7.026   4.744   1.208 -0.1209  1.0519  0.1284
   14CHTO   H91 5743   7.039   4.645   1.163  0.8536  1.3366 -0.2243
   14CHTO   C47 5744   7.119   4.753   1.330 -0.2350  0.5474  0.4790
   14CHTO   H89 5745   7.221   4.727   1.295  0.4363  0.5578  2.3815
   14CHTO   O33 5746   7.081   4.650   1.419 -0.1844 -0.0464 -0.2138
   14CHTO   H70 5747   7.140   4.656   1.492 -0.2069 -0.3936 -0.1657
   14CHTO   C45 5748   7.113   4.900   1.402  0.5869 -0.1748 -0.3882
   14CHTO   H87 5749   7.039   4.886   1.482 -0.4752  0.4598 -1.2505
   14CHTO    N8 5750   7.248   4.923   1.466 -0.4953 -0.0156 -0.6193
   14CHTO   H75 5751   7.245   5.023   1.508 -0.9415 -0.6426  0.8480
   14CHTO   H76 5752   7.320   4.910   1.386  0.2607  0.5482 -0.0408
   14CHTO   C43 5753   7.060   5.011   1.296  0.5963 -0.1791  0.4281
   14CHTO   H85 5754   6.951   5.002   1.296  0.4241  1.4348 -1.4930
   14CHTO   O29 5755   7.112   4.981   1.164  0.1881  0.6617  0.2452
   14CHTO   C50 5756   7.072   4.852   1.110 -0.4558 -0.6779 -0.5171
   14CHTO   H92 5757   6.990   4.865   1.038 -1.3486  4.0189  1.1325
   14CHTO   C54 5758   7.184   4.798   1.016  0.2603  0.4813 -0.3408
   14CHTO   O36 5759   7.197   4.864   0.887  0.3357 -0.3023 -0.2554
   14CHTO   H72 5760   7.278   4.910   0.878  1.7865 -3.1476 -2.7374
   14CHTO   O27 5761   7.100   5.147   1.337  0.3415 -0.7261 -0.4879
   14CHTO   C37 5762   7.039   5.276   1.329  0.4574  0.4058 -0.2046
   14CHTO   H79 5763   7.114   5.356   1.340  3.3532 -1.7119 -3.3986
   14CHTO   C38 5764   6.964   5.300   1.192 -0.1244  0.2701  0.0899
   14CHTO   H80 5765   6.890   5.221   1.175 -0.5553  0.2780  1.9027
   14CHTO   O31 5766   7.065   5.286   1.087 -0.3137 -0.0671 -0.8522
   14CHTO   H68 5767   7.071   5.198   1.056 -1.7344 -0.7178  0.6891
   14CHTO   C39 5768   6.890   5.437   1.180 -0.3898 -0.1405 -0.3414
   14CHTO   H81 5769   6.965   5.515   1.171 -0.6696  0.1084 -0.5235
   14CHTO    N7 5770   6.804   5.449   1.062 -0.3893  0.1042 -0.2893
   14CHTO   H73 5771   6.713   5.505   1.082 -0.0581  0.3322  0.6128
   14CHTO   H74 5772   6.852   5.468   0.968 -0.8455 -0.2774 -0.6006
   14CHTO   C40 5773   6.803   5.460   1.310 -0.1031  0.0295  0.2086
   14CHTO   H82 5774   6.709   5.405   1.304  1.0732 -1.9594 -0.2162
   14CHTO   O26 5775   6.879   5.427   1.430 -0.1473  0.8251 -0.6756
   14CHTO   C41 5776   6.938   5.290   1.441 -0.2626  0.1100 -0.2079
   14CHTO   H83 5777   6.855   5.219   1.431 -0.1151 -0.0336 -0.4027
   14CHTO   C52 5778   6.999   5.278   1.584  0.7423 -0.2734  0.2860
   14CHTO   O35 5779   6.899   5.331   1.697 -0.2277 -0.2805 -0.0922
   14CHTO   H71 5780   6.957   5.370   1.759  1.3351 -1.3939 -0.8326
   14CHTO   O28 5781   6.777   5.601   1.335  0.5760 -0.0695  0.1070
   14CHTO   C42 5782   6.713   5.661   1.449  0.7184 -0.6594  1.5512
   14CHTO   H84 5783   6.711   5.767   1.422  3.1342 -0.9039  0.2007
   14CHTO   C44 5784   6.792   5.658   1.590  0.1859  0.0056 -0.0414
   14CHTO   H86 5785   6.789   5.559   1.636  0.5475 -0.0999 -0.2441
   14CHTO   O32 5786   6.926   5.696   1.561  0.2115 -0.4949  0.3298
   14CHTO   H69 5787   6.933   5.786   1.535 -0.7259  0.0169  1.8296
   14CHTO   C48 5788   6.728   5.753   1.694 -0.6775  0.0160 -0.4555
   14CHTO   H90 5789   6.733   5.855   1.656  0.5417 -0.0897 -0.5846
   14CHTO    N9 5790   6.790   5.756   1.829 -0.2318  0.0446 -0.0092
   14CHTO   H77 5791   6.735   5.828   1.889 -1.7223 -0.1285 -1.1308
   14CHTO   H78 5792   6.889   5.793   1.808 -0.8324  1.0402 -1.1399
   14CHTO   C51 5793   6.571   5.713   1.703  0.3812 -0.0285 -0.4228
   14CHTO   H93 5794   6.562   5.618   1.755  0.2286 -1.2613 -2.6527
   14CHTO   O30 5795   6.514   5.706   1.567  0.0740  0.1132  0.0980
   14CHTO   C46 5796   6.567   5.617   1.466 -0.0987  0.2708  0.0335
   14CHTO   H88 5797   6.568   5.516   1.508  2.4791 -0.4950 -1.7063
   14CHTO   C53 5798   6.483   5.619   1.333 -0.1622  0.8239 -0.3908
   14CHTO   O72 5799   6.367   5.537   1.353 -0.1772 -0.3217  0.2473
   14CHTO  H199 5800   6.374   5.444   1.342  0.4416 -0.5984  2.5590
   14CHTO   O22 5801   6.490   5.816   1.765 -0.0988 -0.0182 -0.0403
   14CHTO   C31 5802   6.386   5.790   1.869  0.4529 -0.4709  0.3918
   14CHTO   H59 5803   6.374   5.679   1.871 -1.5236 -0.3114 -1.0473
   14CHTO   C29 5804   6.432   5.845   2.010  0.2298  0.4786  0.1658
   14CHTO   H57 5805   6.476   5.944   1.992  1.6357 -0.4334 -1.7278
   14CHTO   O21 5806   6.542   5.768   2.059 -0.6425  0.1690  0.5604
   14CHTO   H37 5807   6.617   5.771   2.003  0.2289  1.4585  1.7420
   14CHTO   C27 5808   6.314   5.856   2.107 -0.0704 -0.5566 -0.4448
   14CHTO   H55 5809   6.289   5.753   2.136 -0.3190 -0.3190  0.1947
   14CHTO    N5 5810   6.343   5.924   2.238  0.7734  0.3177  0.0395
   14CHTO   H43 5811   6.445   5.914   2.272  1.5943  3.4403 -1.2993
   14CHTO   H44 5812   6.259   5.916   2.306  0.8059 -1.8813 -0.1376
   14CHTO   C25 5813   6.191   5.920   2.037 -0.8658  1.1548 -0.2970
   14CHTO   H53 5814   6.226   6.012   1.987 -0.3205  0.4160 -1.2985
   14CHTO   O17 5815   6.156   5.834   1.924 -0.4832  0.2770 -0.2009
   14CHTO   C32 5816   6.251   5.848   1.821 -0.6395  0.3264  1.0070
   14CHTO   H60 5817   6.258   5.951   1.787  2.8918 -0.4751 -0.9026
   14CHTO   C36 5818   6.201   5.768   1.693  0.0875 -0.0625  0.1137
   14CHTO   O25 5819   6.067   5.806   1.653 -0.0716 -0.0811  0.1037
   14CHTO   H40 5820   6.069   5.885   1.603  0.0576 -0.2586 -0.1711
   14CHTO   O15 5821   6.049   5.952   2.133 -0.8456  0.3842 -0.5087
   14CHTO   C19 5822   5.929   5.878   2.154  0.2645  0.3138  0.1109
   14CHTO   H47 5823   5.914   5.853   2.048 -1.2702  0.1461  0.3541
   14CHTO   C20 5824   5.950   5.752   2.249  0.4139  0.0264 -0.2127
   14CHTO   H48 5825   6.008   5.778   2.339  0.9037  1.7435 -1.0025
   14CHTO   O19 5826   6.037   5.658   2.180 -0.3693  0.2499  0.0793
   14CHTO   H35 5827   6.115   5.701   2.151  0.3478 -0.4453  0.9536
   14CHTO   C21 5828   5.803   5.683   2.268  0.1516 -0.8298  0.1132
   14CHTO   H49 5829   5.764   5.644   2.174 -1.0946 -0.9645  0.6803
   14CHTO    N4 5830   5.804   5.565   2.364  0.5976 -0.4019  0.0444
   14CHTO   H41 5831   5.808   5.475   2.304 -0.4234  0.1152 -0.8184
   14CHTO   H42 5832   5.881   5.557   2.439  0.3940  1.2170  0.4408
   14CHTO   C22 5833   5.707   5.788   2.320  0.0117 -0.4608 -0.1110
   14CHTO   H50 5834   5.754   5.832   2.407 -1.1375 -0.9748  0.7844
   14CHTO   O14 5835   5.690   5.894   2.225  0.3690  0.3218  0.1031
   14CHTO   C23 5836   5.812   5.973   2.198 -0.3731 -0.2118  0.1138
   14CHTO   H51 5837   5.841   6.035   2.283 -1.0970 -0.0312  0.2371
   14CHTO   C34 5838   5.783   6.074   2.085 -0.1544  0.3532  0.0845
   14CHTO   O23 5839   5.693   6.175   2.114  0.3699  0.0960 -0.1933
   14CHTO   H38 5840   5.676   6.222   2.035 -0.8137 -1.8264 -1.1184
   14CHTO   O16 5841   5.571   5.751   2.343 -0.0487 -0.9354  0.2524
   14CHTO   C24 5842   5.481   5.865   2.431  0.6056  0.8054  0.7122
   14CHTO   H52 5843   5.493   5.965   2.389  2.0709 -0.2481 -1.4732
   14CHTO   C26 5844   5.512   5.854   2.583 -0.4449  0.1946 -0.0991
   14CHTO   H54 5845   5.477   5.757   2.624  0.8087  1.0279  3.0602
   14CHTO   O20 5846   5.650   5.874   2.606 -0.7056 -0.5056 -0.2812
   14CHTO   H36 5847   5.679   5.960   2.586 -0.9459 -0.2347  0.5127
   14CHTO   C30 5848   5.428   5.951   2.672 -0.1239  0.0331  0.3037
   14CHTO   H58 5849   5.445   6.058   2.654  0.9980 -0.6550 -3.0333
   14CHTO    N6 5850   5.454   5.939   2.820  0.2144 -0.4104  0.8144
   14CHTO   H45 5851   5.408   6.025   2.867 -0.8348  0.0483 -0.9529
   14CHTO   H46 5852   5.559   5.940   2.845 -0.0308  0.4492  1.8340
   14CHTO   C33 5853   5.278   5.916   2.641 -0.1771 -0.0618  0.2694
   14CHTO   H61 5854   5.242   5.819   2.680  2.4999 -0.3403  2.1918
   14CHTO   O18 5855   5.257   5.915   2.494 -0.6371  0.0038  0.4825
   14CHTO   C28 5856   5.336   5.831   2.410 -0.1422  0.0147 -0.5529
   14CHTO   H56 5857   5.315   5.727   2.433 -0.6525 -0.0960 -1.4658
   14CHTO   C35 5858   5.282   5.853   2.263  0.0651  0.2424  0.0327
   14CHTO   O24 5859   5.153   5.793   2.238  0.3384 -0.0071  0.0076
   14CHTO   H39 5860   5.101   5.826   2.309  1.3368  1.4209  0.0802
   14CHTO    O9 5861   5.198   6.014   2.699 -0.1314  0.0629  0.7437
   14CHTO   C13 5862   5.052   5.958   2.780 -0.2051  0.3612  0.4304
   14CHTO   H26 5863   5.034   5.855   2.745 -0.5113 -0.3188  2.4966
   14CHTO   C11 5864   4.933   6.052   2.744 -0.1744 -0.0577 -0.1427
   14CHTO   H24 5865   4.918   6.066   2.636 -2.5834 -0.8752  0.0536
   14CHTO    O8 5866   4.944   6.186   2.796  0.2999  0.6529 -0.3224
   14CHTO    H3 5867   4.910   6.192   2.883  0.1178  0.0303 -0.3482
   14CHTO    C9 5868   4.810   5.973   2.798 -0.1271 -0.1989 -0.2912
   14CHTO   H22 5869   4.819   5.869   2.765 -1.5544 -0.6039  0.5471
   14CHTO    N2 5870   4.674   6.017   2.762 -0.2800  0.5515  0.0306
   14CHTO   H10 5871   4.632   6.095   2.823  0.7538  1.0512  0.1142
   14CHTO   H11 5872   4.659   6.028   2.655  2.7385 -2.1600 -0.7629
   14CHTO    C7 5873   4.826   5.961   2.955 -0.3228 -0.0454  0.1412
   14CHTO   H20 5874   4.755   5.885   2.993  0.3473 -0.8320 -0.1589
   14CHTO    O4 5875   4.948   5.903   2.999 -0.1696 -0.0789 -0.2694
   14CHTO   C14 5876   5.072   5.946   2.938  0.0109  0.3173 -0.5166
   14CHTO   H27 5877   5.143   5.865   2.966 -2.2528 -1.4420  0.3554
   14CHTO   C18 5878   5.115   6.077   3.015 -0.2887  0.0964 -0.0423
   14CHTO   O13 5879   5.197   6.164   2.929  0.0233  0.2505 -0.2696
   14CHTO    H7 5880   5.278   6.119   2.918 -0.7332 -0.6975 -2.1583
   14CHTO    O2 5881   4.808   6.109   3.040  0.1392 -0.7390 -0.0580
   14CHTO    C1 5882   4.710   6.110   3.143  0.4282  0.7814  0.3997
   14CHTO   H14 5883   4.642   6.025   3.121  0.0951  1.0652  0.3204
   14CHTO    C2 5884   4.624   6.243   3.132 -0.0166  0.5333 -0.3788
   14CHTO   H15 5885   4.701   6.322   3.138 -0.7599  1.2304  0.0239
   14CHTO    O6 5886   4.551   6.247   3.013 -0.2790  0.3160  0.7493
   14CHTO    H1 5887   4.598   6.276   2.938 -0.1447  0.6207  0.9487
   14CHTO    C3 5888   4.534   6.271   3.265 -0.4908  0.0263 -0.3044
   14CHTO   H16 5889   4.456   6.193   3.267 -1.1857  0.7258  0.2500
   14CHTO    N1 5890   4.464   6.406   3.253  0.0548  0.5618 -0.4936
   14CHTO    H8 5891   4.358   6.402   3.276  0.3879  2.1497  1.4313
   14CHTO    H9 5892   4.513   6.481   3.313 -1.1068  1.1276 -0.2219
   14CHTO    C4 5893   4.616   6.253   3.393  0.8103  0.5234 -0.0668
   14CHTO   H17 5894   4.694   6.329   3.400  0.1898  1.2269 -0.6998
   14CHTO    O1 5895   4.685   6.123   3.393  0.0729 -0.1471 -0.2972
   14CHTO    C5 5896   4.775   6.097   3.287  0.5666  0.0140 -0.0662
   14CHTO   H18 5897   4.863   6.162   3.300  0.8989 -0.6310  0.9451
   14CHTO   C16 5898   4.830   5.948   3.314  0.3532 -0.0054 -0.1836
   14CHTO   O11 5899   4.887   5.931   3.440  1.1552 -0.3579  0.1573
   14CHTO    H5 5900   4.815   5.928   3.501 -0.5009  0.0221 -1.7255
   14CHTO    O3 5901   4.532   6.255   3.509  0.1636 -0.5122  1.0567
   14CHTO    C6 5902   4.593   6.262   3.636 -0.6695 -0.6973 -0.0049
   14CHTO   H19 5903   4.697   6.228   3.638 -0.3337  0.3571  3.0837
   14CHTO    C8 5904   4.601   6.409   3.686 -1.1745  0.1414 -0.6395
   14CHTO   H21 5905   4.500   6.446   3.702 -0.4294  2.2202 -0.5731
   14CHTO    O7 5906   4.668   6.492   3.591  0.1407  0.2771 -0.5202
   14CHTO    H2 5907   4.617   6.520   3.517  0.8939  1.6967 -0.5402
   14CHTO   C12 5908   4.678   6.403   3.828  0.3195 -0.3556  0.2028
   14CHTO   H25 5909   4.779   6.360   3.812  0.3828 -0.0149 -0.3294
   14CHTO    N3 5910   4.698   6.537   3.883 -0.2806  0.6977  0.5602
   14CHTO   H12 5911   4.750   6.591   3.806  0.1920  1.2806  1.2824
   14CHTO   H13 5912   4.609   6.587   3.918 -2.3271 -1.8020 -0.9107
   14CHTO   C15 5913   4.590   6.308   3.924  0.2619  0.6561 -0.3804
   14CHTO   H28 5914   4.489   6.343   3.945  0.0214  0.4743 -1.2347
   14CHTO   O10 5915   4.653   6.272   4.052 -0.5654 -0.1162 -0.0042
   14CHTO    H4 5916   4.583   6.236   4.101  0.2755 -2.2059 -0.3001
   14CHTO    O5 5917   4.580   6.172   3.867  0.1925  0.2243 -0.1047
   14CHTO   C10 5918   4.517   6.168   3.737  0.1755 -0.4231  0.3383
   14CHTO   H23 5919   4.412   6.196   3.735  0.0280 -0.9795  0.3488
   14CHTO   C17 5920   4.516   6.023   3.688  0.4054 -0.1724  0.0830
   14CHTO   O12 5921   4.640   5.955   3.710 -0.5662 -0.2464 -0.6624
   14CHTO    H6 5922   4.648   5.903   3.632  0.2961  0.1282 -0.8415
   15CHTO  H203 5923   5.960   4.505   2.383  0.1626  0.4879 -0.0617
   15CHTO   O82 5924   5.950   4.556   2.305  0.2332  0.6478  0.0332
   15CHTO  C123 5925   6.003   4.464   2.206  0.6121 -0.3784 -0.1887
   15CHTO  H227 5926   6.027   4.368   2.255 -1.8851 -1.2889 -0.6585
   15CHTO   O77 5927   5.895   4.437   2.109  0.3136  0.6489 -0.0853
   15CHTO  C118 5928   5.929   4.331   2.026 -0.1646  0.6808 -0.1446
   15CHTO  H222 5929   5.954   4.238   2.078 -1.0287  1.1310  1.1316
   15CHTO  C125 5930   5.807   4.308   1.925  0.2125 -0.0903  0.0498
   15CHTO   O84 5931   5.808   4.193   1.836  0.1962  0.3203 -0.2779
   15CHTO  H205 5932   5.866   4.219   1.768 -1.4048  3.8078 -0.4615
   15CHTO  C114 5933   6.050   4.368   1.936 -0.2517  0.8993 -0.3233
   15CHTO  H218 5934   6.021   4.455   1.877 -0.0401  2.7854  2.2772
   15CHTO  C116 5935   6.174   4.396   2.027 -0.1436 -0.2992 -0.1037
   15CHTO  H220 5936   6.205   4.300   2.073  2.8933 -0.4869 -2.3732
   15CHTO   O79 5937   6.279   4.428   1.938 -0.0698  0.0951 -0.2600
   15CHTO  H201 5938   6.328   4.494   1.982  0.2012  0.3846 -0.9893
   15CHTO  C120 5939   6.139   4.515   2.127  0.0011  0.2363 -0.8093
   15CHTO  H224 5940   6.129   4.608   2.068  0.0935  0.3474 -0.6491
   15CHTO   N21 5941   6.249   4.540   2.223 -0.2238 -0.3397 -0.1979
   15CHTO  H211 5942   6.291   4.449   2.262 -1.0091 -0.2284  0.9159
   15CHTO  H212 5943   6.323   4.610   2.186  1.2834 -1.0966  1.2897
   15CHTO   O75 5944   6.066   4.267   1.842 -0.3127  0.2792 -0.3016
   15CHTO  C112 5945   6.179   4.144   1.852  0.1914 -0.4190 -0.4257
   15CHTO  H216 5946   6.227   4.155   1.950 -1.7252 -1.0313  0.6078
   15CHTO   O73 5947   6.272   4.166   1.745  0.1112 -0.0899 -0.3954
   15CHTO  C113 5948   6.389   4.077   1.746  0.6146  0.0307 -0.3764
   15CHTO  H217 5949   6.443   4.082   1.842  1.4044 -0.3170 -0.7986
   15CHTO  C124 5950   6.483   4.122   1.630  0.3202 -0.5646  0.0331
   15CHTO   O83 5951   6.617   4.080   1.644 -0.0783  0.2642  0.3209
   15CHTO  H204 5952   6.666   4.127   1.709  0.7779  2.0569 -1.6008
   15CHTO  C109 5953   6.343   3.926   1.738 -0.0883 -0.8560  0.2060
   15CHTO  H213 5954   6.303   3.910   1.637  2.5792 -0.5183 -0.9591
   15CHTO  C110 5955   6.221   3.891   1.833 -0.5101  0.4690  0.8402
   15CHTO  H214 5956   6.261   3.881   1.934  0.5310 -2.5292  0.1751
   15CHTO   O78 5957   6.174   3.759   1.791 -0.2832 -0.2588 -0.3868
   15CHTO  H200 5958   6.094   3.742   1.839 -0.9418  0.6665 -1.1306
   15CHTO  C111 5959   6.112   4.002   1.837 -0.6853  0.3983  0.5137
   15CHTO  H215 5960   6.057   4.003   1.742 -0.7648  0.2855  0.5589
   15CHTO   N19 5961   6.015   3.972   1.944  0.9993  0.0337 -0.4860
   15CHTO  H207 5962   5.943   3.905   1.899 -0.0268  1.9672 -1.7799
   15CHTO  H208 5963   6.068   3.921   2.024  1.3997 -2.3078 -2.1936
   15CHTO   O74 5964   6.470   3.832   1.755  0.1632  0.3636  0.3183
   15CHTO  C115 5965   6.484   3.719   1.642 -0.3504 -0.1042 -0.5114
   15CHTO  H219 5966   6.386   3.695   1.600 -0.8345  0.0775  0.4984
   15CHTO   O76 5967   6.558   3.774   1.525  0.2539 -0.1308 -0.0939
   15CHTO  C122 5968   6.584   3.688   1.413  0.4502 -0.3180 -0.4414
   15CHTO  H226 5969   6.658   3.746   1.358 -1.1130 -0.3419 -2.6592
   15CHTO  C126 5970   6.453   3.699   1.330 -0.0648 -0.6860  0.2987
   15CHTO   O85 5971   6.489   3.656   1.203 -0.7228 -0.0912  0.0968
   15CHTO  H206 5972   6.461   3.714   1.135 -1.0127 -0.5233 -0.1538
   15CHTO  C121 5973   6.635   3.555   1.458 -0.6023  0.5134 -0.0481
   15CHTO  H225 5974   6.629   3.491   1.367 -2.2631  0.9061 -0.2399
   15CHTO   O81 5975   6.775   3.567   1.501  0.0593 -0.5884 -0.5288
   15CHTO  H202 5976   6.827   3.508   1.450  2.3933  1.3614 -0.4894
   15CHTO  C119 5977   6.546   3.488   1.578 -0.0104 -0.1318  0.0234
   15CHTO  H223 5978   6.444   3.493   1.539  0.1470 -0.0157 -0.3789
   15CHTO  C117 5979   6.552   3.588   1.698 -0.2473  0.4048 -0.1555
   15CHTO  H221 5980   6.651   3.628   1.721 -0.8970  1.3989  0.9511
   15CHTO   N20 5981   6.496   3.538   1.824 -0.7331  0.0021 -0.2406
   15CHTO  H209 5982   6.566   3.524   1.905 -0.4531  1.2511 -0.2507
   15CHTO  H210 5983   6.433   3.452   1.808  1.1220 -1.1103 -1.8650
   15CHTO   O80 5984   6.581   3.318   1.594 -0.0887 -0.7334  0.1780
   15CHTO  C103 5985   6.467   3.208   1.568 -0.0415 -0.4047 -0.5542
   15CHTO  H190 5986   6.497   3.108   1.599  2.0090  0.7861  1.4201
   15CHTO  C101 5987   6.333   3.227   1.654 -0.3046 -0.0073 -0.7987
   15CHTO  H188 5988   6.300   3.326   1.622  1.0793  0.9619  0.6870
   15CHTO   O68 5989   6.354   3.217   1.812  1.0109  0.3842  0.2224
   15CHTO  H168 5990   6.419   3.157   1.842 -0.4701 -0.2367  2.4032
   15CHTO   C99 5991   6.229   3.114   1.609  0.1663  0.0560 -0.4330
   15CHTO  H186 5992   6.247   3.008   1.638 -1.5170 -0.3118 -0.6568
   15CHTO   N17 5993   6.089   3.141   1.656  0.5618 -0.2409 -0.2316
   15CHTO  H174 5994   6.017   3.082   1.602 -0.1674  0.7915 -0.4097
   15CHTO  H175 5995   6.075   3.245   1.630  0.9616 -0.5511 -1.7306
   15CHTO   C97 5996   6.227   3.108   1.453  0.2302 -0.4894 -0.1986
   15CHTO  H184 5997   6.180   3.204   1.427  0.9752 -0.0463  0.0580
   15CHTO   O64 5998   6.357   3.090   1.391 -0.3752 -0.0050  0.1028
   15CHTO  C104 5999   6.438   3.208   1.408  0.5934  0.6423  0.4254
   15CHTO  H191 6000   6.383   3.299   1.383 -1.1560 -0.7829 -0.9709
   15CHTO  C108 6001   6.564   3.208   1.321  0.0529 -0.0454  0.4075
   15CHTO   O71 6002   6.522   3.208   1.184  0.2289 -0.3552  1.0356
   15CHTO  H171 6003   6.589   3.229   1.121 -0.1636 -1.3587  0.2716
   15CHTO   O62 6004   6.139   2.993   1.408 -0.6358  0.2199 -0.1864
   15CHTO   C91 6005   6.086   3.016   1.273  0.7025 -0.1513  0.7538
   15CHTO  H178 6006   6.135   3.104   1.230 -1.1344  1.0990  1.1555
   15CHTO   C92 6007   5.931   3.052   1.288  1.0090  0.2258  0.2314
   15CHTO  H179 6008   5.918   3.132   1.362 -2.5722  0.9780 -1.0961
   15CHTO   O66 6009   5.887   3.113   1.167 -0.3137  0.3506 -0.2072
   15CHTO  H166 6010   5.793   3.117   1.162 -0.3867 -1.1084 -0.0065
   15CHTO   C93 6011   5.843   2.921   1.325  0.7500  0.5490 -0.2519
   15CHTO  H180 6012   5.740   2.931   1.286  0.3701  0.0485  0.6051
   15CHTO   N16 6013   5.827   2.897   1.470  0.0716  0.7064  0.3775
   15CHTO  H172 6014   5.725   2.919   1.494 -0.2024  0.6371 -0.6753
   15CHTO  H173 6015   5.859   2.798   1.499  0.3203  0.7470  0.2497
   15CHTO   C94 6016   5.907   2.801   1.251  0.4939 -0.1587  0.8852
   15CHTO  H181 6017   5.983   2.752   1.312  0.5886  0.2540  1.1006
   15CHTO   O61 6018   5.977   2.847   1.129 -0.4658 -0.0786 -0.2213
   15CHTO   C95 6019   6.100   2.907   1.165  0.3642 -0.2434  1.1072
   15CHTO  H182 6020   6.163   2.827   1.203 -0.3666 -0.4692  1.8838
   15CHTO  C106 6021   6.171   2.968   1.041 -0.6810 -0.2103 -1.2506
   15CHTO   O69 6022   6.305   2.985   1.068 -0.1875  0.1018 -0.6797
   15CHTO  H169 6023   6.358   3.017   0.997 -0.1806  3.3492  0.7203
   15CHTO   O63 6024   5.801   2.700   1.205  0.1578  0.6464  0.2231
   15CHTO   C96 6025   5.852   2.547   1.208 -0.9461 -0.4670  0.5036
   15CHTO  H183 6026   5.910   2.530   1.299  2.0285 -2.7530 -1.7240
   15CHTO   C98 6027   5.950   2.498   1.088 -0.3154 -0.3987 -0.7290
   15CHTO  H185 6028   5.913   2.533   0.990  0.1414 -2.9832 -1.8577
   15CHTO   O67 6029   6.075   2.575   1.109 -0.2387  0.0037  0.9569
   15CHTO  H167 6030   6.110   2.572   1.196  0.6422  0.0184  0.6034
   15CHTO  C102 6031   5.977   2.339   1.087 -0.1861  0.1805  0.8553
   15CHTO  H189 6032   6.050   2.318   1.167  0.1641  1.9969  1.0347
   15CHTO   N18 6033   6.034   2.290   0.961  0.0598 -0.3199  0.0014
   15CHTO  H176 6034   6.133   2.331   0.949 -0.2949  0.4651 -0.2739
   15CHTO  H177 6035   6.050   2.184   0.975 -1.0154 -0.2774  1.6819
   15CHTO  C105 6036   5.854   2.256   1.128 -0.3849  0.0208 -0.0478
   15CHTO  H192 6037   5.779   2.262   1.049 -0.5555  0.4793  0.1493
   15CHTO   O65 6038   5.778   2.322   1.235 -1.0281  0.4259 -0.1341
   15CHTO  C100 6039   5.731   2.452   1.202 -0.3959  0.5363  0.5536
   15CHTO  H187 6040   5.694   2.456   1.099 -0.6136  2.2180  0.6804
   15CHTO  C107 6041   5.619   2.489   1.308 -0.0599  0.1044 -0.3579
   15CHTO   O70 6042   5.511   2.400   1.307  0.4265 -0.3578 -0.1732
   15CHTO  H170 6043   5.536   2.311   1.293 -1.0046 -0.7678 -0.1988
   15CHTO   O57 6044   5.922   2.100   1.175 -0.0389 -0.6050 -0.1434
   15CHTO   C85 6045   5.932   2.068   1.315  0.0042  0.1852 -0.2989
   15CHTO  H157 6046   5.915   2.161   1.373  0.9564 -0.0938  0.4438
   15CHTO   C83 6047   6.077   2.023   1.345  0.4798  0.0401  0.6734
   15CHTO  H155 6048   6.141   2.105   1.314  0.6289 -1.0689 -2.1267
   15CHTO   O56 6049   6.114   1.912   1.263 -0.3043 -0.2585 -0.5822
   15CHTO  H135 6050   6.079   1.919   1.176 -0.0119 -0.3131 -0.7074
   15CHTO   C81 6051   6.091   2.003   1.499  0.1699 -0.1575 -0.2765
   15CHTO  H153 6052   6.050   2.093   1.546 -1.5497 -1.1158  0.1082
   15CHTO   N14 6053   6.227   1.977   1.545  0.0004  0.2857 -0.3098
   15CHTO  H141 6054   6.230   1.995   1.650 -0.1376  2.0515 -0.5940
   15CHTO  H142 6055   6.301   2.038   1.497 -0.7146  0.4422 -1.2382
   15CHTO   C79 6056   5.987   1.887   1.542  0.1003  0.6856  1.0714
   15CHTO  H151 6057   5.990   1.880   1.651  0.4426  0.5210  1.0541
   15CHTO   O52 6058   5.855   1.920   1.500  0.4612 -0.6281 -0.5417
   15CHTO   C86 6059   5.831   1.955   1.359 -0.5777  0.2369 -0.3833
   15CHTO  H158 6060   5.835   1.860   1.301 -0.8563  0.0038 -0.0207
   15CHTO   C90 6061   5.677   2.001   1.352 -0.5754  0.3503 -0.7446
   15CHTO   O60 6062   5.575   1.906   1.366 -0.0471 -0.1848 -0.5990
   15CHTO  H138 6063   5.601   1.826   1.325 -2.8539 -1.4411 -0.0990
   15CHTO   O50 6064   6.032   1.759   1.484 -0.3390 -0.1371  0.2588
   15CHTO   C73 6065   6.015   1.619   1.514  0.5509 -0.1605 -0.4261
   15CHTO  H145 6066   5.909   1.598   1.538  0.1744  0.8732 -1.1246
   15CHTO   C74 6067   6.106   1.571   1.638  0.1518 -0.1680  0.2919
   15CHTO  H146 6068   6.082   1.629   1.728 -0.5368  0.2146 -0.1281
   15CHTO   O54 6069   6.055   1.436   1.662  0.0671  0.5101  0.4928
   15CHTO  H133 6070   6.096   1.386   1.730 -0.5118  0.6801  0.9693
   15CHTO   C75 6071   6.257   1.582   1.588 -0.7067  0.1013 -0.1951
   15CHTO  H147 6072   6.284   1.684   1.560 -0.7658 -0.3503 -1.9210
   15CHTO   N13 6073   6.360   1.543   1.688  0.3917  0.0650 -0.6550
   15CHTO  H139 6074   6.326   1.539   1.790  0.4907  2.2470 -0.5077
   15CHTO  H140 6075   6.435   1.621   1.685  1.0777 -0.5707 -0.3099
   15CHTO   C76 6076   6.273   1.497   1.457  0.2238 -0.1335 -0.0818
   15CHTO  H148 6077   6.261   1.394   1.489  0.0714 -0.3369 -0.7749
   15CHTO   O49 6078   6.178   1.556   1.351 -0.1964 -0.1608 -0.4847
   15CHTO   C77 6079   6.043   1.537   1.386  0.3018 -0.7612 -0.1222
   15CHTO  H149 6080   6.041   1.430   1.407 -0.2823 -1.1383 -2.0412
   15CHTO   C88 6081   5.949   1.578   1.273 -0.4979 -0.1059  0.5873
   15CHTO   O58 6082   5.965   1.494   1.171  0.1448 -0.0949  0.1585
   15CHTO  H136 6083   5.901   1.513   1.105  2.3218 -1.4676 -2.4836
   15CHTO   O51 6084   6.416   1.524   1.395  0.5769  0.2786  0.6900
   15CHTO   C78 6085   6.441   1.488   1.254  0.7941  0.1982  0.6733
   15CHTO  H150 6086   6.343   1.470   1.205  0.5869  0.0378  1.1487
   15CHTO   C80 6087   6.527   1.363   1.249 -0.4899  0.1465  0.2517
   15CHTO  H152 6088   6.619   1.386   1.305 -1.0252  1.4002  0.6286
   15CHTO   O55 6089   6.453   1.265   1.315 -0.2710 -0.4169  0.2257
   15CHTO  H134 6090   6.509   1.195   1.344 -1.2460 -2.6743 -3.0397
   15CHTO   C84 6091   6.562   1.316   1.100  0.3829  0.4336 -0.1487
   15CHTO  H156 6092   6.472   1.279   1.051 -0.9262  1.5640  1.3415
   15CHTO   N15 6093   6.650   1.197   1.085  0.1264 -0.2050  0.1924
   15CHTO  H143 6094   6.601   1.119   1.030 -0.4921  0.1579  0.2147
   15CHTO  H144 6095   6.673   1.159   1.182  3.5831 -2.2324 -1.3336
   15CHTO   C87 6096   6.625   1.438   1.034 -0.5998  0.7663  0.7234
   15CHTO  H159 6097   6.723   1.457   1.079 -0.3444 -2.1854  1.5003
   15CHTO   O53 6098   6.527   1.575   1.047 -0.4890 -0.4201  0.6365
   15CHTO   C82 6099   6.508   1.606   1.183  0.1958 -0.2378  0.0302
   15CHTO  H154 6100   6.601   1.618   1.238 -1.0232 -1.8654  2.5538
   15CHTO   C89 6101   6.436   1.739   1.201  0.0245 -0.8753 -0.3391
   15CHTO   O59 6102   6.498   1.852   1.143 -0.4969  0.2992 -0.4381
   15CHTO  H137 6103   6.540   1.903   1.209  0.3347  0.0507 -0.7719
   15CHTO   O45 6104   6.677   1.408   0.868 -0.0590  0.3580  0.2638
   15CHTO   C67 6105   6.783   1.500   0.823 -0.2158 -0.0243  0.7783
   15CHTO  H124 6106   6.790   1.588   0.888 -0.0189  1.4712 -1.2208
   15CHTO   C65 6107   6.924   1.427   0.834 -1.0565  0.3696  0.3745
   15CHTO  H122 6108   6.900   1.323   0.811 -0.9536  0.6393 -0.9373
   15CHTO   O44 6109   6.977   1.443   0.967  0.6855  0.7039  0.1367
   15CHTO  H102 6110   6.949   1.372   1.022 -0.4988  1.6940  0.8486
   15CHTO   C63 6111   7.015   1.468   0.714 -0.2117  0.0012 -0.2612
   15CHTO  H120 6112   6.988   1.418   0.622  1.1495 -0.2811 -0.5038
   15CHTO   N11 6113   7.160   1.448   0.728 -0.2927  0.1253  0.5288
   15CHTO  H108 6114   7.188   1.462   0.831 -0.4086 -0.0069  0.5785
   15CHTO  H109 6115   7.183   1.346   0.711 -0.3910  0.0610  0.7773
   15CHTO   C61 6116   6.986   1.624   0.677 -0.5186  0.9779 -0.8145
   15CHTO  H118 6117   7.054   1.639   0.592  0.2213  2.1046 -0.0423
   15CHTO   O40 6118   6.849   1.650   0.636 -0.5325 -0.3712  0.4826
   15CHTO   C68 6119   6.741   1.557   0.674 -0.7441 -0.2258 -0.2044
   15CHTO  H125 6120   6.727   1.475   0.600 -1.2885 -1.6715  1.4628
   15CHTO   C72 6121   6.609   1.643   0.685  0.0979  0.2596 -0.4196
   15CHTO   O48 6122   6.551   1.677   0.558  0.0625  0.1227  0.1959
   15CHTO  H105 6123   6.462   1.646   0.564 -0.3904  1.3367 -0.0953
   15CHTO   O38 6124   7.018   1.708   0.787  0.0194  0.6746  0.2242
   15CHTO   C55 6125   7.040   1.841   0.741 -0.4089  0.1080  0.6468
   15CHTO  H112 6126   6.991   1.865   0.645  2.4205  2.4503 -0.2864
   15CHTO   C56 6127   7.197   1.866   0.738  0.0271 -0.2177 -0.1547
   15CHTO  H113 6128   7.243   1.834   0.832  1.4783 -0.2445 -0.8594
   15CHTO   O42 6129   7.247   1.774   0.642  0.0371  0.2030  0.1605
   15CHTO  H100 6130   7.339   1.761   0.654  0.0684  1.0806  0.8504
   15CHTO   C57 6131   7.235   2.019   0.711  0.6296  0.1205 -0.5035
   15CHTO  H114 6132   7.200   2.056   0.615  1.4911 -0.2473 -0.9609
   15CHTO   N10 6133   7.380   2.049   0.726  0.3612  0.2166  0.0478
   15CHTO  H106 6134   7.388   2.147   0.771  0.2954  0.8687 -1.3252
   15CHTO  H107 6135   7.421   1.974   0.792 -2.2803  0.6643  2.2814
   15CHTO   C58 6136   7.154   2.099   0.817  0.2444 -0.1951  1.0494
   15CHTO  H115 6137   7.198   2.081   0.917  0.8536 -0.0474  0.8110
   15CHTO   O37 6138   7.016   2.071   0.812  0.3913  0.4382  0.3990
   15CHTO   C59 6139   6.979   1.935   0.845  0.1735 -0.6387  0.1203
   15CHTO  H116 6140   7.012   1.913   0.946 -1.4834  0.1421  0.8424
   15CHTO   C70 6141   6.824   1.919   0.855  0.2142 -0.3403  0.1479
   15CHTO   O46 6142   6.749   2.010   0.936  0.2272 -0.1148 -0.3738
   15CHTO  H103 6143   6.676   1.963   0.971  1.7771 -1.4325  1.1823
   15CHTO   O39 6144   7.159   2.259   0.788 -0.0333  0.0871 -0.3435
   15CHTO   C60 6145   7.112   2.343   0.899 -0.1308 -0.5029 -0.1229
   15CHTO  H117 6146   7.080   2.279   0.982  0.6307 -1.4405 -0.5460
   15CHTO   C62 6147   7.237   2.416   0.958  0.3320 -0.2253  0.4594
   15CHTO  H119 6148   7.317   2.340   0.973  0.3140 -0.0523  1.4049
   15CHTO   O43 6149   7.301   2.508   0.863 -0.0812  0.3732 -0.2454
   15CHTO  H101 6150   7.337   2.462   0.791  0.0536 -1.0792  0.7375
   15CHTO   C66 6151   7.194   2.474   1.090  0.3518 -0.1930 -0.6018
   15CHTO  H123 6152   7.134   2.405   1.150  3.0869 -0.1816  2.3069
   15CHTO   N12 6153   7.309   2.512   1.181  0.1225  0.2225  0.2429
   15CHTO  H110 6154   7.365   2.597   1.143  0.9797  0.8754  2.8324
   15CHTO  H111 6155   7.277   2.534   1.282  1.7619  2.8170  0.2627
   15CHTO   C69 6156   7.083   2.589   1.062  0.1246 -0.3313 -1.1228
   15CHTO  H126 6157   7.119   2.688   1.027  0.4673 -0.2307 -0.4773
   15CHTO   O41 6158   6.962   2.528   0.982 -0.3146 -0.6308 -0.3009
   15CHTO   C64 6159   7.000   2.445   0.868 -0.5523  0.8851 -0.0169
   15CHTO  H121 6160   7.037   2.512   0.787  0.5973 -0.4492 -0.6348
   15CHTO   C71 6161   6.874   2.375   0.801  0.5457 -0.0799  0.4870
   15CHTO   O47 6162   6.803   2.477   0.730  0.3750  0.0796  0.4532
   15CHTO  H104 6163   6.711   2.458   0.730  0.4932 -0.4960 -0.0212
   15CHTO   O34 6164   7.016   2.624   1.207 -0.3103 -0.0495 -0.7420
   15CHTO   C49 6165   6.961   2.683   1.316  0.0365  0.7232  0.1355
   15CHTO   H91 6166   7.039   2.672   1.392  0.4249  0.2260 -0.3297
   15CHTO   C47 6167   6.833   2.604   1.341  0.8241 -0.2382 -0.1307
   15CHTO   H89 6168   6.804   2.651   1.438 -2.5057 -0.0987 -1.1306
   15CHTO   O33 6169   6.864   2.465   1.368 -0.3285 -0.6404  0.0120
   15CHTO   H70 6170   6.792   2.428   1.415 -2.5457  3.4565  0.1381
   15CHTO   C45 6171   6.722   2.621   1.223 -0.4334  0.7140 -0.2263
   15CHTO   H87 6172   6.738   2.534   1.158  1.4445  1.5271 -0.8464
   15CHTO    N8 6173   6.589   2.616   1.289 -0.3614  0.2016  0.1124
   15CHTO   H75 6174   6.603   2.622   1.396  1.1167  0.4343 -0.0819
   15CHTO   H76 6175   6.508   2.679   1.256  1.4484  1.8633 -1.2137
   15CHTO   C43 6176   6.752   2.751   1.131  0.3500 -0.0888  0.0249
   15CHTO   H85 6177   6.832   2.720   1.063 -0.8694  0.9279 -1.9189
   15CHTO   O29 6178   6.798   2.856   1.220 -0.0686  0.1509 -0.4510
   15CHTO   C50 6179   6.920   2.833   1.280 -0.0187  0.2028 -0.0155
   15CHTO   H92 6180   7.000   2.874   1.215 -1.9109  1.7001 -1.4608
   15CHTO   C54 6181   6.923   2.921   1.400  0.0633 -0.6004  0.2497
   15CHTO   O36 6182   6.806   2.921   1.478 -0.3297  0.4393  0.2921
   15CHTO   H72 6183   6.781   2.836   1.509 -4.3745 -0.1611 -4.0622
   15CHTO   O27 6184   6.650   2.802   1.047 -0.3887  0.1703  0.2102
   15CHTO   C37 6185   6.633   2.734   0.920  0.3008 -0.3343  0.2734
   15CHTO   H79 6186   6.714   2.659   0.914  0.5834  0.0974 -1.7711
   15CHTO   C38 6187   6.488   2.666   0.895  0.3276 -0.1051  0.2837
   15CHTO   H80 6188   6.407   2.738   0.915 -0.5474 -0.5716 -1.4406
   15CHTO   O31 6189   6.487   2.564   0.999 -0.5125  0.3009 -0.3548
   15CHTO   H68 6190   6.409   2.512   1.009  0.1223 -0.1057  3.2527
   15CHTO   C39 6191   6.475   2.604   0.751 -0.9960 -0.5148 -0.1158
   15CHTO   H81 6192   6.524   2.507   0.747 -1.5741 -0.8996  1.6460
   15CHTO    N7 6193   6.331   2.560   0.718  0.1532  0.4537 -0.1398
   15CHTO   H73 6194   6.310   2.458   0.689 -1.3923  1.3278 -2.2401
   15CHTO   H74 6195   6.251   2.611   0.770 -0.8767  0.9747 -2.1697
   15CHTO   C40 6196   6.523   2.704   0.639 -0.2469  0.0250  1.0615
   15CHTO   H82 6197   6.450   2.785   0.639 -0.3042 -0.0192 -0.5051
   15CHTO   O26 6198   6.656   2.750   0.677 -0.4122 -0.0539 -0.6656
   15CHTO   C41 6199   6.650   2.835   0.793 -0.3123 -0.1527  0.0555
   15CHTO   H83 6200   6.560   2.898   0.785  0.5083  1.0862  0.5255
   15CHTO   C52 6201   6.781   2.916   0.801  0.7040  0.2438 -0.7165
   15CHTO   O35 6202   6.798   2.994   0.905  0.2383 -0.5389  0.3165
   15CHTO   H71 6203   6.762   2.953   0.981  0.6593 -2.3740 -0.4521
   15CHTO   O28 6204   6.538   2.641   0.510 -0.3208  0.7439 -0.4675
   15CHTO   C42 6205   6.580   2.715   0.392  0.1451  0.0772 -0.0410
   15CHTO   H84 6206   6.593   2.631   0.323  0.5816  2.1431 -2.5311
   15CHTO   C44 6207   6.718   2.781   0.383  0.6277 -0.0794 -0.1233
   15CHTO   H86 6208   6.732   2.854   0.463 -0.1370 -2.0215  1.8266
   15CHTO   O32 6209   6.815   2.674   0.390  0.0051 -0.0126 -0.1183
   15CHTO   H69 6210   6.870   2.687   0.464 -0.3267 -2.8632  0.6928
   15CHTO   C48 6211   6.733   2.859   0.247  1.1156  0.1418  0.1047
   15CHTO   H90 6212   6.735   2.797   0.158 -0.2667  0.6145 -0.2666
   15CHTO    N9 6213   6.856   2.940   0.243  0.2264  0.4190  0.1079
   15CHTO   H77 6214   6.856   3.010   0.325  0.9527 -0.4250  0.8438
   15CHTO   H78 6215   6.942   2.875   0.236  0.1523  0.3301  0.0336
   15CHTO   C51 6216   6.619   2.949   0.225  0.7662 -0.7185 -0.8583
   15CHTO   H93 6217   6.613   3.012   0.313 -0.4905 -2.0362  0.0138
   15CHTO   O30 6218   6.507   2.865   0.214  0.2598  0.2527  0.1737
   15CHTO   C46 6219   6.456   2.802   0.332  0.3258  0.1345 -0.1004
   15CHTO   H88 6220   6.423   2.878   0.404 -2.2442  0.4872 -1.6212
   15CHTO   C53 6221   6.330   2.719   0.281 -0.0281  0.5770 -0.6864
   15CHTO   O72 6222   6.273   2.639   0.388  0.3249 -0.7365  0.9329
   15CHTO  H199 6223   6.223   2.567   0.355  0.7730 -0.4236 -0.4664
   15CHTO   O22 6224   6.616   3.025   0.104 -0.2266  0.0233 -0.0756
   15CHTO   C31 6225   6.540   3.154   0.088 -0.2794  0.5337  0.4998
   15CHTO   H59 6226   6.530   3.166  -0.022 -1.2031  2.8636  0.7974
   15CHTO   C29 6227   6.400   3.160   0.149  0.2182 -0.0152 -0.2359
   15CHTO   H57 6228   6.414   3.147   0.257 -2.7054 -1.1824  0.0338
   15CHTO   O21 6229   6.317   3.047   0.102  0.2586 -0.3295 -0.3273
   15CHTO   H37 6230   6.348   2.960   0.116  2.4023  0.3247 -0.8734
   15CHTO   C27 6231   6.341   3.305   0.130 -0.5510 -0.9386 -0.4601
   15CHTO   H55 6232   6.319   3.327   0.024  0.9394  0.3725 -0.5168
   15CHTO    N5 6233   6.216   3.318   0.206 -0.3845 -0.7262  0.2700
   15CHTO   H43 6234   6.233   3.379   0.293 -1.5548 -0.1860  0.1361
   15CHTO   H44 6235   6.178   3.223   0.240 -0.6691 -1.0919 -1.0420
   15CHTO   C25 6236   6.452   3.409   0.185  0.7998 -0.4323 -0.0696
   15CHTO   H53 6237   6.463   3.389   0.293  2.4553  0.5086 -0.0506
   15CHTO   O17 6238   6.572   3.390   0.104  0.0185 -0.1320 -0.1286
   15CHTO   C32 6239   6.635   3.264   0.133  0.9630 -0.6796 -0.3057
   15CHTO   H60 6240   6.656   3.250   0.239  0.3944 -1.0009 -0.2333
   15CHTO   C36 6241   6.771   3.268   0.044 -0.2727  0.4992 -0.3036
   15CHTO   O25 6242   6.854   3.389   0.059 -0.0310  0.2320  0.9175
   15CHTO   H40 6243   6.892   3.395   0.145 -2.1678 -0.6228  1.9433
   15CHTO   O15 6244   6.420   3.554   0.178  0.2915 -0.5766 -0.3592
   15CHTO   C19 6245   6.442   3.654   0.275  0.1795 -0.0143  0.6479
   15CHTO   H47 6246   6.419   3.741   0.212 -1.6935 -1.9382 -1.4144
   15CHTO   C20 6247   6.337   3.650   0.391  0.4969  0.2147  0.3485
   15CHTO   H48 6248   6.345   3.558   0.451  1.6347  1.1617  1.6863
   15CHTO   O19 6249   6.203   3.654   0.335 -0.7644  0.4862  0.1752
   15CHTO   H35 6250   6.141   3.627   0.401 -0.4019  2.0116  1.1501
   15CHTO   C21 6251   6.372   3.770   0.490 -0.1798  0.3980  0.3003
   15CHTO   H49 6252   6.348   3.866   0.445 -0.6815  0.0051 -0.2735
   15CHTO    N4 6253   6.293   3.770   0.614  0.0621 -0.3351  0.4239
   15CHTO   H41 6254   6.328   3.834   0.694  3.0882 -1.0522 -0.2251
   15CHTO   H42 6255   6.190   3.786   0.586  0.3729  1.1687  0.0984
   15CHTO   C22 6256   6.526   3.771   0.526  0.2817  0.2259  0.5573
   15CHTO   H50 6257   6.547   3.677   0.576 -1.3427  0.2146  1.2670
   15CHTO   O14 6258   6.616   3.774   0.409 -0.4716  0.1518  0.0901
   15CHTO   C23 6259   6.594   3.664   0.315 -0.5699  0.2423  0.1138
   15CHTO   H51 6260   6.630   3.576   0.371  1.4256  0.9164 -0.0800
   15CHTO   C34 6261   6.679   3.686   0.182  0.4292 -0.2888  0.0981
   15CHTO   O23 6262   6.823   3.689   0.209 -0.1965 -0.4856  0.1950
   15CHTO   H38 6263   6.850   3.608   0.247  0.8611  0.9222  2.5268
   15CHTO   O16 6264   6.563   3.880   0.612 -0.6189  0.1732 -0.1930
   15CHTO   C24 6265   6.594   3.845   0.759 -0.2451 -0.5949  0.5691
   15CHTO   H52 6266   6.553   3.748   0.786 -1.0478 -0.1219  1.0821
   15CHTO   C26 6267   6.544   3.954   0.858 -0.2063 -0.2098  0.2711
   15CHTO   H54 6268   6.602   4.046   0.839  0.0348 -0.6774 -1.2992
   15CHTO   O20 6269   6.405   3.976   0.834 -0.1174  0.6993 -0.2464
   15CHTO   H36 6270   6.397   4.016   0.750  0.4680  0.7414 -0.2810
   15CHTO   C30 6271   6.586   3.925   1.004  0.2865 -0.2918  0.6072
   15CHTO   H58 6272   6.538   3.832   1.037 -0.4923 -1.0165 -2.3979
   15CHTO    N6 6273   6.543   4.041   1.093 -0.3673 -0.4698 -0.4395
   15CHTO   H45 6274   6.591   4.135   1.071 -1.9626  0.2169 -1.0209
   15CHTO   H46 6275   6.555   4.021   1.199 -0.4412  1.2312 -0.0904
   15CHTO   C33 6276   6.740   3.895   1.006  0.3182  0.1949  0.3255
   15CHTO   H61 6277   6.794   3.989   0.984  0.7553 -0.5546 -1.9792
   15CHTO   O18 6278   6.775   3.796   0.912  0.1666  0.5040 -0.3782
   15CHTO   C28 6279   6.749   3.836   0.777 -0.2453 -0.2264  0.1142
   15CHTO   H56 6280   6.795   3.934   0.770  1.7450 -0.8856  2.9539
   15CHTO   C35 6281   6.826   3.731   0.680  0.0190  0.2828  0.1405
   15CHTO   O24 6282   6.968   3.750   0.647 -0.0944  0.1691  0.3783
   15CHTO   H39 6283   7.009   3.672   0.615  0.8272  0.9793 -0.4675
   15CHTO    O9 6284   6.792   3.870   1.134  0.6512  0.0671  0.1980
   15CHTO   C13 6285   6.964   3.878   1.136 -0.1497 -0.2860 -0.2129
   15CHTO   H26 6286   6.996   3.950   1.057 -0.1466 -1.1730 -1.0301
   15CHTO   C11 6287   7.023   3.729   1.111 -0.6298 -0.7720 -0.0239
   15CHTO   H24 6288   7.001   3.701   1.007  0.8985  0.2873 -0.6610
   15CHTO    O8 6289   6.951   3.643   1.198  0.3735  0.1415  0.1360
   15CHTO    H3 6290   6.971   3.555   1.171  1.7627  0.1172  1.1940
   15CHTO    C9 6291   7.175   3.728   1.144  0.9847 -0.4118 -0.1801
   15CHTO   H22 6292   7.216   3.811   1.085  0.0794  0.5671  0.5465
   15CHTO    N2 6293   7.242   3.611   1.097 -0.3176 -0.4724 -0.6459
   15CHTO   H10 6294   7.273   3.557   1.185 -0.5312 -1.1358 -0.9750
   15CHTO   H11 6295   7.175   3.555   1.033  1.4669 -3.7422  0.2038
   15CHTO    C7 6296   7.205   3.772   1.299 -0.1461 -0.2946 -0.3656
   15CHTO   H20 6297   7.293   3.839   1.289 -0.7495  0.3425 -1.4388
   15CHTO    O4 6298   7.106   3.853   1.359  0.0525 -0.1689  0.3352
   15CHTO   C14 6299   7.019   3.945   1.283  0.5266 -0.4618 -0.1589
   15CHTO   H27 6300   7.060   4.040   1.243  1.5042 -1.7115 -2.1848
   15CHTO   C18 6301   6.897   3.987   1.366 -1.0321 -0.4262 -0.6345
   15CHTO   O13 6302   6.930   4.103   1.438 -0.4949  0.4589  0.5009
   15CHTO    H7 6303   6.910   4.099   1.530  0.8929 -0.1169  0.7813
   15CHTO    O2 6304   7.235   3.653   1.402  0.1541  0.4271 -0.0339
   15CHTO    C1 6305   7.365   3.652   1.459 -0.3214  0.3378 -0.9536
   15CHTO   H14 6306   7.413   3.750   1.439  0.4093  0.0352 -0.6849
   15CHTO    C2 6307   7.456   3.543   1.386  0.4499 -0.7634  0.4934
   15CHTO   H15 6308   7.388   3.458   1.371 -1.7038  1.1875 -1.1332
   15CHTO    O6 6309   7.498   3.597   1.262 -0.9100 -0.9795  0.0814
   15CHTO    H1 6310   7.533   3.682   1.281 -2.8330 -0.5278  1.8317
   15CHTO    C3 6311   7.588   3.498   1.475  0.3405  0.3291 -0.0178
   15CHTO   H16 6312   7.669   3.570   1.457  0.4396 -0.6523 -3.9938
   15CHTO    N1 6313   7.638   3.361   1.428 -0.2049  0.1975  0.1831
   15CHTO    H8 6314   7.715   3.378   1.355 -0.8763  0.4832 -0.4556
   15CHTO    H9 6315   7.662   3.283   1.500 -1.8018 -1.7004 -1.2957
   15CHTO    C4 6316   7.562   3.500   1.632 -0.1128 -0.1929 -0.2038
   15CHTO   H17 6317   7.515   3.405   1.661 -0.3217  0.4876  1.7354
   15CHTO    O1 6318   7.487   3.613   1.672  0.4380 -0.9571  0.7653
   15CHTO    C5 6319   7.349   3.625   1.612  0.0832 -0.5919 -0.5935
   15CHTO   H18 6320   7.287   3.535   1.620  0.0958 -0.5577 -0.0964
   15CHTO   C16 6321   7.284   3.744   1.679  1.1204  0.3792  0.0700
   15CHTO   O11 6322   7.272   3.717   1.821 -0.5699  0.0495 -0.0635
   15CHTO    H5 6323   7.208   3.763   1.871  0.5718  0.9358  0.6105
   15CHTO    O3 6324   7.685   3.504   1.705  0.4111  0.4014  0.5164
   15CHTO    C6 6325   7.685   3.469   1.847 -0.1401 -0.5316  0.4732
   15CHTO   H19 6326   7.586   3.462   1.893  0.0291 -3.3485  0.4788
   15CHTO    C8 6327   7.745   3.329   1.873 -0.3322 -0.3263  0.3040
   15CHTO   H21 6328   7.843   3.334   1.827 -0.2890  2.3365  0.5525
   15CHTO    O7 6329   7.654   3.232   1.816 -0.5525 -0.0075  0.3731
   15CHTO    H2 6330   7.680   3.218   1.726 -0.0668 -0.6954  0.6167
   15CHTO   C12 6331   7.772   3.305   2.024 -0.3590 -0.3168  0.8720
   15CHTO   H25 6332   7.673   3.309   2.075  0.4536 -0.6147  2.5323
   15CHTO    N3 6333   7.825   3.170   2.071  0.2550 -0.4886  0.1393
   15CHTO   H12 6334   7.928   3.181   2.101  0.0162  3.3167 -0.1421
   15CHTO   H13 6335   7.758   3.112   2.134 -0.6713 -1.1571 -1.4278
   15CHTO   C15 6336   7.854   3.425   2.080  0.6697  0.8714  0.1529
   15CHTO   H28 6337   7.954   3.429   2.037  0.2644 -3.0382 -1.3943
   15CHTO   O10 6338   7.873   3.423   2.247 -0.1256 -0.6229  0.3454
   15CHTO    H4 6339   7.918   3.346   2.276  0.5760  0.1511  1.3430
   15CHTO    O5 6340   7.785   3.548   2.060 -0.5510 -0.0934  0.0591
   15CHTO   C10 6341   7.760   3.580   1.920 -0.5043 -0.5486 -0.3434
   15CHTO   H23 6342   7.859   3.592   1.875 -0.6436 -0.6478 -0.6717
   15CHTO   C17 6343   7.705   3.718   1.902  0.9642  0.0813  0.0389
   15CHTO   O12 6344   7.574   3.728   1.961  1.2384  0.4881  0.6081
   15CHTO    H6 6345   7.510   3.679   1.913 -0.0501  0.9038  1.8570
   16CHTO  H203 6346   5.708   3.227   0.211 -1.8334 -1.0836  1.3236
   16CHTO   O82 6347   5.773   3.175   0.254  0.1328  0.1318 -0.0882
   16CHTO  C123 6348   5.791   3.206   0.391  0.3600 -0.5622 -0.0423
   16CHTO  H227 6349   5.695   3.187   0.441 -0.2476 -3.2344 -2.0883
   16CHTO   O77 6350   5.895   3.106   0.417 -0.1773 -0.0051  0.6428
   16CHTO  C118 6351   5.967   3.108   0.537 -0.4189 -0.1309  0.0737
   16CHTO  H222 6352   5.914   3.066   0.623  0.9715 -0.3994  0.8175
   16CHTO  C125 6353   6.085   3.005   0.499  0.1864 -0.3864 -0.2755
   16CHTO   O84 6354   6.185   3.043   0.406 -0.0263 -0.1410  0.4373
   16CHTO  H205 6355   6.208   3.133   0.420  1.1088 -0.2904 -0.4091
   16CHTO  C114 6356   6.012   3.252   0.573  0.3548  0.5236 -0.0644
   16CHTO  H218 6357   6.087   3.290   0.504  0.0875  0.2361 -0.5153
   16CHTO  C116 6358   5.905   3.368   0.551 -0.3671  0.3334  0.7949
   16CHTO  H220 6359   5.815   3.365   0.615 -1.5985 -1.5254 -0.9609
   16CHTO   O79 6360   5.970   3.493   0.564  0.0078  0.2748 -0.0083
   16CHTO  H201 6361   5.915   3.567   0.581 -0.2876  0.4386 -1.5866
   16CHTO  C120 6362   5.854   3.352   0.399 -0.4075  0.0134 -0.3276
   16CHTO  H224 6363   5.935   3.370   0.325  1.4606  0.5306  1.7958
   16CHTO   N21 6364   5.752   3.464   0.370  0.2208  0.1534  0.2744
   16CHTO  H211 6365   5.702   3.446   0.276 -1.7597  0.8423  1.1699
   16CHTO  H212 6366   5.810   3.555   0.367  1.2474 -0.5327 -1.5450
   16CHTO   O75 6367   6.074   3.244   0.707 -0.3430  0.2145 -0.2289
   16CHTO  C112 6368   6.217   3.321   0.708  0.1672  0.1031 -0.2139
   16CHTO  H216 6369   6.220   3.413   0.648 -0.1884  1.1741  1.3604
   16CHTO   O73 6370   6.319   3.230   0.671 -0.1175  0.2048 -0.1804
   16CHTO  C113 6371   6.443   3.288   0.635 -0.2842 -0.4551 -0.8628
   16CHTO  H217 6372   6.425   3.364   0.556  0.5591  0.4372 -0.2193
   16CHTO  C124 6373   6.531   3.187   0.572  0.0307 -0.1303 -0.7180
   16CHTO   O83 6374   6.639   3.230   0.488 -1.0647  0.0801 -0.0822
   16CHTO  H204 6375   6.617   3.227   0.397 -2.4369  0.1499  0.2431
   16CHTO  C109 6376   6.505   3.350   0.759  0.1429 -0.1968 -0.2216
   16CHTO  H213 6377   6.533   3.267   0.827  0.6731 -0.5856 -0.9105
   16CHTO  C110 6378   6.403   3.439   0.834  0.8422  0.7412  0.4024
   16CHTO  H214 6379   6.397   3.530   0.773  1.0354  0.4577 -0.0484
   16CHTO   O78 6380   6.455   3.474   0.966 -0.5722  0.8109  0.5172
   16CHTO  H200 6381   6.430   3.415   1.034  1.5371  1.8670  2.2520
   16CHTO  C111 6382   6.266   3.362   0.845  0.7782  0.0905  0.3183
   16CHTO  H215 6383   6.280   3.265   0.895 -1.7843  0.1217  1.1522
   16CHTO   N19 6384   6.163   3.446   0.923 -0.0185  0.1433 -0.3868
   16CHTO  H207 6385   6.188   3.484   1.021  1.6494 -0.3227 -0.6198
   16CHTO  H208 6386   6.066   3.398   0.921 -1.3644  2.6278  1.5236
   16CHTO   O74 6387   6.621   3.435   0.736 -0.1247  0.3319  0.0629
   16CHTO  C115 6388   6.772   3.361   0.751 -0.6216  0.2865 -0.5601
   16CHTO  H219 6389   6.764   3.253   0.740 -1.4624  0.3874 -0.9705
   16CHTO   O76 6390   6.871   3.412   0.625  0.1857 -0.1404  0.1325
   16CHTO  C122 6391   7.000   3.352   0.627 -0.0184 -0.2530  0.2189
   16CHTO  H226 6392   7.059   3.402   0.550 -0.8745 -2.5549 -1.9986
   16CHTO  C126 6393   6.971   3.202   0.569 -0.1911  0.3462  0.2147
   16CHTO   O85 6394   6.952   3.196   0.425  0.0110  0.1862  0.5020
   16CHTO  H206 6395   6.874   3.235   0.391 -0.1328 -2.1419 -2.0276
   16CHTO  C121 6396   7.073   3.361   0.763  0.7538 -0.4824 -0.6101
   16CHTO  H225 6397   7.155   3.286   0.753  0.6891 -0.8342  1.3899
   16CHTO   O81 6398   7.119   3.501   0.782 -0.3385 -0.0734 -0.4571
   16CHTO  H202 6399   7.197   3.506   0.731 -0.7701  0.2932 -1.0844
   16CHTO  C119 6400   6.979   3.319   0.878  0.6397  0.3875  0.4151
   16CHTO  H223 6401   6.973   3.211   0.869 -2.9587  0.4886  0.7763
   16CHTO  C117 6402   6.843   3.398   0.885  0.2290 -0.1064 -0.1966
   16CHTO  H221 6403   6.853   3.507   0.891 -1.8308  0.1755 -1.2095
   16CHTO   N20 6404   6.760   3.364   1.006 -0.3078  0.0565 -0.7393
   16CHTO  H209 6405   6.698   3.446   1.038 -0.9460 -0.8209  0.3161
   16CHTO  H210 6406   6.695   3.279   0.995 -0.8339  0.5334 -1.3466
   16CHTO   O80 6407   7.057   3.332   1.025  0.3513  0.0525 -0.7415
   16CHTO  C103 6408   7.111   3.204   1.104  0.1912 -0.0332 -0.0178
   16CHTO  H190 6409   7.028   3.134   1.111  0.1474 -0.2930 -2.6108
   16CHTO  C101 6410   7.243   3.137   1.049 -0.3724 -0.9474  0.6891
   16CHTO  H188 6411   7.331   3.201   1.053 -0.3636 -0.8073 -1.2057
   16CHTO   O68 6412   7.215   3.098   0.905 -0.3845 -0.9916 -0.2619
   16CHTO  H168 6413   7.275   3.031   0.879 -0.5390 -0.9115 -0.8471
   16CHTO   C99 6414   7.276   3.009   1.143  0.2681 -0.1374 -0.3837
   16CHTO  H186 6415   7.194   2.934   1.148 -0.8107  0.9254 -1.7103
   16CHTO   N17 6416   7.394   2.918   1.108  0.1492 -0.5485 -0.0845
   16CHTO  H174 6417   7.450   2.937   1.018  1.2537 -1.0234  0.4952
   16CHTO  H175 6418   7.366   2.813   1.104 -0.3181 -0.3891 -1.1883
   16CHTO   C97 6419   7.291   3.067   1.281  0.1206  1.0775 -0.2105
   16CHTO  H184 6420   7.383   3.125   1.267 -0.5274  1.8575 -1.2704
   16CHTO   O64 6421   7.177   3.146   1.322  0.5906  0.1660  0.0708
   16CHTO  C104 6422   7.143   3.260   1.242 -0.1223  0.7030  0.7008
   16CHTO  H191 6423   7.223   3.333   1.234 -0.4342  1.1000  1.2097
   16CHTO  C108 6424   7.027   3.337   1.312  0.2439 -0.2534 -0.1305
   16CHTO   O71 6425   7.063   3.399   1.440 -0.4125 -0.1294  0.3988
   16CHTO  H171 6426   6.995   3.455   1.470 -0.6300  0.1822 -0.6482
   16CHTO   O62 6427   7.299   2.965   1.387 -0.3577  0.2002 -0.6038
   16CHTO   C91 6428   7.351   3.003   1.515  0.1913  0.1749  0.0141
   16CHTO  H178 6429   7.428   3.079   1.500  1.1461 -0.7259  0.3206
   16CHTO   C92 6430   7.432   2.881   1.562  0.1769 -0.8103 -0.0132
   16CHTO  H179 6431   7.480   2.850   1.468  0.3333 -3.2392  0.8249
   16CHTO   O66 6432   7.531   2.918   1.661  0.1554 -0.3497  0.2555
   16CHTO  H166 6433   7.623   2.905   1.651  0.2992 -0.8931  2.0337
   16CHTO   C93 6434   7.335   2.768   1.629 -0.5535  0.4151 -0.0691
   16CHTO  H180 6435   7.395   2.726   1.711 -0.5921 -0.7081 -0.6073
   16CHTO   N16 6436   7.313   2.649   1.546  0.4831 -0.3455 -0.5276
   16CHTO  H172 6437   7.280   2.672   1.446  0.9931 -0.7430 -0.7899
   16CHTO  H173 6438   7.235   2.591   1.592 -0.4828  0.4658 -1.1206
   16CHTO   C94 6439   7.200   2.822   1.684  0.3405  0.0828 -0.0369
   16CHTO  H181 6440   7.124   2.817   1.605 -0.1233 -4.0033  0.5587
   16CHTO   O61 6441   7.218   2.958   1.730 -0.4440 -0.5006  0.2170
   16CHTO   C95 6442   7.244   3.054   1.622 -0.0550  0.5991  0.1156
   16CHTO  H182 6443   7.149   3.076   1.572 -0.0188  0.1326 -0.1637
   16CHTO  C106 6444   7.290   3.191   1.685  0.2484 -0.2609  0.0468
   16CHTO   O69 6445   7.311   3.282   1.572 -0.5709  0.1557 -0.2401
   16CHTO  H169 6446   7.246   3.350   1.566  0.4393  1.2927  1.4910
   16CHTO   O63 6447   7.158   2.727   1.822  0.0233  0.2277  0.2357
   16CHTO   C96 6448   7.043   2.602   1.788  1.1403  0.7083  0.4366
   16CHTO  H183 6449   7.089   2.528   1.722  0.6087 -0.1686  1.0402
   16CHTO   C98 6450   6.919   2.657   1.707 -0.3232 -0.0780 -0.5028
   16CHTO  H185 6451   6.949   2.701   1.610 -2.5398 -0.4078 -1.3645
   16CHTO   O67 6452   6.829   2.555   1.659  0.4079  0.2164 -0.5324
   16CHTO  H167 6453   6.862   2.508   1.585 -0.9465  0.4167 -1.2725
   16CHTO  C102 6454   6.843   2.757   1.794  0.0280  0.4002  0.1092
   16CHTO  H189 6455   6.752   2.776   1.735  2.0033  2.2662 -2.4737
   16CHTO   N18 6456   6.902   2.891   1.812  0.1941 -0.0683 -0.2286
   16CHTO  H176 6457   7.010   2.887   1.814  0.1378 -1.3800  0.5066
   16CHTO  H177 6458   6.875   2.964   1.737  2.2024  1.4752  0.4845
   16CHTO  C105 6459   6.804   2.687   1.929  0.1074  0.1055 -0.3415
   16CHTO  H192 6460   6.858   2.738   2.008 -1.0682  1.1739 -0.2203
   16CHTO   O65 6461   6.850   2.546   1.938 -0.0113 -0.1228  0.3774
   16CHTO  C100 6462   6.989   2.537   1.923  0.9179 -0.3298 -0.3744
   16CHTO  H187 6463   7.028   2.600   2.004  2.9866  2.3281 -3.3080
   16CHTO  C107 6464   7.037   2.387   1.941 -0.4984 -0.0725 -0.4864
   16CHTO   O70 6465   7.176   2.366   1.915 -0.4184 -0.0817  0.4947
   16CHTO  H170 6466   7.225   2.427   1.967  0.6163  1.1342 -1.8181
   16CHTO   O57 6467   6.630   2.700   1.925 -0.5835 -0.0974  0.0939
   16CHTO   C85 6468   6.569   2.819   1.955 -0.2350 -0.4516  0.8562
   16CHTO  H157 6469   6.635   2.898   1.914 -1.3817  0.6510  1.1006
   16CHTO   C83 6470   6.561   2.861   2.107  0.9737  0.0900 -0.6091
   16CHTO  H155 6471   6.664   2.880   2.136  0.8776  0.5549 -0.5788
   16CHTO   O56 6472   6.511   2.746   2.181  0.3876  0.5999 -0.2854
   16CHTO  H135 6473   6.417   2.746   2.187  0.3891  0.7394 -0.2436
   16CHTO   C81 6474   6.481   2.996   2.107 -1.0657  0.0358 -0.4406
   16CHTO  H153 6475   6.538   3.072   2.052  0.2403 -0.2904  0.4322
   16CHTO   N14 6476   6.482   3.047   2.247  0.2861 -0.0084 -0.2416
   16CHTO  H141 6477   6.437   3.144   2.250  1.4845  0.5572 -0.1917
   16CHTO  H142 6478   6.583   3.051   2.282  0.2603  0.7075 -0.2578
   16CHTO   C79 6479   6.346   2.991   2.040  0.9626  0.6340  0.0769
   16CHTO  H151 6480   6.294   3.087   2.049 -0.4715 -0.1087 -0.2981
   16CHTO   O52 6481   6.357   2.956   1.904 -0.5049  0.2621 -0.7821
   16CHTO   C86 6482   6.427   2.825   1.891 -0.2286 -0.7794 -0.1290
   16CHTO  H158 6483   6.364   2.749   1.942 -1.8831 -0.5672 -1.8095
   16CHTO   C90 6484   6.430   2.787   1.739  0.2110  0.3329  0.3907
   16CHTO   O60 6485   6.523   2.862   1.660 -0.3472  0.2912  0.4264
   16CHTO  H138 6486   6.488   2.944   1.632 -2.7435 -0.6403  0.5244
   16CHTO   O50 6487   6.256   2.894   2.105 -0.6820  0.6532  0.1506
   16CHTO   C73 6488   6.146   2.815   2.157 -0.8320  0.5456  0.0264
   16CHTO  H145 6489   6.176   2.737   2.229  1.3074  3.4528  2.3856
   16CHTO   C74 6490   6.061   2.753   2.046 -0.6402 -0.1335 -0.3371
   16CHTO  H146 6491   6.129   2.688   1.990  0.3130 -0.0442  0.6885
   16CHTO   O54 6492   5.962   2.663   2.092 -0.0501  0.0981  0.8066
   16CHTO  H133 6493   5.992   2.603   2.158  0.1654  0.5212  1.0938
   16CHTO   C75 6494   5.996   2.865   1.954 -0.4368 -0.4354 -0.1837
   16CHTO  H147 6495   6.073   2.926   1.905 -0.2719 -0.0294  0.5740
   16CHTO   N13 6496   5.919   2.819   1.837  0.3107 -0.6369 -0.7115
   16CHTO  H139 6497   5.920   2.711   1.826  0.3749 -0.6549 -0.5369
   16CHTO  H140 6498   5.959   2.850   1.742 -0.1030  0.9813 -0.3715
   16CHTO   C76 6499   5.923   2.964   2.041  0.3425 -0.3000 -0.1112
   16CHTO  H148 6500   5.837   2.907   2.076  1.4652 -1.6081  0.6023
   16CHTO   O49 6501   6.002   3.009   2.158 -0.2303  0.2874  0.1769
   16CHTO   C77 6502   6.048   2.901   2.236  0.2549 -0.0810 -0.6476
   16CHTO  H149 6503   5.977   2.838   2.291 -0.1101  1.6112  0.9019
   16CHTO   C88 6504   6.123   2.969   2.355 -0.0284 -0.1128  0.2940
   16CHTO   O58 6505   6.020   3.042   2.461 -0.0138  0.0719  0.3852
   16CHTO  H136 6506   6.029   3.006   2.547  2.7156 -2.2999 -0.8138
   16CHTO   O51 6507   5.891   3.113   1.963  0.2181 -0.5454  0.4201
   16CHTO   C78 6508   5.833   3.228   2.068  0.2272  0.5721  0.6375
   16CHTO  H150 6509   5.850   3.188   2.170  0.2927 -1.6362 -0.2160
   16CHTO   C80 6510   5.689   3.270   2.044 -0.5200  0.4909  0.3761
   16CHTO  H152 6511   5.672   3.305   1.940  0.0072 -0.4752 -0.0508
   16CHTO   O55 6512   5.613   3.151   2.055  0.0574  0.7786  0.3106
   16CHTO  H134 6513   5.650   3.072   2.022  0.8801  0.0355  2.9223
   16CHTO   C84 6514   5.643   3.383   2.142  0.2458  0.8321  0.8891
   16CHTO  H156 6515   5.650   3.345   2.244 -2.2107 -1.6671  0.2024
   16CHTO   N15 6516   5.495   3.413   2.122 -0.7883 -0.5944  0.2457
   16CHTO  H143 6517   5.479   3.516   2.145 -0.4046 -1.0069  2.4759
   16CHTO  H144 6518   5.470   3.395   2.019 -0.1418 -1.2658  0.2000
   16CHTO   C87 6519   5.731   3.504   2.129 -0.0774 -0.0348  0.1882
   16CHTO  H159 6520   5.716   3.565   2.040 -3.0748 -0.2799  0.4760
   16CHTO   O53 6521   5.882   3.470   2.123  0.3751 -0.0274  0.6298
   16CHTO   C82 6522   5.919   3.355   2.046 -0.4620 -0.0131  0.6736
   16CHTO  H154 6523   5.906   3.386   1.943 -0.8483  0.5277  0.8815
   16CHTO   C89 6524   6.067   3.325   2.074  0.0017 -0.1221 -0.2279
   16CHTO   O59 6525   6.145   3.430   2.024  0.0099  0.1304 -0.0419
   16CHTO  H137 6526   6.196   3.410   1.949 -0.6418 -2.1024  0.0708
   16CHTO   O45 6527   5.687   3.619   2.253  0.1714 -0.6543 -0.4918
   16CHTO   C67 6528   5.787   3.711   2.286 -0.1046  0.1970 -0.5367
   16CHTO  H124 6529   5.873   3.698   2.220  0.7098  1.1780  0.3040
   16CHTO   C65 6530   5.743   3.866   2.268 -0.2898  0.6147 -0.4871
   16CHTO  H122 6531   5.643   3.872   2.310 -0.1808  0.9906 -0.2826
   16CHTO   O44 6532   5.749   3.897   2.126  0.6074  0.4002 -0.4519
   16CHTO  H102 6533   5.835   3.875   2.096  0.7169 -1.1740  0.9004
   16CHTO   C63 6534   5.817   3.964   2.363  0.1989 -0.6086 -0.3668
   16CHTO  H120 6535   5.770   3.967   2.462  0.9092  0.2606 -0.0390
   16CHTO   N11 6536   5.806   4.109   2.324  0.2651  0.3248  0.4287
   16CHTO  H108 6537   5.904   4.153   2.319  0.5326 -0.4729 -2.3164
   16CHTO  H109 6538   5.769   4.124   2.225 -0.7746 -0.4296  0.6979
   16CHTO   C61 6539   5.961   3.910   2.390 -0.1256  0.2011 -0.5092
   16CHTO  H118 6540   6.006   3.969   2.472  1.0924 -1.7366  0.2685
   16CHTO   O40 6541   5.955   3.775   2.441  0.2550  0.2693  0.3943
   16CHTO   C68 6542   5.841   3.694   2.430 -0.1410  0.5110  0.2654
   16CHTO  H125 6543   5.773   3.739   2.506 -0.7443  0.3623 -0.1836
   16CHTO   C72 6544   5.882   3.548   2.473  0.0077  0.6511 -0.5487
   16CHTO   O48 6545   5.782   3.446   2.455  0.3212  0.1295  0.0906
   16CHTO  H105 6546   5.752   3.433   2.367 -1.7443 -1.4357  0.9895
   16CHTO   O38 6547   6.051   3.898   2.273 -0.6437  0.4414  0.2125
   16CHTO   C55 6548   6.195   3.903   2.309 -0.5984 -0.4947 -0.8847
   16CHTO  H112 6549   6.211   3.869   2.413 -0.3187  2.9762  0.2791
   16CHTO   C56 6550   6.248   4.044   2.291 -0.3369 -0.2906 -0.7134
   16CHTO  H113 6551   6.214   4.079   2.192  2.8854 -1.9559 -2.4889
   16CHTO   O42 6552   6.193   4.133   2.389 -0.0680 -0.5342 -0.4967
   16CHTO  H100 6553   6.210   4.106   2.477  1.9415 -0.7719 -0.9216
   16CHTO   C57 6554   6.408   4.049   2.291  0.4018  0.4149 -0.1372
   16CHTO  H114 6555   6.429   4.016   2.393  0.2452  1.3210  0.1920
   16CHTO   N10 6556   6.467   4.183   2.269  0.5091 -0.3330 -0.2186
   16CHTO  H106 6557   6.518   4.204   2.363  0.0549 -2.9358  0.6527
   16CHTO  H107 6558   6.544   4.190   2.193  1.7452 -1.2151  0.9264
   16CHTO   C58 6559   6.457   3.941   2.188  0.7091  0.3461 -0.8587
   16CHTO  H115 6560   6.412   3.957   2.088 -3.2479  0.0843  0.7892
   16CHTO   O37 6561   6.409   3.817   2.240  0.2843 -0.0733  0.2433
   16CHTO   C59 6562   6.272   3.799   2.225  0.1620  0.2749 -0.5301
   16CHTO  H116 6563   6.236   3.796   2.122 -1.1142 -2.0116 -0.0593
   16CHTO   C70 6564   6.242   3.654   2.277 -0.0770  0.5680 -0.6725
   16CHTO   O46 6565   6.346   3.568   2.237  0.2574 -0.1292 -0.4565
   16CHTO  H103 6566   6.418   3.564   2.297  0.5484 -3.1178 -0.9062
   16CHTO   O39 6567   6.618   3.942   2.183  0.4531 -0.4193 -0.1319
   16CHTO   C60 6568   6.679   3.849   2.086 -0.4015  0.1251  0.1885
   16CHTO  H117 6569   6.611   3.802   2.016  1.0797  0.4957 -1.5510
   16CHTO   C62 6570   6.776   3.926   1.988 -0.1135  0.4223  0.0896
   16CHTO  H119 6571   6.717   4.012   1.950 -0.2642  0.4268  0.3343
   16CHTO   O43 6572   6.884   3.980   2.061 -0.2536  0.5929 -0.1188
   16CHTO  H101 6573   6.915   4.050   2.007  0.8640  0.4094  0.2589
   16CHTO   C66 6574   6.829   3.829   1.872 -0.4376  0.4007 -0.3566
   16CHTO  H123 6575   6.740   3.775   1.838  0.4029 -0.8290 -0.6349
   16CHTO   N12 6576   6.885   3.884   1.749 -0.1699  0.8500 -0.1358
   16CHTO  H110 6577   6.927   3.802   1.693  0.4142  1.2548 -0.2998
   16CHTO  H111 6578   6.958   3.959   1.773  0.3593  0.5254 -0.7330
   16CHTO   C69 6579   6.919   3.722   1.938 -0.3388  0.6508  0.4834
   16CHTO  H126 6580   7.003   3.773   1.990 -0.0546  1.3876 -0.6731
   16CHTO   O41 6581   6.826   3.646   2.041 -0.0744  0.5962  0.5563
   16CHTO   C64 6582   6.763   3.733   2.154 -0.0607 -0.2703 -0.4560
   16CHTO  H121 6583   6.838   3.773   2.225  0.0650 -1.3059  0.0028
   16CHTO   C71 6584   6.678   3.642   2.245  0.0170 -0.4106  0.2293
   16CHTO   O47 6585   6.767   3.537   2.294  0.1254 -0.5729 -0.0258
   16CHTO  H104 6586   6.744   3.452   2.260  1.1058 -1.2806  1.0468
   16CHTO   O34 6587   6.969   3.605   1.841  0.1468  0.0977 -0.6513
   16CHTO   C49 6588   7.057   3.487   1.880  0.0626 -1.3392  0.1601
   16CHTO   H91 6589   7.145   3.501   1.816  0.0450 -1.9954 -0.0168
   16CHTO   C47 6590   6.989   3.355   1.846 -0.4776  0.1441  0.4943
   16CHTO   H89 6591   7.069   3.282   1.869 -0.0539  0.4553 -0.0035
   16CHTO   O33 6592   6.959   3.348   1.703 -1.0586  0.3765  0.2327
   16CHTO   H70 6593   6.899   3.418   1.684 -0.8851  0.2435 -0.8336
   16CHTO   C45 6594   6.867   3.337   1.952 -0.0503  0.1717  0.1626
   16CHTO   H87 6595   6.804   3.427   1.954  1.5389  1.3619 -1.7537
   16CHTO    N8 6596   6.781   3.224   1.921  0.6255  0.1990 -0.3941
   16CHTO   H75 6597   6.741   3.231   1.820  2.0383  1.6641 -0.8742
   16CHTO   H76 6598   6.831   3.130   1.932 -0.5475 -0.3088  0.7177
   16CHTO   C43 6599   6.938   3.316   2.096 -0.1609 -0.3193 -0.3987
   16CHTO   H85 6600   6.859   3.305   2.170  1.1257 -0.3210  0.9930
   16CHTO   O29 6601   7.013   3.441   2.118 -1.0212 -0.4577  0.7287
   16CHTO   C50 6602   7.114   3.489   2.026  0.2389  0.1180  0.8336
   16CHTO   H92 6603   7.156   3.589   2.044  1.2220 -0.5965  2.6718
   16CHTO   C54 6604   7.244   3.408   2.056  0.1248  0.5692 -0.1241
   16CHTO   O36 6605   7.353   3.457   1.976  1.1694  0.0823  0.6513
   16CHTO   H72 6606   7.346   3.494   1.890 -3.4048 -0.2885  0.7232
   16CHTO   O27 6607   7.028   3.201   2.100  0.1885 -0.4382 -0.3926
   16CHTO   C37 6608   7.064   3.097   2.194  0.1015  0.1016  0.5043
   16CHTO   H79 6609   7.123   3.137   2.278  1.2767  0.7669 -0.6168
   16CHTO   C38 6610   6.940   3.036   2.264 -0.4614  0.0183 -0.9489
   16CHTO   H80 6611   6.874   2.998   2.185  0.1535  0.2710 -1.5958
   16CHTO   O31 6612   6.871   3.139   2.336  0.0006 -0.0895 -0.2765
   16CHTO   H68 6613   6.792   3.105   2.371 -0.8593  0.5248 -1.5860
   16CHTO   C39 6614   6.979   2.916   2.365  0.0690  0.0600 -0.1570
   16CHTO   H81 6615   7.009   2.962   2.460  3.5088  1.1670 -1.7316
   16CHTO    N7 6616   6.854   2.836   2.391 -0.4350 -0.3580  0.3362
   16CHTO   H73 6617   6.782   2.868   2.316 -0.8549  0.0595  0.9099
   16CHTO   H74 6618   6.811   2.874   2.482  0.9862  0.5787  0.6241
   16CHTO   C40 6619   7.087   2.816   2.307  0.2179 -0.2890 -0.0543
   16CHTO   H82 6620   7.041   2.736   2.249 -1.4858  2.4769 -2.6479
   16CHTO   O26 6621   7.188   2.888   2.221  0.2491  0.1631 -0.2949
   16CHTO   C41 6622   7.149   2.992   2.120  0.0553 -0.0288 -0.2773
   16CHTO   H83 6623   7.094   2.934   2.045 -1.4957  0.0860  0.7657
   16CHTO   C52 6624   7.278   3.056   2.061 -0.3687  0.2933  0.1283
   16CHTO   O35 6625   7.358   2.954   1.989  0.5465 -0.2559 -0.0364
   16CHTO   H71 6626   7.340   2.955   1.897 -2.0584 -0.7394  0.4256
   16CHTO   O28 6627   7.168   2.779   2.417  0.2742 -0.3423 -0.1358
   16CHTO   C42 6628   7.197   2.635   2.447  0.5803  0.0366 -0.1620
   16CHTO   H84 6629   7.297   2.638   2.491  0.0707 -1.6187  1.1269
   16CHTO   C44 6630   7.214   2.535   2.325 -1.0335  0.0678 -0.1830
   16CHTO   H86 6631   7.129   2.547   2.257 -0.9333 -1.6351 -0.6320
   16CHTO   O32 6632   7.330   2.588   2.257  0.1671 -0.8088  0.1717
   16CHTO   H69 6633   7.380   2.520   2.216  0.5386 -0.4581  0.0356
   16CHTO   C48 6634   7.227   2.382   2.361  0.5586  0.1396 -0.4972
   16CHTO   H90 6635   7.312   2.373   2.429 -0.4033 -1.1751  0.5450
   16CHTO    N9 6636   7.244   2.292   2.244 -0.3993 -0.8509 -0.0262
   16CHTO   H77 6637   7.340   2.302   2.197 -0.6232 -0.1902 -0.3545
   16CHTO   H78 6638   7.170   2.299   2.165 -1.2843 -0.6102  0.8079
   16CHTO   C51 6639   7.111   2.341   2.454  0.3710  0.0795  0.3119
   16CHTO   H93 6640   7.013   2.347   2.405 -0.0481  0.9839  1.2461
   16CHTO   O30 6641   7.119   2.427   2.570 -0.2098 -0.2645 -0.0081
   16CHTO   C46 6642   7.097   2.577   2.550 -0.1726 -0.8671  0.2263
   16CHTO   H88 6643   6.999   2.583   2.501  0.0376  0.5494 -0.0242
   16CHTO   C53 6644   7.103   2.653   2.686  0.5580 -0.2447  0.3166
   16CHTO   O72 6645   7.019   2.777   2.690 -0.5295  0.1187  0.0120
   16CHTO  H199 6646   6.958   2.777   2.618  0.2786  0.4891 -0.6908
   16CHTO   O22 6647   7.130   2.205   2.507 -0.4799 -0.6331 -0.2664
   16CHTO   C31 6648   7.024   2.132   2.575  0.4903 -0.3296  0.6551
   16CHTO   H59 6649   7.064   2.032   2.601  0.9573 -0.7293 -1.4832
   16CHTO   C29 6650   6.974   2.190   2.709 -0.6134  0.9832  0.3334
   16CHTO   H57 6651   6.926   2.288   2.691  1.1576  1.9124  0.5427
   16CHTO   O21 6652   7.079   2.211   2.800 -0.2374 -0.0368 -0.9604
   16CHTO   H37 6653   7.038   2.243   2.879 -0.9875  0.8167 -1.6827
   16CHTO   C27 6654   6.863   2.089   2.767  0.0642 -0.0700  0.2671
   16CHTO   H55 6655   6.911   1.993   2.788  2.4804  0.1321 -3.7947
   16CHTO    N5 6656   6.795   2.148   2.888 -0.8472  1.2340  0.5589
   16CHTO   H43 6657   6.847   2.115   2.977 -1.1211  1.3808  0.7745
   16CHTO   H44 6658   6.783   2.255   2.880  3.9558  2.0285  2.2338
   16CHTO   C25 6659   6.756   2.048   2.656  0.3128  0.1360  0.3507
   16CHTO   H53 6660   6.696   2.138   2.639  0.7026 -0.2424 -3.3747
   16CHTO   O17 6661   6.821   2.012   2.534 -0.3534 -0.0980 -0.1494
   16CHTO   C32 6662   6.903   2.114   2.482 -0.5344  0.4815 -0.0481
   16CHTO   H60 6663   6.852   2.208   2.464  0.2559  1.1032  0.9566
   16CHTO   C36 6664   6.942   2.051   2.338  0.6380 -1.2507 -0.0549
   16CHTO   O25 6665   6.836   2.037   2.244 -0.4159 -0.4166 -0.0093
   16CHTO   H40 6666   6.877   2.004   2.166  0.6850  0.3004  0.2388
   16CHTO   O15 6667   6.666   1.927   2.694  0.6956 -0.3054  0.3938
   16CHTO   C19 6668   6.521   1.930   2.712 -0.0112  0.3016 -0.5135
   16CHTO   H47 6669   6.499   2.026   2.761 -2.5261 -1.3915  1.8003
   16CHTO   C20 6670   6.448   1.918   2.576  0.2687  0.5230  0.7356
   16CHTO   H48 6671   6.483   1.833   2.515  1.3839  0.5936  1.2640
   16CHTO   O19 6672   6.475   2.039   2.504 -0.8144 -0.0338 -0.6850
   16CHTO   H35 6673   6.407   2.104   2.510  1.3460  2.1929  0.5680
   16CHTO   C21 6674   6.290   1.905   2.591  0.0433 -0.0125  0.2002
   16CHTO   H49 6675   6.258   1.997   2.640 -0.7055 -0.6827  0.9806
   16CHTO    N4 6676   6.217   1.873   2.463  0.3143  0.5656 -0.8427
   16CHTO   H41 6677   6.193   1.770   2.443  0.7815  0.2764  0.0768
   16CHTO   H42 6678   6.124   1.929   2.468 -0.2763 -0.3990 -0.7909
   16CHTO   C22 6679   6.256   1.804   2.705 -1.2718 -0.0179 -0.1661
   16CHTO   H50 6680   6.280   1.703   2.672 -3.8141 -0.4642 -0.7676
   16CHTO   O14 6681   6.325   1.837   2.832 -0.0827  0.2019  0.0717
   16CHTO   C23 6682   6.468   1.821   2.812 -0.1250 -0.2507  0.1018
   16CHTO   H51 6683   6.490   1.717   2.781 -1.4539 -1.3503  2.6300
   16CHTO   C34 6684   6.535   1.834   2.952  0.7667 -0.7791 -0.2307
   16CHTO   O23 6685   6.515   1.962   3.005 -0.2800 -0.0615 -0.1498
   16CHTO   H38 6686   6.522   2.032   2.943 -0.5569 -2.0140 -2.4760
   16CHTO   O16 6687   6.116   1.819   2.737  0.4454 -0.2360 -0.6569
   16CHTO   C24 6688   6.050   1.712   2.811  0.2731  0.2450  0.2821
   16CHTO   H52 6689   6.119   1.628   2.827  1.0346  0.2971 -2.4667
   16CHTO   C26 6690   5.928   1.668   2.723  0.1596  0.0838  0.3269
   16CHTO   H54 6691   5.867   1.756   2.694 -1.0428 -0.5532  0.8751
   16CHTO   O20 6692   5.972   1.605   2.599 -0.9616  0.3817 -0.1383
   16CHTO   H36 6693   5.896   1.563   2.563 -0.9575 -1.1929  1.5879
   16CHTO   C30 6694   5.843   1.562   2.804 -0.1228 -0.4904 -0.0351
   16CHTO   H58 6695   5.902   1.472   2.826  2.4136  1.4767  1.5220
   16CHTO    N6 6696   5.723   1.516   2.730 -0.7785  0.4819 -0.0227
   16CHTO   H45 6697   5.669   1.450   2.795  0.7200  0.6152  1.3940
   16CHTO   H46 6698   5.659   1.597   2.696 -0.8700  0.9474  1.2270
   16CHTO   C33 6699   5.819   1.610   2.950  0.3152 -0.1368  0.3603
   16CHTO   H61 6700   5.749   1.695   2.952  2.3298  1.5898 -0.6424
   16CHTO   O18 6701   5.942   1.650   3.008  0.9601 -0.3477 -0.2587
   16CHTO   C28 6702   6.007   1.759   2.954 -0.6558 -0.2646 -0.5034
   16CHTO   H56 6703   5.939   1.844   2.941 -1.1641 -1.0668 -3.4691
   16CHTO   C35 6704   6.118   1.789   3.054  0.4387 -0.6167  0.2951
   16CHTO   O24 6705   6.218   1.693   3.080  0.3195 -0.0466  0.5021
   16CHTO   H39 6706   6.180   1.607   3.085 -1.1478  0.5413 -0.3500
   16CHTO    O9 6707   5.761   1.504   3.031 -0.6691 -0.5967 -0.0219
   16CHTO   C13 6708   5.658   1.567   3.153 -0.3107  0.2350 -0.0145
   16CHTO   H26 6709   5.584   1.639   3.113 -0.5756 -0.6263 -1.1146
   16CHTO   C11 6710   5.759   1.627   3.262 -0.3992 -1.3774 -0.2152
   16CHTO   H24 6711   5.807   1.722   3.232  0.4871 -1.6667  0.2623
   16CHTO    O8 6712   5.866   1.532   3.282  0.9485  0.3006  0.6516
   16CHTO    H3 6713   5.831   1.457   3.326  1.0786 -0.3148 -0.3094
   16CHTO    C9 6714   5.677   1.650   3.389  0.4188  0.4068 -0.5750
   16CHTO   H22 6715   5.591   1.712   3.358 -2.3149 -2.8015  0.3530
   16CHTO    N2 6716   5.754   1.738   3.483  0.1234  0.0318 -0.3387
   16CHTO   H10 6717   5.847   1.687   3.503 -0.1680 -0.1851  0.4626
   16CHTO   H11 6718   5.699   1.739   3.575 -1.4174 -3.2196 -1.1457
   16CHTO    C7 6719   5.622   1.514   3.451  0.4136 -0.4825 -0.1080
   16CHTO   H20 6720   5.561   1.554   3.535  2.0725  0.3461  0.7254
   16CHTO    O4 6721   5.549   1.435   3.352 -0.3271  0.5140  0.0075
   16CHTO   C14 6722   5.574   1.436   3.209 -0.1739 -0.0224  0.4200
   16CHTO   H27 6723   5.475   1.440   3.159 -1.0191  2.4422  2.2192
   16CHTO   C18 6724   5.637   1.306   3.172  1.1029  0.2124  0.4284
   16CHTO   O13 6725   5.612   1.256   3.045 -0.0617  0.2400  0.5313
   16CHTO    H7 6726   5.532   1.292   3.011 -0.4334  0.2710  1.4154
   16CHTO    O2 6727   5.726   1.416   3.527  0.5743  0.1038 -0.2608
   16CHTO    C1 6728   5.659   1.307   3.593  0.1194 -0.2159  0.7056
   16CHTO   H14 6729   5.577   1.274   3.526  0.2708  1.8558 -0.5155
   16CHTO    C2 6730   5.598   1.350   3.732 -0.4442 -0.4072 -0.5252
   16CHTO   H15 6731   5.671   1.412   3.786 -2.7496  0.9990  1.0618
   16CHTO    O6 6732   5.489   1.440   3.701 -0.4531  0.5910  0.8396
   16CHTO    H1 6733   5.408   1.409   3.737 -0.8072  1.1843  0.5590
   16CHTO    C3 6734   5.553   1.218   3.818  0.6134 -0.0243 -0.1265
   16CHTO   H16 6735   5.455   1.181   3.784  2.2933 -3.1645 -1.7367
   16CHTO    N1 6736   5.523   1.264   3.960  0.2220  0.1931 -0.4392
   16CHTO    H8 6737   5.477   1.188   4.022  0.0422  0.8186  0.2114
   16CHTO    H9 6738   5.595   1.332   4.003 -1.2209  1.1972  0.4763
   16CHTO    C4 6739   5.655   1.098   3.805  0.4723 -0.3470 -0.0582
   16CHTO   H17 6740   5.742   1.116   3.868 -0.4911  0.4491  1.0487
   16CHTO    O1 6741   5.686   1.077   3.671 -0.0793  0.2448 -0.0384
   16CHTO    C5 6742   5.759   1.189   3.612 -0.1721 -0.0230 -0.4145
   16CHTO   H18 6743   5.841   1.232   3.670 -2.8316  2.1310  1.9157
   16CHTO   C16 6744   5.816   1.161   3.473  0.3404  0.1287 -0.0909
   16CHTO   O11 6745   5.923   1.070   3.467  0.1509  0.0977  0.1293
   16CHTO    H5 6746   5.956   1.060   3.380 -1.2647  0.7286 -0.4981
   16CHTO    O3 6747   5.596   0.977   3.849 -0.2944  0.4806  0.3795
   16CHTO    C6 6748   5.680   0.867   3.897  0.4424 -0.1846  0.5358
   16CHTO   H19 6749   5.637   0.769   3.877 -0.1555  0.1005  0.4095
   16CHTO    C8 6750   5.819   0.856   3.831  0.2288  0.1499 -0.4890
   16CHTO   H21 6751   5.874   0.950   3.843  0.2543  0.2875 -1.6298
   16CHTO    O7 6752   5.791   0.849   3.693 -0.1446  0.1710  0.1098
   16CHTO    H2 6753   5.858   0.799   3.650 -1.1828 -1.6829  0.6104
   16CHTO   C12 6754   5.896   0.737   3.903 -0.4443  0.8227 -0.3828
   16CHTO   H25 6755   5.840   0.645   3.877  2.4592 -1.9245  2.6390
   16CHTO    N3 6756   6.038   0.727   3.854  0.0455  0.1586 -0.4338
   16CHTO   H12 6757   6.063   0.635   3.804  1.7972  0.1472  0.4008
   16CHTO   H13 6758   6.076   0.821   3.818 -0.7678  0.4776 -0.4727
   16CHTO   C15 6759   5.886   0.760   4.061  0.4616  0.0775 -0.5002
   16CHTO   H28 6760   5.935   0.850   4.097  0.4890  0.1271 -0.6593
   16CHTO   O10 6761   5.949   0.648   4.155  0.4093  0.0002 -0.0866
   16CHTO    H4 6762   5.923   0.670   4.242  1.9877  0.6153  0.2617
   16CHTO    O5 6763   5.752   0.764   4.106  0.0318 -0.5055 -0.0305
   16CHTO   C10 6764   5.688   0.874   4.050  0.7965 -0.1762 -0.2095
   16CHTO   H23 6765   5.733   0.966   4.086  1.3759 -0.2894 -0.6375
   16CHTO   C17 6766   5.556   0.877   4.121  0.3544 -0.0638  0.1037
   16CHTO   O12 6767   5.546   0.893   4.265  0.6220  0.6272  0.9901
   16CHTO    H6 6768   5.454   0.887   4.284  0.2851 -0.4817 -0.9148
   17CHTO  H203 6769   6.374   3.951   4.560  0.0384  0.7897 -1.1562
   17CHTO   O82 6770   6.384   4.029   4.611 -0.5248  0.0494  0.0906
   17CHTO  C123 6771   6.257   4.089   4.629 -0.1896  0.0662 -0.5552
   17CHTO  H227 6772   6.200   4.031   4.704  1.1875 -1.7954 -0.9083
   17CHTO   O77 6773   6.289   4.219   4.687 -0.5109  0.4246  0.1864
   17CHTO  C118 6774   6.166   4.292   4.711 -0.2513  0.8957 -0.3513
   17CHTO  H222 6775   6.097   4.242   4.780 -0.0590  0.3385 -0.5586
   17CHTO  C125 6776   6.205   4.429   4.769 -0.1163  0.3998 -0.3162
   17CHTO   O84 6777   6.248   4.410   4.904  0.4258 -0.0427  0.0094
   17CHTO  H205 6778   6.171   4.384   4.950 -0.8023 -2.2129 -3.1870
   17CHTO  C114 6779   6.108   4.330   4.577 -0.0294  0.4591  0.0693
   17CHTO  H218 6780   6.185   4.383   4.521  0.6657  0.4830  1.0555
   17CHTO  C116 6781   6.072   4.205   4.498  0.4662 -0.4597 -1.1957
   17CHTO  H220 6782   5.984   4.158   4.548  0.3419  0.9760 -0.0272
   17CHTO   O79 6783   6.024   4.244   4.365  0.3463 -0.9750  0.4001
   17CHTO  H201 6784   6.004   4.335   4.370 -0.0985 -1.1200  1.4702
   17CHTO  C120 6785   6.182   4.100   4.498 -0.1502 -0.0172  0.1997
   17CHTO  H224 6786   6.254   4.144   4.425 -1.2167  0.3879 -0.6239
   17CHTO   N21 6787   6.147   3.970   4.448  0.5937 -0.1325 -0.2741
   17CHTO  H211 6788   6.079   3.979   4.364 -1.5930  0.6070  1.5216
   17CHTO  H212 6789   6.103   3.912   4.528  0.5542  1.2308  0.7010
   17CHTO   O75 6790   5.987   4.412   4.601 -0.7755  0.1508 -0.1885
   17CHTO  C112 6791   5.953   4.525   4.497 -0.9667 -0.3857 -0.2845
   17CHTO  H216 6792   5.900   4.479   4.412  0.9171 -2.5657 -0.3215
   17CHTO   O73 6793   6.075   4.587   4.462  0.3891  0.7573 -0.2547
   17CHTO  C113 6794   6.060   4.688   4.364  0.1345  0.3627  0.1467
   17CHTO  H217 6795   6.017   4.638   4.275 -1.5101  0.2496  0.9764
   17CHTO  C124 6796   6.198   4.722   4.306 -0.3958 -0.2237  0.5214
   17CHTO   O83 6797   6.277   4.610   4.267 -0.0111  0.5041 -0.3715
   17CHTO  H204 6798   6.227   4.531   4.270 -0.1011  0.5501 -0.6507
   17CHTO  C109 6799   5.988   4.816   4.420  0.5101 -0.5110 -0.4815
   17CHTO  H213 6800   6.051   4.844   4.505  0.4379  0.3439 -0.7089
   17CHTO  C110 6801   5.854   4.766   4.480  0.2815 -0.1281  1.0358
   17CHTO  H214 6802   5.784   4.759   4.396  0.4544 -0.8912  0.9530
   17CHTO   O78 6803   5.809   4.872   4.559  0.2122 -0.1019 -0.1186
   17CHTO  H200 6804   5.719   4.855   4.577  0.2823  2.0085  2.4405
   17CHTO  C111 6805   5.857   4.628   4.564 -0.5874  0.3326  0.3269
   17CHTO  H215 6806   5.894   4.643   4.667  0.4338 -2.9149  0.4862
   17CHTO   N19 6807   5.723   4.573   4.576  0.3567  1.0295  0.8347
   17CHTO  H207 6808   5.684   4.543   4.480 -1.0830 -0.2922  1.8022
   17CHTO  H208 6809   5.713   4.515   4.667  0.8272  0.3579  0.4606
   17CHTO   O74 6810   5.981   4.933   4.332  0.0263  0.1892 -0.4587
   17CHTO  C115 6811   6.066   5.077   4.381 -0.1759 -0.5728  0.4155
   17CHTO  H219 6812   6.061   5.092   4.488 -1.9696 -0.0820  0.2732
   17CHTO   O76 6813   6.244   5.071   4.339  0.0593 -0.1063  0.2799
   17CHTO  C122 6814   6.271   5.092   4.203  0.2095 -0.2312 -0.0521
   17CHTO  H226 6815   6.225   5.007   4.154  0.4820  0.5363 -1.6874
   17CHTO  C126 6816   6.430   5.070   4.192 -0.0477 -0.3452  0.1886
   17CHTO   O85 6817   6.499   5.167   4.271 -0.4156 -0.6226  0.0637
   17CHTO  H206 6818   6.586   5.176   4.237 -0.4293  0.2750  0.2468
   17CHTO  C121 6819   6.210   5.235   4.158 -0.8478  0.3385 -0.9752
   17CHTO  H225 6820   6.296   5.304   4.144 -2.0619  1.8906 -0.9422
   17CHTO   O81 6821   6.151   5.221   4.032  0.4710  0.3848 -0.3256
   17CHTO  H202 6822   6.215   5.208   3.965  2.3454  1.4344  1.2185
   17CHTO  C119 6823   6.109   5.303   4.261 -0.7739  0.6756  0.7815
   17CHTO  H223 6824   6.170   5.318   4.349  1.1214 -0.1302 -0.3598
   17CHTO  C117 6825   5.999   5.199   4.308 -0.0800 -0.0655  0.5040
   17CHTO  H221 6826   5.941   5.154   4.227  1.2741  0.2686 -0.6767
   17CHTO   N20 6827   5.902   5.263   4.406 -0.0701 -0.4551 -0.1458
   17CHTO  H209 6828   5.825   5.198   4.444  0.0463  0.2066  1.2617
   17CHTO  H210 6829   5.850   5.337   4.347 -0.5146 -2.0363 -1.7689
   17CHTO   O80 6830   6.070   5.447   4.216  0.1872  0.1552 -0.4466
   17CHTO  C103 6831   6.160   5.571   4.241 -0.2027  0.4970 -0.2711
   17CHTO  H190 6832   6.258   5.545   4.281 -1.0050 -2.7217 -0.2885
   17CHTO  C101 6833   6.184   5.659   4.115 -0.1909  0.6796  0.0283
   17CHTO  H188 6834   6.088   5.702   4.084  0.5918  1.7841 -0.9085
   17CHTO   O68 6835   6.233   5.591   3.994  0.9662  0.3101 -0.4645
   17CHTO  H168 6836   6.218   5.499   4.005  1.3351  0.1607 -1.1894
   17CHTO   C99 6837   6.283   5.776   4.165  0.0116  0.3751 -0.1934
   17CHTO  H186 6838   6.375   5.729   4.208  0.5737  0.4002 -1.3425
   17CHTO   N17 6839   6.326   5.881   4.054  0.3290 -0.4348  0.0429
   17CHTO  H174 6840   6.367   5.973   4.094 -0.3241 -0.3563  0.5509
   17CHTO  H175 6841   6.258   5.904   3.973 -0.7208  0.6701  1.2088
   17CHTO   C97 6842   6.207   5.853   4.277 -0.4569 -0.3386 -0.5547
   17CHTO  H184 6843   6.123   5.913   4.241 -0.6538 -0.2445  0.0458
   17CHTO   O64 6844   6.171   5.768   4.384  0.1304  0.3368 -0.0481
   17CHTO  C104 6845   6.088   5.654   4.349  0.6680 -0.1776 -0.1888
   17CHTO  H191 6846   5.992   5.681   4.306  0.0742 -1.7756  0.0782
   17CHTO  C108 6847   6.060   5.578   4.483  0.2327  0.6035  0.2433
   17CHTO   O71 6848   5.968   5.649   4.565  0.4853 -0.0948  0.8411
   17CHTO  H171 6849   5.912   5.592   4.612 -0.9903  0.1672 -0.5575
   17CHTO   O62 6850   6.294   5.947   4.348  0.5294  0.3760 -0.2759
   17CHTO   C91 6851   6.227   6.059   4.415 -0.5098 -0.6451  0.0693
   17CHTO  H178 6852   6.136   6.081   4.359 -0.3976 -2.7428 -0.9947
   17CHTO   C92 6853   6.310   6.190   4.405  0.6681 -0.0888 -0.5809
   17CHTO  H179 6854   6.354   6.203   4.305 -1.5897 -2.7950 -2.0029
   17CHTO   O66 6855   6.230   6.310   4.427  0.3967  0.2366  0.0205
   17CHTO  H166 6856   6.162   6.304   4.492 -1.9811  2.3712 -2.1538
   17CHTO   C93 6857   6.431   6.197   4.500 -0.2997  0.5831 -0.7060
   17CHTO  H180 6858   6.463   6.302   4.507 -0.3612  0.5585 -0.0334
   17CHTO   N16 6859   6.554   6.118   4.468  0.1686  0.1344  0.8256
   17CHTO  H172 6860   6.634   6.155   4.531  1.1982 -0.2415 -0.2320
   17CHTO  H173 6861   6.544   6.015   4.497 -3.1300  0.7903  2.2277
   17CHTO   C94 6862   6.384   6.150   4.655 -0.2771 -0.2997  0.1960
   17CHTO  H181 6863   6.429   6.057   4.688 -1.2884  0.1852  3.0889
   17CHTO   O61 6864   6.241   6.130   4.658  0.3433 -0.3405 -0.3334
   17CHTO   C95 6865   6.190   6.039   4.565 -0.6491  0.6325 -1.1971
   17CHTO  H182 6866   6.213   5.938   4.599  1.4968  2.2146  2.3016
   17CHTO  C106 6867   6.035   6.027   4.581  0.5419  0.5932 -0.1012
   17CHTO   O69 6868   5.996   5.988   4.712  0.2119  0.1758  0.2782
   17CHTO  H169 6869   6.017   5.897   4.723  1.9692  0.4439 -0.6349
   17CHTO   O63 6870   6.438   6.265   4.754  0.5953  0.1043  0.6636
   17CHTO   C96 6871   6.320   6.342   4.849 -0.4978 -0.2215 -0.1706
   17CHTO  H183 6872   6.236   6.271   4.847  3.0930 -4.6883 -1.1995
   17CHTO   C98 6873   6.272   6.483   4.798  0.1286  0.1218  0.1120
   17CHTO  H185 6874   6.360   6.546   4.781  1.5714 -1.9454 -0.3042
   17CHTO   O67 6875   6.210   6.466   4.670  0.0556 -0.1984 -0.3112
   17CHTO  H167 6876   6.238   6.532   4.609  0.0286  1.0521  0.9884
   17CHTO  C102 6877   6.177   6.550   4.910 -0.0058  0.6177  0.1314
   17CHTO  H189 6878   6.089   6.485   4.923  0.4739  0.0674  0.6825
   17CHTO   N18 6879   6.125   6.682   4.865 -0.4301  0.6873 -0.1588
   17CHTO  H176 6880   6.026   6.686   4.908 -1.1684  2.3158 -1.9242
   17CHTO  H177 6881   6.101   6.669   4.760  0.7368 -1.0559 -0.2297
   17CHTO  C105 6882   6.250   6.551   5.046 -0.3041 -0.1155 -0.4896
   17CHTO  H192 6883   6.341   6.611   5.036  0.7063 -1.3688  0.9250
   17CHTO   O65 6884   6.285   6.414   5.086  0.1103 -0.1500  0.3512
   17CHTO  C100 6885   6.378   6.350   4.996 -0.1422 -0.4538 -0.1989
   17CHTO  H187 6886   6.467   6.414   5.000  0.5421 -1.3646 -0.7570
   17CHTO  C107 6887   6.426   6.221   5.051  0.1378  0.5831 -0.0139
   17CHTO   O70 6888   6.332   6.123   5.074  0.0227  0.1135  0.1760
   17CHTO  H170 6889   6.302   6.086   4.994 -2.2826  1.4132  0.3871
   17CHTO   O57 6890   6.171   6.583   5.154 -0.3705  0.2009 -0.6676
   17CHTO   C85 6891   6.217   6.680   5.247 -0.1991  1.0391  0.0785
   17CHTO  H157 6892   6.270   6.757   5.188  0.3121  0.2977 -0.4344
   17CHTO   C83 6893   6.307   6.610   5.356  0.1558  0.5973  0.2922
   17CHTO  H155 6894   6.402   6.570   5.318  0.8603  1.4024  1.1926
   17CHTO   O56 6895   6.238   6.499   5.412  1.0134 -0.3391  0.0318
   17CHTO  H135 6896   6.300   6.434   5.438  0.3332 -2.0613 -2.4917
   17CHTO   C81 6897   6.345   6.723   5.461 -0.8067  0.5843  0.1667
   17CHTO  H153 6898   6.410   6.791   5.406 -0.8794  0.5737  0.0672
   17CHTO   N14 6899   6.429   6.665   5.574  0.6249 -0.2863 -0.2974
   17CHTO  H141 6900   6.373   6.594   5.631 -1.4104  1.1085 -0.4806
   17CHTO  H142 6901   6.454   6.749   5.635  1.9427 -1.0698  0.2749
   17CHTO   C79 6902   6.218   6.803   5.523  0.3006  0.2747  0.4801
   17CHTO  H151 6903   6.256   6.896   5.564  1.6111  0.5287 -1.2305
   17CHTO   O52 6904   6.132   6.847   5.419 -0.1013 -0.2972 -0.0180
   17CHTO   C86 6905   6.099   6.745   5.323 -0.2224 -0.0092 -0.7977
   17CHTO  H158 6906   6.045   6.666   5.380  0.1432  0.3183  0.0151
   17CHTO   C90 6907   5.998   6.799   5.221 -0.5216  0.3759  0.4072
   17CHTO   O60 6908   5.868   6.826   5.279 -0.2447 -0.2372  0.1851
   17CHTO  H138 6909   5.814   6.752   5.262 -1.2236  0.7446 -1.0484
   17CHTO   O50 6910   6.149   6.750   5.638  0.7126  0.2668  0.0832
   17CHTO   C73 6911   6.076   6.822   5.744 -0.0432  0.3549  0.2085
   17CHTO  H145 6912   6.063   6.926   5.710  0.6692  0.1654 -0.6868
   17CHTO   C74 6913   6.154   6.817   5.882  0.2539 -0.3659  0.6663
   17CHTO  H146 6914   6.244   6.871   5.848 -1.2228 -0.2618 -3.3150
   17CHTO   O54 6915   6.084   6.905   5.974  0.2084 -0.2213 -0.3080
   17CHTO  H133 6916   6.141   6.952   6.032  0.1614 -0.8792  0.2918
   17CHTO   C75 6917   6.183   6.670   5.908  0.6681  0.4881 -0.1223
   17CHTO  H147 6918   6.252   6.631   5.832 -0.6070 -0.5959 -0.7426
   17CHTO   N13 6919   6.256   6.639   6.032 -0.0423  0.0101  0.0753
   17CHTO  H139 6920   6.343   6.702   6.036  0.8015 -1.0214 -1.4957
   17CHTO  H140 6921   6.198   6.656   6.122  0.6151  1.0076  0.3230
   17CHTO   C76 6922   6.049   6.580   5.893  0.9187 -0.0244 -0.3382
   17CHTO  H148 6923   5.992   6.595   5.984  2.3026  1.2969  0.3296
   17CHTO   O49 6924   5.968   6.617   5.780 -0.6583 -0.0158  0.1896
   17CHTO   C77 6925   5.937   6.754   5.761 -0.0571  0.3017 -0.2234
   17CHTO  H149 6926   5.883   6.805   5.841 -2.2562 -1.9916 -0.1889
   17CHTO   C88 6927   5.845   6.765   5.641  0.3776 -0.1264 -0.1669
   17CHTO   O58 6928   5.818   6.904   5.586 -0.7581  0.8917 -0.4010
   17CHTO  H136 6929   5.860   6.975   5.631  1.3226 -0.8962  0.5641
   17CHTO   O51 6930   6.096   6.420   5.864  0.4355  0.2856 -0.5322
   17CHTO   C78 6931   5.967   6.335   5.841  0.0897  0.7032 -0.3872
   17CHTO  H150 6932   5.880   6.403   5.823 -1.0461 -0.3811  0.8823
   17CHTO   C80 6933   5.936   6.240   5.953 -0.5948 -0.1011 -0.3127
   17CHTO  H152 6934   6.028   6.187   5.985 -1.2539  0.5639  2.8561
   17CHTO   O55 6935   5.902   6.324   6.071  0.2880  0.0325 -0.5198
   17CHTO  H134 6936   5.971   6.387   6.084  0.6190 -0.8328  2.2070
   17CHTO   C84 6937   5.822   6.138   5.902  0.1034 -0.5684  0.0219
   17CHTO  H156 6938   5.737   6.202   5.878  1.0359  0.4517 -0.5865
   17CHTO   N15 6939   5.785   6.054   6.026 -0.2932  0.0985 -0.5488
   17CHTO  H143 6940   5.732   6.113   6.098  0.4280  0.9931 -0.7406
   17CHTO  H144 6941   5.729   5.965   6.005  0.4308 -0.7935  1.1760
   17CHTO   C87 6942   5.866   6.060   5.779 -0.1658 -0.0695 -0.2345
   17CHTO  H159 6943   5.949   5.993   5.800 -0.1285  0.4205  1.2647
   17CHTO   O53 6944   5.904   6.160   5.671 -0.3557  0.2167  0.8544
   17CHTO   C82 6945   6.005   6.255   5.710 -0.0569  0.3361 -0.5760
   17CHTO  H154 6946   6.100   6.203   5.722 -0.8588 -1.5933 -2.2992
   17CHTO   C89 6947   6.016   6.342   5.592  0.0877  0.4758  0.4825
   17CHTO   O59 6948   5.901   6.427   5.563 -0.7437  0.4185  0.2980
   17CHTO  H137 6949   5.915   6.475   5.484 -1.1260  0.3590  0.1931
   17CHTO   O45 6950   5.758   5.968   5.725  0.2820  0.7020  0.0229
   17CHTO   C67 6951   5.796   5.833   5.683  0.4524 -1.0565  0.7302
   17CHTO  H124 6952   5.901   5.809   5.701  0.7940  0.6531  1.0321
   17CHTO   C65 6953   5.711   5.735   5.767  0.2678  0.2062  0.6595
   17CHTO  H122 6954   5.712   5.768   5.871 -0.5399  2.2605  0.0350
   17CHTO   O44 6955   5.771   5.605   5.767 -0.5400 -0.2317 -0.3185
   17CHTO  H102 6956   5.733   5.530   5.724  0.7177 -1.8451  1.2960
   17CHTO   C63 6957   5.554   5.738   5.715  0.2696 -0.6923  0.3331
   17CHTO  H120 6958   5.513   5.838   5.728 -0.2604 -0.2989 -3.7449
   17CHTO   N11 6959   5.464   5.670   5.806  0.1615  0.3348 -0.3072
   17CHTO  H108 6960   5.475   5.713   5.904  1.8049  2.2103 -1.2758
   17CHTO  H109 6961   5.363   5.663   5.773  0.5647 -0.6883 -1.3272
   17CHTO   C61 6962   5.552   5.716   5.560  0.4453  0.6166 -0.1977
   17CHTO  H118 6963   5.449   5.744   5.531 -0.4005 -1.2803  0.8673
   17CHTO   O40 6964   5.635   5.807   5.493  0.1904  0.1878  0.4475
   17CHTO   C68 6965   5.775   5.809   5.529 -0.7151 -0.2643  0.2724
   17CHTO  H125 6966   5.824   5.899   5.486  1.1496 -1.5697 -0.3741
   17CHTO   C72 6967   5.857   5.684   5.476 -0.7711 -0.6304 -0.4406
   17CHTO   O48 6968   5.996   5.707   5.472 -0.5093  0.3678  0.1036
   17CHTO  H105 6969   6.045   5.627   5.475  0.0994  0.7474  0.4416
   17CHTO   O38 6970   5.582   5.579   5.529  1.2338 -0.1097 -0.2445
   17CHTO   C55 6971   5.523   5.509   5.415 -0.0771 -0.3162 -0.6032
   17CHTO  H112 6972   5.576   5.418   5.384  2.6967  1.4301 -1.1432
   17CHTO   C56 6973   5.494   5.608   5.290  0.6768  0.4066 -0.7184
   17CHTO  H113 6974   5.426   5.690   5.319 -1.6707 -2.3951  1.9103
   17CHTO   O42 6975   5.618   5.658   5.242 -0.2623  0.1383 -0.8361
   17CHTO  H100 6976   5.659   5.707   5.310  2.4256 -1.4975 -1.2291
   17CHTO   C57 6977   5.416   5.525   5.176 -0.3620 -0.0241 -0.2526
   17CHTO  H114 6978   5.484   5.443   5.154 -0.8300 -0.8246  1.2891
   17CHTO   N10 6979   5.382   5.602   5.059  0.6269 -0.2710 -0.2468
   17CHTO  H106 6980   5.397   5.555   4.963 -1.3104  2.1241 -1.7875
   17CHTO  H107 6981   5.424   5.701   5.066 -0.1779 -0.0747  2.5887
   17CHTO   C58 6982   5.286   5.472   5.246 -0.3262 -0.0380 -0.0120
   17CHTO  H115 6983   5.222   5.556   5.279 -1.3737  0.0002 -2.0664
   17CHTO   O37 6984   5.316   5.382   5.354  0.0199  0.3449 -0.3813
   17CHTO   C59 6985   5.382   5.449   5.462  0.7063  0.2276  0.7554
   17CHTO  H116 6986   5.318   5.526   5.503  0.1651 -0.1485  0.6149
   17CHTO   C70 6987   5.407   5.362   5.593 -0.4533  0.2992 -0.2543
   17CHTO   O46 6988   5.291   5.313   5.646 -0.2198 -0.0005  0.5929
   17CHTO  H103 6989   5.238   5.376   5.691  0.2959 -0.1441  1.4231
   17CHTO   O39 6990   5.207   5.377   5.162  0.0659  1.0715 -0.3208
   17CHTO   C60 6991   5.065   5.403   5.159 -0.5070  0.2630  0.1280
   17CHTO  H117 6992   5.036   5.488   5.221  1.9671 -0.5129  2.4200
   17CHTO   C62 6993   5.023   5.436   5.011 -0.2113 -0.3291  0.7420
   17CHTO  H119 6994   5.085   5.523   4.980 -0.5583  0.8079  3.0654
   17CHTO   O43 6995   5.058   5.336   4.908  0.1420  0.4542  0.0639
   17CHTO  H101 6996   5.150   5.315   4.911  0.1297  0.5200  1.7047
   17CHTO   C66 6997   4.871   5.479   5.014 -0.2809 -0.2413 -0.8941
   17CHTO  H123 6998   4.866   5.566   5.079  0.1625 -1.1180  0.3321
   17CHTO   N12 6999   4.821   5.526   4.880  0.0437  0.2213 -0.1826
   17CHTO  H110 7000   4.866   5.623   4.862 -0.1983  0.5355  0.8668
   17CHTO  H111 7001   4.849   5.462   4.798  1.1471 -0.7546  0.9216
   17CHTO   C69 7002   4.789   5.355   5.073 -0.1045 -0.1661  0.1375
   17CHTO  H126 7003   4.806   5.263   5.013  0.7305 -2.3523  3.6316
   17CHTO   O41 7004   4.836   5.310   5.210 -0.3014  0.0569  0.5669
   17CHTO   C64 7005   4.977   5.283   5.204  0.1778 -0.3175 -0.1481
   17CHTO  H121 7006   4.994   5.196   5.137 -0.7397  0.1022 -0.9351
   17CHTO   C71 7007   5.014   5.243   5.341  0.1523 -0.5927 -0.5657
   17CHTO   O47 7008   4.933   5.134   5.386 -0.2228 -0.3118  0.2561
   17CHTO  H104 7009   4.846   5.168   5.397 -0.5001 -1.2866  1.1447
   17CHTO   O34 7010   4.647   5.385   5.078 -0.0571  0.1073  0.1816
   17CHTO   C49 7011   4.542   5.473   5.179 -0.2504  0.3340  0.1237
   17CHTO   H91 7012   4.555   5.579   5.156 -1.4618  0.5707  0.4627
   17CHTO   C47 7013   4.564   5.462   5.334  0.1557 -0.1391 -0.2564
   17CHTO   H89 7014   4.505   5.543   5.382  1.9136 -0.0278  1.7660
   17CHTO   O33 7015   4.697   5.475   5.390  0.6888  0.2000  0.4629
   17CHTO   H70 7016   4.745   5.528   5.329 -0.2409 -0.5757 -0.9784
   17CHTO   C45 7017   4.498   5.322   5.385 -0.7766 -0.0255  0.6053
   17CHTO   H87 7018   4.589   5.263   5.407  0.2865  1.4881  0.3858
   17CHTO    N8 7019   4.424   5.345   5.510  0.5607 -0.9219 -0.6477
   17CHTO   H75 7020   4.470   5.416   5.578 -0.7321  1.5530 -2.2779
   17CHTO   H76 7021   4.414   5.248   5.556 -0.8460 -0.1273  0.7830
   17CHTO   C43 7022   4.430   5.240   5.269  0.6458 -0.0800 -0.4930
   17CHTO   H85 7023   4.513   5.210   5.205  1.6978  1.5591  0.0832
   17CHTO   O29 7024   4.337   5.321   5.202 -0.4435  0.3086 -0.3535
   17CHTO   C50 7025   4.394   5.441   5.140  0.8404 -0.5298 -0.4271
   17CHTO   H92 7026   4.394   5.438   5.030 -0.1699  2.3440 -0.5530
   17CHTO   C54 7027   4.303   5.560   5.174 -0.1653  0.2670  0.3751
   17CHTO   O36 7028   4.334   5.681   5.111 -0.1571 -0.2550 -0.6946
   17CHTO   H72 7029   4.401   5.727   5.159  0.5780 -0.7289 -1.2689
   17CHTO   O27 7030   4.374   5.114   5.307 -0.1499  0.3599  0.2599
   17CHTO   C37 7031   4.401   4.978   5.264  0.4131  0.8211  0.2611
   17CHTO   H79 7032   4.339   4.907   5.321  0.7513  0.3840  0.0810
   17CHTO   C38 7033   4.373   4.951   5.108 -0.0263  0.4283 -0.6599
   17CHTO   H80 7034   4.409   5.036   5.048 -0.6050  1.7562  0.8261
   17CHTO   O31 7035   4.233   4.955   5.101  0.3159 -0.2187  0.5691
   17CHTO   H68 7036   4.198   4.952   5.014  0.0065 -1.0713  0.7184
   17CHTO   C39 7037   4.430   4.819   5.058 -0.1207 -0.6144 -0.1983
   17CHTO   H81 7038   4.398   4.731   5.114  0.2255 -0.0756  0.8447
   17CHTO    N7 7039   4.395   4.786   4.917  0.2360 -0.3825  0.2909
   17CHTO   H73 7040   4.487   4.751   4.874  0.3898  1.8665 -1.3094
   17CHTO   H74 7041   4.325   4.705   4.901 -3.0497  2.5884 -0.9779
   17CHTO   C40 7042   4.583   4.826   5.083  0.2647 -0.0431  0.1823
   17CHTO   H82 7043   4.635   4.907   5.032  0.2480 -0.1081  0.0612
   17CHTO   O26 7044   4.608   4.827   5.221  0.1952  0.0428  0.1006
   17CHTO   C41 7045   4.549   4.943   5.287  0.0285  0.2188 -0.0160
   17CHTO   H83 7046   4.615   5.029   5.267  0.0902  0.0068 -0.7525
   17CHTO   C52 7047   4.582   4.922   5.445  0.8736  0.0306 -0.2491
   17CHTO   O35 7048   4.739   4.941   5.484  0.3245  0.2750 -0.0757
   17CHTO   H71 7049   4.755   5.033   5.474  2.2477  0.0600  0.7320
   17CHTO   O28 7050   4.655   4.701   5.056  0.4421 -0.0022  0.3135
   17CHTO   C42 7051   4.806   4.699   5.038  0.5903  0.2511  0.2740
   17CHTO   H84 7052   4.824   4.592   5.036 -0.8528 -0.0020 -0.6341
   17CHTO   C44 7053   4.893   4.761   5.148  0.1219  0.0669 -0.1195
   17CHTO   H86 7054   4.858   4.862   5.167 -2.2884 -0.7391  0.0291
   17CHTO   O32 7055   4.882   4.686   5.266 -0.5602  0.5979  0.0302
   17CHTO   H69 7056   4.905   4.595   5.267  0.0951  0.7607  2.5995
   17CHTO   C48 7057   5.043   4.770   5.104 -0.1689  0.3608 -0.1234
   17CHTO   H90 7058   5.088   4.670   5.098  1.0850  0.8799  0.3668
   17CHTO    N9 7059   5.132   4.851   5.197  0.2502  0.4110  0.0684
   17CHTO   H77 7060   5.110   4.848   5.303  2.1570 -2.9661  0.4649
   17CHTO   H78 7061   5.238   4.843   5.182  0.3419  0.0145  0.8828
   17CHTO   C51 7062   5.058   4.829   4.957  0.1431  0.2133 -0.1249
   17CHTO   H93 7063   5.025   4.932   4.952  1.1045  0.5332  0.1040
   17CHTO   O30 7064   4.985   4.743   4.872 -0.1426  0.4144 -0.2009
   17CHTO   C46 7065   4.845   4.754   4.892 -0.5283  0.5500  0.2087
   17CHTO   H88 7066   4.817   4.859   4.878  0.7227  0.8467 -0.0994
   17CHTO   C53 7067   4.787   4.671   4.781  0.3118 -0.0697  0.0820
   17CHTO   O72 7068   4.827   4.713   4.650 -0.0548 -0.4981  0.1591
   17CHTO  H199 7069   4.752   4.703   4.595 -0.7505  0.0123  1.0114
   17CHTO   O22 7070   5.193   4.821   4.914  0.6309  0.2433  0.0681
   17CHTO   C31 7071   5.231   4.925   4.811  0.3320  0.1995  0.1142
   17CHTO   H59 7072   5.329   4.887   4.776  0.6108  2.2886 -1.5025
   17CHTO   C29 7073   5.140   4.935   4.684 -0.0456  0.2135 -0.0628
   17CHTO   H57 7074   5.040   4.964   4.719 -0.5108 -1.9595  0.4749
   17CHTO   O21 7075   5.122   4.804   4.623  0.2527  0.1220  0.3314
   17CHTO   H37 7076   5.206   4.777   4.591 -0.3654  0.2309 -1.4298
   17CHTO   C27 7077   5.195   5.046   4.582 -0.4459 -0.5249  0.3767
   17CHTO   H55 7078   5.294   5.019   4.541 -1.1610 -1.3374 -0.8423
   17CHTO    N5 7079   5.100   5.062   4.471 -0.1081  0.5635  0.0521
   17CHTO   H43 7080   5.150   5.140   4.415  0.1811 -0.1362 -0.6808
   17CHTO   H44 7081   4.999   5.092   4.498 -0.6849 -1.2221 -0.0266
   17CHTO   C25 7082   5.219   5.168   4.658  0.4363 -0.4973  1.1244
   17CHTO   H53 7083   5.128   5.206   4.706 -0.0323 -1.3653  0.9368
   17CHTO   O17 7084   5.318   5.146   4.760 -0.0111 -0.7772  0.0078
   17CHTO   C32 7085   5.270   5.066   4.865  0.5471 -0.3506 -0.3121
   17CHTO   H60 7086   5.179   5.113   4.902  0.8148 -0.1899  0.1526
   17CHTO   C36 7087   5.369   5.056   4.988  0.1224 -0.0708  0.7049
   17CHTO   O25 7088   5.380   5.195   5.026 -0.0566  0.3845 -0.6205
   17CHTO   H40 7089   5.399   5.209   5.117 -1.8748 -0.5432 -0.0704
   17CHTO   O15 7090   5.270   5.283   4.564  0.3093 -0.5567 -0.0499
   17CHTO   C19 7091   5.291   5.425   4.582 -0.1829  0.8713  0.2702
   17CHTO   H47 7092   5.335   5.456   4.486  1.0576 -0.3847  0.4170
   17CHTO   C20 7093   5.164   5.507   4.616 -0.7326 -0.7045  0.2684
   17CHTO   H48 7094   5.125   5.494   4.718  1.4555  0.9162  1.3691
   17CHTO   O19 7095   5.061   5.464   4.528 -0.2904  0.6794  0.0314
   17CHTO   H35 7096   4.975   5.485   4.561 -0.3785  1.4268 -0.6529
   17CHTO   C21 7097   5.188   5.663   4.613 -0.3690 -1.0069  0.1113
   17CHTO   H49 7098   5.229   5.697   4.518  1.0229 -0.5234  0.8784
   17CHTO    N4 7099   5.063   5.740   4.628 -0.1965 -0.0308 -0.0083
   17CHTO   H41 7100   5.069   5.799   4.718 -0.8795  1.4894 -0.9472
   17CHTO   H42 7101   5.070   5.814   4.550  1.5454  0.0346  0.1840
   17CHTO   C22 7102   5.297   5.693   4.719  0.6271  0.8189 -0.2428
   17CHTO   H50 7103   5.254   5.694   4.819  0.7797 -1.8876 -0.1065
   17CHTO   O14 7104   5.411   5.606   4.693 -0.0283  0.0912  0.1102
   17CHTO   C23 7105   5.401   5.463   4.690 -0.1444  0.2971 -0.1685
   17CHTO   H51 7106   5.372   5.422   4.787  0.2732 -1.5835 -0.8299
   17CHTO   C34 7107   5.539   5.404   4.671 -0.3830 -0.1126  0.1746
   17CHTO   O23 7108   5.614   5.425   4.789 -0.6979 -0.3863 -0.1809
   17CHTO   H38 7109   5.678   5.493   4.780 -1.1568 -0.0240 -0.7467
   17CHTO   O16 7110   5.350   5.818   4.679  0.0034  0.4821  0.1908
   17CHTO   C24 7111   5.407   5.915   4.792  0.5653  0.0768  0.3069
   17CHTO   H52 7112   5.385   5.875   4.891 -0.6676 -0.2845 -0.1108
   17CHTO   C26 7113   5.338   6.056   4.765  0.1133  0.2376  0.1718
   17CHTO   H54 7114   5.344   6.080   4.657 -2.0610 -1.8816 -0.4596
   17CHTO   O20 7115   5.205   6.028   4.795 -0.4251  0.2822  0.2311
   17CHTO   H36 7116   5.153   6.105   4.784 -0.7633  0.3910  2.4266
   17CHTO   C30 7117   5.401   6.173   4.847  0.3294  0.4430  0.4309
   17CHTO   H58 7118   5.382   6.150   4.953 -3.2381 -2.4133 -0.7488
   17CHTO    N6 7119   5.335   6.299   4.812  0.0662  0.3104  0.1793
   17CHTO   H45 7120   5.285   6.337   4.901 -1.0011 -1.5193  0.3856
   17CHTO   H46 7121   5.395   6.379   4.771 -0.1210 -1.3254 -3.4365
   17CHTO   C33 7122   5.558   6.175   4.826  0.2711 -0.5716 -0.0952
   17CHTO   H61 7123   5.583   6.196   4.721 -1.2617  1.5572 -0.0540
   17CHTO   O18 7124   5.596   6.035   4.865  0.2309 -0.0257  0.1385
   17CHTO   C28 7125   5.553   5.927   4.785  0.1979  0.1768 -0.3410
   17CHTO   H56 7126   5.582   5.947   4.682 -1.4436 -1.9855 -1.2846
   17CHTO   C35 7127   5.634   5.801   4.825  0.3011  0.0059  0.0513
   17CHTO   O24 7128   5.760   5.801   4.764 -0.0350 -0.0672 -0.1289
   17CHTO   H39 7129   5.814   5.735   4.803  1.8026  0.6244 -1.4104
   17CHTO    O9 7130   5.633   6.278   4.898  0.0176 -0.1124  0.2077
   17CHTO   C13 7131   5.785   6.286   4.873  0.3225  0.4768  0.1459
   17CHTO   H26 7132   5.815   6.255   4.770 -2.0612 -2.0055  0.1389
   17CHTO   C11 7133   5.862   6.192   4.982 -0.1292 -0.3894  0.5696
   17CHTO   H24 7134   5.940   6.143   4.922 -0.7629 -0.1889 -0.4282
   17CHTO    O8 7135   5.778   6.095   5.037 -0.2394 -0.5158  0.1015
   17CHTO    H3 7136   5.712   6.069   4.976 -0.1022  0.0176 -0.2773
   17CHTO    C9 7137   5.943   6.273   5.081 -0.3351  0.0518  0.5609
   17CHTO   H22 7138   6.032   6.305   5.025 -0.6741 -0.2851 -0.1650
   17CHTO    N2 7139   6.003   6.202   5.194 -0.2065 -0.1427  0.1350
   17CHTO   H10 7140   6.067   6.265   5.255 -0.7428  0.4906  0.0618
   17CHTO   H11 7141   6.056   6.112   5.171  1.3256  1.2221 -1.8236
   17CHTO    C7 7142   5.854   6.395   5.129 -0.2415  0.3354  0.0333
   17CHTO   H20 7143   5.921   6.446   5.202  0.1131  0.2330 -0.2221
   17CHTO    O4 7144   5.829   6.484   5.018  0.3217  0.0458  1.0211
   17CHTO   C14 7145   5.821   6.441   4.879  0.7974  0.6646 -1.5635
   17CHTO   H27 7146   5.922   6.462   4.837  1.2128  2.3224  0.1865
   17CHTO   C18 7147   5.727   6.538   4.806 -0.2675 -0.1252 -0.4357
   17CHTO   O13 7148   5.603   6.563   4.879  0.4202 -0.4169 -0.3281
   17CHTO    H7 7149   5.564   6.484   4.910  0.8022 -0.1845  0.7592
   17CHTO    O2 7150   5.717   6.345   5.178  0.2984 -0.1617 -0.4378
   17CHTO    C1 7151   5.683   6.334   5.315  0.8411 -0.1794  0.2978
   17CHTO   H14 7152   5.771   6.328   5.383  0.2895 -1.4219  0.9223
   17CHTO    C2 7153   5.601   6.199   5.341 -0.4636 -0.7033 -0.5372
   17CHTO   H15 7154   5.519   6.206   5.268  0.4149  0.5511 -1.4445
   17CHTO    O6 7155   5.690   6.090   5.319 -0.5654 -0.5150 -0.1638
   17CHTO    H1 7156   5.643   6.013   5.345 -0.4324 -0.2100  0.9676
   17CHTO    C3 7157   5.541   6.197   5.491 -0.6608 -0.3053  0.6230
   17CHTO   H16 7158   5.622   6.177   5.563  0.5975 -0.3733 -0.7889
   17CHTO    N1 7159   5.443   6.086   5.499 -0.5324 -0.1014 -0.7480
   17CHTO    H8 7160   5.343   6.124   5.490 -1.6680 -2.4574  1.0519
   17CHTO    H9 7161   5.455   6.031   5.592 -2.1554 -0.4454 -0.7304
   17CHTO    C4 7162   5.472   6.331   5.530 -0.7730 -0.3184  0.4786
   17CHTO   H17 7163   5.376   6.332   5.479 -1.3888  2.9900  1.6097
   17CHTO    O1 7164   5.556   6.442   5.492  0.2468 -0.6154  0.5796
   17CHTO    C5 7165   5.581   6.447   5.353  0.4554  0.9717 -0.0235
   17CHTO   H18 7166   5.496   6.441   5.286  0.4128 -1.9414  0.2225
   17CHTO   C16 7167   5.643   6.582   5.334  0.7661 -0.2395  0.4217
   17CHTO   O11 7168   5.633   6.622   5.193  0.2046  0.1619  0.0779
   17CHTO    H5 7169   5.707   6.668   5.158 -0.7672  0.3097 -1.8858
   17CHTO    O3 7170   5.434   6.345   5.672 -0.5801 -0.5360  0.4184
   17CHTO    C6 7171   5.362   6.474   5.694  0.4033 -0.7638 -0.0756
   17CHTO   H19 7172   5.379   6.549   5.617  3.1306 -0.7521  0.4865
   17CHTO    C8 7173   5.205   6.450   5.702 -0.1497  0.1452 -0.5612
   17CHTO   H21 7174   5.183   6.371   5.773 -0.1543  0.2855 -0.4066
   17CHTO    O7 7175   5.168   6.414   5.571  0.1968  0.3026  0.1594
   17CHTO    H2 7176   5.076   6.411   5.556  0.4290 -1.0216 -1.0918
   17CHTO   C12 7177   5.121   6.573   5.748 -0.0352  0.1645 -0.3146
   17CHTO   H25 7178   5.120   6.639   5.660  3.0486 -4.0755 -3.7584
   17CHTO    N3 7179   4.984   6.531   5.791 -0.2962 -0.2183  0.2977
   17CHTO   H12 7180   4.994   6.442   5.851  0.1066 -0.3279  0.0717
   17CHTO   H13 7181   4.920   6.607   5.832 -0.3057  0.1489 -0.3793
   17CHTO   C15 7182   5.191   6.639   5.867 -0.2537  0.6487 -0.4629
   17CHTO   H28 7183   5.174   6.587   5.962  2.8589 -1.0342 -0.7608
   17CHTO   O10 7184   5.137   6.773   5.872  0.3954  0.1603  0.0331
   17CHTO    H4 7185   5.045   6.789   5.867  0.4425  0.9525  1.4460
   17CHTO    O5 7186   5.335   6.666   5.846 -0.0043  0.0091 -0.7902
   17CHTO   C10 7187   5.410   6.539   5.829 -0.5759  0.7605 -0.2569
   17CHTO   H23 7188   5.399   6.484   5.923  1.3504 -0.9958 -1.0139
   17CHTO   C17 7189   5.553   6.577   5.826  0.1465  0.3409 -0.3853
   17CHTO   O12 7190   5.649   6.472   5.841 -0.0282  0.3037 -0.1740
   17CHTO    H6 7191   5.673   6.479   5.932 -2.3671  4.1289  0.2759
   18CHTO  H203 7192   6.795   7.365   1.343 -1.6237 -3.2356  0.0161
   18CHTO   O82 7193   6.832   7.340   1.261 -0.4656  0.2997 -0.6422
   18CHTO  C123 7194   6.771   7.224   1.211 -0.5810 -0.6617 -0.0677
   18CHTO  H227 7195   6.681   7.205   1.272 -0.5823 -0.1354  0.0975
   18CHTO   O77 7196   6.741   7.264   1.073 -0.3470 -0.0326 -0.0817
   18CHTO  C118 7197   6.700   7.165   0.982  0.5470 -0.4360  0.2860
   18CHTO  H222 7198   6.601   7.127   1.008  0.3287  0.1169  0.2729
   18CHTO  C125 7199   6.700   7.238   0.840 -0.4924  0.2720 -0.5212
   18CHTO   O84 7200   6.825   7.299   0.812  0.3624 -0.2208 -0.4319
   18CHTO  H205 7201   6.877   7.241   0.760  0.9519  0.7942 -1.0076
   18CHTO  C114 7202   6.800   7.049   0.981 -0.2046  0.5476  0.0161
   18CHTO  H218 7203   6.897   7.082   0.944 -0.3541  2.1102  0.9853
   18CHTO  C116 7204   6.817   6.986   1.128 -0.1242 -0.6809 -0.5104
   18CHTO  H220 7205   6.720   6.952   1.170  0.2918 -0.1117  0.9311
   18CHTO   O79 7206   6.909   6.873   1.117 -0.5298  0.0290  0.1244
   18CHTO  H201 7207   6.932   6.835   1.200  0.7308  1.0127  0.2296
   18CHTO  C120 7208   6.874   7.103   1.217  0.6370 -0.6711  0.0511
   18CHTO  H224 7209   6.973   7.131   1.177  0.6382 -2.2795 -1.0928
   18CHTO   N21 7210   6.897   7.048   1.356  0.0090 -0.0200 -0.2702
   18CHTO  H211 7211   6.983   7.093   1.404  0.6251  0.0135 -1.4039
   18CHTO  H212 7212   6.884   6.941   1.355 -0.4456  0.0247  0.2715
   18CHTO   O75 7213   6.752   6.950   0.893  0.3347  0.3788 -0.1037
   18CHTO  C112 7214   6.863   6.914   0.773 -0.4235 -0.1639 -0.5161
   18CHTO  H216 7215   6.961   6.906   0.823  0.2559  0.7249 -1.6578
   18CHTO   O73 7216   6.867   7.018   0.678 -0.6358 -0.1686 -0.1203
   18CHTO  C113 7217   6.966   7.012   0.577  0.3021  0.2422  0.5596
   18CHTO  H217 7218   7.062   7.030   0.629  0.1511 -3.1472  2.1319
   18CHTO  C124 7219   6.954   7.127   0.479  0.0182 -0.1602  0.5597
   18CHTO   O83 7220   6.955   7.261   0.532  0.2684 -0.3212  0.4211
   18CHTO  H204 7221   6.884   7.277   0.590 -0.5625  0.0905 -0.7000
   18CHTO  C109 7222   6.953   6.885   0.489  0.1198  0.5928  0.2097
   18CHTO  H213 7223   6.859   6.900   0.433  1.1272  1.6087 -1.2202
   18CHTO  C110 7224   6.935   6.757   0.584 -0.1692  0.1829 -0.8132
   18CHTO  H214 7225   7.034   6.737   0.625 -0.1843  2.4331  0.3669
   18CHTO   O78 7226   6.905   6.641   0.502  0.3801 -0.0307 -0.4605
   18CHTO  H200 7227   6.893   6.663   0.411  0.3455  1.2709 -0.1520
   18CHTO  C111 7228   6.832   6.780   0.696  0.3803 -0.1282  0.1634
   18CHTO  H215 7229   6.732   6.791   0.651  0.9173  0.6284 -0.8485
   18CHTO   N19 7230   6.826   6.665   0.785  0.0816  0.1961  0.4043
   18CHTO  H207 7231   6.919   6.644   0.834  1.2892  0.3910 -1.7493
   18CHTO  H208 7232   6.750   6.680   0.861 -0.2169 -0.1338  0.1755
   18CHTO   O74 7233   7.060   6.882   0.391 -0.2852  0.2647 -0.3231
   18CHTO  C115 7234   7.029   6.821   0.252  0.6362  0.6224 -0.2594
   18CHTO  H219 7235   6.973   6.728   0.263  1.4248  0.3712  1.9625
   18CHTO   O76 7236   6.926   6.924   0.160  0.1022  0.4092  0.3559
   18CHTO  C122 7237   6.998   7.045   0.123  0.2966 -0.3119 -0.2515
   18CHTO  H226 7238   7.017   7.097   0.217  0.0304 -0.9329  0.1502
   18CHTO  C126 7239   6.901   7.140   0.042  0.4525  0.4339 -0.5912
   18CHTO   O85 7240   6.808   7.194   0.132 -0.6418  0.9006 -0.5418
   18CHTO  H206 7241   6.820   7.287   0.133 -1.0996  0.9514  0.8531
   18CHTO  C121 7242   7.128   7.013   0.046  0.9062  0.0009  0.2201
   18CHTO  H225 7243   7.127   7.050  -0.059 -1.4854 -2.2593 -0.6183
   18CHTO   O81 7244   7.237   7.077   0.103 -0.4292  0.4033  0.6133
   18CHTO  H202 7245   7.230   7.169   0.092  0.5562  0.2587 -1.3368
   18CHTO  C119 7246   7.160   6.860   0.033 -0.6295 -0.2126 -0.2303
   18CHTO  H223 7247   7.077   6.807  -0.015 -1.0716 -0.7864  1.1121
   18CHTO  C117 7248   7.168   6.794   0.179  0.2402 -0.3069  0.5787
   18CHTO  H221 7249   7.245   6.832   0.246  0.1810 -1.1245  1.1125
   18CHTO   N20 7250   7.192   6.644   0.175 -0.3545 -0.0258 -0.0821
   18CHTO  H209 7251   7.177   6.607   0.075  0.1257  0.3574 -0.2997
   18CHTO  H210 7252   7.295   6.618   0.195 -0.3466  0.2721  0.2820
   18CHTO   O80 7253   7.278   6.842  -0.080 -0.2389 -0.0365 -0.7087
   18CHTO  C103 7254   7.245   6.775  -0.235  0.0359  0.4036  0.4415
   18CHTO  H190 7255   7.341   6.751  -0.281 -0.3898 -1.5845  0.5251
   18CHTO  C101 7256   7.164   6.645  -0.237 -0.3581  0.1278  0.3958
   18CHTO  H188 7257   7.063   6.658  -0.196  0.4285  0.4829  2.2581
   18CHTO   O68 7258   7.244   6.539  -0.154  0.5392 -0.4970 -0.8943
   18CHTO  H168 7259   7.335   6.562  -0.152  0.3115  0.4455 -0.9697
   18CHTO   C99 7260   7.144   6.603  -0.392  0.0759  0.5399 -0.0860
   18CHTO  H186 7261   7.243   6.594  -0.442  0.0837  0.8161 -0.1223
   18CHTO   N17 7262   7.089   6.462  -0.407 -0.0372 -0.2585  0.1246
   18CHTO  H174 7263   7.147   6.390  -0.350 -1.3165 -1.9903 -0.6955
   18CHTO  H175 7264   7.100   6.440  -0.512 -0.7614 -0.6379  0.1287
   18CHTO   C97 7265   7.071   6.718  -0.463  0.2187  0.1560  0.0427
   18CHTO  H184 7266   6.971   6.721  -0.417 -0.2077 -1.5179 -0.7518
   18CHTO   O64 7267   7.140   6.841  -0.454  0.0895 -0.2705  0.1755
   18CHTO  C104 7268   7.176   6.882  -0.326 -0.0793  0.1304  0.4275
   18CHTO  H191 7269   7.085   6.917  -0.278 -1.2815 -1.5823 -0.5810
   18CHTO  C108 7270   7.274   7.001  -0.340 -0.5198  0.4760 -0.1328
   18CHTO   O71 7271   7.402   6.962  -0.398 -0.1273  0.2055 -0.4747
   18CHTO  H171 7272   7.457   6.958  -0.322  0.0822  0.7354 -0.5944
   18CHTO   O62 7273   7.064   6.701  -0.612  0.0186 -0.6944  0.4178
   18CHTO   C91 7274   6.934   6.696  -0.670 -0.3358 -0.1021  0.0283
   18CHTO  H178 7275   6.863   6.657  -0.598 -0.9210  1.6096  0.4054
   18CHTO   C92 7276   6.942   6.607  -0.788 -0.0076  0.1051  0.3175
   18CHTO  H179 7277   7.028   6.631  -0.852  0.6479 -0.0603  1.1283
   18CHTO   O66 7278   6.978   6.472  -0.739  0.0746  0.2354 -0.2283
   18CHTO  H166 7279   6.934   6.441  -0.663  0.9489 -2.5367 -0.7988
   18CHTO   C93 7280   6.814   6.615  -0.879  0.5783 -0.4612 -0.1509
   18CHTO  H180 7281   6.724   6.569  -0.835 -0.5068  1.0710 -0.7175
   18CHTO   N16 7282   6.813   6.536  -1.004  0.2164  0.5000  0.0869
   18CHTO  H172 7283   6.838   6.433  -0.983  0.7477  0.5552 -0.2867
   18CHTO  H173 7284   6.885   6.575  -1.074  0.6127  0.7791  0.6433
   18CHTO   C94 7285   6.775   6.769  -0.911 -0.4477 -0.1223  0.4260
   18CHTO  H181 7286   6.856   6.814  -0.968  0.4118 -0.4379  1.3935
   18CHTO   O61 7287   6.755   6.827  -0.785 -0.2649 -0.3545 -0.8080
   18CHTO   C95 7288   6.875   6.842  -0.699 -0.0315 -0.0959  0.7708
   18CHTO  H182 7289   6.951   6.900  -0.752 -0.7488 -0.8812 -1.1871
   18CHTO  C106 7290   6.847   6.921  -0.575  0.1005  0.3725  1.0046
   18CHTO   O69 7291   6.758   6.868  -0.479  0.4832  0.1627 -0.4924
   18CHTO  H169 7292   6.668   6.873  -0.505  0.5514  0.4508 -0.6653
   18CHTO   O63 7293   6.628   6.790  -0.998 -0.3082  0.3765 -0.0157
   18CHTO   C96 7294   6.576   6.929  -1.036 -0.0625  0.7225  0.4047
   18CHTO  H183 7295   6.480   6.922  -1.086 -0.3954 -0.2988  1.1621
   18CHTO   C98 7296   6.672   7.009  -1.134 -0.7535 -0.4424  0.4784
   18CHTO  H185 7297   6.775   7.025  -1.097 -0.4884  3.3155 -1.6536
   18CHTO   O67 7298   6.690   6.924  -1.247 -0.3435 -0.3720  0.1042
   18CHTO  H167 7299   6.765   6.957  -1.292 -0.0766  0.3602  1.0745
   18CHTO  C102 7300   6.604   7.144  -1.179 -0.6894  0.5890 -0.0462
   18CHTO  H189 7301   6.511   7.117  -1.232 -1.9116  3.0558  0.7760
   18CHTO   N18 7302   6.681   7.232  -1.271  0.1713  0.4092  0.1019
   18CHTO  H176 7303   6.635   7.258  -1.365  0.0643 -2.0577 -0.5456
   18CHTO  H177 7304   6.714   7.324  -1.226 -1.9957  0.3646  1.8854
   18CHTO  C105 7305   6.545   7.218  -1.061  0.2297  0.3411 -0.1614
   18CHTO  H192 7306   6.619   7.285  -1.016 -0.9458  0.2242  2.0326
   18CHTO   O65 7307   6.485   7.140  -0.954  0.0217 -0.8961 -0.4737
   18CHTO  C100 7308   6.554   7.022  -0.917  0.0563  0.1791  0.0292
   18CHTO  H187 7309   6.654   7.050  -0.880  0.5714 -2.3607  0.6903
   18CHTO  C107 7310   6.476   6.959  -0.800 -0.0884  0.1693  0.1570
   18CHTO   O70 7311   6.457   7.047  -0.686 -0.3228  0.1254  0.2934
   18CHTO  H170 7312   6.407   6.999  -0.622  1.0627 -1.5243  0.1603
   18CHTO   O57 7313   6.421   7.309  -1.123 -0.1292 -0.6712 -1.1243
   18CHTO   C85 7314   6.362   7.431  -1.075  0.1656  1.2901 -0.4852
   18CHTO  H157 7315   6.443   7.506  -1.087 -0.0292  2.0004  2.3306
   18CHTO   C83 7316   6.331   7.428  -0.922  0.4376 -0.0305  0.0613
   18CHTO  H155 7317   6.424   7.405  -0.871  1.5381  0.6412 -1.5846
   18CHTO   O56 7318   6.238   7.321  -0.893  0.4127 -0.7345 -0.0256
   18CHTO  H135 7319   6.237   7.281  -0.809 -0.5354 -1.6456 -0.4528
   18CHTO   C81 7320   6.287   7.574  -0.882 -0.1472 -0.3720 -0.4837
   18CHTO  H153 7321   6.370   7.641  -0.904  0.4502 -0.9638 -0.0491
   18CHTO   N14 7322   6.263   7.588  -0.738 -0.0659  0.2023 -0.4236
   18CHTO  H141 7323   6.345   7.560  -0.676 -0.6040 -2.4692 -0.8865
   18CHTO  H142 7324   6.173   7.539  -0.707 -0.6139  0.0280 -2.2204
   18CHTO   C79 7325   6.167   7.632  -0.969  1.0293 -0.1560 -0.1362
   18CHTO  H151 7326   6.166   7.738  -0.942 -1.8672 -0.6319  1.8427
   18CHTO   O52 7327   6.188   7.609  -1.112 -0.0907 -0.3002 -0.3352
   18CHTO   C86 7328   6.231   7.476  -1.148 -0.8168  0.4895  0.2832
   18CHTO  H158 7329   6.150   7.401  -1.140 -0.5930  0.2474  0.2559
   18CHTO   C90 7330   6.248   7.491  -1.286  0.0033  0.4314  0.4030
   18CHTO   O60 7331   6.371   7.556  -1.318  0.1603  0.0179 -0.1440
   18CHTO  H138 7332   6.441   7.496  -1.299  0.0578 -1.1104 -3.1469
   18CHTO   O50 7333   6.031   7.589  -0.941  0.1398  0.3855  0.3149
   18CHTO   C73 7334   5.887   7.603  -0.969 -0.3694  1.0502  0.2344
   18CHTO  H145 7335   5.859   7.572  -1.071 -0.8595  2.5794 -0.1035
   18CHTO   C74 7336   5.847   7.744  -0.945  0.5252 -0.5863  1.1027
   18CHTO  H146 7337   5.898   7.812  -1.014 -1.1733  2.3964  2.6780
   18CHTO   O54 7338   5.710   7.766  -0.995 -0.3978  0.1100  0.1143
   18CHTO  H133 7339   5.667   7.830  -0.942  2.1650  0.8222  1.4249
   18CHTO   C75 7340   5.873   7.779  -0.785  0.6508  0.5827 -0.3449
   18CHTO  H147 7341   5.982   7.783  -0.768  0.4339 -0.5346  1.3797
   18CHTO   N13 7342   5.830   7.918  -0.759 -0.0513  0.1604 -0.1968
   18CHTO  H139 7343   5.829   7.923  -0.651  1.3923  0.7212 -0.2005
   18CHTO  H140 7344   5.732   7.924  -0.803  0.1204  0.2245 -0.5655
   18CHTO   C76 7345   5.814   7.670  -0.689 -0.1591 -0.6781 -0.6611
   18CHTO  H148 7346   5.706   7.685  -0.695 -0.1137 -0.4318 -0.8839
   18CHTO   O49 7347   5.851   7.536  -0.728 -0.7521 -1.0765  0.3513
   18CHTO   C77 7348   5.826   7.499  -0.868 -0.5760  0.0687  0.1140
   18CHTO  H149 7349   5.720   7.488  -0.891 -0.7691 -0.4917  1.2471
   18CHTO   C88 7350   5.897   7.362  -0.880 -0.0143 -0.2277 -0.0410
   18CHTO   O58 7351   5.918   7.323  -1.027  0.0602 -0.1306  0.1691
   18CHTO  H136 7352   5.982   7.374  -1.073  0.4965 -2.0632 -1.4599
   18CHTO   O51 7353   5.876   7.687  -0.550  0.9696  0.2429  0.0213
   18CHTO   C78 7354   5.782   7.623  -0.434  0.0784 -0.2760 -1.0271
   18CHTO  H150 7355   5.738   7.524  -0.458 -1.0759 -0.1702  0.5880
   18CHTO   C80 7356   5.672   7.717  -0.387  0.0801  0.3752  0.8609
   18CHTO  H152 7357   5.721   7.811  -0.353 -0.9093  1.3919 -0.4426
   18CHTO   O55 7358   5.587   7.747  -0.498  0.3392 -0.5608  0.5495
   18CHTO  H134 7359   5.638   7.766  -0.574  0.2551 -2.7877 -0.0938
   18CHTO   C84 7360   5.582   7.663  -0.266  0.3569  0.5272 -0.1622
   18CHTO  H156 7361   5.530   7.573  -0.299  1.1889 -0.1491  0.3502
   18CHTO   N15 7362   5.479   7.765  -0.219  0.4705  0.0279 -0.3349
   18CHTO  H143 7363   5.533   7.850  -0.183  0.6471 -0.2308  0.0184
   18CHTO  H144 7364   5.422   7.789  -0.306  0.2325  1.3791  0.1939
   18CHTO   C87 7365   5.676   7.632  -0.144  0.1408 -0.4174  0.4353
   18CHTO  H159 7366   5.714   7.727  -0.106  1.2290 -1.8962  3.1619
   18CHTO   O53 7367   5.792   7.546  -0.196  0.3374  0.3413  0.4259
   18CHTO   C82 7368   5.872   7.590  -0.310  0.6275 -0.0655 -0.5516
   18CHTO  H154 7369   5.928   7.678  -0.277 -0.8664  2.0855 -3.4039
   18CHTO   C89 7370   5.975   7.479  -0.343 -0.2737  0.1289 -0.4380
   18CHTO   O59 7371   5.919   7.350  -0.361  0.7279  0.9398 -0.4360
   18CHTO  H137 7372   5.983   7.283  -0.343 -3.1162 -2.4316  1.7492
   18CHTO   O45 7373   5.601   7.565  -0.030  0.4294  0.4210 -0.2345
   18CHTO   C67 7374   5.673   7.584   0.095  0.2501 -0.4346 -0.5322
   18CHTO  H124 7375   5.773   7.624   0.077 -0.4532  1.6785  0.0702
   18CHTO   C65 7376   5.602   7.699   0.192  0.1577  0.0553 -0.4615
   18CHTO  H122 7377   5.501   7.719   0.158  0.5926  0.2360 -1.6529
   18CHTO   O44 7378   5.682   7.821   0.182  0.1234 -0.3454  0.0595
   18CHTO  H102 7379   5.766   7.808   0.220 -1.6193 -1.2809  3.7976
   18CHTO   C63 7380   5.578   7.638   0.337  0.1049 -1.2522 -0.1783
   18CHTO  H120 7381   5.500   7.562   0.329  0.9884 -2.3921  1.8359
   18CHTO   N11 7382   5.514   7.739   0.438 -0.0491  0.1728  0.0297
   18CHTO  H108 7383   5.417   7.775   0.412  0.3530  0.5283 -1.0087
   18CHTO  H109 7384   5.587   7.815   0.456 -1.0694  1.1651  0.0373
   18CHTO   C61 7385   5.714   7.569   0.385  0.3899  0.1612 -0.4423
   18CHTO  H118 7386   5.693   7.525   0.484  0.4100  1.4114  0.1315
   18CHTO   O40 7387   5.751   7.461   0.304  0.1408  0.3742  0.0722
   18CHTO   C68 7388   5.690   7.444   0.173 -0.2014 -0.4068 -0.0570
   18CHTO  H125 7389   5.589   7.404   0.194 -0.9296  1.8126  0.9220
   18CHTO   C72 7390   5.775   7.348   0.097  0.1489  0.3888 -0.1787
   18CHTO   O48 7391   5.791   7.224   0.168  0.7944 -0.3874  0.0449
   18CHTO  H105 7392   5.812   7.249   0.256  1.5548  0.0528 -0.2509
   18CHTO   O38 7393   5.823   7.669   0.377 -0.4017 -0.2610 -0.4053
   18CHTO   C55 7394   5.947   7.631   0.436  0.1650 -0.3872 -0.2721
   18CHTO  H112 7395   5.950   7.521   0.426 -0.6696 -0.5993  1.6261
   18CHTO   C56 7396   5.949   7.678   0.585 -0.0999 -0.1036 -0.3795
   18CHTO  H113 7397   5.909   7.781   0.584 -1.1228 -0.5054 -1.5202
   18CHTO   O42 7398   5.855   7.595   0.658  0.5158 -0.0837  0.0355
   18CHTO  H100 7399   5.785   7.649   0.688 -0.4830  0.6967 -3.4489
   18CHTO   C57 7400   6.093   7.671   0.635 -0.2198 -0.1157 -0.0385
   18CHTO  H114 7401   6.115   7.565   0.647 -0.8262 -0.1340  1.0262
   18CHTO   N10 7402   6.102   7.727   0.773 -0.0662 -0.4521  0.1098
   18CHTO  H106 7403   6.116   7.834   0.769 -1.5919 -0.2026  1.1210
   18CHTO  H107 7404   6.023   7.708   0.844  1.1276 -3.9053  0.6121
   18CHTO   C58 7405   6.191   7.738   0.537 -0.0704 -0.6078 -0.3875
   18CHTO  H115 7406   6.166   7.846   0.530 -0.7089 -0.5637  2.1488
   18CHTO   O37 7407   6.181   7.680   0.404 -0.1299  0.1090  0.0610
   18CHTO   C59 7408   6.054   7.692   0.340  0.1488 -0.2800 -0.1146
   18CHTO  H116 7409   6.038   7.798   0.321 -0.1420 -0.1701  0.6914
   18CHTO   C70 7410   6.075   7.619   0.205  0.4090  0.4186 -0.1082
   18CHTO   O46 7411   6.186   7.667   0.123  0.3028  0.5693  0.4421
   18CHTO  H103 7412   6.202   7.759   0.131 -3.1551  1.2644  0.0962
   18CHTO   O39 7413   6.357   7.731   0.577 -0.1236  0.3225 -0.5730
   18CHTO   C60 7414   6.416   7.608   0.527 -0.5035 -0.1506  0.0292
   18CHTO  H117 7415   6.336   7.534   0.533 -1.0291  0.4873  1.0008
   18CHTO   C62 7416   6.489   7.636   0.393 -0.1491  0.1959  0.9203
   18CHTO  H119 7417   6.412   7.701   0.346  0.2011 -1.4457 -2.0281
   18CHTO   O43 7418   6.606   7.722   0.413  0.1383 -0.0483  0.2049
   18CHTO  H101 7419   6.667   7.672   0.462 -1.1552  0.0583  1.9663
   18CHTO   C66 7420   6.502   7.491   0.324  0.2055 -0.4602 -0.2418
   18CHTO  H123 7421   6.408   7.435   0.328  0.9728 -1.7503  0.0351
   18CHTO   N12 7422   6.536   7.511   0.182  0.2665  0.4338 -0.0645
   18CHTO  H110 7423   6.480   7.461   0.104  1.6565  1.4389 -1.7230
   18CHTO  H111 7424   6.563   7.614   0.161 -1.2958  0.7848 -0.4253
   18CHTO   C69 7425   6.607   7.399   0.397  0.5492 -0.8045  0.2100
   18CHTO  H126 7426   6.710   7.438   0.379  0.5531 -0.9134 -0.0086
   18CHTO   O41 7427   6.592   7.414   0.566 -0.7521 -0.0115 -0.1268
   18CHTO   C64 7428   6.532   7.550   0.624 -0.1739 -0.1717  0.4023
   18CHTO  H121 7429   6.613   7.624   0.643  1.6632 -1.8105 -0.9836
   18CHTO   C71 7430   6.475   7.509   0.766 -0.2310  0.0701  0.7086
   18CHTO   O47 7431   6.443   7.618   0.853 -0.1155  0.0713 -0.2151
   18CHTO  H104 7432   6.521   7.669   0.859  0.6362 -1.0523 -0.1295
   18CHTO   O34 7433   6.590   7.252   0.327  0.1055 -0.2903 -0.9511
   18CHTO   C49 7434   6.517   7.106   0.271 -0.0399  0.1410 -0.4788
   18CHTO   H91 7435   6.590   7.073   0.197 -1.5559 -0.5933 -1.7025
   18CHTO   C47 7436   6.384   7.109   0.198 -0.4743 -0.3313  1.0046
   18CHTO   H89 7437   6.359   7.013   0.149  1.3881  0.5278 -1.7012
   18CHTO   O33 7438   6.400   7.207   0.094 -0.1965  0.2838 -0.2569
   18CHTO   H70 7439   6.316   7.236   0.063 -0.9568 -3.0307 -1.5240
   18CHTO   C45 7440   6.268   7.158   0.303 -0.7983  0.6551  0.2619
   18CHTO   H87 7441   6.254   7.266   0.292 -0.5638  0.5472 -1.3137
   18CHTO    N8 7442   6.136   7.096   0.257 -0.1870  0.2712 -0.1421
   18CHTO   H75 7443   6.133   6.993   0.289 -0.7628  1.0679  2.4578
   18CHTO   H76 7444   6.141   7.113   0.150  1.8933  0.6244 -0.0138
   18CHTO   C43 7445   6.312   7.129   0.454 -0.1532 -0.6548 -1.0096
   18CHTO   H85 7446   6.370   7.215   0.487 -1.3213 -0.3737  0.3807
   18CHTO   O29 7447   6.386   7.005   0.474  0.4672 -0.3411  0.3361
   18CHTO   C50 7448   6.507   7.012   0.395  0.8581  0.9006 -0.1367
   18CHTO   H92 7449   6.595   7.025   0.459 -0.3009  2.5480  1.1794
   18CHTO   C54 7450   6.542   6.873   0.342  0.1992  0.1389  0.1484
   18CHTO   O36 7451   6.572   6.774   0.434  0.4732  0.0883  0.5465
   18CHTO   H72 7452   6.662   6.760   0.455  0.8799  0.4507 -0.9005
   18CHTO   O27 7453   6.196   7.140   0.543 -0.8711  0.3615  0.1354
   18CHTO   C37 7454   6.131   7.163   0.666  0.2552  0.1264  0.1403
   18CHTO   H79 7455   6.094   7.070   0.710  1.9898 -0.9031 -0.5228
   18CHTO   C38 7456   6.235   7.206   0.780 -0.0596  0.2103  0.2277
   18CHTO   H80 7457   6.272   7.307   0.756  0.4954 -0.2122 -0.6941
   18CHTO   O31 7458   6.349   7.116   0.778 -0.0615  0.2679  0.0978
   18CHTO   H68 7459   6.335   7.040   0.831 -1.3509 -0.1233 -0.8021
   18CHTO   C39 7460   6.163   7.217   0.919  0.2863 -0.3351  0.0831
   18CHTO   H81 7461   6.122   7.118   0.935 -2.0004  1.0896  3.5050
   18CHTO    N7 7462   6.247   7.254   1.036 -0.1553  0.3837 -0.5557
   18CHTO   H73 7463   6.227   7.353   1.073  0.0033  0.1844  0.0770
   18CHTO   H74 7464   6.237   7.173   1.108  2.3559  0.4660 -0.0621
   18CHTO   C40 7465   6.040   7.321   0.906 -0.6317  0.0965  0.1110
   18CHTO   H82 7466   6.089   7.418   0.904  1.8899 -1.1606 -1.8080
   18CHTO   O26 7467   5.960   7.299   0.790  0.1439  0.0174  0.1848
   18CHTO   C41 7468   6.020   7.274   0.661 -0.3225  0.5899 -0.3486
   18CHTO   H83 7469   6.070   7.366   0.626  0.4935  0.8051  1.3229
   18CHTO   C52 7470   5.897   7.244   0.577 -0.0158  0.2158  0.1777
   18CHTO   O35 7471   5.933   7.229   0.442 -0.3039  0.2661  0.2183
   18CHTO   H71 7472   5.872   7.254   0.375 -0.0628  1.6804  0.5129
   18CHTO   O28 7473   5.963   7.329   1.023 -0.7848  0.0844  0.2906
   18CHTO   C42 7474   5.820   7.287   1.041 -0.1935  0.2067  0.7729
   18CHTO   H84 7475   5.814   7.305   1.148 -0.6725 -1.7063  1.0730
   18CHTO   C44 7476   5.788   7.138   1.029  0.0978  0.9854 -0.4895
   18CHTO   H86 7477   5.802   7.107   0.925  2.2629  0.8855 -0.1801
   18CHTO   O32 7478   5.877   7.051   1.108  0.2051  0.2790 -0.2653
   18CHTO   H69 7479   5.826   6.983   1.148  0.1943  0.0379 -0.6954
   18CHTO   C48 7480   5.637   7.118   1.054  0.4872 -0.0167  0.3039
   18CHTO   H90 7481   5.605   7.160   1.149  1.4418  2.6492 -0.5023
   18CHTO    N9 7482   5.593   6.972   1.045  0.4473 -0.0897  0.0603
   18CHTO   H77 7483   5.486   6.969   1.054  0.2843  1.2206 -1.2216
   18CHTO   H78 7484   5.641   6.921   1.127 -2.3380 -1.6416  0.7633
   18CHTO   C51 7485   5.561   7.210   0.951 -0.6514  0.2666  0.2025
   18CHTO   H93 7486   5.605   7.196   0.852 -1.0584  0.2216  0.0283
   18CHTO   O30 7487   5.581   7.341   0.997 -0.4662  0.1827  0.6024
   18CHTO   C46 7488   5.719   7.390   0.970 -0.0605  0.1830  0.0605
   18CHTO   H88 7489   5.729   7.401   0.863 -1.4381 -0.8919 -0.1914
   18CHTO   C53 7490   5.716   7.526   1.040 -0.2955 -0.7531 -0.1846
   18CHTO   O72 7491   5.833   7.600   1.003  0.2759 -0.8989 -0.3985
   18CHTO  H199 7492   5.850   7.662   1.072 -0.2734 -1.1833 -0.0044
   18CHTO   O22 7493   5.418   7.199   0.936  0.4178 -0.6071  0.0634
   18CHTO   C31 7494   5.358   7.184   0.800  0.2901  0.0740  0.1541
   18CHTO   H59 7495   5.248   7.190   0.812 -0.0629  1.7973 -3.3158
   18CHTO   C29 7496   5.397   7.293   0.701  0.4012  0.5124  0.2763
   18CHTO   H57 7497   5.507   7.295   0.701  0.4452 -0.7692  2.2716
   18CHTO   O21 7498   5.354   7.418   0.765 -0.6702 -0.5023 -0.5575
   18CHTO   H37 7499   5.431   7.457   0.802 -2.1917  0.2748  1.9121
   18CHTO   C27 7500   5.345   7.264   0.556 -0.7927 -0.1990  0.3241
   18CHTO   H55 7501   5.235   7.259   0.559 -0.8078 -0.2671 -0.2958
   18CHTO    N5 7502   5.382   7.362   0.453 -0.1418 -0.1341  0.3865
   18CHTO   H43 7503   5.488   7.353   0.437  0.0166  0.3327  1.0965
   18CHTO   H44 7504   5.317   7.364   0.367 -1.1494  2.5747  1.1474
   18CHTO   C25 7505   5.395   7.121   0.509 -0.3831 -0.1424 -0.1009
   18CHTO   H53 7506   5.502   7.116   0.531 -0.4724 -1.4470  0.0587
   18CHTO   O17 7507   5.325   7.029   0.608 -0.4578 -0.8919  0.6332
   18CHTO   C32 7508   5.379   7.042   0.740  0.0575  0.1508  0.5840
   18CHTO   H60 7509   5.484   7.015   0.737  0.0089 -0.0642  0.8051
   18CHTO   C36 7510   5.314   6.931   0.825  0.0688  0.1844 -0.0576
   18CHTO   O25 7511   5.360   6.804   0.795  0.3215 -0.8959 -0.2681
   18CHTO   H40 7512   5.300   6.742   0.831  0.3019 -0.4032  0.5663
   18CHTO   O15 7513   5.352   7.069   0.365 -0.5889 -0.0557  0.0651
   18CHTO   C19 7514   5.367   7.041   0.225  0.7340  0.1486 -0.2667
   18CHTO   H47 7515   5.314   6.945   0.218 -1.0585  1.1391 -0.6838
   18CHTO   C20 7516   5.306   7.154   0.138  0.5306  0.1259  0.2524
   18CHTO   H48 7517   5.359   7.249   0.152 -0.9730  1.1585 -0.8893
   18CHTO   O19 7518   5.166   7.162   0.166  0.1014  0.6636 -0.1571
   18CHTO   H35 7519   5.124   7.241   0.139 -1.9505 -0.9301 -1.7781
   18CHTO   C21 7520   5.339   7.140  -0.024  0.2814  0.0878  0.4269
   18CHTO   H49 7521   5.275   7.060  -0.059 -0.3091  1.3117 -1.3540
   18CHTO    N4 7522   5.291   7.263  -0.092 -0.4568 -0.3922 -0.6962
   18CHTO   H41 7523   5.208   7.241  -0.157 -1.6666 -2.4539  1.4584
   18CHTO   H42 7524   5.266   7.345  -0.026 -1.9569  0.2639 -2.0562
   18CHTO   C22 7525   5.484   7.106  -0.049 -0.2642 -0.2987 -0.2182
   18CHTO   H50 7526   5.550   7.192  -0.058 -2.4111  1.4732  0.3652
   18CHTO   O14 7527   5.532   7.004   0.043  0.0493 -0.2437 -0.7045
   18CHTO   C23 7528   5.513   7.026   0.186 -0.5707 -0.0798  0.0967
   18CHTO   H51 7529   5.572   7.115   0.211 -0.0744 -1.0259  2.4128
   18CHTO   C34 7530   5.572   6.904   0.258  0.1792  0.1282  0.6722
   18CHTO   O23 7531   5.707   6.879   0.227  0.0641  0.0974  0.4917
   18CHTO   H38 7532   5.743   6.798   0.259  2.2829  0.1271 -1.8355
   18CHTO   O16 7533   5.495   7.037  -0.178 -0.1108  0.0425  0.0766
   18CHTO   C24 7534   5.603   7.120  -0.282  0.0155 -0.7182  0.5529
   18CHTO   H52 7535   5.643   7.210  -0.235 -0.0531 -1.3387  1.8317
   18CHTO   C26 7536   5.536   7.157  -0.418  0.3842  0.3117 -0.4150
   18CHTO   H54 7537   5.480   7.068  -0.453  1.0364 -0.2817  0.0488
   18CHTO   O20 7538   5.434   7.248  -0.387 -0.3371  0.1598  0.7071
   18CHTO   H36 7539   5.471   7.331  -0.363  1.8979 -0.0248 -1.9179
   18CHTO   C30 7540   5.629   7.203  -0.536  0.2917  0.8830 -0.0105
   18CHTO   H58 7541   5.658   7.306  -0.512  1.2168 -0.2356  3.9353
   18CHTO    N6 7542   5.556   7.217  -0.665 -0.6184 -0.2842  0.0659
   18CHTO   H45 7543   5.516   7.125  -0.705  2.4978 -2.1756  1.0732
   18CHTO   H46 7544   5.483   7.296  -0.677  0.2266  0.1770 -2.1983
   18CHTO   C33 7545   5.750   7.107  -0.540 -0.5693  0.4107  0.6792
   18CHTO   H61 7546   5.719   7.006  -0.569 -1.1161  0.3286  1.5439
   18CHTO   O18 7547   5.813   7.105  -0.415  0.1874 -0.0030 -0.0208
   18CHTO   C28 7548   5.733   7.038  -0.313 -0.0185  0.0865 -0.7215
   18CHTO   H56 7549   5.706   6.939  -0.350  3.3103 -0.8774 -0.7786
   18CHTO   C35 7550   5.821   7.017  -0.179 -0.2811  0.0883 -0.1409
   18CHTO   O24 7551   5.919   6.907  -0.188 -0.1070 -0.2792  0.2318
   18CHTO   H39 7552   6.004   6.929  -0.156 -0.4457  0.5151  0.6133
   18CHTO    O9 7553   5.844   7.145  -0.643 -0.2068  0.5864 -0.3167
   18CHTO   C13 7554   5.930   7.011  -0.719  0.0418  0.0312  0.2597
   18CHTO   H26 7555   5.907   7.023  -0.827  0.3177  0.7538  0.2810
   18CHTO   C11 7556   5.894   6.859  -0.668 -0.0477  0.1719 -0.6648
   18CHTO   H24 7557   5.790   6.838  -0.697 -0.7173  0.4906  1.3857
   18CHTO    O8 7558   5.900   6.841  -0.525 -0.2498 -0.2029 -0.4206
   18CHTO    H3 7559   5.841   6.773  -0.499 -1.4350  1.1793  0.6347
   18CHTO    C9 7560   5.995   6.762  -0.743  0.8395 -0.3355 -0.0493
   18CHTO   H22 7561   5.992   6.789  -0.850 -3.1783 -1.5264 -0.3107
   18CHTO    N2 7562   5.954   6.623  -0.743  0.0169 -0.1256 -0.2677
   18CHTO   H10 7563   5.927   6.591  -0.643 -1.0484  1.3191 -0.0829
   18CHTO   H11 7564   6.018   6.549  -0.789  0.7759 -0.2210  0.9307
   18CHTO    C7 7565   6.141   6.785  -0.699  0.0213  0.4934 -0.3063
   18CHTO   H20 7566   6.204   6.727  -0.769  2.1510 -0.6792  2.4842
   18CHTO    O4 7567   6.176   6.925  -0.711  0.9108  0.0033  0.5067
   18CHTO   C14 7568   6.085   7.038  -0.692 -0.0581 -0.0388 -0.5102
   18CHTO   H27 7569   6.115   7.117  -0.764  1.5085 -1.0406 -0.9869
   18CHTO   C18 7570   6.111   7.098  -0.551  0.4882  0.1864 -0.7533
   18CHTO   O13 7571   6.237   7.167  -0.549  0.1951  0.4339 -0.2953
   18CHTO    H7 7572   6.224   7.260  -0.543  0.2860  0.3556  1.4531
   18CHTO    O2 7573   6.168   6.741  -0.555  0.2670 -0.0814  0.2365
   18CHTO    C1 7574   6.303   6.723  -0.514 -0.0163 -0.4152  0.1540
   18CHTO   H14 7575   6.365   6.805  -0.555 -0.3383 -1.2024 -1.9533
   18CHTO    C2 7576   6.366   6.593  -0.566  0.0651  0.8673  0.5070
   18CHTO   H15 7577   6.302   6.513  -0.527 -1.1647  1.0746 -1.0327
   18CHTO    O6 7578   6.359   6.578  -0.708 -0.3893  0.1800  0.3359
   18CHTO    H1 7579   6.399   6.499  -0.739  1.4871  1.4898 -0.6837
   18CHTO    C3 7580   6.514   6.581  -0.513  0.1558 -0.3598 -0.6058
   18CHTO   H16 7581   6.571   6.662  -0.561  0.0448  0.3293  0.4066
   18CHTO    N1 7582   6.582   6.455  -0.547  0.1923 -0.6599 -0.8063
   18CHTO    H8 7583   6.655   6.488  -0.620  0.7087  3.2827  1.3388
   18CHTO    H9 7584   6.638   6.437  -0.456 -0.0904 -0.0823 -0.5161
   18CHTO    C4 7585   6.522   6.608  -0.352 -0.0580 -0.7866 -0.0143
   18CHTO   H17 7586   6.482   6.521  -0.299  0.7779 -1.8627 -1.1364
   18CHTO    O1 7587   6.448   6.731  -0.314  0.3698  0.1639  0.2154
   18CHTO    C5 7588   6.308   6.734  -0.361  0.1271  0.1815 -0.4488
   18CHTO   H18 7589   6.261   6.646  -0.317 -0.0745  0.1047 -0.8225
   18CHTO   C16 7590   6.234   6.852  -0.292  0.1400 -0.3747 -1.1388
   18CHTO   O11 7591   6.314   6.973  -0.305  0.3918 -0.2619 -0.3933
   18CHTO    H5 7592   6.294   7.009  -0.389 -0.3788  0.4257  0.0706
   18CHTO    O3 7593   6.648   6.640  -0.290  0.2554 -0.5461 -0.3499
   18CHTO    C6 7594   6.667   6.595  -0.150 -0.4604  0.0419  0.2118
   18CHTO   H19 7595   6.573   6.567  -0.104 -0.6198 -0.0889 -0.1882
   18CHTO    C8 7596   6.754   6.468  -0.143  0.2431 -0.2771 -0.8429
   18CHTO   H21 7597   6.849   6.481  -0.194  0.3787 -0.3893 -0.6229
   18CHTO    O7 7598   6.682   6.358  -0.215 -0.2259  0.4810 -0.4864
   18CHTO    H2 7599   6.602   6.330  -0.175 -0.5081  0.7225 -0.8832
   18CHTO   C12 7600   6.782   6.420   0.008 -0.1537  0.0861  0.0577
   18CHTO   H25 7601   6.682   6.391   0.047 -0.3118 -0.3243 -0.6404
   18CHTO    N3 7602   6.881   6.306   0.011  0.6353 -0.1794  0.0819
   18CHTO   H12 7603   6.980   6.346   0.024  0.6508 -0.5317  1.0567
   18CHTO   H13 7604   6.858   6.236   0.090 -3.0190  0.7430 -0.0866
   18CHTO   C15 7605   6.822   6.543   0.098  0.2792 -0.6542 -0.1458
   18CHTO   H28 7606   6.925   6.577   0.092 -0.0905  0.4066 -0.7242
   18CHTO   O10 7607   6.799   6.515   0.222 -0.4791 -0.5913 -0.2780
   18CHTO    H4 7608   6.847   6.442   0.254  0.3621 -0.3535 -0.9794
   18CHTO    O5 7609   6.730   6.655   0.080 -0.4001  0.3779 -0.0804
   18CHTO   C10 7610   6.738   6.701  -0.060  0.1140 -0.4628 -0.3481
   18CHTO   H23 7611   6.844   6.708  -0.083  0.8145  1.1154  2.9313
   18CHTO   C17 7612   6.674   6.839  -0.072  0.1571  0.6612  0.5549
   18CHTO   O12 7613   6.717   6.907  -0.194 -0.1307  0.1465 -0.1522
   18CHTO    H6 7614   6.809   6.922  -0.178  0.3776 -1.7465 -1.1288
   19CHTO  H203 7615   6.996   8.079   1.326 -1.9576 -0.7053  1.8081
   19CHTO   O82 7616   6.971   8.012   1.265  0.3322 -0.0545  0.0611
   19CHTO  C123 7617   6.827   7.985   1.259 -0.7809  0.0667 -0.2117
   19CHTO  H227 7618   6.777   8.071   1.212 -1.3698  0.2978  0.8066
   19CHTO   O77 7619   6.818   7.858   1.176  0.0106 -0.4397  0.4990
   19CHTO  C118 7620   6.682   7.826   1.145 -0.4500  0.5462 -0.0361
   19CHTO  H222 7621   6.640   7.902   1.078 -1.9851  1.5235  1.9493
   19CHTO  C125 7622   6.669   7.689   1.072  0.0591 -0.5459  0.5235
   19CHTO   O84 7623   6.757   7.696   0.959  0.2238 -0.2237  0.7957
   19CHTO  H205 7624   6.715   7.647   0.891 -0.6259 -0.9175  1.7985
   19CHTO  C114 7625   6.599   7.813   1.272  0.6951  0.3738 -0.0522
   19CHTO  H218 7626   6.632   7.724   1.326  0.5279 -0.1838 -0.8711
   19CHTO  C116 7627   6.614   7.938   1.365 -0.1827 -0.2178  0.5839
   19CHTO  H220 7628   6.564   8.031   1.330  1.5090  0.8411  0.9095
   19CHTO   O79 7629   6.536   7.911   1.481  0.3431  0.4859 -0.4028
   19CHTO  H201 7630   6.444   7.917   1.469 -0.1085  0.1316  2.5978
   19CHTO  C120 7631   6.765   7.975   1.398 -0.3291  0.2113  0.3225
   19CHTO  H224 7632   6.816   7.898   1.461  3.6491 -0.4178 -3.4148
   19CHTO   N21 7633   6.769   8.102   1.476  0.1609 -0.1404 -0.4403
   19CHTO  H211 7634   6.789   8.178   1.401  1.4073  0.4906  0.5043
   19CHTO  H212 7635   6.853   8.110   1.543 -1.2669 -2.1087  1.6302
   19CHTO   O75 7636   6.465   7.809   1.221  0.1167 -0.1109 -0.5362
   19CHTO  C112 7637   6.361   7.720   1.315  0.9457  0.0945 -0.1396
   19CHTO  H216 7638   6.325   7.776   1.402 -2.2240  0.7815 -1.8583
   19CHTO   O73 7639   6.437   7.605   1.355 -0.2024 -0.4226  0.1081
   19CHTO  C113 7640   6.370   7.533   1.460 -0.0790 -1.0295 -0.3127
   19CHTO  H217 7641   6.352   7.601   1.546  0.5411 -0.3359 -0.7327
   19CHTO  C124 7642   6.470   7.432   1.522  0.3224  0.4026  0.2944
   19CHTO   O83 7643   6.561   7.379   1.429  0.6021 -0.1102  0.3365
   19CHTO  H204 7644   6.642   7.426   1.434  0.0596  0.7622  1.0593
   19CHTO  C109 7645   6.231   7.474   1.399  0.1524 -0.3296 -0.5948
   19CHTO  H213 7646   6.259   7.403   1.320  0.4462 -0.8493 -0.0327
   19CHTO  C110 7647   6.146   7.589   1.338  0.1659 -0.0787 -0.2895
   19CHTO  H214 7648   6.101   7.657   1.410 -0.4884 -0.1601 -0.6221
   19CHTO   O78 7649   6.027   7.527   1.276 -0.3891 -0.0767  0.4935
   19CHTO  H200 7650   5.953   7.577   1.303  0.2808  1.2401 -0.0546
   19CHTO  C111 7651   6.236   7.662   1.232 -0.6281  0.3926 -0.0157
   19CHTO  H215 7652   6.270   7.592   1.154 -0.4652 -0.6572  0.9823
   19CHTO   N19 7653   6.168   7.774   1.162 -0.4697 -0.0538  0.0092
   19CHTO  H207 7654   6.242   7.820   1.099 -0.1975  1.7383  1.6064
   19CHTO  H208 7655   6.071   7.739   1.129 -0.1977 -1.0971  0.2871
   19CHTO   O74 7656   6.170   7.397   1.514  0.4893 -0.2420  0.1873
   19CHTO  C115 7657   6.105   7.288   1.459  0.5407 -0.4312 -0.3551
   19CHTO  H219 7658   6.046   7.313   1.370 -0.6951 -0.9103  0.3119
   19CHTO   O76 7659   6.206   7.173   1.406 -0.3412  0.3691  0.0610
   19CHTO  C122 7660   6.270   7.103   1.516 -0.0088  0.7089  0.0541
   19CHTO  H226 7661   6.328   7.179   1.569 -2.1327  1.8447  0.8443
   19CHTO  C126 7662   6.383   6.999   1.464 -0.2885  0.1484  0.3250
   19CHTO   O85 7663   6.498   7.058   1.408 -0.0833 -0.5210 -0.4670
   19CHTO  H206 7664   6.513   7.143   1.445  1.2107 -0.9033 -0.1076
   19CHTO  C121 7665   6.164   7.039   1.617  0.4556 -0.5561  0.6622
   19CHTO  H225 7666   6.169   6.929   1.625  1.0304 -0.4461  1.8739
   19CHTO   O81 7667   6.185   7.088   1.743  0.0068 -0.7104 -0.5659
   19CHTO  H202 7668   6.195   7.022   1.809  2.6472  0.3355  0.1497
   19CHTO  C119 7669   6.017   7.076   1.573  0.4154  0.0661  0.4310
   19CHTO  H223 7670   5.997   7.030   1.476  1.1151  0.0154  0.3036
   19CHTO  C117 7671   6.000   7.231   1.559  0.0423 -0.2455  0.3422
   19CHTO  H221 7672   6.029   7.285   1.649 -0.1645  1.1106 -0.3850
   19CHTO   N20 7673   5.862   7.270   1.527 -0.3865  0.0832  0.0606
   19CHTO  H209 7674   5.850   7.377   1.514  1.8810  0.5546  1.5943
   19CHTO  H210 7675   5.804   7.221   1.603 -0.1697 -2.2779 -1.2470
   19CHTO   O80 7676   5.912   7.011   1.665  0.8845  0.4619 -0.3038
   19CHTO  C103 7677   5.890   6.860   1.664 -0.2363  0.0731  0.2275
   19CHTO  H190 7678   5.976   6.801   1.633 -2.6698 -2.3696 -2.1826
   19CHTO  C101 7679   5.854   6.807   1.813 -0.5410  0.6174  0.5281
   19CHTO  H188 7680   5.763   6.854   1.849 -2.5087 -1.5959 -1.4165
   19CHTO   O68 7681   5.972   6.845   1.899 -0.0620  0.1928 -0.6186
   19CHTO  H168 7682   5.936   6.894   1.971  0.1188  1.1262 -1.1483
   19CHTO   C99 7683   5.837   6.650   1.818 -0.5626 -0.0984  0.7166
   19CHTO  H186 7684   5.934   6.616   1.776 -0.4888  1.5217 -0.5139
   19CHTO   N17 7685   5.795   6.594   1.949 -0.4217 -0.7089 -0.0621
   19CHTO  H174 7686   5.864   6.521   1.990 -0.2994 -0.4183  0.2516
   19CHTO  H175 7687   5.774   6.658   2.034 -2.5321 -0.2118 -0.9345
   19CHTO   C97 7688   5.729   6.608   1.716  0.2099 -0.1137 -0.6436
   19CHTO  H184 7689   5.628   6.637   1.747  1.0062  2.2320 -0.1479
   19CHTO   O64 7690   5.764   6.664   1.591  0.0068 -0.2722  0.0475
   19CHTO  C104 7691   5.765   6.812   1.585 -1.0020  0.1600  0.7430
   19CHTO  H191 7692   5.675   6.857   1.627 -2.6732  0.1837 -2.6753
   19CHTO  C108 7693   5.769   6.863   1.443  0.2980 -0.1289 -0.0566
   19CHTO   O71 7694   5.882   6.812   1.366 -0.0778  0.2401  0.0640
   19CHTO  H171 7695   5.930   6.890   1.346  0.7149 -0.5115 -1.0248
   19CHTO   O62 7696   5.735   6.471   1.697  0.0646 -0.0140 -0.4103
   19CHTO   C91 7697   5.610   6.402   1.668 -0.3828 -0.4082 -0.1180
   19CHTO  H178 7698   5.522   6.462   1.692  0.3739  1.0368 -0.8454
   19CHTO   C92 7699   5.595   6.285   1.764 -0.1757 -0.0225 -0.0134
   19CHTO  H179 7700   5.690   6.233   1.777  0.5399  0.9806 -1.1156
   19CHTO   O66 7701   5.570   6.332   1.893  0.0114 -0.1846 -1.0170
   19CHTO  H166 7702   5.495   6.389   1.886 -1.0759 -1.4320  0.1392
   19CHTO   C93 7703   5.480   6.188   1.715  0.6196 -0.4580 -0.5609
   19CHTO  H180 7704   5.382   6.235   1.733  1.4210  1.3408 -0.8157
   19CHTO   N16 7705   5.480   6.059   1.796  0.3601  0.3600  0.0895
   19CHTO  H172 7706   5.440   5.978   1.736  4.9604  0.0759 -2.8215
   19CHTO  H173 7707   5.416   6.073   1.882  0.7806 -0.9551  0.6351
   19CHTO   C94 7708   5.490   6.148   1.563  0.8113  0.3383  0.7248
   19CHTO  H181 7709   5.579   6.089   1.543  0.6026  1.1222 -2.7702
   19CHTO   O61 7710   5.497   6.270   1.493  0.3531 -0.0433  0.0052
   19CHTO   C95 7711   5.605   6.348   1.521 -0.0575 -0.3929  0.4328
   19CHTO  H182 7712   5.696   6.292   1.500  2.0247  3.2127 -0.5003
   19CHTO  C106 7713   5.599   6.454   1.412 -0.9587 -0.2763  0.3752
   19CHTO   O69 7714   5.490   6.543   1.422 -0.2150 -0.9579  0.0775
   19CHTO  H169 7715   5.500   6.617   1.365 -0.7828  1.3930  2.9241
   19CHTO   O63 7716   5.352   6.083   1.503  0.2867  0.0850  0.2297
   19CHTO   C96 7717   5.383   5.980   1.378  0.5399  0.1729 -0.1948
   19CHTO  H183 7718   5.465   5.918   1.412  1.3556  0.7661 -1.0776
   19CHTO   C98 7719   5.426   6.049   1.252  0.1216  0.4670 -1.0337
   19CHTO  H185 7720   5.505   6.124   1.271  1.4172 -1.3532  1.0820
   19CHTO   O67 7721   5.494   5.945   1.178  0.1747  0.3289 -0.1745
   19CHTO  H167 7722   5.510   5.974   1.090  1.6876  2.3026  0.7294
   19CHTO  C102 7723   5.300   6.116   1.175  0.2037  0.1145  0.5347
   19CHTO  H189 7724   5.324   6.125   1.068 -0.2490  2.3320  0.5926
   19CHTO   N18 7725   5.258   6.247   1.224 -0.8957  0.2526 -0.1690
   19CHTO  H176 7726   5.157   6.233   1.258 -1.4151  0.5619 -1.5649
   19CHTO  H177 7727   5.328   6.277   1.300  1.6626 -0.7109 -2.0550
   19CHTO  C105 7728   5.188   6.006   1.164  0.6922 -0.4306 -0.2491
   19CHTO  H192 7729   5.093   6.042   1.204  0.3434 -2.4603  0.7967
   19CHTO   O65 7730   5.211   5.882   1.229  0.2490 -0.2810 -0.2160
   19CHTO  C100 7731   5.248   5.883   1.368 -0.8016 -0.4894  0.2119
   19CHTO  H187 7732   5.167   5.942   1.413  0.6810  1.6934  0.0743
   19CHTO  C107 7733   5.270   5.747   1.436  0.1844 -0.4086 -0.1401
   19CHTO   O70 7734   5.290   5.769   1.573  0.0283 -0.0180 -0.0299
   19CHTO  H170 7735   5.217   5.740   1.625 -0.7803  2.8504  0.5465
   19CHTO   O57 7736   5.182   5.980   1.017 -0.3701 -0.0122 -0.2886
   19CHTO   C85 7737   5.063   5.897   0.969  0.2892  0.0176  0.6466
   19CHTO  H157 7738   5.007   5.863   1.059 -1.9009 -3.7052 -1.9938
   19CHTO   C83 7739   5.114   5.762   0.904  0.4782 -0.3313  0.1011
   19CHTO  H155 7740   5.162   5.708   0.986  0.9390 -0.3968 -0.2073
   19CHTO   O56 7741   5.216   5.792   0.806 -0.3659  0.4176 -0.4110
   19CHTO  H135 7742   5.189   5.844   0.732 -0.1427  0.2278 -0.6288
   19CHTO   C81 7743   4.990   5.679   0.866  0.3091 -0.9198 -0.2486
   19CHTO  H153 7744   4.926   5.659   0.951 -0.8630 -0.3864 -0.9960
   19CHTO   N14 7745   5.018   5.544   0.816  0.0290  0.3508  0.2220
   19CHTO  H141 7746   4.931   5.500   0.772 -0.6587  0.5691  1.3540
   19CHTO  H142 7747   5.041   5.493   0.907 -0.4969  0.6693  0.5279
   19CHTO   C79 7748   4.907   5.766   0.758 -0.0283  0.4087 -0.1551
   19CHTO  H151 7749   4.817   5.709   0.736 -0.7262  1.3438  0.2406
   19CHTO   O52 7750   4.868   5.892   0.823 -0.0443 -0.1399  0.7315
   19CHTO   C86 7751   4.975   5.972   0.870  0.4891 -0.4318 -0.8124
   19CHTO  H158 7752   5.042   6.003   0.787  2.9257 -1.7199  0.6099
   19CHTO   C90 7753   4.915   6.102   0.936 -0.4519 -0.1654 -0.2085
   19CHTO   O60 7754   4.891   6.198   0.835 -0.0100  0.5583 -0.3452
   19CHTO  H138 7755   4.825   6.253   0.872 -1.2517 -0.8968 -0.3373
   19CHTO   O50 7756   4.971   5.777   0.624 -0.2573 -0.6087  0.0842
   19CHTO   C73 7757   4.934   5.783   0.487  0.2144  0.1487  0.4191
   19CHTO  H145 7758   4.884   5.688   0.461  2.0059 -0.5115 -0.7752
   19CHTO   C74 7759   5.058   5.811   0.397 -0.8392  0.6713 -0.2621
   19CHTO  H146 7760   5.123   5.725   0.417 -2.8890 -0.6261  0.9326
   19CHTO   O54 7761   5.023   5.809   0.260 -0.3215  0.2420 -0.2742
   19CHTO  H133 7762   4.945   5.859   0.244 -0.7252 -0.4541 -0.4977
   19CHTO   C75 7763   5.125   5.942   0.446  0.0572 -0.7320 -0.3212
   19CHTO  H147 7764   5.141   5.927   0.554  0.6217 -0.1675 -0.3216
   19CHTO   N13 7765   5.261   5.968   0.388 -0.6095  0.3172  0.4141
   19CHTO  H139 7766   5.330   5.902   0.439 -0.5597  0.3031  0.3275
   19CHTO  H140 7767   5.287   6.067   0.422 -0.4067 -0.1921  1.7772
   19CHTO   C76 7768   5.019   6.064   0.450  0.7563 -0.8813 -0.0742
   19CHTO  H148 7769   5.001   6.086   0.345 -0.0416  0.8529  0.4117
   19CHTO   O49 7770   4.889   6.017   0.510 -0.4577 -0.1619  0.0841
   19CHTO   C77 7771   4.835   5.895   0.461 -0.2402  1.0110 -0.2794
   19CHTO  H149 7772   4.820   5.900   0.353  1.4690  3.1345 -0.4428
   19CHTO   C88 7773   4.698   5.885   0.528 -0.1437 -0.7841 -0.3268
   19CHTO   O58 7774   4.626   5.784   0.476  0.3283 -0.0351  0.0965
   19CHTO  H136 7775   4.537   5.782   0.506  0.0423 -0.4912 -0.7389
   19CHTO   O51 7776   5.083   6.187   0.536  0.4324  0.5236 -0.6841
   19CHTO   C78 7777   5.053   6.331   0.461  0.1111 -0.2073 -0.6507
   19CHTO  H150 7778   5.016   6.321   0.357 -2.1854  3.3829 -0.2245
   19CHTO   C80 7779   5.181   6.418   0.459  0.1121 -0.0499 -0.4054
   19CHTO  H152 7780   5.224   6.421   0.561  2.5155 -0.3421 -1.3595
   19CHTO   O55 7781   5.272   6.353   0.371  1.0744  0.7274 -0.4304
   19CHTO  H134 7782   5.238   6.372   0.286  0.9750 -0.5467 -0.6916
   19CHTO   C84 7783   5.155   6.571   0.421  0.6427  0.3930  0.4717
   19CHTO  H156 7784   5.111   6.567   0.322 -0.4175 -1.3657  0.9950
   19CHTO   N15 7785   5.273   6.655   0.432 -0.4646 -1.2032 -0.5070
   19CHTO  H143 7786   5.287   6.723   0.514  2.6237 -0.8634 -1.2631
   19CHTO  H144 7787   5.298   6.702   0.339 -2.0929  0.8763  0.0555
   19CHTO   C87 7788   5.041   6.624   0.514 -0.9141  0.1801  0.3223
   19CHTO  H159 7789   5.071   6.614   0.618  0.3912 -2.1319 -0.2457
   19CHTO   O53 7790   4.913   6.539   0.496 -0.5828 -0.2150 -0.2746
   19CHTO   C82 7791   4.944   6.398   0.536 -0.4946  1.2036  1.1146
   19CHTO  H154 7792   4.967   6.399   0.643  1.5531 -2.6855  0.7908
   19CHTO   C89 7793   4.810   6.323   0.521  0.5003  0.5856 -0.2448
   19CHTO   O59 7794   4.771   6.292   0.384 -0.0185  0.0351 -0.1532
   19CHTO  H137 7795   4.719   6.361   0.347  0.7716 -0.6895 -2.7054
   19CHTO   O45 7796   4.996   6.795   0.496  0.5654  0.1950 -0.0436
   19CHTO   C67 7797   4.889   6.843   0.580 -0.5544  0.1543  0.5276
   19CHTO  H124 7798   4.848   6.762   0.640 -0.9966 -0.0576 -0.0472
   19CHTO   C65 7799   4.957   6.954   0.671 -0.2182 -0.7972 -0.2386
   19CHTO  H122 7800   5.044   6.984   0.611 -0.7614  0.3840 -0.4551
   19CHTO   O44 7801   5.003   6.880   0.781 -0.0764  0.0607  0.5058
   19CHTO  H102 7802   5.085   6.912   0.812  0.7125 -0.8487 -0.5897
   19CHTO   C63 7803   4.873   7.083   0.690  0.6907  0.3177  0.0552
   19CHTO  H120 7804   4.876   7.144   0.601 -0.3268  1.3450  0.7111
   19CHTO   N11 7805   4.937   7.185   0.790 -0.0372 -0.0185 -0.1921
   19CHTO  H108 7806   4.872   7.211   0.871 -2.4415 -1.2040 -1.6854
   19CHTO  H109 7807   4.955   7.277   0.738  0.7513 -0.5173 -0.8214
   19CHTO   C61 7808   4.713   7.042   0.707  0.1466  0.0100 -0.4797
   19CHTO  H118 7809   4.653   7.131   0.683  0.2160 -0.0982 -1.0680
   19CHTO   O40 7810   4.671   6.933   0.615 -0.3815  0.2126  0.1346
   19CHTO   C68 7811   4.768   6.901   0.505  0.7680  0.9460  0.4177
   19CHTO  H125 7812   4.796   6.993   0.448  0.1277 -0.3497 -2.0627
   19CHTO   C72 7813   4.715   6.809   0.400  1.1343  0.8065 -0.2040
   19CHTO   O48 7814   4.590   6.860   0.344  0.0836 -0.1380  0.2017
   19CHTO  H105 7815   4.569   6.822   0.261  0.1331 -1.2738  0.7044
   19CHTO   O38 7816   4.690   6.992   0.847 -0.6817  0.1299  0.2521
   19CHTO   C55 7817   4.561   6.941   0.890 -0.4572  0.3060  0.4946
   19CHTO  H112 7818   4.493   6.941   0.804 -1.0777 -0.0542  0.9815
   19CHTO   C56 7819   4.510   7.035   1.018 -0.2330 -0.0195  0.3484
   19CHTO  H113 7820   4.586   7.031   1.097  0.1102  2.6944  0.1999
   19CHTO   O42 7821   4.500   7.170   0.969  0.0428 -0.2607 -0.3054
   19CHTO  H100 7822   4.466   7.232   1.030 -0.4909  0.6481 -1.5052
   19CHTO   C57 7823   4.370   6.979   1.066  0.4369 -0.6585 -0.1797
   19CHTO  H114 7824   4.302   6.988   0.981  0.6815  1.4989 -0.1663
   19CHTO   N10 7825   4.315   7.062   1.172 -0.2210 -0.1967  0.5108
   19CHTO  H106 7826   4.346   7.031   1.270  1.7428  0.2572  0.0625
   19CHTO  H107 7827   4.207   7.066   1.166 -0.2900  0.9766  2.1865
   19CHTO   C58 7828   4.379   6.833   1.103 -0.2342 -0.6083 -0.3319
   19CHTO  H115 7829   4.431   6.823   1.200  1.6448 -1.1391 -1.3712
   19CHTO   O37 7830   4.443   6.750   0.999 -0.1601  0.5609  0.7171
   19CHTO   C59 7831   4.570   6.794   0.943 -0.7288 -0.1116 -0.8472
   19CHTO  H116 7832   4.639   6.791   1.027 -1.2244  0.6306 -0.4058
   19CHTO   C70 7833   4.609   6.693   0.842 -0.3581  0.8560  0.2628
   19CHTO   O46 7834   4.540   6.688   0.714 -0.4261 -0.8055  0.1134
   19CHTO  H103 7835   4.517   6.770   0.676  0.2064 -0.6771  0.0057
   19CHTO   O39 7836   4.221   6.777   1.125 -0.0997  0.5445  0.4470
   19CHTO   C60 7837   4.157   6.729   0.998 -0.0650 -0.0849 -0.7087
   19CHTO  H117 7838   4.212   6.778   0.918  1.1128  2.3101  1.5045
   19CHTO   C62 7839   4.173   6.573   0.979 -0.0262 -0.8617  0.0704
   19CHTO  H119 7840   4.282   6.555   0.991  0.2267  2.0331  2.6531
   19CHTO   O43 7841   4.094   6.499   1.075 -0.2406 -0.3028 -0.0592
   19CHTO  H101 7842   4.005   6.499   1.044 -0.4771 -0.6885  0.6131
   19CHTO   C66 7843   4.118   6.540   0.834 -0.3527 -0.3138  0.2499
   19CHTO  H123 7844   4.163   6.601   0.756 -0.5004  0.6478  0.9066
   19CHTO   N12 7845   4.138   6.397   0.800 -0.2925 -0.3520 -0.5941
   19CHTO  H110 7846   4.046   6.341   0.792 -0.4789  0.0479 -1.3177
   19CHTO  H111 7847   4.208   6.395   0.718 -0.0387 -1.4290 -0.3570
   19CHTO   C69 7848   3.969   6.583   0.824 -0.1363 -0.1076  0.2532
   19CHTO  H126 7849   3.907   6.533   0.901  1.4041 -4.7146 -1.3333
   19CHTO   O41 7850   3.960   6.755   0.860  0.3024  0.1613 -0.5699
   19CHTO   C64 7851   4.010   6.778   0.998 -1.0474 -0.2189  0.2342
   19CHTO  H121 7852   3.962   6.712   1.073  0.9365 -0.8114  1.0161
   19CHTO   C71 7853   3.992   6.923   1.037 -0.7045  0.0469 -0.0498
   19CHTO   O47 7854   4.035   7.016   0.940  0.5619  0.0880 -0.6751
   19CHTO  H104 7855   3.959   7.060   0.906 -0.9320 -1.8658  0.0078
   19CHTO   O34 7856   3.905   6.555   0.695  0.0177  0.3676  0.0747
   19CHTO   C49 7857   3.819   6.544   0.596 -0.1398  0.8637  0.5264
   19CHTO   H91 7858   3.722   6.521   0.640 -0.4821 -0.5997 -0.9298
   19CHTO   C47 7859   3.839   6.419   0.510  0.7692  0.8602 -0.3893
   19CHTO   H89 7860   3.754   6.398   0.442  1.1614 -1.1355 -0.3079
   19CHTO   O33 7861   3.839   6.305   0.600  0.5830 -0.0406 -0.0725
   19CHTO   H70 7862   3.846   6.220   0.560  0.1481  0.4136 -1.1544
   19CHTO   C45 7863   3.980   6.428   0.431 -0.5118  0.5517 -0.5937
   19CHTO   H87 7864   4.060   6.387   0.494 -1.4795  0.8014  0.8330
   19CHTO    N8 7865   3.970   6.341   0.311  0.1905 -0.6132 -0.2843
   19CHTO   H75 7866   4.068   6.304   0.285  0.6171  1.4127 -1.7599
   19CHTO   H76 7867   3.927   6.388   0.223 -1.3600 -0.5560  0.4944
   19CHTO   C43 7868   4.019   6.581   0.398  0.6755  0.0159 -0.4911
   19CHTO   H85 7869   4.067   6.608   0.492  0.5721 -1.7242  0.0632
   19CHTO   O29 7870   3.903   6.667   0.374  0.9051  0.0819 -0.0186
   19CHTO   C50 7871   3.820   6.671   0.497  0.3873 -0.6254 -0.1509
   19CHTO   H92 7872   3.857   6.754   0.558  0.6720  1.0544 -2.5330
   19CHTO   C54 7873   3.672   6.720   0.465  0.4982 -0.4068 -0.5525
   19CHTO   O36 7874   3.669   6.855   0.405  0.1126  0.1314 -0.4593
   19CHTO   H72 7875   3.617   6.903   0.467  1.0547  1.8768 -0.9992
   19CHTO   O27 7876   4.126   6.587   0.304  0.2462 -0.7975  0.2529
   19CHTO   C37 7877   4.234   6.568   0.207  1.3556  0.2190  0.4619
   19CHTO   H79 7878   4.223   6.472   0.155 -0.1731  1.4760 -1.5815
   19CHTO   C38 7879   4.217   6.678   0.100 -0.0545  0.1278  0.5956
   19CHTO   H80 7880   4.218   6.778   0.147  2.2778  0.8204 -0.8199
   19CHTO   O31 7881   4.086   6.666   0.049 -0.0804  0.1072  0.6818
   19CHTO   H68 7882   4.015   6.677   0.110 -0.8430 -1.6582  0.1444
   19CHTO   C39 7883   4.325   6.672  -0.016 -0.3068 -0.4327 -0.4329
   19CHTO   H81 7884   4.323   6.574  -0.065 -0.9703  0.1422 -1.5938
   19CHTO    N7 7885   4.313   6.767  -0.130  0.3567 -0.0701  0.4564
   19CHTO   H73 7886   4.318   6.870  -0.096 -1.1503  0.0487  0.3578
   19CHTO   H74 7887   4.229   6.745  -0.194  0.7845 -1.7525  0.4655
   19CHTO   C40 7888   4.466   6.689   0.055  0.8822 -0.3146  0.2069
   19CHTO   H82 7889   4.483   6.790   0.092 -1.4286  0.9294 -1.9617
   19CHTO   O26 7890   4.475   6.588   0.158 -0.8971 -0.5164  0.4235
   19CHTO   C41 7891   4.377   6.588   0.267  0.1092 -0.6588 -0.7222
   19CHTO   H83 7892   4.376   6.685   0.318 -1.2623 -0.9428 -0.2035
   19CHTO   C52 7893   4.410   6.484   0.381  0.5547  0.4231 -0.2720
   19CHTO   O35 7894   4.442   6.365   0.321  0.1415  0.5211 -0.3160
   19CHTO   H71 7895   4.526   6.348   0.358 -0.3228  1.7182  1.3631
   19CHTO   O28 7896   4.570   6.644  -0.036 -0.2609  0.1623  0.1782
   19CHTO   C42 7897   4.701   6.705  -0.026 -0.9548  0.2182  0.1688
   19CHTO   H84 7898   4.707   6.741   0.076  0.8418 -0.4561  0.3221
   19CHTO   C44 7899   4.719   6.829  -0.119 -0.5486  1.1414 -0.9746
   19CHTO   H86 7900   4.687   6.800  -0.219  0.8659 -0.1348 -1.0754
   19CHTO   O32 7901   4.622   6.922  -0.071  0.1038  0.2166 -0.2931
   19CHTO   H69 7902   4.626   7.006  -0.112  1.8964 -0.3771 -1.3855
   19CHTO   C48 7903   4.858   6.887  -0.122  0.8346  0.0959 -0.2351
   19CHTO   H90 7904   4.883   6.919  -0.021 -1.0759 -0.4256  0.4319
   19CHTO    N9 7905   4.875   7.001  -0.215 -0.2511 -1.0351  0.3549
   19CHTO   H77 7906   4.784   7.059  -0.215 -0.3478 -1.1763  1.6847
   19CHTO   H78 7907   4.955   7.064  -0.179  1.4584 -0.6938 -3.6882
   19CHTO   C51 7908   4.958   6.769  -0.158 -0.0018 -0.4892  0.8106
   19CHTO   H93 7909   4.934   6.731  -0.258 -0.1017  0.1988  0.5697
   19CHTO   O30 7910   4.949   6.668  -0.055  0.0775 -0.0599  0.0255
   19CHTO   C46 7911   4.812   6.597  -0.053 -0.4370 -0.1222 -0.2627
   19CHTO   H88 7912   4.786   6.549  -0.147 -0.1766 -1.1754  0.1965
   19CHTO   C53 7913   4.807   6.502   0.063 -0.7462 -0.8202 -0.7728
   19CHTO   O72 7914   4.908   6.399   0.065 -0.2732  0.0989  0.1214
   19CHTO  H199 7915   4.996   6.428   0.080 -0.4452 -0.2508  1.9203
   19CHTO   O22 7916   5.097   6.811  -0.144 -0.2764 -0.3555 -0.7937
   19CHTO   C31 7917   5.213   6.734  -0.204  0.1580 -0.4812 -0.0463
   19CHTO   H59 7918   5.185   6.627  -0.211 -1.6897  0.1089 -1.9101
   19CHTO   C29 7919   5.252   6.787  -0.347  0.4373  0.8584  0.2288
   19CHTO   H57 7920   5.258   6.897  -0.343  0.1630  0.8969 -0.3722
   19CHTO   O21 7921   5.138   6.771  -0.433  0.2121 -0.5444 -0.1064
   19CHTO   H37 7922   5.070   6.834  -0.423  0.8195  0.5348 -2.3890
   19CHTO   C27 7923   5.376   6.724  -0.409 -0.1611 -0.8575  0.1342
   19CHTO   H55 7924   5.347   6.622  -0.437  3.5967 -1.6201 -1.2531
   19CHTO    N5 7925   5.427   6.788  -0.535  0.3009 -0.5036 -0.4693
   19CHTO   H43 7926   5.504   6.720  -0.566 -0.6363 -1.3537 -0.9397
   19CHTO   H44 7927   5.471   6.885  -0.515 -1.7027  0.3771 -0.2212
   19CHTO   C25 7928   5.481   6.716  -0.298 -0.3255 -0.7178  0.3153
   19CHTO   H53 7929   5.520   6.816  -0.275 -0.9486 -0.6936  1.2539
   19CHTO   O17 7930   5.447   6.667  -0.163  0.1160 -0.0018  0.3623
   19CHTO   C32 7931   5.339   6.740  -0.113  0.0519 -0.0272  0.1823
   19CHTO   H60 7932   5.357   6.847  -0.096 -0.5979  0.6229 -2.8809
   19CHTO   C36 7933   5.317   6.669   0.014 -0.6155  0.3505 -0.0821
   19CHTO   O25 7934   5.237   6.750   0.101  0.5460 -0.3980 -0.0421
   19CHTO   H40 7935   5.231   6.706   0.184 -2.4423  1.0033  0.5695
   19CHTO   O15 7936   5.604   6.614  -0.349  0.1661 -0.1848 -0.1014
   19CHTO   C19 7937   5.634   6.472  -0.342  0.4110 -1.0220  0.6559
   19CHTO   H47 7938   5.652   6.458  -0.234 -1.2151  1.7735  1.3396
   19CHTO   C20 7939   5.523   6.376  -0.384  0.0154  0.0238 -0.0952
   19CHTO   H48 7940   5.495   6.391  -0.489 -0.6985  3.8254  0.5770
   19CHTO   O19 7941   5.403   6.394  -0.311  0.4086  0.2726  0.0925
   19CHTO   H35 7942   5.343   6.324  -0.326  0.5549  0.3057 -0.6518
   19CHTO   C21 7943   5.564   6.222  -0.368  1.1173 -0.5035  0.2731
   19CHTO   H49 7944   5.583   6.204  -0.262  1.8931 -1.8780 -0.0835
   19CHTO    N4 7945   5.462   6.125  -0.414  0.0644 -0.2743  0.7657
   19CHTO   H41 7946   5.366   6.142  -0.369 -0.2095  0.2333  0.0048
   19CHTO   H42 7947   5.447   6.141  -0.520  2.2523  0.6655  0.5656
   19CHTO   C22 7948   5.705   6.201  -0.435  0.1265  0.1651 -0.1051
   19CHTO   H50 7949   5.701   6.215  -0.543  2.8091  1.9107  0.0071
   19CHTO   O14 7950   5.796   6.298  -0.378 -0.1628 -0.8442 -0.2473
   19CHTO   C23 7951   5.770   6.435  -0.413 -0.7239  0.3075  0.0006
   19CHTO   H51 7952   5.761   6.436  -0.523  0.8124  1.5039 -0.1256
   19CHTO   C34 7953   5.882   6.524  -0.363 -0.5993  0.4329 -0.2202
   19CHTO   O23 7954   6.008   6.483  -0.415  0.0003 -0.3606  0.8119
   19CHTO   H38 7955   6.014   6.391  -0.399 -1.0733 -0.7510 -0.8789
   19CHTO   O16 7956   5.773   6.072  -0.405  0.4582  0.0503  0.0075
   19CHTO   C24 7957   5.810   5.961  -0.505 -0.1528  1.1368  0.1785
   19CHTO   H52 7958   5.905   5.914  -0.480  0.7846  2.1509 -1.3735
   19CHTO   C26 7959   5.840   6.005  -0.649  0.4334  0.1348  0.6539
   19CHTO   H54 7960   5.765   6.075  -0.691  2.2741 -0.6002 -4.1115
   19CHTO   O20 7961   5.957   6.088  -0.646 -0.1469 -0.0446 -0.4258
   19CHTO   H36 7962   6.026   6.038  -0.607  0.1123 -0.1486 -1.0139
   19CHTO   C30 7963   5.865   5.886  -0.749 -0.9513 -0.0809 -0.7154
   19CHTO   H58 7964   5.971   5.858  -0.740 -1.0627  0.0923  1.2920
   19CHTO    N6 7965   5.853   5.929  -0.889 -0.8382 -0.1861 -0.5020
   19CHTO   H45 7966   5.855   6.036  -0.902 -0.7590  0.1839  2.2499
   19CHTO   H46 7967   5.939   5.889  -0.942 -0.6873 -0.4520 -0.0558
   19CHTO   C33 7968   5.758   5.768  -0.724  0.0646 -0.0607  0.6646
   19CHTO   H61 7969   5.656   5.793  -0.757 -0.5345  0.2988  2.7122
   19CHTO   O18 7970   5.760   5.742  -0.589 -0.0393 -0.3407  0.6007
   19CHTO   C28 7971   5.700   5.850  -0.508 -0.2491  0.4153 -0.0744
   19CHTO   H56 7972   5.609   5.885  -0.556 -0.2507  1.4112  0.6315
   19CHTO   C35 7973   5.670   5.799  -0.368  0.0093  0.3178  0.5897
   19CHTO   O24 7974   5.579   5.688  -0.369 -0.5857  0.1461  0.6805
   19CHTO   H39 7975   5.560   5.656  -0.283 -2.3450 -2.2447 -0.5287
   19CHTO    O9 7976   5.791   5.646  -0.797  0.3058  0.1949  0.2422
   19CHTO   C13 7977   5.658   5.560  -0.815 -0.8704 -0.5086  0.5087
   19CHTO   H26 7978   5.595   5.619  -0.885 -0.0977 -1.2603 -0.8454
   19CHTO   C11 7979   5.580   5.513  -0.686  0.2533 -0.4225 -0.3237
   19CHTO   H24 7980   5.539   5.604  -0.640  0.4439 -0.8176  0.6280
   19CHTO    O8 7981   5.662   5.458  -0.579  0.0855  0.3885  0.2350
   19CHTO    H3 7982   5.604   5.441  -0.507 -1.8036 -0.2090 -1.3734
   19CHTO    C9 7983   5.456   5.434  -0.734 -0.5404  1.1030  0.2753
   19CHTO   H22 7984   5.404   5.496  -0.808 -3.0664 -0.8569  0.3207
   19CHTO    N2 7985   5.346   5.418  -0.636 -0.2343 -0.1806  0.4476
   19CHTO   H10 7986   5.319   5.316  -0.614 -0.4490 -0.3192 -0.4416
   19CHTO   H11 7987   5.270   5.489  -0.665 -0.4139 -0.5613 -0.0109
   19CHTO    C7 7988   5.505   5.306  -0.802  0.0480 -0.7047 -0.1687
   19CHTO   H20 7989   5.416   5.268  -0.855 -0.8688 -2.0130  2.2169
   19CHTO    O4 7990   5.609   5.327  -0.897 -0.5005 -0.7658 -0.4282
   19CHTO   C14 7991   5.710   5.428  -0.901  0.0972 -0.3105 -0.5310
   19CHTO   H27 7992   5.720   5.447  -1.010  2.0396 -1.2002 -0.5283
   19CHTO   C18 7993   5.842   5.358  -0.854  0.2240  0.2695  0.2217
   19CHTO   O13 7994   5.823   5.296  -0.730 -0.0365  0.2537 -0.6008
   19CHTO    H7 7995   5.758   5.229  -0.733  0.8910 -0.7808  1.4667
   19CHTO    O2 7996   5.571   5.205  -0.669 -0.1458 -0.1325 -0.4203
   19CHTO    C1 7997   5.524   5.072  -0.667 -0.5558  0.5640  0.5039
   19CHTO   H14 7998   5.611   5.004  -0.671  0.0206  1.3092  0.2633
   19CHTO    C2 7999   5.413   5.028  -0.780 -0.0572 -0.5964 -0.4586
   19CHTO   H15 8000   5.341   5.110  -0.785  1.9725  1.3005  0.4890
   19CHTO    O6 8001   5.476   5.018  -0.907  0.1330 -0.0885  0.3473
   19CHTO    H1 8002   5.568   5.035  -0.904  0.1572 -0.0522 -0.5659
   19CHTO    C3 8003   5.331   4.893  -0.749  0.8328  0.5289  0.5852
   19CHTO   H16 8004   5.400   4.813  -0.776 -1.9374 -0.6696 -3.3993
   19CHTO    N1 8005   5.212   4.885  -0.839  0.2274  0.5828  0.7532
   19CHTO    H8 8006   5.126   4.935  -0.797  0.6649  0.8951  1.2819
   19CHTO    H9 8007   5.232   4.912  -0.942  0.9069 -3.7779 -0.3896
   19CHTO    C4 8008   5.303   4.878  -0.592 -0.0157  0.5074 -0.3164
   19CHTO   H17 8009   5.219   4.943  -0.568  0.1267  1.1641 -1.5728
   19CHTO    O1 8010   5.416   4.913  -0.517 -0.2614 -0.5984  0.2166
   19CHTO    C5 8011   5.467   5.045  -0.530  0.0097 -0.4262 -0.3936
   19CHTO   H18 8012   5.384   5.114  -0.515 -1.0743 -1.5487 -0.9937
   19CHTO   C16 8013   5.569   5.060  -0.420 -0.5371  0.1994 -0.0937
   19CHTO   O11 8014   5.508   5.079  -0.289  0.1170 -0.2118 -0.4201
   19CHTO    H5 8015   5.534   5.013  -0.228 -1.1092 -0.0961  0.2256
   19CHTO    O3 8016   5.273   4.737  -0.562 -0.4010 -0.3050 -0.6974
   19CHTO    C6 8017   5.182   4.692  -0.452  0.4003 -0.1198 -0.2633
   19CHTO   H19 8018   5.165   4.770  -0.378 -2.2488 -1.7786  0.9720
   19CHTO    C8 8019   5.057   4.635  -0.521 -0.0720  0.4535  0.3903
   19CHTO   H21 8020   5.091   4.558  -0.590 -0.9546  0.7735 -0.4161
   19CHTO    O7 8021   4.993   4.745  -0.584  0.7496 -0.2931 -0.6692
   19CHTO    H2 8022   4.938   4.717  -0.655 -1.0336  3.4073 -0.8294
   19CHTO   C12 8023   4.959   4.568  -0.421 -0.0639 -0.3060  0.1804
   19CHTO   H25 8024   4.930   4.652  -0.356  2.0579  0.5449  0.0713
   19CHTO    N3 8025   4.835   4.509  -0.493 -0.2946 -0.2196  0.2551
   19CHTO   H12 8026   4.747   4.517  -0.431 -0.3366  1.6372 -0.0103
   19CHTO   H13 8027   4.812   4.545  -0.592 -0.5157  0.8450  0.6831
   19CHTO   C15 8028   5.036   4.467  -0.330  0.1429 -0.6236 -0.5146
   19CHTO   H28 8029   5.062   4.373  -0.379  2.6660 -0.4976  0.5218
   19CHTO   O10 8030   4.950   4.427  -0.193 -0.3267 -0.1367  0.1342
   19CHTO    H4 8031   4.931   4.503  -0.142 -1.1432 -1.2110  1.4462
   19CHTO    O5 8032   5.148   4.533  -0.268 -0.3160 -0.4525  0.5378
   19CHTO   C10 8033   5.240   4.574  -0.371  0.1744  0.0798  0.1709
   19CHTO   H23 8034   5.255   4.497  -0.447  3.2040  0.9443 -0.1745
   19CHTO   C17 8035   5.376   4.602  -0.309  0.2486  0.4703  0.1813
   19CHTO   O12 8036   5.370   4.689  -0.198 -0.3854  0.1964 -0.0704
   19CHTO    H6 8037   5.456   4.723  -0.180 -0.5076  0.2213  0.4912
   20CHTO  H203 8038   5.308   0.644   1.124  0.0212  0.2008 -0.0914
   20CHTO   O82 8039   5.308   0.737   1.136 -0.0626  0.1910 -0.0162
   20CHTO  C123 8040   5.223   0.794   1.036  0.0767  0.2660 -0.5754
   20CHTO  H227 8041   5.135   0.729   1.031 -0.9558  1.5031  1.2083
   20CHTO   O77 8042   5.179   0.923   1.094 -0.3927 -0.3487  0.5006
   20CHTO  C118 8043   5.117   1.025   1.006  0.0575 -0.2446 -1.1022
   20CHTO  H222 8044   5.018   0.989   0.973  0.5981 -0.2633 -2.7236
   20CHTO  C125 8045   5.097   1.165   1.082  0.2128 -0.5764  0.4207
   20CHTO   O84 8046   4.987   1.162   1.172 -0.6515 -0.2676  0.3874
   20CHTO  H205 8047   4.987   1.247   1.211 -0.2340 -0.1016  0.0321
   20CHTO  C114 8048   5.210   1.045   0.886  0.4161  0.6685 -0.2077
   20CHTO  H218 8049   5.306   1.084   0.922  1.5961 -1.6696 -0.7325
   20CHTO  C116 8050   5.227   0.913   0.805 -0.7873 -0.3693  0.1033
   20CHTO  H220 8051   5.128   0.876   0.773 -0.1944 -1.6497 -0.3264
   20CHTO   O79 8052   5.301   0.955   0.690 -0.8287  0.4431  0.1913
   20CHTO  H201 8053   5.319   0.877   0.642 -0.0240 -0.0568  1.2849
   20CHTO  C120 8054   5.300   0.800   0.896 -0.3596 -0.2762  0.4234
   20CHTO  H224 8055   5.405   0.828   0.921 -0.3969 -0.8959  1.2990
   20CHTO   N21 8056   5.322   0.670   0.819  0.1965 -0.2075 -0.3758
   20CHTO  H211 8057   5.348   0.677   0.715  3.7009 -1.1302  0.3722
   20CHTO  H212 8058   5.392   0.610   0.877 -1.5228  0.4753  2.5170
   20CHTO   O75 8059   5.142   1.142   0.801 -0.6532 -0.9356 -0.4292
   20CHTO  C112 8060   5.237   1.260   0.739 -0.5002  0.3483 -0.9969
   20CHTO  H216 8061   5.274   1.231   0.640 -0.9837  0.4007 -1.1948
   20CHTO   O73 8062   5.346   1.285   0.831  0.1587 -0.1292 -0.1432
   20CHTO  C113 8063   5.443   1.381   0.790 -0.8624  0.0993 -0.3406
   20CHTO  H217 8064   5.501   1.340   0.705 -1.7285 -0.3021 -0.7460
   20CHTO  C124 8065   5.550   1.402   0.900  0.4411 -0.0005 -0.3147
   20CHTO   O83 8066   5.603   1.289   0.959 -0.3803 -0.3210  0.2312
   20CHTO  H204 8067   5.666   1.320   1.022  1.1169 -0.3925 -1.1973
   20CHTO  C109 8068   5.379   1.518   0.761  0.0971  0.3994  0.0515
   20CHTO  H213 8069   5.347   1.563   0.856  0.9864  1.0486  0.0429
   20CHTO  C110 8070   5.253   1.508   0.668  0.8349 -0.1164  0.6406
   20CHTO  H214 8071   5.293   1.480   0.571  0.3313  1.4619 -0.0249
   20CHTO   O78 8072   5.187   1.633   0.662  0.1903 -0.5576 -0.5261
   20CHTO  H200 8073   5.156   1.642   0.574  2.5327 -2.0117 -1.5465
   20CHTO  C111 8074   5.152   1.394   0.714 -0.4768 -0.1631  0.3366
   20CHTO  H215 8075   5.105   1.423   0.809  1.3224  3.0701  0.3136
   20CHTO   N19 8076   5.041   1.367   0.618 -0.4337  1.2635  0.4316
   20CHTO  H207 8077   5.033   1.261   0.604 -0.2573  1.3111 -0.0277
   20CHTO  H208 8078   5.083   1.397   0.523  0.8832 -1.0955  0.2558
   20CHTO   O74 8079   5.484   1.596   0.705 -0.3906  0.1045  0.6539
   20CHTO  C115 8080   5.476   1.760   0.726 -0.3854 -0.3848  0.3881
   20CHTO  H219 8081   5.372   1.789   0.740 -1.3431 -2.3818 -2.0934
   20CHTO   O76 8082   5.562   1.810   0.857  0.1529  0.1396  0.1595
   20CHTO  C122 8083   5.704   1.782   0.852 -0.5752  0.8278  0.1921
   20CHTO  H226 8084   5.731   1.679   0.876 -2.9954  0.2060  0.3605
   20CHTO  C126 8085   5.777   1.872   0.947  0.4654 -0.7681  0.3471
   20CHTO   O85 8086   5.759   1.830   1.083  0.6178 -0.2924  0.4249
   20CHTO  H206 8087   5.672   1.856   1.107  1.7100  1.1390  2.9713
   20CHTO  C121 8088   5.766   1.793   0.708 -0.0777  0.6233 -0.4855
   20CHTO  H225 8089   5.872   1.823   0.714 -0.0822  0.3885  1.0972
   20CHTO   O81 8090   5.772   1.660   0.645  0.8356  0.0156  0.1031
   20CHTO  H202 8091   5.825   1.671   0.568  0.0349 -1.5230 -0.6791
   20CHTO  C119 8092   5.680   1.892   0.622  0.3022  0.9183 -0.1332
   20CHTO  H223 8093   5.671   1.989   0.671 -0.4757  0.6783  0.1963
   20CHTO  C117 8094   5.537   1.836   0.602  0.2072  0.7323  0.4033
   20CHTO  H221 8095   5.543   1.754   0.530  1.0584 -0.6763  2.0566
   20CHTO   N20 8096   5.439   1.938   0.548 -0.1997 -0.2573  0.3619
   20CHTO  H209 8097   5.480   2.031   0.585  0.2912 -1.4622  2.9266
   20CHTO  H210 8098   5.341   1.921   0.592  0.2210 -2.7279  0.4200
   20CHTO   O80 8099   5.749   1.946   0.477  0.4588 -0.3483 -0.4039
   20CHTO  C103 8100   5.787   2.087   0.461 -0.2311 -0.2973  0.4860
   20CHTO  H190 8101   5.715   2.149   0.515 -1.0510 -2.5708  2.1120
   20CHTO  C101 8102   5.934   2.141   0.496 -0.0264 -0.7359 -0.2993
   20CHTO  H188 8103   6.008   2.082   0.442  2.7854  0.5773  2.0080
   20CHTO   O68 8104   5.959   2.122   0.639  0.0684 -0.4587  0.4415
   20CHTO  H168 8105   5.954   2.030   0.655  2.6259 -1.1094 -2.0406
   20CHTO   C99 8106   5.946   2.295   0.447  0.3100  0.0919  0.6267
   20CHTO  H186 8107   5.872   2.356   0.504  0.0629  0.0670  0.3345
   20CHTO   N17 8108   6.079   2.361   0.479  0.1956 -0.3068 -0.0738
   20CHTO  H174 8109   6.097   2.357   0.585 -0.7960 -1.9038  0.0524
   20CHTO  H175 8110   6.157   2.317   0.419  1.1001 -0.1800  0.9997
   20CHTO   C97 8111   5.904   2.301   0.299  0.3273 -0.4175 -0.4518
   20CHTO  H184 8112   5.976   2.238   0.244 -1.4427 -1.0401 -2.1355
   20CHTO   O64 8113   5.761   2.256   0.292 -0.0441 -0.2617 -0.1367
   20CHTO  C104 8114   5.761   2.114   0.310  0.6118 -0.3327  0.1169
   20CHTO  H191 8115   5.837   2.066   0.249  0.9402  0.5181 -0.1469
   20CHTO  C108 8116   5.628   2.061   0.256 -0.1125  0.3158  0.3516
   20CHTO   O71 8117   5.623   2.058   0.112 -0.0912  0.0243  0.8006
   20CHTO  H171 8118   5.629   2.145   0.076  0.3017  0.3552  1.6411
   20CHTO   O62 8119   5.900   2.429   0.240 -0.0602 -0.3427 -0.0145
   20CHTO   C91 8120   5.920   2.434   0.097 -0.1243  0.0258  0.0410
   20CHTO  H178 8121   5.926   2.331   0.062 -2.6862  0.1348 -0.7648
   20CHTO   C92 8122   6.060   2.494   0.075 -0.5955 -0.0754  0.0654
   20CHTO  H179 8123   6.067   2.596   0.116 -0.9008  0.8952 -2.2279
   20CHTO   O66 8124   6.156   2.416   0.149  0.1351  0.3685 -0.1192
   20CHTO  H166 8125   6.181   2.458   0.229 -0.7500  2.7080 -1.0449
   20CHTO   C93 8126   6.101   2.503  -0.073  0.1110  0.2673 -0.1488
   20CHTO  H180 8127   6.106   2.397  -0.101 -3.7765 -0.5042  1.6070
   20CHTO   N16 8128   6.241   2.554  -0.090  0.3709  0.9930  0.9294
   20CHTO  H172 8129   6.258   2.553  -0.196  0.3707  0.0795  0.9380
   20CHTO  H173 8130   6.313   2.481  -0.054  1.1702  2.0660  1.5579
   20CHTO   C94 8131   5.993   2.573  -0.154  0.2102  0.3569  0.1689
   20CHTO  H181 8132   5.988   2.681  -0.137 -1.3152  1.0205 -4.0072
   20CHTO   O61 8133   5.853   2.528  -0.136  0.3802  0.2195  0.5056
   20CHTO   C95 8134   5.808   2.502  -0.001 -1.4591  0.6187 -1.0770
   20CHTO  H182 8135   5.787   2.594   0.054 -0.2899  0.1412  0.1959
   20CHTO  C106 8136   5.673   2.420  -0.001 -0.1972  0.4888  0.0012
   20CHTO   O69 8137   5.569   2.487  -0.066  0.2149 -0.5000  0.2027
   20CHTO  H169 8138   5.490   2.438  -0.051 -0.6822 -0.0063 -2.7676
   20CHTO   O63 8139   6.032   2.550  -0.304  0.3380 -0.2150  0.1385
   20CHTO   C96 8140   6.010   2.395  -0.357 -0.3814 -0.0322 -0.9845
   20CHTO  H183 8141   6.010   2.331  -0.269  0.4923 -1.6146 -2.0947
   20CHTO   C98 8142   6.123   2.353  -0.445 -0.1797  0.2238  0.3685
   20CHTO  H185 8143   6.219   2.368  -0.393  0.5661  2.6605 -1.5989
   20CHTO   O67 8144   6.107   2.214  -0.459  0.0538  0.0751  0.4100
   20CHTO  H167 8145   6.103   2.193  -0.550  2.1531  0.8607  0.1064
   20CHTO  C102 8146   6.117   2.428  -0.596  0.0030 -0.3606  0.0534
   20CHTO  H189 8147   6.148   2.349  -0.666  0.8145 -0.0911  0.1083
   20CHTO   N18 8148   6.219   2.532  -0.611  0.1164 -1.0996 -0.3807
   20CHTO  H176 8149   6.270   2.539  -0.516 -1.7394  1.1101  0.5018
   20CHTO  H177 8150   6.292   2.516  -0.689  1.5071 -2.0275  1.0854
   20CHTO  C105 8151   5.975   2.465  -0.632  1.0133 -0.3603  0.8275
   20CHTO  H192 8152   5.951   2.566  -0.600  0.4175 -0.2441  0.0156
   20CHTO   O65 8153   5.879   2.374  -0.576  0.3178  0.3748  0.1989
   20CHTO  C100 8154   5.868   2.385  -0.433  0.8531 -0.5972  0.1349
   20CHTO  H187 8155   5.810   2.474  -0.403  0.0817 -1.0991  0.1369
   20CHTO  C107 8156   5.799   2.266  -0.364 -0.0051 -0.0895  0.3544
   20CHTO   O70 8157   5.679   2.209  -0.411 -0.5755  0.2767  0.7171
   20CHTO  H170 8158   5.626   2.192  -0.336 -1.5030  0.5259  0.1302
   20CHTO   O57 8159   5.969   2.471  -0.793  0.6405  0.1232 -0.1583
   20CHTO   C85 8160   5.860   2.538  -0.857 -1.1878  0.1446  0.3187
   20CHTO  H157 8161   5.841   2.621  -0.785  2.3256  1.2036  0.1115
   20CHTO   C83 8162   5.723   2.463  -0.853  0.8910 -0.2119 -0.4088
   20CHTO  H155 8163   5.689   2.442  -0.752  1.9355 -0.5173 -0.1098
   20CHTO   O56 8164   5.744   2.331  -0.898 -0.0816 -0.0862  0.1091
   20CHTO  H135 8165   5.660   2.291  -0.904 -0.2819  0.5366 -1.5162
   20CHTO   C81 8166   5.625   2.559  -0.923  0.3501  0.1391  0.3394
   20CHTO  H153 8167   5.624   2.653  -0.868  1.1523  0.5415 -0.3089
   20CHTO   N14 8168   5.489   2.511  -0.919  0.1578  0.2241  0.7765
   20CHTO  H141 8169   5.421   2.589  -0.890 -1.8665 -0.7306 -1.1922
   20CHTO  H142 8170   5.460   2.483  -1.018 -0.8653 -0.1210  1.1632
   20CHTO   C79 8171   5.673   2.596  -1.072  0.4667 -0.6766 -0.4773
   20CHTO  H151 8172   5.597   2.661  -1.115 -0.7473 -0.9639  1.2318
   20CHTO   O52 8173   5.803   2.668  -1.073 -0.6303  0.2029  0.3563
   20CHTO   C86 8174   5.910   2.596  -1.004  0.4296  0.4039 -0.5913
   20CHTO  H158 8175   5.938   2.517  -1.077  0.0460 -0.6947  0.4502
   20CHTO   C90 8176   6.032   2.688  -0.999  0.3798 -0.8826 -0.0737
   20CHTO   O60 8177   6.003   2.820  -0.950  0.3009  0.1660  0.4158
   20CHTO  H138 8178   5.940   2.866  -1.002  0.1144 -0.6357 -0.0714
   20CHTO   O50 8179   5.668   2.484  -1.158  0.4960  0.2240  0.2031
   20CHTO   C73 8180   5.679   2.417  -1.287  0.3768  0.3086 -0.9414
   20CHTO  H145 8181   5.782   2.381  -1.301  1.4038  2.6392  0.2773
   20CHTO   C74 8182   5.632   2.516  -1.399  0.4951 -0.3176 -0.5046
   20CHTO  H146 8183   5.695   2.606  -1.393  1.0985 -0.7428 -0.4285
   20CHTO   O54 8184   5.665   2.457  -1.528  0.2736  0.4939 -0.0926
   20CHTO  H133 8185   5.630   2.514  -1.593  0.9917  1.6552  0.5203
   20CHTO   C75 8186   5.476   2.557  -1.382 -0.3533 -0.0893 -0.1235
   20CHTO  H147 8187   5.459   2.600  -1.282  1.1458  0.4967 -0.1030
   20CHTO   N13 8188   5.431   2.661  -1.477 -0.6065  0.7336 -0.2155
   20CHTO  H139 8189   5.375   2.732  -1.419  1.1808  0.7962  1.4622
   20CHTO  H140 8190   5.369   2.620  -1.555  2.4955 -2.2175 -1.2702
   20CHTO   C76 8191   5.390   2.429  -1.389 -1.0803  0.4067  0.0492
   20CHTO  H148 8192   5.401   2.396  -1.492 -0.2721  0.2263  0.1863
   20CHTO   O49 8193   5.439   2.328  -1.290  0.3935 -0.0744  0.0734
   20CHTO   C77 8194   5.582   2.296  -1.294  0.4926 -0.5870 -0.7264
   20CHTO  H149 8195   5.611   2.240  -1.383  0.0670 -0.5613 -0.8824
   20CHTO   C88 8196   5.596   2.197  -1.176  0.1346 -0.8973  0.0157
   20CHTO   O58 8197   5.717   2.151  -1.144 -0.7099 -0.3588  0.8206
   20CHTO  H136 8198   5.769   2.212  -1.095 -1.5272  1.2691 -0.2835
   20CHTO   O51 8199   5.243   2.462  -1.347 -0.6211 -0.0719 -0.0547
   20CHTO   C78 8200   5.134   2.349  -1.416 -0.4028  0.5007 -0.4786
   20CHTO  H150 8201   5.179   2.267  -1.477 -1.9171 -0.4312 -0.3683
   20CHTO   C80 8202   5.041   2.433  -1.506  1.0293  0.3291 -1.1179
   20CHTO  H152 8203   5.023   2.529  -1.455  0.4598 -0.3237 -0.0730
   20CHTO   O55 8204   5.105   2.456  -1.635 -0.6581 -0.0349  0.2324
   20CHTO  H134 8205   5.112   2.379  -1.687 -0.0375  0.6914 -0.7748
   20CHTO   C84 8206   4.897   2.370  -1.537  0.3142  0.3430  0.0662
   20CHTO  H156 8207   4.894   2.284  -1.603 -2.1818  0.9218 -0.6075
   20CHTO   N15 8208   4.803   2.462  -1.600  0.3975  0.8783 -0.0935
   20CHTO  H143 8209   4.817   2.465  -1.706 -2.5834  0.4940 -0.5389
   20CHTO  H144 8210   4.809   2.560  -1.559  1.2884  1.1582 -0.8924
   20CHTO   C87 8211   4.841   2.332  -1.392 -0.4262  0.0063 -0.2403
   20CHTO  H159 8212   4.845   2.412  -1.319  0.7251 -1.7374  1.6745
   20CHTO   O53 8213   4.942   2.227  -1.342 -0.0302 -0.6650  0.1258
   20CHTO   C82 8214   5.064   2.285  -1.294 -0.0346 -0.4218  0.4452
   20CHTO  H154 8215   5.052   2.361  -1.217  3.4250  4.5816 -3.5678
   20CHTO   C89 8216   5.144   2.170  -1.226 -0.4667 -0.1732 -1.1196
   20CHTO   O59 8217   5.177   2.058  -1.308 -0.0007 -0.0907  0.1951
   20CHTO  H137 8218   5.238   2.089  -1.373 -2.4633 -0.1231 -2.2186
   20CHTO   O45 8219   4.691   2.264  -1.388 -0.4963  0.0530 -0.0536
   20CHTO   C67 8220   4.625   2.275  -1.261 -0.1515  0.1892  0.1085
   20CHTO  H124 8221   4.702   2.292  -1.185 -0.1778  0.5298  0.0622
   20CHTO   C65 8222   4.526   2.391  -1.244 -0.6773 -0.3039 -0.0269
   20CHTO  H122 8223   4.499   2.425  -1.344 -2.3562  0.0794  0.5319
   20CHTO   O44 8224   4.601   2.495  -1.180 -0.3448 -0.3708 -0.1489
   20CHTO  H102 8225   4.673   2.527  -1.232 -0.1425 -0.2762  0.1858
   20CHTO   C63 8226   4.392   2.353  -1.172 -0.1278 -0.5044 -0.3289
   20CHTO  H120 8227   4.332   2.291  -1.239  2.5764 -0.5088 -2.8212
   20CHTO   N11 8228   4.294   2.458  -1.152  0.3363  0.2295 -0.1549
   20CHTO  H108 8229   4.244   2.454  -1.057 -1.0774  1.9375 -0.7992
   20CHTO  H109 8230   4.338   2.554  -1.169 -0.8365  0.4840 -1.9031
   20CHTO   C61 8231   4.436   2.260  -1.052  0.2233  0.5685  0.5215
   20CHTO  H118 8232   4.342   2.235  -1.000 -0.5403  0.6627 -0.7842
   20CHTO   O40 8233   4.488   2.134  -1.093  0.0158 -0.2657 -0.4333
   20CHTO   C68 8234   4.558   2.133  -1.210  0.5370 -0.2153 -0.1683
   20CHTO  H125 8235   4.495   2.090  -1.290  0.2728 -0.9307  0.4258
   20CHTO   C72 8236   4.675   2.031  -1.190 -0.5030 -0.6151 -0.1316
   20CHTO   O48 8237   4.626   1.892  -1.171 -0.2306  0.0688  1.0240
   20CHTO  H105 8238   4.542   1.900  -1.130  0.4815  3.2824  2.0278
   20CHTO   O38 8239   4.527   2.332  -0.964 -0.0003  0.2615  0.2199
   20CHTO   C55 8240   4.518   2.304  -0.824  0.1339 -0.7341  0.1563
   20CHTO  H112 8241   4.459   2.211  -0.814 -1.4382  0.3164  0.6854
   20CHTO   C56 8242   4.450   2.422  -0.748 -0.0876  0.3318  0.3195
   20CHTO  H113 8243   4.510   2.513  -0.763 -0.7003  0.8456  0.8929
   20CHTO   O42 8244   4.318   2.448  -0.793 -0.2288  0.3482 -0.3529
   20CHTO  H100 8245   4.321   2.475  -0.883  2.7204  2.5570  0.3326
   20CHTO   C57 8246   4.448   2.396  -0.593  0.1696  0.0560  0.3742
   20CHTO  H114 8247   4.375   2.316  -0.578  0.9660 -0.5564  1.0264
   20CHTO   N10 8248   4.409   2.518  -0.514  0.0866 -0.4427  0.2677
   20CHTO  H106 8249   4.466   2.605  -0.544  1.7026 -2.1003 -1.5776
   20CHTO  H107 8250   4.302   2.534  -0.513  0.3005  1.0131  1.0523
   20CHTO   C58 8251   4.582   2.342  -0.535  0.0923  0.5611  0.3747
   20CHTO  H115 8252   4.649   2.431  -0.527 -1.4934  1.6674  1.7411
   20CHTO   O37 8253   4.640   2.239  -0.620  0.3225 -0.4833  0.3269
   20CHTO   C59 8254   4.660   2.280  -0.757 -1.1111  0.8572  0.4148
   20CHTO  H116 8255   4.724   2.368  -0.756  2.4051 -1.5820  0.8695
   20CHTO   C70 8256   4.731   2.165  -0.826 -0.9185  0.3204 -0.1319
   20CHTO   O46 8257   4.871   2.132  -0.800  0.1755 -0.1406 -0.2133
   20CHTO  H103 8258   4.897   2.079  -0.727  1.6149  2.1384  0.9758
   20CHTO   O39 8259   4.558   2.258  -0.398  0.6890 -0.8554  0.6237
   20CHTO   C60 8260   4.668   2.235  -0.308  0.1770 -0.1694  0.1659
   20CHTO  H117 8261   4.754   2.219  -0.373  1.7210  0.7040  1.9795
   20CHTO   C62 8262   4.696   2.350  -0.210 -0.1132 -0.5066  0.4041
   20CHTO  H119 8263   4.711   2.443  -0.268 -0.4971 -1.4888 -1.3091
   20CHTO   O43 8264   4.586   2.381  -0.121  0.3574  0.1240 -0.1410
   20CHTO  H101 8265   4.514   2.421  -0.166  1.5719 -0.2647 -2.5443
   20CHTO   C66 8266   4.832   2.312  -0.130 -0.4573 -0.3688  0.3363
   20CHTO  H123 8267   4.907   2.275  -0.200 -3.0133 -1.4265 -1.9049
   20CHTO   N12 8268   4.875   2.432  -0.056  0.4239  0.3440 -0.0810
   20CHTO  H110 8269   4.853   2.520  -0.115 -1.5023  0.6868  1.1066
   20CHTO  H111 8270   4.965   2.428   0.002 -0.9722 -1.4019  2.0469
   20CHTO   C69 8271   4.807   2.183  -0.045 -0.0064  0.0844  0.4805
   20CHTO  H126 8272   4.718   2.214   0.015  0.3422 -1.9808  2.1083
   20CHTO   O41 8273   4.759   2.055  -0.156 -0.2997 -0.1985 -0.2145
   20CHTO   C64 8274   4.647   2.099  -0.235 -0.6398  0.5548 -0.3634
   20CHTO  H121 8275   4.558   2.107  -0.169  0.9219  0.2705  1.8367
   20CHTO   C71 8276   4.627   1.985  -0.338  0.0112  0.7512 -0.6079
   20CHTO   O47 8277   4.567   1.869  -0.277 -0.4435 -0.1105  0.1795
   20CHTO  H104 8278   4.600   1.794  -0.321 -0.4243 -0.0178  0.0348
   20CHTO   O34 8279   4.921   2.135   0.035  0.6730  0.5532  0.7377
   20CHTO   C49 8280   5.040   2.101   0.143  0.1223  0.2937  0.8283
   20CHTO   H91 8281   5.007   2.103   0.247 -2.3928 -1.2586  0.0978
   20CHTO   C47 8282   5.157   2.203   0.127  0.5354 -0.0855  0.2945
   20CHTO   H89 8283   5.236   2.171   0.198  2.3670  1.5801 -0.9419
   20CHTO   O33 8284   5.110   2.328   0.170 -0.4219 -0.0052  0.3166
   20CHTO   H70 8285   5.180   2.386   0.192  0.3990 -1.4925  1.7228
   20CHTO   C45 8286   5.203   2.199  -0.021 -0.6373 -0.0855  0.0820
   20CHTO   H87 8287   5.138   2.265  -0.079  0.6446  1.3661  0.2324
   20CHTO    N8 8288   5.340   2.257  -0.021  0.2521  0.1955  0.0821
   20CHTO   H75 8289   5.336   2.349  -0.078 -1.7695  0.4688  0.6364
   20CHTO   H76 8290   5.400   2.195  -0.086 -1.2492  1.8426 -3.0158
   20CHTO   C43 8291   5.179   2.058  -0.091 -0.0585 -0.3267 -0.0512
   20CHTO   H85 8292   5.085   2.075  -0.144 -0.3440 -0.7585  0.3091
   20CHTO   O29 8293   5.167   1.948  -0.002  0.5034 -0.1794  0.5221
   20CHTO   C50 8294   5.089   1.958   0.118 -0.3344  0.0710  0.5405
   20CHTO   H92 8295   4.999   1.897   0.101 -1.0668  0.9539  1.2686
   20CHTO   C54 8296   5.161   1.899   0.236 -0.5244 -0.7341 -0.4049
   20CHTO   O36 8297   5.178   1.764   0.225  0.0604 -0.1171  0.6925
   20CHTO   H72 8298   5.260   1.731   0.256 -0.0353  0.7367  1.8615
   20CHTO   O27 8299   5.268   2.033  -0.201 -0.4511  0.1686  0.6086
   20CHTO   C37 8300   5.269   1.936  -0.306  0.4510 -0.2697  0.1490
   20CHTO   H79 8301   5.256   1.837  -0.262  0.6316 -0.7560 -0.8698
   20CHTO   C38 8302   5.156   1.953  -0.414 -0.2756 -0.1958  0.2394
   20CHTO   H80 8303   5.160   2.054  -0.458 -0.2805  0.0852  0.8744
   20CHTO   O31 8304   5.037   1.921  -0.339  0.5204 -0.3012 -0.1011
   20CHTO   H68 8305   4.983   1.996  -0.325  1.4480  0.9314 -2.7772
   20CHTO   C39 8306   5.174   1.858  -0.535  0.9001 -0.2795  0.9445
   20CHTO   H81 8307   5.163   1.754  -0.506  0.7001 -1.0082 -1.6729
   20CHTO    N7 8308   5.062   1.871  -0.634  0.0968  0.3309 -0.1503
   20CHTO   H73 8309   5.036   1.976  -0.640 -0.8381  0.3308  3.1581
   20CHTO   H74 8310   4.985   1.799  -0.610  2.4386 -1.8219  1.1608
   20CHTO   C40 8311   5.311   1.876  -0.596  0.9227  0.3190  0.0889
   20CHTO   H82 8312   5.322   1.973  -0.644 -1.0617  1.0744  1.1146
   20CHTO   O26 8313   5.410   1.856  -0.497 -0.2106 -0.0131  0.2918
   20CHTO   C41 8314   5.404   1.939  -0.377  0.0755 -0.9330  0.2664
   20CHTO   H83 8315   5.422   2.043  -0.410 -2.1003 -0.6157  0.0108
   20CHTO   C52 8316   5.520   1.910  -0.280 -0.0619  0.3449  0.2964
   20CHTO   O35 8317   5.534   1.761  -0.257 -0.1855 -0.5354  0.0593
   20CHTO   H71 8318   5.617   1.733  -0.223 -0.4566 -2.2900 -0.6673
   20CHTO   O28 8319   5.333   1.765  -0.687 -0.2980 -0.9591 -0.0093
   20CHTO   C42 8320   5.465   1.727  -0.741  0.4700 -0.4692 -0.6504
   20CHTO   H84 8321   5.431   1.648  -0.808 -1.6639  0.0733 -0.2354
   20CHTO   C44 8322   5.576   1.664  -0.647  0.4124  0.2615 -0.3672
   20CHTO   H86 8323   5.596   1.742  -0.573  1.1408  0.4542 -0.7609
   20CHTO   O32 8324   5.517   1.556  -0.572  0.2839 -0.0924 -0.7864
   20CHTO   H69 8325   5.423   1.561  -0.572  0.1254 -1.1415  3.3100
   20CHTO   C48 8326   5.712   1.619  -0.719  1.0014  0.1970  0.6121
   20CHTO   H90 8327   5.685   1.541  -0.791  0.0178 -0.2200  1.4273
   20CHTO    N9 8328   5.808   1.560  -0.626 -0.7809 -0.1486  0.1150
   20CHTO   H77 8329   5.764   1.532  -0.532 -1.3891  2.1099  0.5506
   20CHTO   H78 8330   5.860   1.476  -0.669  1.3052  0.9149  0.4869
   20CHTO   C51 8331   5.779   1.739  -0.801  0.6268 -0.2711 -0.7702
   20CHTO   H93 8332   5.806   1.813  -0.727 -0.2095 -2.2425  1.5886
   20CHTO   O30 8333   5.677   1.784  -0.890 -0.1294  0.1162  0.1417
   20CHTO   C46 8334   5.542   1.832  -0.830  0.0487 -0.2231 -0.5347
   20CHTO   H88 8335   5.567   1.918  -0.767 -0.8026  0.2070 -0.7783
   20CHTO   C53 8336   5.459   1.886  -0.949 -0.1724 -0.7384  0.6963
   20CHTO   O72 8337   5.330   1.941  -0.925  0.0839  0.1446 -0.2882
   20CHTO  H199 8338   5.266   1.875  -0.905  0.9994 -0.1247  1.9050
   20CHTO   O22 8339   5.890   1.698  -0.889  0.4626  0.0900  0.3629
   20CHTO   C31 8340   6.002   1.794  -0.913 -0.0615 -0.2321  0.1065
   20CHTO   H59 8341   6.065   1.742  -0.987 -0.6032  0.2288 -0.6774
   20CHTO   C29 8342   5.968   1.934  -0.964  0.0386  0.1443 -0.3038
   20CHTO   H57 8343   5.889   1.976  -0.900  0.5742 -0.4847  0.7829
   20CHTO   O21 8344   5.902   1.923  -1.091  0.3050  0.1953  0.7013
   20CHTO   H37 8345   5.967   1.891  -1.150  0.0627  0.2318  0.4162
   20CHTO   C27 8346   6.094   2.038  -0.974  0.6294 -0.6454 -0.3313
   20CHTO   H55 8347   6.149   2.002  -1.062  2.1645  0.7147  0.0469
   20CHTO    N5 8348   6.058   2.177  -0.994 -0.0011  0.3338  1.2813
   20CHTO   H43 8349   6.148   2.232  -1.016  0.2084 -1.2242 -2.1267
   20CHTO   H44 8350   5.992   2.191  -1.078  1.6729 -4.4444 -1.0607
   20CHTO   C25 8351   6.202   2.023  -0.856 -0.0817  0.0378  0.1685
   20CHTO   H53 8352   6.170   2.095  -0.778 -1.3083 -0.7156  0.3733
   20CHTO   O17 8353   6.207   1.886  -0.811  0.5122  0.0628 -0.1546
   20CHTO   C32 8354   6.091   1.811  -0.786  0.7406  0.0267  0.0371
   20CHTO   H60 8355   6.028   1.860  -0.713  4.0197  3.2244  0.8619
   20CHTO   C36 8356   6.121   1.676  -0.726 -0.0456  0.4792 -0.0514
   20CHTO   O25 8357   6.207   1.679  -0.612  0.3078 -0.3532  0.0248
   20CHTO   H40 8358   6.277   1.618  -0.629 -0.5401 -1.6768  1.1784
   20CHTO   O15 8359   6.335   2.081  -0.905  0.4120  0.1300 -0.1610
   20CHTO   C19 8360   6.478   2.053  -0.873 -0.1255  0.3691 -0.0951
   20CHTO   H47 8361   6.531   2.084  -0.964 -1.2845  1.2606 -0.4662
   20CHTO   C20 8362   6.527   2.127  -0.752  0.2800  0.2340  0.2073
   20CHTO   H48 8363   6.472   2.097  -0.661  1.3997 -2.3107  0.0871
   20CHTO   O19 8364   6.510   2.262  -0.787  0.2541 -1.0886 -0.0772
   20CHTO   H35 8365   6.420   2.283  -0.799  0.5292  0.6706  0.9501
   20CHTO   C21 8366   6.683   2.090  -0.723 -0.1363 -0.3577  0.3539
   20CHTO   H49 8367   6.743   2.118  -0.809 -0.7532 -0.8708 -0.2540
   20CHTO    N4 8368   6.738   2.158  -0.603 -0.2197  0.1860 -0.1730
   20CHTO   H41 8369   6.816   2.229  -0.626 -0.1271 -0.0906 -0.7124
   20CHTO   H42 8370   6.662   2.206  -0.543  0.2674 -1.4957  1.8641
   20CHTO   C22 8371   6.687   1.933  -0.718  0.1867  0.4639  0.4284
   20CHTO   H50 8372   6.624   1.896  -0.637 -0.3398 -1.5104 -0.8300
   20CHTO   O14 8373   6.639   1.875  -0.838  0.3383 -0.2633  0.0467
   20CHTO   C23 8374   6.499   1.899  -0.859 -0.0858  0.2070 -0.1664
   20CHTO   H51 8375   6.440   1.859  -0.774 -0.7748 -0.2584 -0.8552
   20CHTO   C34 8376   6.470   1.825  -0.987 -0.3704  0.1258 -0.1678
   20CHTO   O23 8377   6.450   1.686  -0.955  0.0572  0.3436 -0.4514
   20CHTO   H38 8378   6.394   1.678  -0.880  1.1157 -0.4490  0.2732
   20CHTO   O16 8379   6.821   1.880  -0.721 -0.1460  0.2694  0.0347
   20CHTO   C24 8380   6.861   1.764  -0.623  0.2446  0.0932 -0.5710
   20CHTO   H52 8381   6.795   1.762  -0.536  0.3318  1.6269 -0.4620
   20CHTO   C26 8382   7.009   1.794  -0.582 -0.3308  0.4797  0.0737
   20CHTO   H54 8383   7.067   1.815  -0.674 -2.5590 -0.0568 -1.5042
   20CHTO   O20 8384   7.011   1.916  -0.502 -0.2391 -0.4085 -0.1194
   20CHTO   H36 8385   7.060   1.908  -0.423  0.5609  2.8297 -0.2300
   20CHTO   C30 8386   7.077   1.675  -0.501 -0.1276 -0.6346  0.3456
   20CHTO   H58 8387   7.058   1.683  -0.393 -0.0612 -0.1174  0.3209
   20CHTO    N6 8388   7.223   1.670  -0.522 -0.9056 -0.1146  0.0048
   20CHTO   H45 8389   7.274   1.682  -0.427 -0.4018  0.9268 -0.3816
   20CHTO   H46 8390   7.250   1.576  -0.568  1.0130  1.6964 -2.7850
   20CHTO   C33 8391   7.013   1.539  -0.537  0.2159 -0.0054 -0.2573
   20CHTO   H61 8392   7.090   1.461  -0.541  0.2471  0.0863 -1.8000
   20CHTO   O18 8393   6.952   1.539  -0.666  0.0400 -0.2863  0.6394
   20CHTO   C28 8394   6.848   1.636  -0.697 -0.0216 -0.0462  0.0394
   20CHTO   H56 8395   6.859   1.655  -0.804 -0.4042  0.0270  0.0118
   20CHTO   C35 8396   6.714   1.567  -0.667  0.4844 -0.2030  0.1721
   20CHTO   O24 8397   6.683   1.466  -0.765 -0.0616 -0.1409  0.0938
   20CHTO   H39 8398   6.615   1.408  -0.738  0.7092 -0.4556  1.4114
   20CHTO    O9 8399   6.926   1.495  -0.438  0.5219  0.1491  0.1442
   20CHTO   C13 8400   6.980   1.376  -0.334 -0.3110 -0.1893  0.6342
   20CHTO   H26 8401   7.089   1.389  -0.313 -0.5567  0.4256  1.6106
   20CHTO   C11 8402   6.942   1.226  -0.396  0.2726  0.1672 -0.1949
   20CHTO   H24 8403   7.040   1.186  -0.424  1.1685  2.2386 -0.0810
   20CHTO    O8 8404   6.870   1.254  -0.516  0.8895 -0.1171  0.2901
   20CHTO    H3 8405   6.929   1.283  -0.583 -0.8418 -1.4343 -1.8536
   20CHTO    C9 8406   6.874   1.145  -0.287 -0.0956  0.5695 -0.4817
   20CHTO   H22 8407   6.947   1.145  -0.206  0.0995  0.5533 -0.6581
   20CHTO    N2 8408   6.849   1.005  -0.328  0.4185 -0.1467  0.5291
   20CHTO   H10 8409   6.909   0.969  -0.410 -1.2607 -2.2489  0.1669
   20CHTO   H11 8410   6.858   0.931  -0.250  1.2315  0.7551  1.2938
   20CHTO    C7 8411   6.748   1.218  -0.239  0.9934 -0.2311  0.2871
   20CHTO   H20 8412   6.705   1.178  -0.145 -1.0410  1.7049  0.2305
   20CHTO    O4 8413   6.767   1.357  -0.203  0.2089  0.7962  0.3733
   20CHTO   C14 8414   6.901   1.402  -0.201 -0.0335 -0.7408  0.5015
   20CHTO   H27 8415   6.942   1.343  -0.116  1.1616  2.2926  2.0835
   20CHTO   C18 8416   6.907   1.548  -0.154 -0.0156 -0.1654 -0.0780
   20CHTO   O13 8417   7.044   1.578  -0.124 -0.1342  0.0798 -0.1891
   20CHTO    H7 8418   7.096   1.579  -0.202  0.0415 -2.5561 -0.1420
   20CHTO    O2 8419   6.633   1.208  -0.353  0.3209 -0.1385 -0.6107
   20CHTO    C1 8420   6.499   1.203  -0.301  0.0226 -0.2235 -0.6741
   20CHTO   H14 8421   6.496   1.258  -0.204  0.4171 -1.7727  0.2402
   20CHTO    C2 8422   6.450   1.060  -0.264 -0.9153 -0.4299 -0.0577
   20CHTO   H15 8423   6.456   0.997  -0.353  3.0844  0.1498 -0.2684
   20CHTO    O6 8424   6.524   1.000  -0.154 -0.3511  0.3194  0.0570
   20CHTO    H1 8425   6.548   0.911  -0.171 -0.6533 -0.1665  2.0308
   20CHTO    C3 8426   6.301   1.063  -0.218 -0.1857  0.0782  0.3987
   20CHTO   H16 8427   6.310   1.102  -0.115 -0.1996  0.8268  0.1180
   20CHTO    N1 8428   6.241   0.919  -0.207  0.4808 -0.5919 -0.1466
   20CHTO    H8 8429   6.147   0.929  -0.155 -0.4491 -0.1633 -1.8980
   20CHTO    H9 8430   6.307   0.854  -0.151  1.0509 -1.9388 -2.3456
   20CHTO    C4 8431   6.204   1.161  -0.298 -0.0225 -0.7555 -0.7732
   20CHTO   H17 8432   6.163   1.112  -0.387 -0.7285 -2.3268  0.3994
   20CHTO    O1 8433   6.265   1.281  -0.330  0.3564  0.0256  0.4150
   20CHTO    C5 8434   6.394   1.274  -0.391  0.6762  0.3517 -0.5105
   20CHTO   H18 8435   6.384   1.218  -0.484  0.3519 -0.8624  0.2538
   20CHTO   C16 8436   6.420   1.421  -0.427  0.2571 -0.2550  0.4418
   20CHTO   O11 8437   6.554   1.453  -0.463 -0.1509 -0.3831  0.9651
   20CHTO    H5 8438   6.581   1.537  -0.433 -0.7859  0.5025 -0.8448
   20CHTO    O3 8439   6.095   1.198  -0.210  0.1427 -0.0275 -0.0087
   20CHTO    C6 8440   5.983   1.276  -0.272 -0.0764 -0.3824  0.3298
   20CHTO   H19 8441   6.006   1.302  -0.375 -0.2554 -2.9778 -0.3987
   20CHTO    C8 8442   5.852   1.185  -0.266  0.4797  0.1465  0.5762
   20CHTO   H21 8443   5.824   1.165  -0.163 -0.7339 -0.2267  0.1854
   20CHTO    O7 8444   5.878   1.055  -0.320 -0.2382 -0.1178  0.3549
   20CHTO    H2 8445   5.905   1.067  -0.409  2.7532 -0.0667  1.2388
   20CHTO   C12 8446   5.737   1.268  -0.339  0.2883  0.5361  0.2641
   20CHTO   H25 8447   5.770   1.294  -0.442 -2.0808 -0.6974 -0.8393
   20CHTO    N3 8448   5.609   1.197  -0.352  0.0396  0.2213 -0.4740
   20CHTO   H12 8449   5.577   1.177  -0.251  0.0925  2.5778  0.0419
   20CHTO   H13 8450   5.622   1.104  -0.406 -2.4916 -0.0760 -0.6403
   20CHTO   C15 8451   5.719   1.406  -0.264  0.2335  0.4322 -0.4097
   20CHTO   H28 8452   5.676   1.397  -0.165 -0.8688 -0.0186 -0.9262
   20CHTO   O10 8453   5.637   1.509  -0.333 -0.5038  0.5673 -0.0155
   20CHTO    H4 8454   5.631   1.586  -0.279 -0.4445 -0.6295  1.7141
   20CHTO    O5 8455   5.841   1.475  -0.261  0.0420 -0.6868  0.1705
   20CHTO   C10 8456   5.940   1.406  -0.192 -0.0664 -0.5937 -0.5506
   20CHTO   H23 8457   5.899   1.374  -0.096  2.4848 -1.0691  0.4051
   20CHTO   C17 8458   6.065   1.492  -0.167  0.4999 -0.5440  0.0887
   20CHTO   O12 8459   6.129   1.539  -0.290 -0.0833 -0.2285  0.7565
   20CHTO    H6 8460   6.198   1.600  -0.273 -0.6720  0.8174 -0.5285
   21GLOH   H03 8461   8.663   3.575   3.765 -0.6404  0.0739 -1.5560
   21GLOH    O1 8462   8.588   3.626   3.800 -0.1337  0.1068 -0.5343
   21GLOH    C1 8463   8.505   3.553   3.891 -0.4735 -0.3939 -0.1196
   21GLOH   H02 8464   8.552   3.539   3.988  1.4399  0.8541 -0.8398
   21GLOH   H08 8465   8.489   3.451   3.855 -0.8620 -0.3505 -0.0756
   21GLOH    C2 8466   8.364   3.616   3.895  0.5204  0.9995  0.1428
   21GLOH   H04 8467   8.373   3.724   3.912  0.0968  1.0423  0.0953
   21GLOH    O2 8468   8.296   3.587   3.767 -0.5525 -0.3179 -0.7304
   21GLOH   H05 8469   8.312   3.494   3.744  3.3294 -0.0453  0.5789
   21GLOH    C3 8470   8.294   3.548   4.020  0.1621 -0.2652 -0.3170
   21GLOH   H06 8471   8.288   3.439   4.011 -1.7499 -0.1630 -0.5246
   21GLOH   H07 8472   8.191   3.583   4.031  0.9725  1.9357  0.4722
   21GLOH    O3 8473   8.366   3.579   4.141  0.1170 -0.5693 -0.3867
   21GLOH   H01 8474   8.364   3.675   4.161 -1.1361 -0.6226 -0.2590
   22GLOH   H03 8475   1.800   3.898   3.716  1.3894 -1.7131  0.5330
   22GLOH    O1 8476   1.742   3.827   3.682 -0.5448  0.3018 -0.5018
   22GLOH    C1 8477   1.626   3.899   3.632  0.5029  0.8052 -0.5913
   22GLOH   H02 8478   1.654   3.970   3.554  0.1508  2.3755  0.6765
   22GLOH   H08 8479   1.574   3.954   3.711 -0.3170 -1.2106  0.3004
   22GLOH    C2 8480   1.528   3.799   3.572  1.3278  0.3058 -0.2326
   22GLOH   H04 8481   1.510   3.727   3.654 -0.4004  1.7267  0.6623
   22GLOH    O2 8482   1.415   3.874   3.521  0.1515  0.0173  0.2635
   22GLOH   H05 8483   1.349   3.804   3.508  1.5799 -1.3142  0.0794
   22GLOH    C3 8484   1.610   3.711   3.470 -0.6571 -0.2309  0.0745
   22GLOH   H06 8485   1.532   3.648   3.427 -1.3833 -0.2668  1.4065
   22GLOH   H07 8486   1.674   3.641   3.524 -0.1042  0.9993  1.0478
   22GLOH    O3 8487   1.673   3.786   3.367  0.2501 -0.1419 -0.2308
   22GLOH   H01 8488   1.763   3.805   3.398  0.8175 -1.0563 -1.2971
   23GLOH   H03 8489   9.865   6.703   1.115 -0.7243 -1.3369 -0.1257
   23GLOH    O1 8490   9.816   6.712   1.030 -0.0875 -0.0507 -0.3674
   23GLOH    C1 8491   9.867   6.818   0.943 -0.2019 -0.0209  0.4288
   23GLOH   H02 8492   9.829   6.809   0.841  1.5876  0.3801 -0.2858
   23GLOH   H08 8493   9.972   6.799   0.924 -0.2298  1.6639 -1.6160
   23GLOH    C2 8494   9.850   6.958   1.005 -0.2655  0.0606 -0.1889
   23GLOH   H04 8495   9.871   6.956   1.113 -2.6132  2.8276  0.3427
   23GLOH    O2 8496   9.926   7.064   0.939 -0.3444 -0.1778 -0.1038
   23GLOH   H05 8497   9.882   7.150   0.947  2.1870  0.9974  2.0862
   23GLOH    C3 8498   9.698   6.997   0.984  0.2698 -0.0754  1.0584
   23GLOH   H06 8499   9.639   6.911   1.014 -1.1515  1.1830  1.9458
   23GLOH   H07 8500   9.686   7.023   0.878  0.2729 -6.6831 -0.8194
   23GLOH    O3 8501   9.673   7.111   1.066  0.3723  0.2847  0.6536
   23GLOH   H01 8502   9.589   7.153   1.038  0.5917  0.6764  0.5836
   24GLOH   H03 8503   7.562   1.647   4.659 -1.0541 -0.0370 -1.4746
   24GLOH    O1 8504   7.568   1.742   4.680  0.7137 -0.4253 -0.0840
   24GLOH    C1 8505   7.467   1.824   4.616  1.1255 -0.8820 -0.8011
   24GLOH   H02 8506   7.432   1.902   4.683  0.5741 -2.9906  1.4383
   24GLOH   H08 8507   7.380   1.764   4.589 -0.5255  0.6079  1.0423
   24GLOH    C2 8508   7.509   1.882   4.485  0.2953  0.9293  0.0249
   24GLOH   H04 8509   7.597   1.945   4.503  1.3564 -0.7072  0.6332
   24GLOH    O2 8510   7.567   1.782   4.400  0.1949 -0.2714 -0.3995
   24GLOH   H05 8511   7.663   1.792   4.417 -0.1002 -0.3433  1.4318
   24GLOH    C3 8512   7.402   1.963   4.415 -0.5991  0.0607 -0.3831
   24GLOH   H06 8513   7.318   1.895   4.407 -0.0477 -0.5984 -0.5964
   24GLOH   H07 8514   7.432   1.995   4.315 -0.8026  1.0513 -0.1355
   24GLOH    O3 8515   7.353   2.070   4.499  0.0337 -0.0887 -0.3143
   24GLOH   H01 8516   7.416   2.143   4.484 -0.3704  0.1248 -0.9864
   25GLOH   H03 8517   7.670   9.154   2.209  1.8786 -1.4236  0.0314
   25GLOH    O1 8518   7.722   9.221   2.162  0.3939 -0.1475  0.1771
   25GLOH    C1 8519   7.818   9.287   2.247  0.6406  0.0490  0.3144
   25GLOH   H02 8520   7.769   9.310   2.342  0.1423 -1.1136  0.3525
   25GLOH   H08 8521   7.850   9.386   2.216  1.0948 -0.3292 -0.4312
   25GLOH    C2 8522   7.942   9.204   2.269 -0.1193 -0.1348  0.4660
   25GLOH   H04 8523   8.014   9.250   2.338 -0.3979 -2.4394  2.3624
   25GLOH    O2 8524   7.920   9.070   2.320 -0.1939  0.0595 -0.3325
   25GLOH   H05 8525   7.839   9.023   2.292 -1.2379  1.3451  0.4849
   25GLOH    C3 8526   8.013   9.200   2.133  0.0949 -0.0403 -0.0145
   25GLOH   H06 8527   7.941   9.175   2.056 -2.6501  2.6968  1.5541
   25GLOH   H07 8528   8.088   9.120   2.132  1.3474  1.1091 -3.5460
   25GLOH    O3 8529   8.075   9.330   2.101 -0.7157  0.1077  0.1624
   25GLOH   H01 8530   8.066   9.329   2.004  0.3275  1.8706  0.0363
   26GLOH   H03 8531   7.499   9.025   1.015  1.2751  0.1498  1.4700
   26GLOH    O1 8532   7.559   9.006   0.940 -0.3231 -0.1050  0.2332
   26GLOH    C1 8533   7.691   8.996   0.997  0.8251  0.4730  0.1730
   26GLOH   H02 8534   7.742   9.092   0.988 -1.1402  1.4767 -0.4794
   26GLOH   H08 8535   7.746   8.918   0.944  0.3973  1.1886 -1.3654
   26GLOH    C2 8536   7.688   8.961   1.145 -0.3264 -0.0537 -0.3666
   26GLOH   H04 8537   7.637   8.865   1.161 -1.9591  0.7807 -0.4402
   26GLOH    O2 8538   7.817   8.952   1.202 -0.3941  0.5023  0.2764
   26GLOH   H05 8539   7.841   8.858   1.201 -2.0635  0.0377  1.0513
   26GLOH    C3 8540   7.599   9.060   1.220 -0.3585  0.1984 -0.0101
   26GLOH   H06 8541   7.648   9.157   1.215 -0.8190  0.4712  0.7019
   26GLOH   H07 8542   7.597   9.028   1.324  0.4010 -0.9271 -0.3239
   26GLOH    O3 8543   7.468   9.060   1.167  0.3454  0.2060  0.3993
   26GLOH   H01 8544   7.421   9.132   1.212  0.8680  0.5474  0.3982
   27GLOH   H03 8545   8.447   6.028   4.130 -1.1779 -0.2282  0.7261
   27GLOH    O1 8546   8.457   5.968   4.055 -1.0144  0.5022  0.1610
   27GLOH    C1 8547   8.496   6.035   3.935 -0.4564 -0.0299 -0.6325
   27GLOH   H02 8548   8.526   5.957   3.863  1.9238 -0.1947  0.4782
   27GLOH   H08 8549   8.587   6.091   3.957  0.1707 -1.7431  1.3708
   27GLOH    C2 8550   8.386   6.120   3.877  0.7184 -0.4684  0.7227
   27GLOH   H04 8551   8.369   6.206   3.943  0.9114  0.9443 -1.0001
   27GLOH    O2 8552   8.433   6.182   3.754 -0.3480 -0.1663 -0.1513
   27GLOH   H05 8553   8.379   6.262   3.743  1.1244  1.0556  1.3321
   27GLOH    C3 8554   8.254   6.051   3.851  0.0400 -0.7000  0.2423
   27GLOH   H06 8555   8.231   6.002   3.946  1.3752  0.9733  1.4690
   27GLOH   H07 8556   8.264   5.971   3.778  0.8044 -0.2976 -0.0987
   27GLOH    O3 8557   8.141   6.135   3.821  1.1041 -0.0992  0.6610
   27GLOH   H01 8558   8.071   6.078   3.785 -0.9074  2.2067  0.7848
   28GLOH   H03 8559   8.423   6.406   3.347  3.7069 -1.2889 -0.5293
   28GLOH    O1 8560   8.380   6.321   3.326  0.2518  0.2709 -0.1082
   28GLOH    C1 8561   8.443   6.272   3.204  0.2141 -0.0477  0.0729
   28GLOH   H02 8562   8.422   6.331   3.114 -0.5983  0.9798  0.9233
   28GLOH   H08 8563   8.398   6.175   3.185 -2.2078  1.0838 -0.2160
   28GLOH    C2 8564   8.596   6.271   3.195 -0.0337 -0.3922 -0.4426
   28GLOH   H04 8565   8.620   6.193   3.121  2.7451 -2.1920  2.2168
   28GLOH    O2 8566   8.656   6.395   3.161  0.3324 -0.2530 -0.3456
   28GLOH   H05 8567   8.667   6.458   3.234  0.4389 -0.4680 -0.1770
   28GLOH    C3 8568   8.659   6.217   3.321 -0.8819 -0.2015  0.2046
   28GLOH   H06 8569   8.762   6.204   3.286 -1.5196 -0.2301 -1.7519
   28GLOH   H07 8570   8.617   6.118   3.338  2.9166 -2.2226 -1.4324
   28GLOH    O3 8571   8.637   6.300   3.437  0.4943  0.1695 -0.0973
   28GLOH   H01 8572   8.681   6.247   3.506 -1.9545 -1.7456  0.0570
   29GLOH   H03 8573   4.515   3.673   3.847 -1.2265 -2.4478  0.3774
   29GLOH    O1 8574   4.541   3.655   3.939  0.5009 -0.2522  0.3505
   29GLOH    C1 8575   4.500   3.754   4.034  0.0934 -0.0371  0.7631
   29GLOH   H02 8576   4.553   3.844   4.004 -1.3336 -0.4708 -3.3396
   29GLOH   H08 8577   4.531   3.716   4.132 -1.6074 -0.2753  1.2341
   29GLOH    C2 8578   4.346   3.779   4.041 -0.4446  0.3412  0.2101
   29GLOH   H04 8579   4.309   3.799   3.940 -1.0096  0.3949  0.4240
   29GLOH    O2 8580   4.284   3.654   4.079 -0.2633 -0.2527 -0.3543
   29GLOH   H05 8581   4.279   3.608   3.994 -1.6254 -0.3746 -0.2185
   29GLOH    C3 8582   4.312   3.889   4.143 -0.0630  0.4466 -0.0395
   29GLOH   H06 8583   4.374   3.872   4.231  0.1507  0.2780 -0.2233
   29GLOH   H07 8584   4.205   3.871   4.155  0.2391 -0.3819  1.5918
   29GLOH    O3 8585   4.351   4.019   4.096  0.1012 -0.0930  0.1402
   29GLOH   H01 8586   4.282   4.058   4.038  1.6129  0.5735 -1.2490
   30GLOH   H03 8587   0.674   3.736   4.062  0.7643 -0.0766  2.3886
   30GLOH    O1 8588   0.642   3.825   4.086 -0.5725  0.1332  0.0271
   30GLOH    C1 8589   0.701   3.924   4.002 -0.3858 -0.6040 -0.0859
   30GLOH   H02 8590   0.684   3.899   3.897 -1.8962 -0.7127  0.1649
   30GLOH   H08 8591   0.804   3.951   4.025 -0.6836  1.3711 -0.9059
   30GLOH    C2 8592   0.624   4.055   4.025  0.3565 -0.4320 -0.0569
   30GLOH   H04 8593   0.613   4.086   4.130  0.5061 -0.3978 -0.0533
   30GLOH    O2 8594   0.679   4.173   3.955  0.6281 -0.4052 -0.2852
   30GLOH   H05 8595   0.667   4.157   3.860  1.9623 -0.5658 -0.4318
   30GLOH    C3 8596   0.481   4.044   3.972  0.8751 -0.5053 -0.0567
   30GLOH   H06 8597   0.425   3.970   4.030  2.9007 -1.9169  0.1540
   30GLOH   H07 8598   0.493   3.997   3.874 -0.4991  0.2241 -0.5788
   30GLOH    O3 8599   0.399   4.167   3.974  0.2359  0.3694  0.2757
   30GLOH   H01 8600   0.454   4.233   3.929  0.7445 -0.7183 -0.7139
   31GLOH   H03 8601   4.842   4.396   2.092 -0.8638 -0.0663  0.8764
   31GLOH    O1 8602   4.852   4.336   2.168  0.7618 -0.5133  0.3382
   31GLOH    C1 8603   4.728   4.305   2.228 -0.6673  0.3412  0.6017
   31GLOH   H02 8604   4.684   4.391   2.278 -2.5133  0.5589 -1.3244
   31GLOH   H08 8605   4.745   4.222   2.297 -1.2040 -0.2650  0.0137
   31GLOH    C2 8606   4.629   4.256   2.125  0.2141  0.0501 -0.3023
   31GLOH   H04 8607   4.546   4.209   2.179  1.3551 -0.1889  1.3090
   31GLOH    O2 8608   4.590   4.372   2.043  0.6048  0.5736  0.0469
   31GLOH   H05 8609   4.672   4.419   2.020  1.0367 -0.4134 -0.4115
   31GLOH    C3 8610   4.693   4.149   2.034 -0.9201 -0.4198 -0.4148
   31GLOH   H06 8611   4.747   4.078   2.096  0.5792  0.4643 -0.6946
   31GLOH   H07 8612   4.774   4.189   1.973 -0.8917 -0.5389 -0.4558
   31GLOH    O3 8613   4.603   4.075   1.947 -0.2821 -0.7380 -0.7333
   31GLOH   H01 8614   4.530   4.135   1.924  1.2112  0.0886 -3.5820
   32GLOH   H03 8615   9.939   1.928   3.084 -0.0817 -0.5823  0.2005
   32GLOH    O1 8616   9.881   1.919   3.006  0.4461  0.9761 -0.3937
   32GLOH    C1 8617   9.874   2.044   2.938 -0.2146 -0.4898 -0.4015
   32GLOH   H02 8618   9.937   2.041   2.849 -0.9735 -0.8240 -0.9347
   32GLOH   H08 8619   9.920   2.122   2.999 -1.6835  0.5870 -0.6527
   32GLOH    C2 8620   9.728   2.081   2.900  1.0446  0.3503 -0.8412
   32GLOH   H04 8621   9.702   2.010   2.820  0.7977 -2.2951  1.5231
   32GLOH    O2 8622   9.639   2.058   3.007 -0.0679 -0.5161 -0.1667
   32GLOH   H05 8623   9.675   1.989   3.064 -1.0585 -0.4019  0.6152
   32GLOH    C3 8624   9.730   2.224   2.840 -0.2349  0.4013 -0.1234
   32GLOH   H06 8625   9.741   2.290   2.926  0.2204 -0.4284  0.4577
   32GLOH   H07 8626   9.627   2.245   2.814  0.2555  3.5112  0.2514
   32GLOH    O3 8627   9.822   2.239   2.733 -0.2475 -0.3012 -0.2431
   32GLOH   H01 8628   9.774   2.207   2.655  2.9528 -1.8862 -1.6370
   33GLOH   H03 8629   2.774   1.132   3.776 -1.1796 -0.7456 -0.8825
   33GLOH    O1 8630   2.718   1.207   3.803  0.0503 -0.1536  0.1080
   33GLOH    C1 8631   2.707   1.301   3.688  0.6907 -0.0758 -0.2493
   33GLOH   H02 8632   2.802   1.335   3.646  0.5481  0.3521 -0.2257
   33GLOH   H08 8633   2.667   1.399   3.716  0.5851 -0.7042  1.8537
   33GLOH    C2 8634   2.624   1.247   3.576  1.0364  0.5712  0.0162
   33GLOH   H04 8635   2.630   1.307   3.484  1.9271  0.2218 -0.1578
   33GLOH    O2 8636   2.682   1.124   3.534 -0.3536 -0.1432 -0.7149
   33GLOH   H05 8637   2.775   1.136   3.509 -0.2528 -1.1013 -0.8138
   33GLOH    C3 8638   2.471   1.235   3.601  0.0204  0.5351 -0.5002
   33GLOH   H06 8639   2.455   1.179   3.693 -2.8054  0.3410 -1.0797
   33GLOH   H07 8640   2.431   1.170   3.523 -0.5333  0.3399 -0.0598
   33GLOH    O3 8641   2.401   1.358   3.613 -0.3602  0.9558  0.2695
   33GLOH   H01 8642   2.370   1.390   3.526  0.8306 -0.4391 -0.6903
   34GLOH   H03 8643   6.627   9.389   0.866 -2.5734  0.9694 -0.6648
   34GLOH    O1 8644   6.646   9.400   0.771  0.8541  0.1311 -0.1418
   34GLOH    C1 8645   6.576   9.497   0.696 -0.3200 -0.0634 -0.3741
   34GLOH   H02 8646   6.602   9.483   0.591  0.4823 -1.5254 -0.0057
   34GLOH   H08 8647   6.619   9.591   0.731 -1.9377 -0.3252  2.4428
   34GLOH    C2 8648   6.423   9.501   0.708 -0.1661 -0.8828  0.3678
   34GLOH   H04 8649   6.389   9.398   0.691 -2.8817  0.1900 -1.0100
   34GLOH    O2 8650   6.381   9.552   0.837 -0.3844 -0.3652  0.0249
   34GLOH   H05 8651   6.448   9.619   0.860  1.2317 -1.7684 -0.5039
   34GLOH    C3 8652   6.358   9.573   0.585  0.8262 -0.2311  0.3947
   34GLOH   H06 8653   6.253   9.592   0.606  0.5560 -1.4054  0.1328
   34GLOH   H07 8654   6.365   9.502   0.503  0.6311 -2.6022  2.3555
   34GLOH    O3 8655   6.416   9.695   0.545  0.3033 -0.2647 -0.5495
   34GLOH   H01 8656   6.386   9.770   0.599 -0.0963  1.0619 -2.5490
   35GLOH   H03 8657   5.016   2.457   2.850 -2.0502  0.3371 -1.5248
   35GLOH    O1 8658   5.032   2.548   2.882  0.1154 -0.4335 -0.2688
   35GLOH    C1 8659   5.173   2.566   2.860  0.1313 -0.1571 -0.3280
   35GLOH   H02 8660   5.205   2.516   2.769 -0.8729 -0.7068 -0.3786
   35GLOH   H08 8661   5.230   2.513   2.937  1.0129 -1.4416 -1.8348
   35GLOH    C2 8662   5.212   2.718   2.854  0.2947  0.1457 -1.0654
   35GLOH   H04 8663   5.321   2.727   2.844  0.4867 -0.9944 -0.1199
   35GLOH    O2 8664   5.153   2.794   2.747  0.2008  0.5531  0.4693
   35GLOH   H05 8665   5.146   2.738   2.668 -1.6381  2.0828 -0.5044
   35GLOH    C3 8666   5.185   2.782   2.991 -0.4087 -0.1651 -0.5345
   35GLOH   H06 8667   5.215   2.886   2.988 -2.7263  0.5335 -0.3467
   35GLOH   H07 8668   5.246   2.726   3.061 -0.1400 -2.0198 -2.2094
   35GLOH    O3 8669   5.039   2.773   3.027 -0.5203 -0.3555  0.3918
   35GLOH   H01 8670   5.005   2.686   3.000  0.7738 -1.0551  0.9354
   36GLOH   H03 8671   4.888   7.949   1.241  0.7995  0.0919  0.6065
   36GLOH    O1 8672   4.943   7.871   1.219  0.5146  0.2417 -0.6835
   36GLOH    C1 8673   4.900   7.828   1.090  0.1021 -0.1589 -0.1257
   36GLOH   H02 8674   4.827   7.747   1.098 -1.1387  0.7969 -1.4303
   36GLOH   H08 8675   4.987   7.791   1.035 -0.1793  0.8078 -1.2614
   36GLOH    C2 8676   4.837   7.936   0.990 -0.4978  0.4475  0.3714
   36GLOH   H04 8677   4.916   8.010   0.971  0.5463 -0.6240  0.5405
   36GLOH    O2 8678   4.783   7.878   0.866 -0.0399 -0.0518 -0.2220
   36GLOH   H05 8679   4.697   7.843   0.894  0.2228  0.5416  1.3592
   36GLOH    C3 8680   4.721   7.997   1.073 -0.1030 -0.4051  0.1290
   36GLOH   H06 8681   4.637   7.931   1.091 -1.3695  0.7550 -1.4188
   36GLOH   H07 8682   4.683   8.080   1.014 -2.0720 -1.4319 -0.0679
   36GLOH    O3 8683   4.772   8.056   1.193 -0.2207 -0.2444  0.5542
   36GLOH   H01 8684   4.776   8.154   1.190  0.9133 -0.3099  0.0238
   37GLOH   H03 8685   2.712   2.738   3.365 -4.1846 -0.9150 -1.2999
   37GLOH    O1 8686   2.707   2.817   3.307 -0.3991  0.4750  0.1564
   37GLOH    C1 8687   2.842   2.857   3.268  0.2937  0.0169  0.4690
   37GLOH   H02 8688   2.890   2.775   3.214  0.7477  0.9558 -0.5615
   37GLOH   H08 8689   2.902   2.879   3.357  1.1015 -1.2218  0.2388
   37GLOH    C2 8690   2.832   2.976   3.174  0.2300 -0.0199  0.0921
   37GLOH   H04 8691   2.763   2.948   3.093 -0.5228 -3.4887  1.8416
   37GLOH    O2 8692   2.782   3.084   3.252  0.0815  0.0055 -0.0931
   37GLOH   H05 8693   2.733   3.034   3.319 -0.3006 -1.4465 -1.4398
   37GLOH    C3 8694   2.963   3.008   3.107  0.1457 -0.4312 -1.0396
   37GLOH   H06 8695   3.032   3.049   3.181  1.5590 -2.0438 -1.4208
   37GLOH   H07 8696   2.948   3.092   3.039 -0.4646  0.2336 -0.0951
   37GLOH    O3 8697   3.021   2.894   3.036  0.1760  0.6317  0.5903
   37GLOH   H01 8698   3.103   2.920   2.991 -0.5881 -0.0809 -1.2822
   38GLOH   H03 8699   8.535   5.423   0.610 -0.0662 -0.4895  0.8255
   38GLOH    O1 8700   8.526   5.350   0.547 -0.2104  0.1903  0.0481
   38GLOH    C1 8701   8.463   5.398   0.424  0.2031  0.4238 -0.4713
   38GLOH   H02 8702   8.538   5.432   0.353 -0.9756 -0.0334 -1.9798
   38GLOH   H08 8703   8.396   5.483   0.435 -0.4586 -0.1796  0.3245
   38GLOH    C2 8704   8.398   5.282   0.344  0.6911  0.1571 -0.4154
   38GLOH   H04 8705   8.477   5.212   0.313  0.8047 -2.0600  4.3851
   38GLOH    O2 8706   8.310   5.200   0.424 -0.7647 -0.5202  0.5440
   38GLOH   H05 8707   8.368   5.130   0.460  2.6201  2.0512  0.3543
   38GLOH    C3 8708   8.320   5.335   0.217 -0.4737  0.3595 -0.0267
   38GLOH   H06 8709   8.245   5.409   0.243  2.6490  3.1404  1.2988
   38GLOH   H07 8710   8.268   5.254   0.164  0.5623  0.3977 -1.1353
   38GLOH    O3 8711   8.407   5.391   0.122 -0.0178  0.0225 -0.0865
   38GLOH   H01 8712   8.412   5.339   0.040 -1.0300  1.0299 -0.8031
   39GLOH   H03 8713   8.510   4.774   2.377 -0.2595  0.9607 -1.7273
   39GLOH    O1 8714   8.440   4.712   2.351 -0.0677 -0.1411  0.3296
   39GLOH    C1 8715   8.380   4.755   2.225 -0.8228  0.0796 -0.4916
   39GLOH   H02 8716   8.439   4.706   2.148 -0.0807 -1.4022  0.9905
   39GLOH   H08 8717   8.400   4.862   2.214 -0.1962  0.2728  2.1755
   39GLOH    C2 8718   8.230   4.730   2.207  0.0460  0.0152  0.2547
   39GLOH   H04 8719   8.180   4.810   2.263 -1.0023 -0.3366 -0.1643
   39GLOH    O2 8720   8.182   4.747   2.073  0.0912 -0.0420 -0.0634
   39GLOH   H05 8721   8.158   4.840   2.055 -2.0957 -0.6677 -0.6275
   39GLOH    C3 8722   8.193   4.588   2.265 -0.2582 -0.5028  0.6829
   39GLOH   H06 8723   8.266   4.510   2.244 -0.4811 -0.8300  1.1054
   39GLOH   H07 8724   8.095   4.557   2.229 -1.0517  0.7707  1.7274
   39GLOH    O3 8725   8.199   4.594   2.407  0.0540 -0.3679  0.0903
   39GLOH   H01 8726   8.289   4.631   2.419 -0.2190  0.4100 -0.2387
   40GLOH   H03 8727   3.041   6.675   0.624 -2.2633  1.2391 -1.0495
   40GLOH    O1 8728   3.016   6.581   0.620  0.1380  0.5357 -0.1934
   40GLOH    C1 8729   2.971   6.549   0.489 -0.2705  0.5940 -0.5222
   40GLOH   H02 8730   3.052   6.556   0.415  0.5633 -0.0046  0.3234
   40GLOH   H08 8731   2.885   6.613   0.470 -1.7107 -0.8253  1.0799
   40GLOH    C2 8732   2.920   6.402   0.478  0.1779 -0.2613 -0.4551
   40GLOH   H04 8733   2.853   6.385   0.564  1.5681 -0.0848  0.6758
   40GLOH    O2 8734   2.845   6.388   0.354 -0.5437 -0.0050  0.4022
   40GLOH   H05 8735   2.774   6.329   0.386  0.5180 -1.6410 -0.2017
   40GLOH    C3 8736   3.034   6.298   0.484  0.2678  0.5595 -0.9162
   40GLOH   H06 8737   3.095   6.292   0.394  0.7444 -4.3704 -0.4260
   40GLOH   H07 8738   2.988   6.200   0.494 -1.0842  1.1021 -1.6412
   40GLOH    O3 8739   3.121   6.327   0.593 -0.1494  0.0417  0.3189
   40GLOH   H01 8740   3.127   6.423   0.608  0.7555  0.3434 -1.7909
   41GLOH   H03 8741   8.338   3.842   0.430  1.6089 -1.9112 -1.2329
   41GLOH    O1 8742   8.365   3.915   0.371  0.1374 -0.4011 -0.0745
   41GLOH    C1 8743   8.458   3.869   0.271  0.1244  0.5159  0.4353
   41GLOH   H02 8744   8.512   3.780   0.304 -1.6884 -0.3772  1.0763
   41GLOH   H08 8745   8.530   3.948   0.256 -0.4113  0.8624 -0.3304
   41GLOH    C2 8746   8.403   3.852   0.127 -0.3033 -0.9390  0.2175
   41GLOH   H04 8747   8.297   3.823   0.127  0.3163 -3.3330 -1.6871
   41GLOH    O2 8748   8.402   3.973   0.050  0.0984  0.0564  0.0548
   41GLOH   H05 8749   8.352   3.952  -0.031  1.7941 -0.3060 -0.9450
   41GLOH    C3 8750   8.480   3.749   0.049  0.2580 -0.8414  0.1071
   41GLOH   H06 8751   8.587   3.767   0.049 -0.1405  1.6664 -0.1036
   41GLOH   H07 8752   8.450   3.753  -0.056  1.8615  0.1598 -0.3236
   41GLOH    O3 8753   8.462   3.613   0.094  0.4281  0.1743  0.2293
   41GLOH   H01 8754   8.367   3.610   0.116  0.5621  0.1893  0.8231
   42GLOH   H03 8755   5.122   4.274   0.547 -0.9273  0.7012 -0.3127
   42GLOH    O1 8756   5.187   4.231   0.488 -0.1135  0.5877  0.6678
   42GLOH    C1 8757   5.144   4.253   0.349  0.2426 -0.7170 -0.0902
   42GLOH   H02 8758   5.233   4.243   0.286  0.1285  1.6976 -0.6775
   42GLOH   H08 8759   5.117   4.358   0.340 -1.4649 -0.9294  2.1155
   42GLOH    C2 8760   5.033   4.159   0.299 -0.5964 -0.0848  0.3643
   42GLOH   H04 8761   5.009   4.198   0.199  1.4006  1.8836  0.6205
   42GLOH    O2 8762   5.072   4.019   0.292  0.1245  0.9071  0.1583
   42GLOH   H05 8763   5.123   4.017   0.375  0.4673 -1.6271 -0.0866
   42GLOH    C3 8764   4.908   4.169   0.376  0.5148  0.0693 -0.8062
   42GLOH   H06 8765   4.927   4.134   0.477  0.9081 -2.0872 -1.5998
   42GLOH   H07 8766   4.837   4.095   0.338  0.1543 -1.0272  1.9131
   42GLOH    O3 8767   4.858   4.304   0.368 -0.1386  0.3674  0.0307
   42GLOH   H01 8768   4.831   4.320   0.275 -2.2485 -0.0475  0.5335
   43GLOH   H03 8769   7.559   3.592   4.641  0.3886  2.3108 -4.2809
   43GLOH    O1 8770   7.500   3.525   4.601  0.3306 -0.2806 -0.1534
   43GLOH    C1 8771   7.440   3.447   4.699  0.3987  0.4115  0.8090
   43GLOH   H02 8772   7.389   3.510   4.772  0.7326  1.2322  0.3328
   43GLOH   H08 8773   7.518   3.408   4.765  0.4932 -2.5094 -0.9256
   43GLOH    C2 8774   7.358   3.335   4.637 -0.1785  0.3657 -0.1644
   43GLOH   H04 8775   7.430   3.255   4.613  0.2063  0.0576  1.9136
   43GLOH    O2 8776   7.268   3.275   4.737  0.3652  0.1578 -0.0998
   43GLOH   H05 8777   7.303   3.200   4.789  4.0110  1.9792  0.2696
   43GLOH    C3 8778   7.272   3.376   4.516  0.0726 -0.1463  0.1009
   43GLOH   H06 8779   7.196   3.444   4.554  1.1112  0.5513  0.9609
   43GLOH   H07 8780   7.225   3.285   4.480 -2.0496  0.1677  2.0211
   43GLOH    O3 8781   7.354   3.443   4.419 -0.3505 -0.5520  0.0290
   43GLOH   H01 8782   7.421   3.478   4.481  2.1054 -0.3132 -2.6791
   44GLOH   H03 8783   2.780   9.527   2.277 -1.1244  0.5882  1.0717
   44GLOH    O1 8784   2.725   9.454   2.243  0.0686  0.0868  0.1835
   44GLOH    C1 8785   2.689   9.470   2.107 -0.5162 -0.3964 -0.4335
   44GLOH   H02 8786   2.715   9.385   2.044 -1.2429 -2.5722  2.0961
   44GLOH   H08 8787   2.725   9.563   2.064  0.1716 -1.0182 -1.2353
   44GLOH    C2 8788   2.532   9.474   2.090 -0.2675 -0.0989  0.0322
   44GLOH   H04 8789   2.484   9.547   2.157  0.5234  1.7055 -1.3114
   44GLOH    O2 8790   2.507   9.510   1.951 -0.3266 -0.0239 -0.0284
   44GLOH   H05 8791   2.441   9.581   1.950 -0.0730  0.3990  4.5939
   44GLOH    C3 8792   2.474   9.336   2.126  0.0478  0.1745  0.3336
   44GLOH   H06 8793   2.496   9.313   2.231  0.7581 -0.9973 -0.0530
   44GLOH   H07 8794   2.512   9.250   2.071  0.1956 -0.0765  0.8211
   44GLOH    O3 8795   2.333   9.349   2.115  0.7190 -0.0554 -0.0009
   44GLOH   H01 8796   2.292   9.289   2.182 -0.8904  0.5657 -0.4043
   45GLOH   H03 8797   7.851   0.829   2.234  2.2405 -1.0049  0.8349
   45GLOH    O1 8798   7.887   0.850   2.146 -0.3374 -0.2509 -0.0793
   45GLOH    C1 8799   7.779   0.828   2.050 -0.1535  0.4134  0.2388
   45GLOH   H02 8800   7.722   0.918   2.025 -3.6273 -1.5064  0.8471
   45GLOH   H08 8801   7.708   0.756   2.091  0.0064  0.3881  0.4767
   45GLOH    C2 8802   7.851   0.779   1.924  0.3504 -0.0015  0.1899
   45GLOH   H04 8803   7.924   0.851   1.885  1.7105 -1.5436 -0.1936
   45GLOH    O2 8804   7.913   0.652   1.961  0.1926  0.3633  0.1025
   45GLOH   H05 8805   7.970   0.682   2.034  0.3267 -1.9229  0.9563
   45GLOH    C3 8806   7.740   0.758   1.821  0.4377  0.3809 -0.5217
   45GLOH   H06 8807   7.668   0.684   1.855  1.8968 -1.5055 -1.4187
   45GLOH   H07 8808   7.796   0.712   1.739  0.3505  0.7162 -0.7697
   45GLOH    O3 8809   7.678   0.881   1.781  0.1505  0.2584 -0.1109
   45GLOH   H01 8810   7.699   0.885   1.686  0.6869 -0.0116 -0.0104
   46GLOH   H03 8811   4.968   5.571   1.954 -0.5661 -0.3503 -1.4526
   46GLOH    O1 8812   4.900   5.563   2.023  0.3666 -0.2602 -0.4969
   46GLOH    C1 8813   4.794   5.656   1.998  0.6070 -0.7327  0.0871
   46GLOH   H02 8814   4.764   5.653   1.893 -0.5949  0.2290  0.3878
   46GLOH   H08 8815   4.819   5.760   2.017 -0.5580 -0.3583 -0.3825
   46GLOH    C2 8816   4.672   5.624   2.084 -0.1463 -1.1216  0.1917
   46GLOH   H04 8817   4.706   5.648   2.186  0.0384  0.9378 -0.3398
   46GLOH    O2 8818   4.557   5.711   2.067 -0.2944  0.1319 -0.2318
   46GLOH   H05 8819   4.528   5.749   2.151  2.3229  2.2355 -0.2213
   46GLOH    C3 8820   4.622   5.480   2.063 -0.5102 -0.3508  0.1893
   46GLOH   H06 8821   4.582   5.467   1.962  0.4855 -2.1984  0.0090
   46GLOH   H07 8822   4.533   5.465   2.125 -0.3023  0.7083  0.7565
   46GLOH    O3 8823   4.719   5.379   2.094  0.3691 -0.2457 -0.2919
   46GLOH   H01 8824   4.806   5.407   2.059 -0.3280  2.4894  0.0550
   47GLOH   H03 8825   0.002   4.818   1.538  0.7322 -2.2412 -1.2631
   47GLOH    O1 8826   0.091   4.851   1.518  0.2136  0.1356  0.1171
   47GLOH    C1 8827   0.148   4.790   1.401  0.2466 -0.1906 -0.2237
   47GLOH   H02 8828   0.120   4.830   1.303 -0.2111 -1.2547 -0.5302
   47GLOH   H08 8829   0.130   4.682   1.401 -0.3337 -0.1011  1.4005
   47GLOH    C2 8830   0.298   4.813   1.405 -0.6331 -0.3256 -0.5457
   47GLOH   H04 8831   0.359   4.739   1.458  1.1922  1.1341 -0.5769
   47GLOH    O2 8832   0.346   4.813   1.267  0.7067  0.1330 -0.2592
   47GLOH   H05 8833   0.275   4.791   1.205  0.1101  1.0547  0.0896
   47GLOH    C3 8834   0.337   4.948   1.478 -0.1952  0.1868 -0.1453
   47GLOH   H06 8835   0.282   5.030   1.431 -2.9639 -1.3006  0.3975
   47GLOH   H07 8836   0.441   4.973   1.458  0.5719 -0.9624  2.2937
   47GLOH    O3 8837   0.323   4.929   1.620 -0.0426 -0.6259 -0.4390
   47GLOH   H01 8838   0.267   4.850   1.635  0.7547 -1.0847  0.1284
   48GLOH   H03 8839   7.363   9.354   1.123  1.8387  1.7325  1.9402
   48GLOH    O1 8840   7.392   9.422   1.060  0.7048 -0.3173 -0.9309
   48GLOH    C1 8841   7.332   9.381   0.932  0.2304 -0.0393 -0.1802
   48GLOH   H02 8842   7.250   9.312   0.952  0.1401 -0.6097 -2.3459
   48GLOH   H08 8843   7.401   9.326   0.869  1.1548  0.7493  0.1350
   48GLOH    C2 8844   7.272   9.493   0.846  0.0557  0.4635  0.5542
   48GLOH   H04 8845   7.213   9.453   0.762  0.4656  1.9765 -0.4783
   48GLOH    O2 8846   7.178   9.572   0.917  0.0238 -0.2948 -0.0699
   48GLOH   H05 8847   7.125   9.522   0.982 -0.2655 -1.6798 -1.3435
   48GLOH    C3 8848   7.383   9.578   0.781  0.3626 -0.1485 -0.1430
   48GLOH   H06 8849   7.424   9.635   0.864  1.4084 -0.2670 -0.5620
   48GLOH   H07 8850   7.332   9.642   0.710 -2.1738 -1.5021  0.3975
   48GLOH    O3 8851   7.489   9.503   0.726  0.4992  0.3110  1.0944
   48GLOH   H01 8852   7.447   9.453   0.653 -0.7546 -0.6389  2.4405
   49GLOH   H03 8853   6.199   8.251   2.233 -1.4425 -0.5393  0.4541
   49GLOH    O1 8854   6.231   8.172   2.279 -0.7899 -0.1431  0.6930
   49GLOH    C1 8855   6.214   8.213   2.417 -0.1385 -0.7310  0.2152
   49GLOH   H02 8856   6.113   8.247   2.440  0.4136  1.2750 -0.2303
   49GLOH   H08 8857   6.279   8.294   2.448 -1.5584  0.8774 -0.9485
   49GLOH    C2 8858   6.252   8.099   2.514 -0.1450 -0.0056  0.0574
   49GLOH   H04 8859   6.247   8.139   2.616  0.6241 -0.3811  0.2493
   49GLOH    O2 8860   6.164   7.984   2.512 -0.1374 -0.0847  0.0444
   49GLOH   H05 8861   6.107   7.978   2.434 -3.4027  0.7452  2.2685
   49GLOH    C3 8862   6.400   8.056   2.497  0.5717 -0.1692 -0.0451
   49GLOH   H06 8863   6.413   7.989   2.413 -0.7968 -0.1487 -0.2777
   49GLOH   H07 8864   6.423   7.991   2.582 -2.4768  1.7879  2.4055
   49GLOH    O3 8865   6.483   8.175   2.495 -0.3392  0.2395  0.2321
   49GLOH   H01 8866   6.518   8.182   2.404  0.8381  2.6963  0.8250
   50GLOH   H03 8867   8.857   5.831   0.744  2.8624 -0.6803 -0.9896
   50GLOH    O1 8868   8.892   5.906   0.795 -0.4536  0.1246  0.2367
   50GLOH    C1 8869   8.827   5.910   0.923  0.4972 -0.4602 -0.1606
   50GLOH   H02 8870   8.725   5.875   0.905  1.3379 -2.9010 -0.3099
   50GLOH   H08 8871   8.816   6.009   0.966  1.6665  0.1321 -1.1824
   50GLOH    C2 8872   8.895   5.816   1.029 -0.1064  0.4988  0.3854
   50GLOH   H04 8873   8.994   5.858   1.053 -0.0520  0.4373  0.2688
   50GLOH    O2 8874   8.808   5.819   1.143  0.1069  0.3492 -0.2047
   50GLOH   H05 8875   8.868   5.811   1.220 -1.7298  1.3202  1.3523
   50GLOH    C3 8876   8.908   5.676   0.976  0.3735 -0.0685  0.3636
   50GLOH   H06 8877   8.977   5.681   0.892 -0.4566 -1.5921 -0.4165
   50GLOH   H07 8878   8.814   5.645   0.929  0.0800 -0.7000  1.3647
   50GLOH    O3 8879   8.966   5.576   1.061  0.1906  0.1646  0.3064
   50GLOH   H01 8880   8.989   5.502   1.002 -0.3237  1.5307 -1.6585
   51GLOH   H03 8881   1.786   6.501   4.189  3.8175  0.0385  0.3629
   51GLOH    O1 8882   1.795   6.429   4.124  0.6083 -0.3377  0.2309
   51GLOH    C1 8883   1.784   6.495   3.994 -0.0577 -0.8994 -0.1865
   51GLOH   H02 8884   1.751   6.598   4.010  0.9546 -0.5589 -0.2793
   51GLOH   H08 8885   1.695   6.449   3.951 -1.0213  1.8591 -1.2362
   51GLOH    C2 8886   1.909   6.473   3.904  0.1223 -0.3881  0.2972
   51GLOH   H04 8887   1.936   6.367   3.910 -0.1591 -0.4457  0.5020
   51GLOH    O2 8888   1.873   6.508   3.769 -0.3180  0.3268  0.1542
   51GLOH   H05 8889   1.949   6.498   3.710  1.0127  2.3237  1.4768
   51GLOH    C3 8890   2.032   6.562   3.938  0.5268 -0.4375 -0.0857
   51GLOH   H06 8891   2.064   6.532   4.037 -3.5558 -1.4987  1.0185
   51GLOH   H07 8892   2.000   6.665   3.954  0.0477 -0.6899  0.5812
   51GLOH    O3 8893   2.148   6.566   3.858  0.0812 -0.0821 -0.2655
   51GLOH   H01 8894   2.196   6.485   3.884  3.4600  2.0207  0.5018
   52GLOH   H03 8895   6.096   1.128   2.215 -0.4677 -2.2251 -0.2916
   52GLOH    O1 8896   6.020   1.164   2.165  0.0573  0.0214  0.4372
   52GLOH    C1 8897   5.907   1.190   2.255 -0.3313 -0.7036 -0.0633
   52GLOH   H02 8898   5.824   1.214   2.189 -0.3797  0.7476  0.5227
   52GLOH   H08 8899   5.921   1.267   2.331 -1.1800 -2.2260  1.6849
   52GLOH    C2 8900   5.877   1.061   2.341  0.2808 -0.1176 -0.5208
   52GLOH   H04 8901   5.844   0.972   2.284 -0.6573  0.2876 -0.6173
   52GLOH    O2 8902   5.997   1.026   2.417  0.0183 -0.1323  0.4106
   52GLOH   H05 8903   6.034   0.938   2.398  0.2898  0.4492 -1.8919
   52GLOH    C3 8904   5.755   1.098   2.424  0.1041  0.5182  0.3162
   52GLOH   H06 8905   5.728   1.017   2.492 -0.9268  0.8954  0.3577
   52GLOH   H07 8906   5.678   1.107   2.348  1.6389 -1.3287 -1.5358
   52GLOH    O3 8907   5.772   1.216   2.509 -0.4508  0.0914  0.1042
   52GLOH   H01 8908   5.830   1.176   2.577  1.7803  2.1885 -0.5249
   53GLOH   H03 8909   8.074   1.228   2.174  2.6520 -0.6513  1.9794
   53GLOH    O1 8910   8.102   1.304   2.120 -0.3636 -0.8408 -0.0086
   53GLOH    C1 8911   7.996   1.332   2.024 -0.0638  0.1166 -0.7557
   53GLOH   H02 8912   7.989   1.250   1.953  3.6338  0.1746 -1.2821
   53GLOH   H08 8913   8.020   1.421   1.965 -1.5164  1.2095  0.2694
   53GLOH    C2 8914   7.864   1.379   2.096 -0.1335 -0.0138 -0.6792
   53GLOH   H04 8915   7.878   1.480   2.137  1.0254 -0.0791 -0.9110
   53GLOH    O2 8916   7.771   1.392   1.986 -0.4476  0.8467 -0.9266
   53GLOH   H05 8917   7.768   1.309   1.934 -0.0443  0.9642 -1.1463
   53GLOH    C3 8918   7.818   1.265   2.187 -0.9618 -0.4607  0.5698
   53GLOH   H06 8919   7.718   1.289   2.223 -0.9761 -0.4067  0.4911
   53GLOH   H07 8920   7.882   1.270   2.276 -3.6637 -0.0985  2.5739
   53GLOH    O3 8921   7.826   1.135   2.122 -0.5118 -0.9480  0.1514
   53GLOH   H01 8922   7.787   1.076   2.190  0.9928  0.7899  2.6051
   54GLOH   H03 8923   3.094   7.234   0.039 -0.3672 -1.0486  0.7491
   54GLOH    O1 8924   3.156   7.180  -0.012 -0.0523  0.1500 -0.1674
   54GLOH    C1 8925   3.261   7.147   0.081 -0.3765  0.2735 -0.2400
   54GLOH   H02 8926   3.300   7.237   0.130  0.2469  0.4268 -1.0109
   54GLOH   H08 8927   3.355   7.112   0.039  1.0214  2.1921  1.1954
   54GLOH    C2 8928   3.218   7.057   0.197 -0.0654 -1.0179  0.0890
   54GLOH   H04 8929   3.126   7.100   0.239 -0.5745  0.9794 -2.9448
   54GLOH    O2 8930   3.203   6.930   0.150 -0.6105  0.0969  0.0515
   54GLOH   H05 8931   3.140   6.930   0.076 -0.0313 -1.0923 -0.4565
   54GLOH    C3 8932   3.317   7.059   0.313 -0.1539 -0.1144 -0.0324
   54GLOH   H06 8933   3.414   7.013   0.291 -1.5535 -2.0903 -2.3349
   54GLOH   H07 8934   3.273   6.996   0.390  3.0595 -0.9106  1.2407
   54GLOH    O3 8935   3.344   7.192   0.365  0.1042 -0.1360  0.1500
   54GLOH   H01 8936   3.429   7.221   0.326  0.2591  0.5728  0.9904
   55GLOH   H03 8937   3.771   2.243   4.608 -0.4723  0.2594  0.2375
   55GLOH    O1 8938   3.804   2.280   4.692  0.1343  0.1823  0.0356
   55GLOH    C1 8939   3.683   2.286   4.779  0.7102 -0.4563 -0.0391
   55GLOH   H02 8940   3.638   2.187   4.785 -1.0932  0.3407 -0.2115
   55GLOH   H08 8941   3.611   2.359   4.742  0.5910 -0.7026 -0.2965
   55GLOH    C2 8942   3.718   2.340   4.920  0.8927 -0.1354 -0.5333
   55GLOH   H04 8943   3.786   2.426   4.906  0.2510  0.7896  1.6979
   55GLOH    O2 8944   3.593   2.365   4.989  0.0962  0.4152 -0.0219
   55GLOH   H05 8945   3.594   2.452   5.032 -0.3842  1.3521 -1.8135
   55GLOH    C3 8946   3.802   2.246   5.007  0.1009 -0.4450 -0.4476
   55GLOH   H06 8947   3.746   2.161   5.047  1.9621 -1.6055 -0.2493
   55GLOH   H07 8948   3.839   2.310   5.086  0.9768  0.7881 -1.8280
   55GLOH    O3 8949   3.911   2.194   4.925  0.5212 -0.0633  0.1445
   55GLOH   H01 8950   3.901   2.240   4.839  1.1148 -1.6470 -0.7800
   56GLOH   H03 8951   8.373   5.326   1.016  1.7260  0.8183 -2.2839
   56GLOH    O1 8952   8.303   5.387   0.986  0.4244  0.3546 -0.2805
   56GLOH    C1 8953   8.206   5.396   1.093 -0.0779  0.1461  0.2763
   56GLOH   H02 8954   8.205   5.500   1.126  2.3212  0.5405 -0.8114
   56GLOH   H08 8955   8.219   5.327   1.176 -1.9590  0.9469  1.2757
   56GLOH    C2 8956   8.068   5.358   1.035 -0.2200  0.1028  0.1471
   56GLOH   H04 8957   8.075   5.257   0.990 -1.6718  0.0023  0.1270
   56GLOH    O2 8958   7.963   5.366   1.132 -0.1720  0.1706 -0.1847
   56GLOH   H05 8959   7.896   5.296   1.123 -0.2839  0.1222  0.8783
   56GLOH    C3 8960   8.041   5.445   0.909 -0.0721  0.1181 -0.3825
   56GLOH   H06 8961   8.056   5.552   0.925 -1.0001  0.4363 -1.5666
   56GLOH   H07 8962   7.939   5.431   0.871 -1.1764  3.0776  1.3099
   56GLOH    O3 8963   8.132   5.413   0.800 -0.2462  0.6500  0.3008
   56GLOH   H01 8964   8.218   5.399   0.843 -2.2281 -1.6048  3.7599
   57GLOH   H03 8965   1.475   6.469   1.018  0.0850  1.0722 -0.2396
   57GLOH    O1 8966   1.386   6.502   0.996 -0.1795  0.2019 -0.4514
   57GLOH    C1 8967   1.289   6.441   1.085 -0.5504  0.5535 -0.1466
   57GLOH   H02 8968   1.272   6.337   1.059 -0.2717  0.1401  1.2884
   57GLOH   H08 8969   1.190   6.487   1.077 -0.0762  1.7347  0.6786
   57GLOH    C2 8970   1.324   6.442   1.237 -0.2279  0.4163 -0.3535
   57GLOH   H04 8971   1.239   6.396   1.290 -2.3940  2.8970 -1.5669
   57GLOH    O2 8972   1.441   6.363   1.265 -0.6599 -0.9424  0.2417
   57GLOH   H05 8973   1.436   6.344   1.360 -1.6628 -0.1588  0.3583
   57GLOH    C3 8974   1.334   6.590   1.277  0.4682 -0.7132  0.0545
   57GLOH   H06 8975   1.435   6.624   1.253  0.7872  0.9514  3.4562
   57GLOH   H07 8976   1.314   6.584   1.384 -0.4183  0.3544 -0.0323
   57GLOH    O3 8977   1.234   6.679   1.224 -0.1717  0.1031  0.3294
   57GLOH   H01 8978   1.144   6.652   1.251 -0.0400 -0.0769  0.5891
   58GLOH   H03 8979   8.642   1.671   1.356  0.1117  0.4891 -0.1880
   58GLOH    O1 8980   8.588   1.609   1.305  0.4541 -0.0936  0.1587
   58GLOH    C1 8981   8.572   1.629   1.163 -0.4899 -0.4627  0.2980
   58GLOH   H02 8982   8.658   1.685   1.125 -1.9153  2.1143  0.7557
   58GLOH   H08 8983   8.480   1.684   1.143 -0.5480 -0.7123 -0.1357
   58GLOH    C2 8984   8.549   1.489   1.096  0.4621 -0.9349 -0.5903
   58GLOH   H04 8985   8.544   1.507   0.988 -2.2903 -2.0126 -0.6968
   58GLOH    O2 8986   8.653   1.390   1.105 -0.2362  0.0807 -0.1933
   58GLOH   H05 8987   8.738   1.424   1.137 -0.0359 -1.5243  1.0770
   58GLOH    C3 8988   8.416   1.437   1.155  0.2243  0.4234 -0.2243
   58GLOH   H06 8989   8.429   1.436   1.263  0.3435  0.0657 -0.2386
   58GLOH   H07 8990   8.407   1.331   1.129 -1.3088  0.7589 -1.1087
   58GLOH    O3 8991   8.291   1.505   1.100 -0.8497 -0.2568  0.0207
   58GLOH   H01 8992   8.233   1.499   1.178 -0.7024 -0.2685  0.1289
   59GLOH   H03 8993   5.140   9.444   1.957 -0.2763  0.5643  0.6892
   59GLOH    O1 8994   5.105   9.354   1.958 -0.0932  0.4730 -0.4004
   59GLOH    C1 8995   4.963   9.366   1.966  0.4952  0.2278  0.4637
   59GLOH   H02 8996   4.941   9.436   2.047 -1.5800  0.7584 -0.5278
   59GLOH   H08 8997   4.918   9.273   2.002 -0.3283  1.0316  1.5455
   59GLOH    C2 8998   4.900   9.414   1.836  0.2994  0.7473  0.2665
   59GLOH   H04 8999   4.937   9.349   1.755  0.2009  1.7757 -0.6089
   59GLOH    O2 9000   4.757   9.386   1.845  0.2793 -0.1253  0.0568
   59GLOH   H05 9001   4.718   9.455   1.902  1.7597  1.4307 -0.7734
   59GLOH    C3 9002   4.938   9.555   1.804  0.0971 -0.6376  0.0498
   59GLOH   H06 9003   4.936   9.616   1.894 -0.4715  2.7197 -2.1342
   59GLOH   H07 9004   4.865   9.604   1.740  1.4929  0.2459 -0.9067
   59GLOH    O3 9005   5.075   9.567   1.759 -0.5020  0.0386 -0.0691
   59GLOH   H01 9006   5.072   9.546   1.663  0.4307  1.5499 -0.4485
   60GLOH   H03 9007   9.077   8.475   1.792  1.5734 -0.3931  0.5575
   60GLOH    O1 9008   9.023   8.408   1.838 -0.1206 -0.0328 -0.8897
   60GLOH    C1 9009   8.991   8.307   1.747  0.5285 -0.2300  0.1544
   60GLOH   H02 9010   8.908   8.248   1.786  0.3830 -0.1954 -0.1078
   60GLOH   H08 9011   9.064   8.226   1.742 -1.8562 -2.3806 -1.0440
   60GLOH    C2 9012   8.953   8.338   1.603 -0.4445  0.0439  0.4107
   60GLOH   H04 9013   8.943   8.245   1.544 -0.0134 -1.0549  2.0233
   60GLOH    O2 9014   8.836   8.424   1.593 -0.1518  0.2356 -0.2677
   60GLOH   H05 9015   8.839   8.490   1.522 -4.3881  0.3549 -0.4332
   60GLOH    C3 9016   9.069   8.415   1.540  0.2676 -0.3217  0.1559
   60GLOH   H06 9017   9.048   8.520   1.558  0.8144  0.0234 -1.1188
   60GLOH   H07 9018   9.067   8.407   1.431  0.8633  0.1235  0.1112
   60GLOH    O3 9019   9.202   8.380   1.578 -0.5634  0.5757  0.2830
   60GLOH   H01 9020   9.253   8.409   1.500 -1.1954  2.1779  0.4302
   61GLOH   H03 9021   3.952   4.783   0.450 -0.5093 -2.0709 -0.8062
   61GLOH    O1 9022   3.992   4.755   0.534 -0.6169  0.2633  0.0671
   61GLOH    C1 9023   4.112   4.665   0.529  0.0134  0.2106  0.7061
   61GLOH   H02 9024   4.196   4.711   0.478 -0.3555 -1.7215 -1.7457
   61GLOH   H08 9025   4.082   4.581   0.465 -2.7682  0.1545  1.9884
   61GLOH    C2 9026   4.156   4.618   0.666 -0.9399 -0.4540  0.6684
   61GLOH   H04 9027   4.064   4.610   0.727 -0.5977  0.1399  1.2787
   61GLOH    O2 9028   4.220   4.488   0.653  0.8284 -0.0524 -0.2944
   61GLOH   H05 9029   4.190   4.423   0.719  1.8617 -0.8920 -0.6395
   61GLOH    C3 9030   4.246   4.733   0.723  0.2192 -0.0585  0.4662
   61GLOH   H06 9031   4.186   4.823   0.710 -1.4442 -1.4553 -2.2341
   61GLOH   H07 9032   4.337   4.738   0.662  0.7333 -0.1562  1.2195
   61GLOH    O3 9033   4.282   4.719   0.866  0.3704 -0.2675 -0.0732
   61GLOH   H01 9034   4.202   4.748   0.913  1.2591  1.2967  0.4984
   62GLOH   H03 9035   5.004   1.831   0.686  1.8872 -1.2090 -1.6459
   62GLOH    O1 9036   4.956   1.845   0.602 -0.4033 -0.1301 -0.2000
   62GLOH    C1 9037   4.885   1.725   0.563 -0.0031  0.2859  0.5411
   62GLOH   H02 9038   4.780   1.730   0.590 -0.5403  0.1499 -1.4428
   62GLOH   H08 9039   4.929   1.633   0.601  3.6797  0.9338 -1.8502
   62GLOH    C2 9040   4.884   1.713   0.410  0.3569  0.8782 -0.1193
   62GLOH   H04 9041   4.988   1.695   0.380  0.4684  1.5653 -0.1523
   62GLOH    O2 9042   4.809   1.593   0.384 -0.0806 -0.4452 -0.6293
   62GLOH   H05 9043   4.718   1.607   0.417  0.8807 -0.5875  2.1980
   62GLOH    C3 9044   4.829   1.833   0.336  0.0370 -0.4812  0.0453
   62GLOH   H06 9045   4.851   1.817   0.230  2.8208  3.4032 -0.0327
   62GLOH   H07 9046   4.878   1.922   0.376 -0.5951 -1.2489  2.6409
   62GLOH    O3 9047   4.687   1.860   0.340 -0.4606 -0.0466 -0.7268
   62GLOH   H01 9048   4.679   1.895   0.430  0.6365  0.4489 -0.8043
   63GLOH   H03 9049   7.758   5.355   3.399 -0.9898  1.1741 -0.4448
   63GLOH    O1 9050   7.708   5.382   3.478 -0.1015  0.2521  0.4601
   63GLOH    C1 9051   7.711   5.281   3.573  0.5983  0.2386  0.3164
   63GLOH   H02 9052   7.816   5.254   3.589  1.3234  2.3669 -0.6648
   63GLOH   H08 9053   7.657   5.198   3.529  1.7591  1.0094 -2.6778
   63GLOH    C2 9054   7.656   5.309   3.714  0.0698 -0.0600  0.2105
   63GLOH   H04 9055   7.547   5.312   3.700  0.2883 -1.8300 -2.3195
   63GLOH    O2 9056   7.665   5.190   3.790 -0.4761  0.0473  0.1289
   63GLOH   H05 9057   7.738   5.192   3.854  0.5329 -2.2972 -0.9174
   63GLOH    C3 9058   7.716   5.430   3.782  0.5523 -0.0607 -0.8799
   63GLOH   H06 9059   7.818   5.407   3.813  0.8429 -0.4213 -2.0784
   63GLOH   H07 9060   7.652   5.459   3.866  2.0785  0.5817  0.0875
   63GLOH    O3 9061   7.721   5.541   3.695 -0.0901 -0.1368 -0.4000
   63GLOH   H01 9062   7.725   5.516   3.601  0.7962  0.3589 -0.5004
   64GLOH   H03 9063   9.933   9.483   3.575 -0.0400 -0.8176  0.6911
   64GLOH    O1 9064   9.969   9.426   3.504  0.5110  0.6208 -0.2282
   64GLOH    C1 9065   9.863   9.382   3.414 -0.8219  1.1096 -1.1987
   64GLOH   H02 9066   9.775   9.428   3.459 -0.0469  0.6586  0.8375
   64GLOH   H08 9067   9.849   9.274   3.417 -1.0413  1.1632 -0.0710
   64GLOH    C2 9068   9.869   9.429   3.268  0.2223 -0.0922 -0.0825
   64GLOH   H04 9069   9.795   9.368   3.213  1.2483 -1.2571 -0.1933
   64GLOH    O2 9070   9.861   9.579   3.250 -0.5530 -0.4405  0.5049
   64GLOH   H05 9071   9.786   9.609   3.304 -0.2480  1.3552 -0.0331
   64GLOH    C3 9072   9.999   9.383   3.204 -0.5531 -1.0416 -0.1603
   64GLOH   H06 9073  10.080   9.440   3.249 -1.9654  1.4288 -0.6604
   64GLOH   H07 9074   9.994   9.420   3.101 -0.7796  1.9589  0.8838
   64GLOH    O3 9075  10.009   9.241   3.211  0.0376  0.6039  0.3069
   64GLOH   H01 9076  10.081   9.224   3.274 -0.2046  0.2485  0.4851
   65GLOH   H03 9077   2.951   2.323   2.815  1.8428 -0.0147  0.6885
   65GLOH    O1 9078   2.947   2.415   2.786  0.0539 -0.2609  0.0955
   65GLOH    C1 9079   3.077   2.449   2.736  0.4284  0.4908  0.4565
   65GLOH   H02 9080   3.095   2.551   2.701 -0.1623  0.1926 -0.7369
   65GLOH   H08 9081   3.089   2.392   2.643  0.3872 -0.0249  0.7670
   65GLOH    C2 9082   3.190   2.407   2.829 -0.1924 -0.0184  0.5291
   65GLOH   H04 9083   3.204   2.298   2.834  0.3756 -0.0444 -1.3011
   65GLOH    O2 9084   3.313   2.462   2.777  0.0511  0.6084  0.0313
   65GLOH   H05 9085   3.361   2.399   2.722 -1.5890  0.3614 -1.1565
   65GLOH    C3 9086   3.162   2.445   2.979 -0.2833 -0.4551  0.3355
   65GLOH   H06 9087   3.145   2.552   2.985  0.5387 -0.2892 -0.3125
   65GLOH   H07 9088   3.259   2.435   3.029 -0.3363  1.0446  0.7669
   65GLOH    O3 9089   3.057   2.371   3.042 -0.0311  0.5683 -0.2297
   65GLOH   H01 9090   3.085   2.281   3.068 -0.9358  0.5884  0.8752
   66GLOH   H03 9091   6.494   9.847   1.255  0.0485  1.6664 -0.6663
   66GLOH    O1 9092   6.463   9.818   1.168  0.3034 -0.4493 -0.0745
   66GLOH    C1 9093   6.381   9.925   1.116 -0.0618  0.5798 -0.7469
   66GLOH   H02 9094   6.402   9.924   1.009 -0.0968 -0.2508 -0.7468
   66GLOH   H08 9095   6.422  10.013   1.167  1.9858  0.7109 -2.5029
   66GLOH    C2 9096   6.233   9.904   1.138 -0.9579  0.2474 -0.8363
   66GLOH   H04 9097   6.219   9.915   1.246  0.8239  1.1775 -0.6680
   66GLOH    O2 9098   6.157  10.001   1.060  0.0133 -0.0189  0.3629
   66GLOH   H05 9099   6.116  10.055   1.130 -0.2377 -0.2922  0.4293
   66GLOH    C3 9100   6.190   9.761   1.092  0.1493 -0.0052 -0.6140
   66GLOH   H06 9101   6.204   9.743   0.985  3.7396 -0.4486 -0.1310
   66GLOH   H07 9102   6.084   9.751   1.115  0.2258  3.1161  1.4288
   66GLOH    O3 9103   6.269   9.662   1.163  0.1625  0.4385  0.0930
   66GLOH   H01 9104   6.359   9.698   1.163 -0.0213  0.8984  0.1373
   67GLOH   H03 9105   4.265   6.155   2.051  1.1512  0.4409 -1.1690
   67GLOH    O1 9106   4.336   6.099   2.088  0.6715  0.5002 -0.1479
   67GLOH    C1 9107   4.403   6.170   2.191  0.1747 -0.3374  0.3745
   67GLOH   H02 9108   4.325   6.205   2.258  0.0108  0.8194 -0.4065
   67GLOH   H08 9109   4.464   6.246   2.143  0.1614 -0.2808  0.4478
   67GLOH    C2 9110   4.496   6.080   2.279 -0.4475 -0.4319  0.0893
   67GLOH   H04 9111   4.579   6.043   2.217 -1.9979 -2.8747 -0.5940
   67GLOH    O2 9112   4.557   6.154   2.381 -0.2011  0.2045 -0.1429
   67GLOH   H05 9113   4.491   6.194   2.441 -0.4972  1.0241 -0.9882
   67GLOH    C3 9114   4.423   5.960   2.332  0.5425  0.1824 -0.0666
   67GLOH   H06 9115   4.353   5.985   2.411  0.7484  1.8962 -0.4093
   67GLOH   H07 9116   4.496   5.903   2.390 -0.1844 -0.6483  0.0501
   67GLOH    O3 9117   4.377   5.876   2.224 -0.0090  0.3837  0.1657
   67GLOH   H01 9118   4.356   5.930   2.146  1.7244 -0.4619 -0.9195
   68GLOH   H03 9119   0.298   7.703   4.494  1.9377  4.0007 -2.9988
   68GLOH    O1 9120   0.290   7.648   4.414  0.1574 -0.3159 -0.0560
   68GLOH    C1 9121   0.241   7.739   4.315 -0.3113  0.5658  0.6141
   68GLOH   H02 9122   0.133   7.749   4.316 -0.1609  2.3724  0.0343
   68GLOH   H08 9123   0.262   7.697   4.216  2.4416 -0.7638  1.6923
   68GLOH    C2 9124   0.292   7.880   4.330 -0.1703 -0.4133 -1.3708
   68GLOH   H04 9125   0.401   7.866   4.329 -0.3513 -1.9901 -0.5785
   68GLOH    O2 9126   0.239   7.969   4.231 -0.1235 -0.1983 -0.0911
   68GLOH   H05 9127   0.305   8.037   4.209  0.8050 -0.5874  1.4226
   68GLOH    C3 9128   0.257   7.931   4.470 -0.4663 -0.0575 -0.3560
   68GLOH   H06 9129   0.149   7.938   4.481 -0.5421 -0.9332 -0.4893
   68GLOH   H07 9130   0.301   8.031   4.474 -0.9935  0.1601 -0.0612
   68GLOH    O3 9131   0.320   7.848   4.572  0.3937 -0.0869 -0.0353
   68GLOH   H01 9132   0.288   7.897   4.650  2.3207  1.5998 -0.2576
   69GLOH   H03 9133   3.108   4.864   0.578 -2.3795  1.4715  0.6859
   69GLOH    O1 9134   3.100   4.823   0.665 -0.2531 -0.7515 -0.1197
   69GLOH    C1 9135   3.211   4.854   0.755 -0.0857 -0.3954 -0.0577
   69GLOH   H02 9136   3.211   4.816   0.857 -0.4773  1.2527  0.5649
   69GLOH   H08 9137   3.205   4.958   0.785  2.4353 -0.9766  2.5898
   69GLOH    C2 9138   3.349   4.830   0.686  0.1456 -0.3845  0.2671
   69GLOH   H04 9139   3.342   4.901   0.603 -0.4986 -0.9983 -0.2047
   69GLOH    O2 9140   3.466   4.852   0.772  0.3038 -0.1617  0.7080
   69GLOH   H05 9141   3.540   4.880   0.716 -1.1690  1.5833 -0.4551
   69GLOH    C3 9142   3.350   4.681   0.629 -0.2422  0.0746  0.0367
   69GLOH   H06 9143   3.443   4.674   0.573 -0.4696 -0.0177 -0.3294
   69GLOH   H07 9144   3.271   4.668   0.556 -0.5776  1.4088  0.1439
   69GLOH    O3 9145   3.342   4.584   0.735  0.5140 -0.1648 -0.3281
   69GLOH   H01 9146   3.369   4.500   0.693 -1.4444 -0.9286 -0.1360
   70GLOH   H03 9147   3.360   4.882   0.122 -0.6640 -1.9529 -0.3841
   70GLOH    O1 9148   3.345   4.902   0.028  0.0359 -0.2369 -0.1435
   70GLOH    C1 9149   3.252   5.015   0.020 -0.0094 -0.4244 -0.0098
   70GLOH   H02 9150   3.267   5.063  -0.077 -0.7856 -0.5244 -0.1797
   70GLOH   H08 9151   3.286   5.089   0.092  4.2382 -1.0668 -1.1942
   70GLOH    C2 9152   3.109   4.976   0.054 -0.7418  1.1129 -0.7530
   70GLOH   H04 9153   3.098   4.941   0.158 -0.4876  1.6271 -0.5542
   70GLOH    O2 9154   3.029   5.092   0.039  0.4912 -0.1166 -1.2207
   70GLOH   H05 9155   2.939   5.067   0.067  1.3888 -0.4644  1.5638
   70GLOH    C3 9156   3.058   4.860  -0.036 -0.4963  0.1443  0.4800
   70GLOH   H06 9157   3.137   4.785  -0.032  0.4961  1.0361 -1.8161
   70GLOH   H07 9158   3.079   4.910  -0.131 -0.5181  1.0410  0.9416
   70GLOH    O3 9159   2.927   4.811  -0.008  0.0392  0.0534 -0.1691
   70GLOH   H01 9160   2.888   4.768  -0.087  0.2556 -0.6863  0.1239
   71GLOH   H03 9161   3.597   3.804   3.241  1.5420  1.4600 -1.3125
   71GLOH    O1 9162   3.670   3.740   3.233  0.2876 -0.2140  0.1422
   71GLOH    C1 9163   3.779   3.823   3.173 -0.5444 -0.2270 -0.3137
   71GLOH   H02 9164   3.833   3.881   3.247 -0.5541  0.8698 -1.1608
   71GLOH   H08 9165   3.737   3.895   3.103  0.9152 -0.3316 -1.3188
   71GLOH    C2 9166   3.877   3.741   3.083 -0.8821 -0.1548 -0.1696
   71GLOH   H04 9167   3.929   3.665   3.142  0.4572  1.5888  0.9168
   71GLOH    O2 9168   3.803   3.688   2.967 -0.3287  0.2028  0.1460
   71GLOH   H05 9169   3.749   3.609   2.985 -0.8725  0.4968 -0.1947
   71GLOH    C3 9170   3.986   3.839   3.028  0.1034  0.0095 -0.5783
   71GLOH   H06 9171   3.954   3.884   2.935  0.2802 -0.6710 -0.9730
   71GLOH   H07 9172   4.065   3.773   2.994  0.2209  0.2504 -0.7722
   71GLOH    O3 9173   4.050   3.921   3.134  0.0404 -0.1630  0.4295
   71GLOH   H01 9174   3.997   4.000   3.155  0.3558 -0.2222  1.4715
   72GLOH   H03 9175   9.615   3.394   0.378 -0.9101 -1.6590 -1.0403
   72GLOH    O1 9176   9.700   3.358   0.345  0.3389 -0.1469  0.4092
   72GLOH    C1 9177   9.793   3.342   0.458 -0.0222 -0.6130 -0.9646
   72GLOH   H02 9178   9.765   3.249   0.508  0.5736 -1.1554 -1.6107
   72GLOH   H08 9179   9.790   3.425   0.528 -1.9072 -0.6738 -0.9350
   72GLOH    C2 9180   9.934   3.334   0.401 -0.3222  0.3373  0.1002
   72GLOH   H04 9181   9.929   3.258   0.322 -1.4537 -0.8672  1.3209
   72GLOH    O2 9182   9.984   3.453   0.339 -0.0168 -0.4862 -0.3389
   72GLOH   H05 9183   9.913   3.519   0.333 -0.7160 -1.3159 -1.3864
   72GLOH    C3 9184  10.034   3.295   0.517  0.3187 -0.3201  0.6463
   72GLOH   H06 9185  10.009   3.364   0.598  1.2802  0.2195  0.4877
   72GLOH   H07 9186  10.137   3.314   0.486 -0.8759  1.0496 -2.7070
   72GLOH    O3 9187  10.018   3.156   0.560 -0.4910  0.4473  0.4850
   72GLOH   H01 9188  10.056   3.163   0.649 -1.0711 -0.1620  0.7834
   73GLOH   H03 9189   1.867   7.838   3.713  0.4158  0.2315 -0.2379
   73GLOH    O1 9190   1.786   7.891   3.698  0.2181 -0.1824 -0.6435
   73GLOH    C1 9191   1.752   7.877   3.556  0.4401 -0.1201  0.2535
   73GLOH   H02 9192   1.651   7.907   3.529  0.1222 -0.9275  0.5162
   73GLOH   H08 9193   1.759   7.769   3.538 -1.3317 -0.2591  0.3264
   73GLOH    C2 9194   1.856   7.948   3.461 -0.0241  0.0651 -0.2252
   73GLOH   H04 9195   1.955   7.909   3.486  0.8489  2.1008 -0.3519
   73GLOH    O2 9196   1.827   7.907   3.328  0.8392 -0.1402 -0.1754
   73GLOH   H05 9197   1.903   7.864   3.285  1.1473 -0.8957  1.1128
   73GLOH    C3 9198   1.864   8.105   3.473 -0.5912  1.0111  1.0806
   73GLOH   H06 9199   1.896   8.124   3.575  1.3115 -0.1031  0.7219
   73GLOH   H07 9200   1.760   8.137   3.462 -1.0254 -0.2260  1.5592
   73GLOH    O3 9201   1.952   8.163   3.372 -0.1756  0.2641 -0.2743
   73GLOH   H01 9202   1.924   8.257   3.366  0.0030  0.4151  1.1803
   74GLOH   H03 9203   0.340   4.280   1.911 -0.2977  0.0336 -1.7496
   74GLOH    O1 9204   0.326   4.184   1.919 -0.0052  0.1117 -0.2636
   74GLOH    C1 9205   0.448   4.117   1.877 -0.3588 -0.3453 -0.4899
   74GLOH   H02 9206   0.440   4.011   1.904  1.1817  0.5207  3.7690
   74GLOH   H08 9207   0.530   4.161   1.933 -0.4746 -0.8777  0.1115
   74GLOH    C2 9208   0.474   4.124   1.721  0.0389  0.1488  0.1623
   74GLOH   H04 9209   0.458   4.231   1.698 -0.0859 -0.1862 -1.3854
   74GLOH    O2 9210   0.613   4.084   1.695 -0.0370 -0.5901 -0.0635
   74GLOH   H05 9211   0.673   4.149   1.735  0.0335 -2.2138  2.5531
   74GLOH    C3 9212   0.367   4.039   1.649  0.1085 -0.2294  0.0164
   74GLOH   H06 9213   0.403   4.027   1.546 -1.3305 -2.4506 -0.2755
   74GLOH   H07 9214   0.269   4.084   1.632 -0.3867 -1.6841 -1.1350
   74GLOH    O3 9215   0.349   3.904   1.690  0.6130 -0.3101 -0.1627
   74GLOH   H01 9216   0.254   3.883   1.695  0.5772 -0.2884 -0.6798
   75GLOH   H03 9217   9.605   0.362   3.012 -1.4753 -1.2508 -1.3406
   75GLOH    O1 9218   9.649   0.355   2.925  0.7010  0.2701 -0.4179
   75GLOH    C1 9219   9.595   0.236   2.862  0.2257  0.2898  0.0987
   75GLOH   H02 9220   9.490   0.222   2.886  0.5666  0.3513  1.6474
   75GLOH   H08 9221   9.641   0.149   2.909 -2.3196 -0.5314  1.1446
   75GLOH    C2 9222   9.600   0.221   2.709 -0.2304  0.0403 -0.0775
   75GLOH   H04 9223   9.574   0.116   2.692  0.8404 -0.3948  0.9753
   75GLOH    O2 9224   9.509   0.301   2.636  0.2535  0.5824  0.4549
   75GLOH   H05 9225   9.424   0.256   2.626 -0.1687  1.3741  0.4168
   75GLOH    C3 9226   9.746   0.239   2.659  0.2066  0.7573 -0.1600
   75GLOH   H06 9227   9.761   0.347   2.658  0.2714  0.8174  3.1651
   75GLOH   H07 9228   9.744   0.209   2.554 -0.3765 -0.4870  0.1979
   75GLOH    O3 9229   9.841   0.157   2.727 -0.0509  0.4616 -0.7126
   75GLOH   H01 9230   9.928   0.194   2.702  2.2369 -1.2833  4.0031
   76GLOH   H03 9231   4.338   9.881   3.559  1.3276 -0.4228 -0.9015
   76GLOH    O1 9232   4.347   9.976   3.578  0.2924 -0.5045  0.0172
   76GLOH    C1 9233   4.418   9.987   3.702 -0.2334 -0.1273  0.7673
   76GLOH   H02 9234   4.351   9.998   3.787 -0.7611 -0.6100  0.4171
   76GLOH   H08 9235   4.480  10.076   3.696  0.9890 -1.1430 -2.7119
   76GLOH    C2 9236   4.508   9.860   3.713  0.3388 -0.1252  0.5869
   76GLOH   H04 9237   4.570   9.853   3.622 -1.1702 -1.4070 -0.3636
   76GLOH    O2 9238   4.587   9.880   3.835 -0.0520  0.1135  0.1198
   76GLOH   H05 9239   4.680   9.902   3.818 -0.2817  1.4389  0.4589
   76GLOH    C3 9240   4.414   9.738   3.721 -0.4266 -0.0123 -0.3365
   76GLOH   H06 9241   4.340   9.765   3.796  1.7199  0.2404  1.7686
   76GLOH   H07 9242   4.471   9.654   3.760 -1.2874 -0.9750 -1.1278
   76GLOH    O3 9243   4.346   9.714   3.595  0.2252  0.4475  0.2357
   76GLOH   H01 9244   4.258   9.674   3.605  0.5164  0.1080  1.5921
   77GLOH   H03 9245   8.245   7.464   4.392  0.4462 -0.3408  0.5547
   77GLOH    O1 9246   8.173   7.474   4.328  0.7532 -0.5169  0.1771
   77GLOH    C1 9247   8.101   7.350   4.339 -0.6812 -0.3284  0.1469
   77GLOH   H02 9248   7.994   7.368   4.342 -0.4600  1.0889 -0.1989
   77GLOH   H08 9249   8.125   7.306   4.436  1.7888  2.1029  0.7074
   77GLOH    C2 9250   8.144   7.244   4.241 -0.7998 -0.0379  0.6452
   77GLOH   H04 9251   8.091   7.154   4.277 -0.3126 -0.5052  0.2101
   77GLOH    O2 9252   8.096   7.284   4.113 -0.0644 -0.4235  0.2695
   77GLOH   H05 9253   8.149   7.359   4.080  0.4898 -0.5346  0.8786
   77GLOH    C3 9254   8.292   7.212   4.248  0.4630 -0.4285 -0.1261
   77GLOH   H06 9255   8.361   7.295   4.234  0.3875 -0.6270 -1.7490
   77GLOH   H07 9256   8.319   7.137   4.174  1.5733 -0.5384  0.3806
   77GLOH    O3 9257   8.318   7.147   4.376  0.1001 -0.4570 -0.0164
   77GLOH   H01 9258   8.377   7.070   4.369  0.2144 -0.5796  2.0255
   78GLOH   H03 9259   7.612   0.384   3.919 -0.5820 -0.7541  3.0350
   78GLOH    O1 9260   7.590   0.478   3.932  0.1548  0.0527 -0.8233
   78GLOH    C1 9261   7.472   0.480   4.013  0.3172 -0.2761  0.0049
   78GLOH   H02 9262   7.447   0.378   4.044  0.7429 -0.7997 -1.3369
   78GLOH   H08 9263   7.399   0.511   3.938  1.9887  0.1155 -1.5223
   78GLOH    C2 9264   7.470   0.573   4.139  0.5694 -0.0709  0.4279
   78GLOH   H04 9265   7.556   0.557   4.206  1.3510 -2.9242 -1.2100
   78GLOH    O2 9266   7.484   0.711   4.098 -0.3436 -0.5223  0.1950
   78GLOH   H05 9267   7.543   0.754   4.163  0.4729 -0.4765 -0.5672
   78GLOH    C3 9268   7.339   0.546   4.216 -0.1317 -0.1919 -0.8267
   78GLOH   H06 9269   7.253   0.560   4.151 -1.9162  0.4894  1.6244
   78GLOH   H07 9270   7.333   0.622   4.294 -1.8076 -1.0949 -0.0513
   78GLOH    O3 9271   7.345   0.417   4.282 -0.3622  0.1956  0.2021
   78GLOH   H01 9272   7.293   0.356   4.226  1.3345  0.2698 -1.5075
   79GLOH   H03 9273   5.258   2.992   1.375 -1.1008 -0.3023 -0.8753
   79GLOH    O1 9274   5.324   2.932   1.335 -0.2223 -0.0037  0.0900
   79GLOH    C1 9275   5.437   3.006   1.296 -0.9108  0.2405  0.4861
   79GLOH   H02 9276   5.503   2.931   1.252 -0.5129  1.9621 -1.9347
   79GLOH   H08 9277   5.493   3.053   1.378  1.4357 -1.9980  0.2343
   79GLOH    C2 9278   5.404   3.103   1.182 -0.0223  0.3831  0.2922
   79GLOH   H04 9279   5.361   3.032   1.109  0.3589 -0.3326  0.7488
   79GLOH    O2 9280   5.309   3.203   1.210  0.0064  0.1172 -0.1664
   79GLOH   H05 9281   5.243   3.164   1.269  0.3046  1.9484  1.4276
   79GLOH    C3 9282   5.536   3.162   1.120  0.1534  0.3570  0.0174
   79GLOH   H06 9283   5.608   3.081   1.109 -0.8392 -0.5794  0.2685
   79GLOH   H07 9284   5.582   3.239   1.182  2.0917 -1.1845  0.5486
   79GLOH    O3 9285   5.523   3.220   0.992 -0.3316 -0.2554  0.0808
   79GLOH   H01 9286   5.474   3.302   1.009  1.1883  0.1992  2.7736
   80GLOH   H03 9287   4.534   8.731   3.506  0.1070 -0.1263  2.8912
   80GLOH    O1 9288   4.554   8.636   3.497  0.3854  0.2180 -0.8630
   80GLOH    C1 9289   4.676   8.629   3.574 -0.1712  1.1095 -0.1046
   80GLOH   H02 9290   4.701   8.525   3.591  1.8309  1.4600 -0.7547
   80GLOH   H08 9291   4.664   8.680   3.669  0.1181 -1.7244  1.4828
   80GLOH    C2 9292   4.793   8.702   3.505  0.9209 -0.6010 -0.6299
   80GLOH   H04 9293   4.754   8.757   3.418  0.0199 -0.4695 -0.1492
   80GLOH    O2 9294   4.839   8.803   3.599  0.3001  0.2148  0.0618
   80GLOH   H05 9295   4.878   8.764   3.679  2.8648  1.1297 -0.6855
   80GLOH    C3 9296   4.899   8.604   3.461 -0.0420  0.5426  0.4728
   80GLOH   H06 9297   4.928   8.548   3.550  0.8700 -1.0927 -0.8243
   80GLOH   H07 9298   4.985   8.662   3.428  1.6762 -0.4632  3.0239
   80GLOH    O3 9299   4.855   8.514   3.360 -0.4298  0.4348 -0.2023
   80GLOH   H01 9300   4.814   8.569   3.290  1.2547  4.3568  1.6878
   81GLOH   H03 9301   4.470   0.701   0.067  1.0555 -0.3131 -1.7290
   81GLOH    O1 9302   4.383   0.692   0.024  0.4427 -0.4379 -0.4948
   81GLOH    C1 9303   4.393   0.705  -0.120 -0.4171 -0.2557 -0.4954
   81GLOH   H02 9304   4.402   0.606  -0.165  0.3228 -0.3967 -0.0539
   81GLOH   H08 9305   4.490   0.754  -0.135 -0.0095 -0.9113 -0.0589
   81GLOH    C2 9306   4.283   0.785  -0.191 -0.0850  0.1054 -0.0148
   81GLOH   H04 9307   4.313   0.887  -0.162 -0.2518  0.4027 -0.8756
   81GLOH    O2 9308   4.288   0.779  -0.336  0.0960  0.3569  0.0579
   81GLOH   H05 9309   4.195   0.794  -0.359  0.1273  3.0562  1.4836
   81GLOH    C3 9310   4.146   0.771  -0.129 -0.2191  0.0639 -0.4754
   81GLOH   H06 9311   4.072   0.832  -0.181 -0.0603  1.6037  1.0651
   81GLOH   H07 9312   4.137   0.809  -0.027  0.1762  3.0396 -1.4925
   81GLOH    O3 9313   4.101   0.639  -0.134 -0.3595 -0.1242  0.2367
   81GLOH   H01 9314   4.093   0.610  -0.041 -0.7723  1.6979  0.7813
   82GLOH   H03 9315   2.149   9.015   1.141 -1.7879  0.1386  1.1221
   82GLOH    O1 9316   2.166   8.933   1.191  0.7886 -0.2561 -0.3284
   82GLOH    C1 9317   2.308   8.921   1.210 -0.0456 -0.3484 -0.8663
   82GLOH   H02 9318   2.369   8.906   1.121 -0.0356  1.1241 -1.1174
   82GLOH   H08 9319   2.333   8.831   1.266 -0.3686  1.0828  1.6513
   82GLOH    C2 9320   2.371   9.032   1.291  0.0763 -0.5883  0.1414
   82GLOH   H04 9321   2.468   8.991   1.323  0.1946 -1.2157 -0.9969
   82GLOH    O2 9322   2.389   9.147   1.204  0.6350 -0.1175 -0.5332
   82GLOH   H05 9323   2.300   9.172   1.173 -0.1700 -2.5480 -0.2961
   82GLOH    C3 9324   2.285   9.058   1.418 -0.2172 -0.6644  0.1637
   82GLOH   H06 9325   2.187   9.092   1.384  0.6769 -0.0755 -1.8706
   82GLOH   H07 9326   2.332   9.141   1.471 -0.1395 -1.1940  0.9287
   82GLOH    O3 9327   2.269   8.952   1.511 -0.6477 -0.5306 -0.1151
   82GLOH   H01 9328   2.324   8.976   1.588  0.0030 -0.7578 -0.5020
   83GLOH   H03 9329   1.724   5.299   2.820 -0.4544  2.1334 -0.6004
   83GLOH    O1 9330   1.684   5.319   2.906  0.3234 -0.3049  0.3843
   83GLOH    C1 9331   1.686   5.209   3.005 -0.7288  0.2923 -0.9722
   83GLOH   H02 9332   1.721   5.246   3.101 -0.0272 -2.7337  0.0011
   83GLOH   H08 9333   1.766   5.140   2.977 -0.9187  0.5868 -2.2921
   83GLOH    C2 9334   1.557   5.132   3.027 -0.5927 -0.1545  0.6029
   83GLOH   H04 9335   1.581   5.046   3.092 -0.4498 -0.7532 -0.2352
   83GLOH    O2 9336   1.454   5.214   3.085  0.5479 -0.0999 -0.0953
   83GLOH   H05 9337   1.470   5.307   3.066  1.7495 -0.6046 -1.6220
   83GLOH    C3 9338   1.510   5.083   2.888  0.6709  0.4516 -0.1642
   83GLOH   H06 9339   1.487   5.166   2.821  1.1742  1.2870  0.6935
   83GLOH   H07 9340   1.414   5.030   2.892  0.9265 -0.0639 -0.8537
   83GLOH    O3 9341   1.613   5.007   2.816 -0.7421 -0.2618 -0.0490
   83GLOH   H01 9342   1.638   4.927   2.865 -1.1828  0.0396  0.6788
   84GLOH   H03 9343   8.874   8.958   4.765  0.2515  0.4555  0.7828
   84GLOH    O1 9344   8.851   8.978   4.672  0.1967 -0.3227  0.6282
   84GLOH    C1 9345   8.934   9.095   4.638 -0.1484 -0.4068 -0.0862
   84GLOH   H02 9346   9.028   9.068   4.590 -0.6214 -0.9580 -0.7165
   84GLOH   H08 9347   8.961   9.138   4.735  0.0368  0.8680 -0.7025
   84GLOH    C2 9348   8.862   9.201   4.555 -0.0444  0.1061  0.0567
   84GLOH   H04 9349   8.786   9.242   4.623 -1.9208 -1.1950 -1.2119
   84GLOH    O2 9350   8.957   9.298   4.507  0.5981 -0.6053  0.4440
   84GLOH   H05 9351   8.938   9.383   4.552  0.8876 -1.0213  1.3559
   84GLOH    C3 9352   8.807   9.129   4.427 -0.0562  0.5128  0.2646
   84GLOH   H06 9353   8.896   9.086   4.380 -0.7374 -0.0873 -0.4869
   84GLOH   H07 9354   8.771   9.205   4.357 -1.0646  0.3314  0.5782
   84GLOH    O3 9355   8.707   9.029   4.463  0.2546 -0.3619  0.5192
   84GLOH   H01 9356   8.751   8.994   4.543  1.8148  0.9206  0.2588
   85GLOH   H03 9357   3.500   0.107   3.733  0.5943 -0.2893 -1.7060
   85GLOH    O1 9358   3.436   0.147   3.671 -0.3402  0.9803  0.0265
   85GLOH    C1 9359   3.451   0.295   3.668  0.1390  0.0262 -0.0843
   85GLOH   H02 9360   3.365   0.329   3.610 -1.0003  0.9064  2.0542
   85GLOH   H08 9361   3.540   0.312   3.607 -0.0561 -0.2250 -0.4448
   85GLOH    C2 9362   3.456   0.367   3.797  0.2763  0.2472  0.3312
   85GLOH   H04 9363   3.363   0.341   3.851 -1.4773  2.9008 -1.2840
   85GLOH    O2 9364   3.577   0.332   3.870  0.3649  0.8168 -0.5469
   85GLOH   H05 9365   3.655   0.363   3.820  0.6591  0.9268 -0.0200
   85GLOH    C3 9366   3.454   0.525   3.769 -0.0594 -0.7346 -0.2466
   85GLOH   H06 9367   3.476   0.576   3.862 -2.1496 -0.0592 -0.1069
   85GLOH   H07 9368   3.351   0.550   3.744 -0.1548 -0.9013 -0.0117
   85GLOH    O3 9369   3.540   0.568   3.663  0.3046 -0.4294  0.3511
   85GLOH   H01 9370   3.611   0.627   3.692 -1.5674  1.4434  1.2652
   86GLOH   H03 9371   9.240   4.049   0.336  1.2023 -0.4256 -0.2688
   86GLOH    O1 9372   9.282   4.130   0.369  0.0368  0.1051 -0.0513
   86GLOH    C1 9373   9.212   4.245   0.320  0.3970 -0.2025  0.3409
   86GLOH   H02 9374   9.184   4.229   0.216  0.4878 -2.4136  0.6171
   86GLOH   H08 9375   9.272   4.335   0.331 -0.4863  0.3721  0.5499
   86GLOH    C2 9376   9.075   4.259   0.401 -0.1477  0.6832 -0.8856
   86GLOH   H04 9377   9.007   4.339   0.370 -0.4132  0.6627 -0.3626
   86GLOH    O2 9378   8.998   4.139   0.380  0.5609 -0.1815  0.1703
   86GLOH   H05 9379   8.984   4.131   0.284 -1.3600  3.1541  0.0972
   86GLOH    C3 9380   9.095   4.274   0.555  0.3331 -0.2745  0.6840
   86GLOH   H06 9381   9.149   4.184   0.584  0.6964 -0.6637 -1.1513
   86GLOH   H07 9382   9.007   4.265   0.618  0.7461 -1.6364  1.0830
   86GLOH    O3 9383   9.173   4.392   0.584 -0.2626 -0.2203  0.6856
   86GLOH   H01 9384   9.111   4.460   0.616  0.5208  0.4113  0.8719
   87GLOH   H03 9385   8.867   2.000   3.229  0.6097  1.3246 -2.4911
   87GLOH    O1 9386   8.858   1.917   3.179 -0.3714  0.2756 -0.6377
   87GLOH    C1 9387   8.732   1.929   3.110 -0.3505 -0.5005 -0.1096
   87GLOH   H02 9388   8.737   1.990   3.020 -1.2540 -0.3645 -0.0696
   87GLOH   H08 9389   8.659   1.972   3.179  1.9676  1.1070  1.4237
   87GLOH    C2 9390   8.680   1.787   3.065 -0.3070  0.4094  0.2688
   87GLOH   H04 9391   8.667   1.725   3.155  0.4811  1.3087  1.0123
   87GLOH    O2 9392   8.556   1.795   2.995 -0.2095  0.0393  0.4859
   87GLOH   H05 9393   8.562   1.757   2.906  0.8180  0.1316  0.5138
   87GLOH    C3 9394   8.784   1.731   2.965 -0.8966 -0.2357  0.0984
   87GLOH   H06 9395   8.785   1.793   2.874  1.4249 -1.0308 -0.4375
   87GLOH   H07 9396   8.751   1.632   2.933 -0.8438  0.4816 -2.2631
   87GLOH    O3 9397   8.914   1.720   3.025  0.7829 -0.8695 -0.1340
   87GLOH   H01 9398   8.913   1.785   3.097 -2.0424 -0.6782 -0.2936
   88GLOH   H03 9399   5.327   5.023   1.252  0.0097 -0.6998 -0.3153
   88GLOH    O1 9400   5.230   5.030   1.251  0.0201 -0.4189  0.8340
   88GLOH    C1 9401   5.198   5.021   1.388  0.1239 -0.3939 -0.6770
   88GLOH   H02 9402   5.097   5.060   1.403  1.1365  2.2484 -0.3958
   88GLOH   H08 9403   5.265   5.075   1.455  1.2661 -0.5597 -1.6670
   88GLOH    C2 9404   5.190   4.880   1.446 -0.1073  0.0944 -0.3229
   88GLOH   H04 9405   5.285   4.829   1.422 -0.4406 -0.0856 -1.2541
   88GLOH    O2 9406   5.161   4.880   1.589 -0.2348  0.4530 -0.2971
   88GLOH   H05 9407   5.080   4.826   1.596  0.5185 -0.7846 -0.9922
   88GLOH    C3 9408   5.070   4.814   1.382 -0.4287 -0.0531 -0.1635
   88GLOH   H06 9409   4.972   4.847   1.416 -1.2705 -2.0108 -0.5896
   88GLOH   H07 9410   5.079   4.707   1.401  1.7097  0.0767 -0.2978
   88GLOH    O3 9411   5.091   4.834   1.243 -0.3850  0.5236 -0.1870
   88GLOH   H01 9412   5.140   4.917   1.230  0.0141  0.4160  0.6464
   89GLOH   H03 9413   7.107   8.398   2.863 -1.0563  0.7126  0.0146
   89GLOH    O1 9414   7.055   8.370   2.785 -0.8473 -0.1476  0.1712
   89GLOH    C1 9415   6.980   8.254   2.814  0.4677  0.0804 -0.5700
   89GLOH   H02 9416   7.038   8.185   2.875 -1.8654 -1.6024 -0.1732
   89GLOH   H08 9417   6.965   8.194   2.724  0.2659 -1.3781  0.4232
   89GLOH    C2 9418   6.835   8.287   2.862 -0.0739  0.1515 -0.3570
   89GLOH   H04 9419   6.786   8.362   2.799 -1.1286 -0.3037 -0.0793
   89GLOH    O2 9420   6.756   8.164   2.841 -0.0339  0.1235  0.3983
   89GLOH   H05 9421   6.807   8.106   2.782 -0.6912 -0.5143  0.4499
   89GLOH    C3 9422   6.837   8.336   3.010  0.3488 -0.3377  1.2746
   89GLOH   H06 9423   6.848   8.249   3.075  0.4774 -0.7673  0.6779
   89GLOH   H07 9424   6.740   8.380   3.032  0.2727  0.5742 -0.7228
   89GLOH    O3 9425   6.948   8.425   3.029  0.1869 -0.5240  0.0322
   89GLOH   H01 9426   6.978   8.438   3.121  0.8258  0.6799 -0.3403
   90GLOH   H03 9427   4.166   1.851   3.596  1.6238 -0.2190 -0.8733
   90GLOH    O1 9428   4.154   1.871   3.691  0.7480 -0.3267 -0.9580
   90GLOH    C1 9429   4.023   1.931   3.719 -0.4218  0.2857 -0.1757
   90GLOH   H02 9430   3.980   1.872   3.801 -0.9467  0.9139  0.0086
   90GLOH   H08 9431   3.953   1.916   3.636  0.3711  0.0475 -0.8032
   90GLOH    C2 9432   4.038   2.075   3.773  0.3446  0.7862 -0.5015
   90GLOH   H04 9433   4.115   2.131   3.719  0.5078  1.0134 -0.0417
   90GLOH    O2 9434   3.915   2.151   3.768  0.2849  0.4369 -0.4510
   90GLOH   H05 9435   3.873   2.133   3.682 -1.3614 -0.3104  0.4864
   90GLOH    C3 9436   4.086   2.058   3.919  0.0924  0.2624  0.2894
   90GLOH   H06 9437   4.006   2.019   3.982 -1.9034  1.7709 -1.2442
   90GLOH   H07 9438   4.125   2.153   3.953  0.7372 -0.5046  1.7267
   90GLOH    O3 9439   4.194   1.966   3.932 -0.0326  0.2138  0.5955
   90GLOH   H01 9440   4.176   1.921   3.848  1.1483  1.0186 -0.0922
   91GLOH   H03 9441   6.641   0.645   2.333  1.0330  1.4688  0.0830
   91GLOH    O1 9442   6.568   0.703   2.362  0.6236  0.6997  0.6139
   91GLOH    C1 9443   6.601   0.782   2.476  0.7240  0.5939 -0.7666
   91GLOH   H02 9444   6.670   0.861   2.449  2.3828 -0.7523 -0.5344
   91GLOH   H08 9445   6.645   0.721   2.555 -0.6301  0.5524 -0.0224
   91GLOH    C2 9446   6.467   0.850   2.511 -0.4832 -0.7786  0.4009
   91GLOH   H04 9447   6.379   0.784   2.510 -1.8028  0.9514 -1.5726
   91GLOH    O2 9448   6.473   0.912   2.639  0.8354 -0.1578  0.3094
   91GLOH   H05 9449   6.398   0.881   2.692  0.7329  0.3443  0.4563
   91GLOH    C3 9450   6.433   0.959   2.405 -0.5028  0.1387  0.5764
   91GLOH   H06 9451   6.521   1.018   2.378  0.9052 -1.7821  0.9164
   91GLOH   H07 9452   6.364   1.034   2.445  0.1268  0.8858  0.2730
   91GLOH    O3 9453   6.393   0.893   2.287  0.0962  0.3646 -0.0137
   91GLOH   H01 9454   6.423   0.801   2.297  0.0028  0.1273 -1.7127
   92GLOH   H03 9455   4.863   3.114   1.867 -0.0448 -1.3986 -0.4232
   92GLOH    O1 9456   4.862   3.128   1.770  0.1072  0.8062 -0.1363
   92GLOH    C1 9457   4.731   3.158   1.725 -0.0287  0.3340  0.6673
   92GLOH   H02 9458   4.686   3.066   1.687 -2.3980  1.3313  0.9598
   92GLOH   H08 9459   4.725   3.240   1.653  1.2919  0.6096  0.8556
   92GLOH    C2 9460   4.644   3.215   1.842  0.1148  0.0907 -0.4103
   92GLOH   H04 9461   4.544   3.219   1.797  0.6095 -0.9041 -1.6492
   92GLOH    O2 9462   4.629   3.118   1.946  0.4757  0.5784  0.3015
   92GLOH   H05 9463   4.535   3.128   1.970 -0.2134 -0.8578 -1.6826
   92GLOH    C3 9464   4.681   3.352   1.901 -0.7173 -0.0904  0.0132
   92GLOH   H06 9465   4.784   3.337   1.933 -0.7212  1.3133  0.7120
   92GLOH   H07 9466   4.628   3.380   1.992 -1.8594 -0.6227 -0.4740
   92GLOH    O3 9467   4.678   3.456   1.803 -0.2503 -0.4816  0.0457
   92GLOH   H01 9468   4.587   3.466   1.772 -0.1560  0.9637  0.1995
   93GLOH   H03 9469   3.107   9.263   0.302 -0.6168  0.3517 -4.5331
   93GLOH    O1 9470   3.168   9.188   0.290  0.0678  0.1685 -0.5404
   93GLOH    C1 9471   3.089   9.069   0.322  0.0811 -0.0965 -0.1229
   93GLOH   H02 9472   3.025   9.029   0.244 -0.1330 -0.9231  0.4690
   93GLOH   H08 9473   3.023   9.090   0.406 -0.1106 -1.3188  0.0396
   93GLOH    C2 9474   3.182   8.950   0.364 -0.0410 -0.6480 -0.2489
   93GLOH   H04 9475   3.240   8.991   0.448 -0.5773  1.3938 -0.8359
   93GLOH    O2 9476   3.103   8.834   0.407 -0.8767  0.6849 -0.5186
   93GLOH   H05 9477   3.173   8.776   0.442  0.4102  0.9417 -2.5586
   93GLOH    C3 9478   3.272   8.910   0.248  0.0980 -0.1003 -0.0385
   93GLOH   H06 9479   3.325   8.998   0.213  0.7297 -0.3872  0.1883
   93GLOH   H07 9480   3.201   8.881   0.170 -2.3818 -0.4531  2.2445
   93GLOH    O3 9481   3.356   8.799   0.287 -0.1315  0.4828 -0.3802
   93GLOH   H01 9482   3.353   8.732   0.216 -1.4132 -1.1679  1.1528
   94GLOH   H03 9483   7.272   3.972   0.459 -0.5729 -0.1383  0.6078
   94GLOH    O1 9484   7.232   4.060   0.448  0.2427  0.2246  0.4950
   94GLOH    C1 9485   7.318   4.160   0.500  0.0594  0.3196  0.3377
   94GLOH   H02 9486   7.416   4.139   0.456 -0.6388  2.8975 -2.6585
   94GLOH   H08 9487   7.333   4.141   0.606  3.0028  0.8376  0.0534
   94GLOH    C2 9488   7.284   4.300   0.463 -0.3919  0.4069  0.6289
   94GLOH   H04 9489   7.185   4.333   0.496  0.1892  2.1518  0.6601
   94GLOH    O2 9490   7.396   4.371   0.523  0.0132  0.0376  0.4453
   94GLOH   H05 9491   7.358   4.448   0.568 -3.4258 -2.3303  1.8546
   94GLOH    C3 9492   7.296   4.318   0.307 -0.3936  0.4163 -0.1003
   94GLOH   H06 9493   7.402   4.311   0.281  0.0167 -0.8424  1.7587
   94GLOH   H07 9494   7.262   4.418   0.283 -1.2565 -0.3124 -2.0084
   94GLOH    O3 9495   7.229   4.213   0.234 -0.2805 -0.5950 -0.2848
   94GLOH   H01 9496   7.236   4.141   0.300 -1.2603 -0.6395 -0.2242
   95GLOH   H03 9497   2.799   2.218   2.311 -0.5664  0.3702  0.0680
   95GLOH    O1 9498   2.866   2.149   2.327 -0.6843  0.3763  0.6037
   95GLOH    C1 9499   2.976   2.215   2.380 -0.1433 -0.2375  0.4393
   95GLOH   H02 9500   2.953   2.285   2.460 -0.8193 -1.9644  1.7783
   95GLOH   H08 9501   3.026   2.279   2.307  2.0229 -1.7285  0.5882
   95GLOH    C2 9502   3.082   2.116   2.435 -0.4180  0.2999 -0.2544
   95GLOH   H04 9503   3.158   2.096   2.358 -1.4441 -1.7301 -0.7619
   95GLOH    O2 9504   3.158   2.193   2.528  0.3426 -0.2541 -0.2894
   95GLOH   H05 9505   3.209   2.139   2.591  0.4486 -1.7817 -1.6314
   95GLOH    C3 9506   3.020   1.979   2.485 -0.1276 -0.2004 -0.3590
   95GLOH   H06 9507   2.949   1.940   2.412 -0.1816 -1.0694  0.1548
   95GLOH   H07 9508   2.962   1.994   2.576 -0.0116 -4.1598  0.4415
   95GLOH    O3 9509   3.124   1.886   2.504  0.2088  0.7850  0.9632
   95GLOH   H01 9510   3.078   1.802   2.521 -0.4622  1.2248  1.3200
   96GLOH   H03 9511   0.833   3.712   1.560 -0.9628 -0.9867 -0.9673
   96GLOH    O1 9512   0.876   3.742   1.477 -0.5319  0.3169 -0.2902
   96GLOH    C1 9513   0.845   3.639   1.384 -0.4111 -0.0738  0.0645
   96GLOH   H02 9514   0.772   3.669   1.308 -0.9208 -1.2424  0.0923
   96GLOH   H08 9515   0.811   3.550   1.435  1.2965  0.6641  2.5458
   96GLOH    C2 9516   0.968   3.611   1.285 -0.5962 -0.4210  0.1500
   96GLOH   H04 9517   1.024   3.539   1.347  0.4391  1.0859  1.0172
   96GLOH    O2 9518   0.921   3.548   1.164 -0.4904 -0.2596  0.7174
   96GLOH   H05 9519   0.956   3.458   1.152 -0.1000  0.1580 -1.7042
   96GLOH    C3 9520   1.050   3.741   1.252 -0.7824  0.0949 -0.0428
   96GLOH   H06 9521   1.003   3.801   1.175 -0.3874 -0.4865 -0.7447
   96GLOH   H07 9522   1.142   3.704   1.205  2.2015  3.7231  2.6322
   96GLOH    O3 9523   1.094   3.816   1.363 -0.3645  0.0058  0.4119
   96GLOH   H01 9524   1.045   3.801   1.445  0.2916  0.9325  0.9778
   97GLOH   H03 9525   2.799   5.612   3.015  0.0581  2.6188  2.2235
   97GLOH    O1 9526   2.809   5.662   2.932 -0.3775 -0.1161  0.4857
   97GLOH    C1 9527   2.681   5.687   2.871 -0.3133 -0.4518 -0.7819
   97GLOH   H02 9528   2.700   5.727   2.771 -1.6218 -1.6083 -1.5219
   97GLOH   H08 9529   2.617   5.762   2.917 -0.3827 -0.5860 -0.6609
   97GLOH    C2 9530   2.606   5.555   2.851  0.2672 -0.0957 -0.8320
   97GLOH   H04 9531   2.656   5.496   2.773  0.4354 -0.2465 -0.6103
   97GLOH    O2 9532   2.579   5.479   2.970  0.1807  0.0707  0.6422
   97GLOH   H05 9533   2.661   5.433   2.996  1.0987  2.2050  1.6260
   97GLOH    C3 9534   2.466   5.593   2.791  0.7596  0.6073  0.4230
   97GLOH   H06 9535   2.414   5.658   2.861  2.0830  0.9528  1.1162
   97GLOH   H07 9536   2.400   5.507   2.783  0.2665  1.0199  0.0528
   97GLOH    O3 9537   2.465   5.656   2.664  0.1621 -0.2866 -0.3511
   97GLOH   H01 9538   2.469   5.752   2.674  0.7928 -0.4412  0.9629
   98GLOH   H03 9539   4.220   7.481   4.438 -1.9900 -2.7767  2.4201
   98GLOH    O1 9540   4.142   7.477   4.380 -0.3116 -0.1928 -0.1590
   98GLOH    C1 9541   4.119   7.346   4.322 -0.5188 -0.6380  0.2197
   98GLOH   H02 9542   4.020   7.310   4.350 -0.3468 -1.1492  0.1883
   98GLOH   H08 9543   4.192   7.273   4.359  0.4644  1.1411  1.8773
   98GLOH    C2 9544   4.125   7.344   4.169 -0.2021  0.8501 -0.1102
   98GLOH   H04 9545   4.218   7.395   4.139  0.2126 -0.4869 -1.1318
   98GLOH    O2 9546   4.118   7.213   4.109  0.3833  0.2706 -0.4610
   98GLOH   H05 9547   4.205   7.193   4.071  0.6005 -2.3945  1.3750
   98GLOH    C3 9548   4.007   7.433   4.116  0.1486 -0.1447  0.3162
   98GLOH   H06 9549   3.923   7.392   4.171 -0.0069 -0.1427  0.0789
   98GLOH   H07 9550   3.989   7.417   4.010  1.2968 -1.1249  0.2632
   98GLOH    O3 9551   4.011   7.577   4.141 -0.6919 -0.5791  0.4671
   98GLOH   H01 9552   4.063   7.576   4.223  0.8693  0.1857 -0.5066
   99GLOH   H03 9553   3.618   6.962   3.755 -1.2908  0.2230  1.7119
   99GLOH    O1 9554   3.661   6.914   3.828 -0.0011 -0.1346  0.7434
   99GLOH    C1 9555   3.794   6.968   3.823 -0.4324 -0.1763 -0.0654
   99GLOH   H02 9556   3.785   7.074   3.800  0.3499 -0.2773 -0.8788
   99GLOH   H08 9557   3.853   6.928   3.740 -0.9687 -0.6238 -0.2361
   99GLOH    C2 9558   3.875   6.959   3.953  0.6954 -0.1055 -0.0716
   99GLOH   H04 9559   3.885   6.854   3.984 -2.1572 -0.6802 -0.9198
   99GLOH    O2 9560   4.007   7.015   3.937 -0.2749  0.2431  0.0284
   99GLOH   H05 9561   4.035   7.078   4.005  0.8816  1.1698 -1.2821
   99GLOH    C3 9562   3.799   7.032   4.067  0.1416 -0.3150  0.2378
   99GLOH   H06 9563   3.843   7.000   4.161 -2.4559  0.3094  1.7032
   99GLOH   H07 9564   3.696   6.996   4.073 -0.2061  0.7961  1.1348
   99GLOH    O3 9565   3.795   7.174   4.064 -0.2541  0.6690 -0.3202
   99GLOH   H01 9566   3.743   7.206   4.140 -0.6467 -0.2735 -0.1849
  100GLOH   H03 9567   5.113   0.880   1.436  0.3962 -0.6683 -1.8928
  100GLOH    O1 9568   5.097   0.788   1.464  0.2380 -0.1637 -0.2515
  100GLOH    C1 9569   5.059   0.713   1.349 -0.6346  0.6586  0.1108
  100GLOH   H02 9570   5.149   0.660   1.316  1.8008  4.2955  0.5706
  100GLOH   H08 9571   5.027   0.781   1.269 -1.2384 -1.8030 -1.8026
  100GLOH    C2 9572   4.954   0.605   1.385 -0.3939 -0.0557 -0.8096
  100GLOH   H04 9573   4.927   0.541   1.300 -0.9159 -1.0004  0.0590
  100GLOH    O2 9574   5.001   0.508   1.481  0.2828  0.8481  1.2163
  100GLOH   H05 9575   5.073   0.555   1.527 -0.3085  2.1190  0.8397
  100GLOH    C3 9576   4.826   0.678   1.434 -0.4174 -0.4969  0.5646
  100GLOH   H06 9577   4.849   0.740   1.521  0.4602 -0.6350  0.4379
  100GLOH   H07 9578   4.749   0.610   1.471 -1.4670  0.4081  0.0636
  100GLOH    O3 9579   4.764   0.759   1.334 -0.1951 -0.3909  0.2575
  100GLOH   H01 9580   4.767   0.850   1.369 -0.8163  0.3116 -1.4986
  101GLOH   H03 9581   3.798   4.614   4.613 -0.6210  0.0370 -1.3527
  101GLOH    O1 9582   3.796   4.711   4.624  0.0871 -0.1068  0.2619
  101GLOH    C1 9583   3.930   4.748   4.649 -0.8209  0.1485 -0.4495
  101GLOH   H02 9584   3.965   4.705   4.742  0.7810  1.9300 -0.1950
  101GLOH   H08 9585   3.940   4.855   4.669  2.5919 -0.3633  0.9794
  101GLOH    C2 9586   4.037   4.709   4.553  0.2852  0.2339  0.9958
  101GLOH   H04 9587   4.133   4.754   4.584  1.6440  0.7909 -3.6242
  101GLOH    O2 9588   4.052   4.567   4.529  0.5101 -0.3516 -0.0038
  101GLOH   H05 9589   4.136   4.539   4.568  0.9914  1.6256  0.4219
  101GLOH    C3 9590   4.016   4.771   4.416  0.1106 -0.8577 -0.5977
  101GLOH   H06 9591   3.908   4.771   4.401  0.1610 -0.7739 -0.9615
  101GLOH   H07 9592   4.066   4.710   4.341  0.5162  0.7092 -1.6346
  101GLOH    O3 9593   4.062   4.904   4.396 -0.4636 -0.7660 -0.5806
  101GLOH   H01 9594   4.159   4.910   4.386 -0.7238  0.1009 -3.2751
  102GLOH   H03 9595   2.922   9.558   2.480 -1.3580  0.8033  1.3699
  102GLOH    O1 9596   2.980   9.516   2.547 -0.2150 -0.2320 -0.2305
  102GLOH    C1 9597   2.922   9.391   2.592  0.2982 -1.1462  0.3211
  102GLOH   H02 9598   2.894   9.330   2.506  0.2051 -0.6529  0.0030
  102GLOH   H08 9599   2.831   9.410   2.648  1.6108  0.2277  2.0713
  102GLOH    C2 9600   3.018   9.316   2.689  0.1865  0.5399 -0.2035
  102GLOH   H04 9601   3.045   9.380   2.774 -1.2235 -0.3138  0.9146
  102GLOH    O2 9602   2.946   9.202   2.742 -0.2145 -0.2945 -0.2952
  102GLOH   H05 9603   2.855   9.227   2.764  0.6111  2.7830 -0.2380
  102GLOH    C3 9604   3.152   9.279   2.614 -0.0416 -0.4234  0.2675
  102GLOH   H06 9605   3.176   9.365   2.550 -1.2931 -0.6403 -0.5202
  102GLOH   H07 9606   3.139   9.190   2.553  0.1751 -1.3105  1.5044
  102GLOH    O3 9607   3.257   9.238   2.700  0.6037 -0.2328  0.2621
  102GLOH   H01 9608   3.298   9.317   2.740  0.5084  0.7900 -1.5765
  103GLOH   H03 9609   7.969   6.174   0.329 -0.2512  1.2439  1.0014
  103GLOH    O1 9610   7.969   6.239   0.257  0.4048  0.0637 -0.0893
  103GLOH    C1 9611   8.007   6.366   0.306 -0.1078 -0.0221  0.1083
  103GLOH   H02 9612   7.929   6.414   0.365 -0.6285  0.9230 -1.3323
  103GLOH   H08 9613   8.029   6.438   0.227 -1.4563  0.3929  0.1039
  103GLOH    C2 9614   8.123   6.342   0.404  0.5172  0.0864 -0.3200
  103GLOH   H04 9615   8.204   6.293   0.346 -0.5621  0.6171 -2.3287
  103GLOH    O2 9616   8.165   6.469   0.457 -0.2623 -0.7775  0.5061
  103GLOH   H05 9617   8.247   6.495   0.411 -0.5946  0.6174  0.6557
  103GLOH    C3 9618   8.083   6.246   0.517  0.2775 -0.1581  0.2204
  103GLOH   H06 9619   8.005   6.304   0.566  1.1687  1.6555 -0.4709
  103GLOH   H07 9620   8.166   6.233   0.586 -0.5709  0.6569  1.4048
  103GLOH    O3 9621   8.039   6.117   0.477  0.3060 -0.0920  0.1120
  103GLOH   H01 9622   8.030   6.052   0.550 -0.7265 -1.4664 -1.2020
  104GLOH   H03 9623   0.321   8.301   4.721 -0.8892 -1.3712 -1.0932
  104GLOH    O1 9624   0.359   8.254   4.797 -0.3010  0.2115 -0.3875
  104GLOH    C1 9625   0.303   8.324   4.907 -0.2062 -0.8177  0.4341
  104GLOH   H02 9626   0.284   8.251   4.986 -1.3894 -0.2423  0.6872
  104GLOH   H08 9627   0.205   8.362   4.879 -0.7515 -1.8070  0.9595
  104GLOH    C2 9628   0.400   8.443   4.958  0.7349  0.4159 -0.5503
  104GLOH   H04 9629   0.453   8.480   4.869  1.8913 -0.3707 -0.2054
  104GLOH    O2 9630   0.324   8.549   5.015 -0.0757  0.3256  0.0879
  104GLOH   H05 9631   0.228   8.536   5.025 -0.1501 -0.5839 -1.5389
  104GLOH    C3 9632   0.510   8.387   5.051  0.7928 -0.1734  0.1477
  104GLOH   H06 9633   0.559   8.473   5.096  1.1262 -0.8877  1.1897
  104GLOH   H07 9634   0.577   8.320   4.997  0.1538 -1.4471  0.9094
  104GLOH    O3 9635   0.458   8.308   5.156  0.0675  0.2755 -0.2529
  104GLOH   H01 9636   0.523   8.317   5.228 -0.1395  0.3567 -0.0781
  105GLOH   H03 9637   1.141   2.144   1.186  0.1605 -1.0583  1.0404
  105GLOH    O1 9638   1.153   2.051   1.160  0.3827 -0.8042  0.2071
  105GLOH    C1 9639   1.136   1.982   1.285 -0.0233  0.1544  0.4030
  105GLOH   H02 9640   1.077   1.892   1.269 -0.5245  0.6777 -0.7459
  105GLOH   H08 9641   1.092   2.051   1.356 -2.4613 -2.3303  1.3708
  105GLOH    C2 9642   1.270   1.931   1.335  0.2790  0.3138  0.0880
  105GLOH   H04 9643   1.322   2.021   1.369  0.6718 -0.2838  1.0607
  105GLOH    O2 9644   1.258   1.841   1.444 -0.3250 -0.5453 -0.1847
  105GLOH   H05 9645   1.256   1.888   1.529  0.1208  1.4642 -1.2645
  105GLOH    C3 9646   1.342   1.848   1.226  0.3399 -0.2304 -0.0198
  105GLOH   H06 9647   1.272   1.771   1.195 -0.8233 -0.0462  2.0674
  105GLOH   H07 9648   1.429   1.792   1.261  1.3984  1.7920  0.6784
  105GLOH    O3 9649   1.368   1.938   1.117 -0.4715 -0.0305 -0.5938
  105GLOH   H01 9650   1.282   1.984   1.113  0.4680  1.9402  1.2418
  106GLOH   H03 9651   2.622   6.598   2.216 -1.3028  0.5272  0.9328
  106GLOH    O1 9652   2.695   6.635   2.269  0.0508 -0.1761 -0.4139
  106GLOH    C1 9653   2.820   6.564   2.244 -0.2957  0.3050  0.3867
  106GLOH   H02 9654   2.792   6.461   2.222  2.1016 -0.1358 -0.7922
  106GLOH   H08 9655   2.879   6.556   2.335 -0.8595  2.3511  0.9593
  106GLOH    C2 9656   2.900   6.627   2.128 -0.6396 -0.5039  0.1254
  106GLOH   H04 9657   2.933   6.728   2.156  1.6832 -0.6979 -1.7375
  106GLOH    O2 9658   3.009   6.546   2.095  0.3454 -0.3059 -0.0429
  106GLOH   H05 9659   3.078   6.610   2.072 -0.7137  0.1261 -2.0860
  106GLOH    C3 9660   2.811   6.649   2.001 -0.7702  0.0332 -0.5935
  106GLOH   H06 9661   2.729   6.717   2.026  0.0924  0.6677  0.5793
  106GLOH   H07 9662   2.765   6.553   1.978  1.3331 -0.8087 -1.4541
  106GLOH    O3 9663   2.888   6.703   1.889  0.6076  0.3118  0.3061
  106GLOH   H01 9664   2.902   6.796   1.914 -1.1425  0.0366  2.3448
  107GLOH   H03 9665   7.911   4.708   0.270 -0.7197  0.4661 -0.0032
  107GLOH    O1 9666   7.918   4.613   0.251 -0.2409  0.4174  0.4083
  107GLOH    C1 9667   7.800   4.549   0.306  0.1277 -0.4264 -0.4772
  107GLOH   H02 9668   7.786   4.448   0.269  3.2622 -1.3568  0.6655
  107GLOH   H08 9669   7.718   4.610   0.270  1.2424  0.1102 -2.1642
  107GLOH    C2 9670   7.802   4.551   0.457  0.0849 -0.4093 -0.0637
  107GLOH   H04 9671   7.877   4.479   0.495  0.1671 -0.1217  0.3241
  107GLOH    O2 9672   7.815   4.686   0.510  0.2157  0.4088 -0.4726
  107GLOH   H05 9673   7.876   4.693   0.585 -1.6249  2.7687  0.8758
  107GLOH    C3 9674   7.672   4.498   0.516  0.8591  0.1409 -0.2323
  107GLOH   H06 9675   7.593   4.571   0.498  1.7549  1.3037  0.4477
  107GLOH   H07 9676   7.678   4.492   0.624 -0.4483 -1.0129 -0.2139
  107GLOH    O3 9677   7.641   4.374   0.463  0.0639 -0.1674 -0.1557
  107GLOH   H01 9678   7.544   4.367   0.455  0.1137 -0.0485 -0.9352
  108GLOH   H03 9679   6.524   1.042   2.687  1.2000  0.2837 -0.4047
  108GLOH    O1 9680   6.539   1.135   2.710  0.1249  0.4135 -0.2221
  108GLOH    C1 9681   6.676   1.146   2.766 -0.0257 -0.5107  0.1032
  108GLOH   H02 9682   6.693   1.109   2.867  0.3015  0.8805  0.5668
  108GLOH   H08 9683   6.693   1.250   2.790  1.0034 -0.6877  0.1704
  108GLOH    C2 9684   6.794   1.093   2.682 -0.2501  0.2240  0.0240
  108GLOH   H04 9685   6.875   1.143   2.737  0.8686 -1.4253 -0.0911
  108GLOH    O2 9686   6.830   0.952   2.682  0.0941  0.8044 -0.3285
  108GLOH   H05 9687   6.837   0.923   2.775 -0.5193 -1.0929 -0.8351
  108GLOH    C3 9688   6.783   1.149   2.542  0.4830  0.0215 -0.1887
  108GLOH   H06 9689   6.738   1.069   2.483 -2.3594  1.4897 -0.1067
  108GLOH   H07 9690   6.885   1.174   2.512  0.2501  1.4911  0.2347
  108GLOH    O3 9691   6.724   1.280   2.540  0.3706  0.4616  0.9856
  108GLOH   H01 9692   6.790   1.352   2.540 -1.3995  2.1201 -0.3753
  109GLOH   H03 9693   3.110   2.645   0.913 -0.7433 -0.7990  1.9192
  109GLOH    O1 9694   3.136   2.551   0.921  0.6037 -0.6528 -0.1877
  109GLOH    C1 9695   3.162   2.522   1.066 -0.0696  0.9315 -0.5880
  109GLOH   H02 9696   3.080   2.456   1.093  0.3476  0.4148 -0.5884
  109GLOH   H08 9697   3.149   2.616   1.120 -1.3315  1.8184 -2.4075
  109GLOH    C2 9698   3.291   2.441   1.078 -0.4934  0.5241  0.0023
  109GLOH   H04 9699   3.364   2.505   1.027  0.1093  0.6328  0.9932
  109GLOH    O2 9700   3.337   2.433   1.210  0.2780  0.3054 -0.0727
  109GLOH   H05 9701   3.343   2.522   1.249  0.2017  0.2552  0.0528
  109GLOH    C3 9702   3.266   2.305   1.018  1.0841  0.0412  0.3312
  109GLOH   H06 9703   3.202   2.254   1.089  1.6469  0.5709  1.2357
  109GLOH   H07 9704   3.355   2.242   1.012 -1.3079 -3.6047  1.4229
  109GLOH    O3 9705   3.217   2.323   0.882  0.0355 -0.0662  0.4551
  109GLOH   H01 9706   3.168   2.406   0.871  0.0629 -0.2293 -1.0127
  110GLOH   H03 9707   5.516   9.522   1.374  0.0260 -2.3926 -0.0467
  110GLOH    O1 9708   5.586   9.528   1.307  0.2702  0.1351  0.3737
  110GLOH    C1 9709   5.654   9.658   1.317  0.0823  0.6069  0.5290
  110GLOH   H02 9710   5.715   9.652   1.407 -0.1251  2.3969  0.8120
  110GLOH   H08 9711   5.580   9.738   1.326  0.2555  0.8967 -0.5840
  110GLOH    C2 9712   5.738   9.698   1.194  0.8045  0.2569 -0.0194
  110GLOH   H04 9713   5.806   9.614   1.173 -2.3079 -2.3978  0.1119
  110GLOH    O2 9714   5.666   9.716   1.069 -0.0125 -0.5727 -0.1110
  110GLOH   H05 9715   5.733   9.727   0.999  0.3299  0.9271  0.4278
  110GLOH    C3 9716   5.815   9.828   1.230  0.5202 -0.1091 -0.7064
  110GLOH   H06 9717   5.745   9.903   1.264  0.2777 -0.5520 -0.2168
  110GLOH   H07 9718   5.877   9.867   1.149  0.1381  0.9093 -0.5114
  110GLOH    O3 9719   5.904   9.802   1.341  0.3817  0.1935 -0.1144
  110GLOH   H01 9720   5.907   9.886   1.390 -2.2472  0.0431  0.3594
  111GLOH   H03 9721   4.538   2.664   2.196  0.0880 -0.1977 -1.0509
  111GLOH    O1 9722   4.633   2.662   2.216 -0.1048 -0.1845 -0.0995
  111GLOH    C1 9723   4.705   2.636   2.099 -0.1468 -0.2861 -0.2731
  111GLOH   H02 9724   4.659   2.561   2.034 -1.1164  0.4377 -0.4316
  111GLOH   H08 9725   4.796   2.585   2.133  0.2895  1.4236  1.2143
  111GLOH    C2 9726   4.752   2.764   2.030  0.3012  0.7490 -1.1037
  111GLOH   H04 9727   4.658   2.822   2.024 -0.6658 -0.8277 -1.5238
  111GLOH    O2 9728   4.851   2.833   2.109  0.2824  0.0526 -0.7765
  111GLOH   H05 9729   4.884   2.905   2.053  2.4681 -0.2924  0.0166
  111GLOH    C3 9730   4.798   2.740   1.884 -0.2192 -0.0747  0.1978
  111GLOH   H06 9731   4.823   2.841   1.852 -2.4578  1.3602  2.8363
  111GLOH   H07 9732   4.713   2.706   1.825  0.8398  0.8630 -1.9272
  111GLOH    O3 9733   4.915   2.654   1.867  0.2782  0.0994  0.6068
  111GLOH   H01 9734   4.997   2.692   1.903  0.4193  0.8562 -0.4849
  112GLOH   H03 9735   8.234   8.014   3.927 -0.4946 -1.7081 -1.0029
  112GLOH    O1 9736   8.323   7.984   3.904  0.2950  0.3405 -0.6929
  112GLOH    C1 9737   8.295   7.845   3.892 -0.9987 -0.4232 -0.0103
  112GLOH   H02 9738   8.210   7.821   3.828  1.2056 -1.4067 -2.6776
  112GLOH   H08 9739   8.266   7.812   3.991 -3.4472 -0.5693 -0.7411
  112GLOH    C2 9740   8.414   7.751   3.848  0.1442 -0.1850 -0.4687
  112GLOH   H04 9741   8.368   7.651   3.846 -0.0501 -0.0744 -2.3790
  112GLOH    O2 9742   8.463   7.785   3.716  0.4438  0.3466 -0.2602
  112GLOH   H05 9743   8.429   7.876   3.716  0.9004  0.5161 -1.0245
  112GLOH    C3 9744   8.523   7.748   3.959  0.6519 -0.5814  0.1268
  112GLOH   H06 9745   8.463   7.730   4.048 -0.9204  0.2416 -0.7427
  112GLOH   H07 9746   8.561   7.849   3.971  1.2830 -1.1649  3.3956
  112GLOH    O3 9747   8.639   7.666   3.949 -0.3505 -0.0657  0.0060
  112GLOH   H01 9748   8.641   7.638   3.856 -0.6459  0.9727 -0.3229
  113GLOH   H03 9749   8.609   0.971   4.445  1.6231 -0.0534 -0.4486
  113GLOH    O1 9750   8.634   0.978   4.539 -0.2901  0.3030  0.0482
  113GLOH    C1 9751   8.576   0.872   4.612  0.4827  0.7090 -0.3546
  113GLOH   H02 9752   8.486   0.915   4.657 -0.4810 -0.4151 -1.1624
  113GLOH   H08 9753   8.646   0.821   4.678  0.4526  1.0325 -0.0695
  113GLOH    C2 9754   8.512   0.762   4.523 -0.0624  0.0312 -0.5088
  113GLOH   H04 9755   8.578   0.734   4.439  0.1060 -0.9559 -0.0592
  113GLOH    O2 9756   8.470   0.649   4.601  0.3434 -0.6078 -0.2182
  113GLOH   H05 9757   8.394   0.600   4.567  0.1176 -0.4611  0.0660
  113GLOH    C3 9758   8.388   0.817   4.454  0.1289  0.1681 -0.1188
  113GLOH   H06 9759   8.398   0.918   4.414 -0.2395  1.0753  2.0094
  113GLOH   H07 9760   8.312   0.825   4.532  2.4505  4.7309  1.8392
  113GLOH    O3 9761   8.345   0.735   4.340 -0.7077  0.0609 -1.3564
  113GLOH   H01 9762   8.411   0.742   4.269  0.7577 -0.4123 -0.0769
  114GLOH   H03 9763   7.256   9.919   2.551  0.6906  0.9251 -0.9689
  114GLOH    O1 9764   7.338   9.940   2.600  0.0707 -0.4172  0.6920
  114GLOH    C1 9765   7.451   9.846   2.581 -0.1675  0.4644 -0.2979
  114GLOH   H02 9766   7.538   9.894   2.536 -1.5538  2.0533 -1.3679
  114GLOH   H08 9767   7.427   9.769   2.508 -0.7643  0.9399 -0.6070
  114GLOH    C2 9768   7.496   9.782   2.716 -0.0030  0.0341  0.8523
  114GLOH   H04 9769   7.419   9.711   2.750  2.3249 -2.1760  1.6431
  114GLOH    O2 9770   7.617   9.705   2.708 -0.3857  0.1047  0.0227
  114GLOH   H05 9771   7.642   9.703   2.802 -1.0262 -2.5010  0.1902
  114GLOH    C3 9772   7.497   9.886   2.832 -0.2709 -0.1175  0.1712
  114GLOH   H06 9773   7.392   9.917   2.835 -0.4033 -0.5992  0.4254
  114GLOH   H07 9774   7.556   9.971   2.797 -0.8132 -0.7379 -2.3892
  114GLOH    O3 9775   7.529   9.853   2.964  0.1081 -0.0823 -0.1038
  114GLOH   H01 9776   7.620   9.820   2.962  0.2962  0.5023 -1.6265
  115GLOH   H03 9777   6.148   7.961   1.698 -0.2327 -0.9007  1.1788
  115GLOH    O1 9778   6.085   7.931   1.630  0.2809  0.3725  0.1184
  115GLOH    C1 9779   6.108   7.997   1.503 -0.6253 -0.3943  0.0586
  115GLOH   H02 9780   6.039   7.960   1.427 -1.5270  0.4982  0.4248
  115GLOH   H08 9781   6.209   7.991   1.463 -0.3905  1.3213  0.3444
  115GLOH    C2 9782   6.068   8.144   1.508  0.1251 -0.0711  0.5492
  115GLOH   H04 9783   6.147   8.183   1.574  1.7686 -1.8515 -0.3087
  115GLOH    O2 9784   6.082   8.207   1.378 -0.1794 -0.0221 -0.4854
  115GLOH   H05 9785   6.145   8.280   1.384  1.9069 -1.9596  2.9135
  115GLOH    C3 9786   5.918   8.154   1.563 -0.2115  0.0050  0.0184
  115GLOH   H06 9787   5.923   8.113   1.664  0.0114  0.3623  0.1515
  115GLOH   H07 9788   5.845   8.092   1.511  2.2713 -2.2952 -0.8706
  115GLOH    O3 9789   5.877   8.286   1.580  0.0463  0.2749  0.3113
  115GLOH   H01 9790   5.936   8.339   1.523  4.6529 -0.9620  3.6387
  116GLOH   H03 9791   3.331   9.684   0.345  1.2181 -0.3614  1.5936
  116GLOH    O1 9792   3.305   9.769   0.384  0.2710 -0.1801  0.5944
  116GLOH    C1 9793   3.228   9.745   0.500 -0.4923  0.4818  0.0269
  116GLOH   H02 9794   3.153   9.671   0.472  1.1073 -1.5016  0.8449
  116GLOH   H08 9795   3.167   9.825   0.542 -0.7966  0.1268  0.2740
  116GLOH    C2 9796   3.300   9.675   0.618 -0.7478 -0.3580 -0.4269
  116GLOH   H04 9797   3.333   9.575   0.585  0.4728  0.9534 -3.3440
  116GLOH    O2 9798   3.414   9.757   0.648 -0.0279 -0.2102  0.1203
  116GLOH   H05 9799   3.383   9.848   0.657  0.7118 -0.0027  0.6443
  116GLOH    C3 9800   3.219   9.659   0.744 -0.0803 -0.4477 -0.5508
  116GLOH   H06 9801   3.226   9.744   0.811 -0.2758 -0.8218 -0.0506
  116GLOH   H07 9802   3.262   9.572   0.794  1.1304  0.9854  0.9286
  116GLOH    O3 9803   3.079   9.627   0.715  0.0312  0.3534 -0.0996
  116GLOH   H01 9804   3.055   9.559   0.782  0.6095 -0.3061 -0.5532
  117GLOH   H03 9805   9.398   2.578   0.527 -2.2876  0.5364  1.4904
  117GLOH    O1 9806   9.407   2.675   0.534 -0.5784  0.5490 -0.3092
  117GLOH    C1 9807   9.460   2.714   0.409 -1.0754  0.4206 -0.6542
  117GLOH   H02 9808   9.569   2.713   0.404 -1.0953  0.5082 -1.2136
  117GLOH   H08 9809   9.442   2.820   0.394 -2.2877  0.4458  0.8546
  117GLOH    C2 9810   9.404   2.631   0.289  0.0707  0.0095 -0.9482
  117GLOH   H04 9811   9.299   2.658   0.273  0.1232 -0.1218 -1.5224
  117GLOH    O2 9812   9.488   2.670   0.175  0.6756 -0.3928 -0.1644
  117GLOH   H05 9813   9.471   2.757   0.136  2.6760 -0.5572 -1.4585
  117GLOH    C3 9814   9.424   2.482   0.326 -0.1638 -0.1445  0.0068
  117GLOH   H06 9815   9.531   2.464   0.326 -0.1433 -0.0200 -0.4134
  117GLOH   H07 9816   9.392   2.417   0.244  1.9696 -0.2065 -0.7971
  117GLOH    O3 9817   9.351   2.448   0.445 -0.2020 -0.3245  0.3716
  117GLOH   H01 9818   9.414   2.417   0.512 -1.0823  2.5267  2.6413
  118GLOH   H03 9819   1.881   9.358   0.106  0.6134 -1.3912  2.0188
  118GLOH    O1 9820   1.812   9.401   0.160 -0.3970  0.1739 -0.4528
  118GLOH    C1 9821   1.820   9.547   0.139  0.0667  0.0507 -0.4990
  118GLOH   H02 9822   1.878   9.569   0.049  1.5382 -0.8869  0.2050
  118GLOH   H08 9823   1.868   9.582   0.230  0.8964 -1.0895 -0.4877
  118GLOH    C2 9824   1.678   9.601   0.146  0.1621  0.9695  0.3240
  118GLOH   H04 9825   1.637   9.576   0.245  2.6485 -1.8179  0.6990
  118GLOH    O2 9826   1.674   9.741   0.134 -0.6478  0.4671 -0.1685
  118GLOH   H05 9827   1.720   9.761   0.051 -1.6466  1.7036 -0.4406
  118GLOH    C3 9828   1.585   9.541   0.033  0.0933 -0.0622 -0.8968
  118GLOH   H06 9829   1.566   9.435   0.047 -0.2500  0.2059  0.7625
  118GLOH   H07 9830   1.642   9.554  -0.059  1.9044  2.6763  0.5489
  118GLOH    O3 9831   1.459   9.609   0.025 -0.3510 -0.5765 -0.0309
  118GLOH   H01 9832   1.420   9.599   0.114  1.6053 -0.7232  0.8421
  119GLOH   H03 9833   6.090   0.228   3.891 -0.7489  0.7460 -2.0556
  119GLOH    O1 9834   6.172   0.276   3.872  0.0241  0.0570 -0.5634
  119GLOH    C1 9835   6.142   0.399   3.806 -0.0914  0.2088 -0.1293
  119GLOH   H02 9836   6.228   0.463   3.786  0.1693  0.3838  1.5008
  119GLOH   H08 9837   6.075   0.452   3.873 -1.3634 -0.3033 -0.9892
  119GLOH    C2 9838   6.072   0.384   3.667 -0.3765  0.1141 -0.2465
  119GLOH   H04 9839   5.974   0.335   3.666 -0.8534  1.0777 -1.8965
  119GLOH    O2 9840   6.044   0.504   3.604  0.4237  0.2237  0.3045
  119GLOH   H05 9841   6.122   0.549   3.567 -1.3042  2.5979 -0.5422
  119GLOH    C3 9842   6.154   0.299   3.576  0.0243 -0.1420 -0.1860
  119GLOH   H06 9843   6.118   0.295   3.474  0.5612 -1.3638 -0.3443
  119GLOH   H07 9844   6.149   0.195   3.611 -0.3459  0.2522  0.9527
  119GLOH    O3 9845   6.286   0.349   3.568 -0.4686  0.2110 -0.5315
  119GLOH   H01 9846   6.278   0.445   3.549  0.7219  0.9081  2.1811
  120GLOH   H03 9847   0.924   7.923   4.419  0.4694 -0.7035  0.9074
  120GLOH    O1 9848   0.873   7.989   4.469 -0.2317 -0.0846 -0.5843
  120GLOH    C1 9849   0.833   7.928   4.596 -0.5071 -0.4298  0.5060
  120GLOH   H02 9850   0.736   7.880   4.587  0.1541 -1.6992  0.0390
  120GLOH   H08 9851   0.824   8.004   4.674  0.4027  1.1872 -0.9162
  120GLOH    C2 9852   0.933   7.814   4.634 -0.2168 -0.7844 -0.0828
  120GLOH   H04 9853   1.037   7.850   4.641 -0.4986  0.6385 -2.3919
  120GLOH    O2 9854   0.900   7.754   4.759  0.0604 -0.5748 -0.9043
  120GLOH   H05 9855   0.967   7.684   4.767 -1.1410 -1.4047  2.5674
  120GLOH    C3 9856   0.927   7.704   4.528  0.4091  0.3003 -0.2951
  120GLOH   H06 9857   0.827   7.662   4.519 -0.4649  2.7440 -2.6274
  120GLOH   H07 9858   0.998   7.625   4.554  0.2822 -0.4190 -2.0568
  120GLOH    O3 9859   0.966   7.763   4.406 -0.3303  0.7323 -0.3231
  120GLOH   H01 9860   0.996   7.693   4.346 -1.3129  0.2169 -0.2315
  121ACOH    H4 9861   6.410   6.543   2.728  0.9372  1.0023  0.2909
  121ACOH    O2 9862   6.407   6.504   2.817  0.2136  0.1869 -0.0775
  121ACOH    C2 9863   6.437   6.606   2.904  0.1552 -0.5732 -0.3246
  121ACOH    O1 9864   6.473   6.723   2.878  0.6667  0.1057 -0.0497
  121ACOH    C1 9865   6.436   6.550   3.041  0.9816  0.1466 -0.0938
  121ACOH    H1 9866   6.528   6.494   3.058  0.1694 -1.0019  0.5754
  121ACOH    H2 9867   6.353   6.482   3.059  1.7703 -0.6959  0.3682
  121ACOH    H3 9868   6.423   6.635   3.109 -1.3043  0.1096 -0.4322
  122ACOH    H4 9869   7.796   6.315   1.530 -0.5984  0.2040  0.1580
  122ACOH    O2 9870   7.779   6.369   1.451  0.2579 -0.3543 -0.4261
  122ACOH    C2 9871   7.785   6.277   1.348 -0.3911 -0.1273  0.1398
  122ACOH    O1 9872   7.866   6.189   1.338  0.1519 -0.0534  0.2123
  122ACOH    C1 9873   7.712   6.330   1.232  0.8488  0.1784  0.0750
  122ACOH    H1 9874   7.648   6.413   1.262  0.6495 -0.0846  0.3890
  122ACOH    H2 9875   7.647   6.254   1.190  2.3315 -0.9839 -0.1365
  122ACOH    H3 9876   7.788   6.365   1.162  0.3629 -0.3649 -0.7312
  123ACOH    H4 9877   3.998   5.518   2.451  1.4396 -2.2707 -0.0243
  123ACOH    O2 9878   4.081   5.559   2.423  0.1037  0.5812  0.0101
  123ACOH    C2 9879   4.130   5.466   2.334 -0.1023  0.1031 -0.0673
  123ACOH    O1 9880   4.092   5.349   2.329 -0.0745  0.2165 -0.4696
  123ACOH    C1 9881   4.243   5.515   2.245  0.1435 -0.1117 -0.3188
  123ACOH    H1 9882   4.276   5.430   2.185  0.0882 -0.0360 -0.4570
  123ACOH    H2 9883   4.314   5.537   2.325 -1.3512  1.3156  0.6626
  123ACOH    H3 9884   4.216   5.605   2.190 -3.0836 -1.8047 -1.6167
  124ACOH    H4 9885   6.744   7.098   2.214  0.0803 -0.6212  0.3712
  124ACOH    O2 9886   6.787   7.022   2.170  0.7448  0.4055 -0.7958
  124ACOH    C2 9887   6.911   7.017   2.219 -0.2708  0.0652  0.8081
  124ACOH    O1 9888   6.949   7.061   2.324  0.4664  0.0700  0.1322
  124ACOH    C1 9889   6.998   6.934   2.134 -0.2126  0.1522 -0.2532
  124ACOH    H1 9890   6.933   6.909   2.050  0.2628 -0.7225 -0.3672
  124ACOH    H2 9891   7.028   6.843   2.188  1.8788  0.5352 -0.7212
  124ACOH    H3 9892   7.092   6.981   2.107  0.2865 -1.0619 -0.6865
  125ACOH    H4 9893   7.500   1.962   0.198  0.2943 -0.2630 -0.3255
  125ACOH    O2 9894   7.407   1.978   0.221  0.4322 -0.0558  0.0924
  125ACOH    C2 9895   7.359   1.878   0.287 -0.4291  0.1297  0.0897
  125ACOH    O1 9896   7.426   1.809   0.361  0.2542 -0.3541 -0.5267
  125ACOH    C1 9897   7.212   1.887   0.312  0.2524  0.1877  0.0566
  125ACOH    H1 9898   7.173   1.988   0.299 -4.9687 -1.5384  1.0881
  125ACOH    H2 9899   7.190   1.860   0.415 -0.9320  0.8962  0.0051
  125ACOH    H3 9900   7.178   1.806   0.247 -0.5682 -0.4461  1.2668
  126ACOH    H4 9901   5.288   1.723   3.216 -1.0383 -0.4980  0.8611
  126ACOH    O2 9902   5.283   1.778   3.296 -0.2036  0.3239  0.3510
  126ACOH    C2 9903   5.303   1.685   3.391 -0.2116 -0.3261  0.3094
  126ACOH    O1 9904   5.290   1.566   3.374 -0.5346  0.2121 -0.2622
  126ACOH    C1 9905   5.298   1.740   3.529 -0.7870  0.4229 -0.6266
  126ACOH    H1 9906   5.202   1.793   3.527 -0.7180  0.6614  1.6736
  126ACOH    H2 9907   5.376   1.809   3.561  0.4301 -1.1944 -0.0905
  126ACOH    H3 9908   5.291   1.669   3.611  1.6783  0.3458 -0.4558
  127ACOH    H4 9909   4.675   6.260   2.405  0.5150  0.1148 -0.2859
  127ACOH    O2 9910   4.739   6.332   2.415  0.2080  0.2732  0.5433
  127ACOH    C2 9911   4.718   6.383   2.538 -0.4327  0.2058 -0.0266
  127ACOH    O1 9912   4.636   6.343   2.615 -0.9447  0.2102 -0.6928
  127ACOH    C1 9913   4.799   6.503   2.563  0.2700 -0.1249  0.3026
  127ACOH    H1 9914   4.731   6.587   2.573  1.9116  1.5926 -2.3416
  127ACOH    H2 9915   4.867   6.526   2.481  0.1714 -1.3602 -0.1405
  127ACOH    H3 9916   4.850   6.499   2.659  0.3882  1.6336  0.3340
  128ACOH    H4 9917   4.286   3.577   2.818  2.2584  0.7727 -1.1529
  128ACOH    O2 9918   4.322   3.639   2.883  0.6649  0.4076  0.1011
  128ACOH    C2 9919   4.322   3.758   2.823  0.2281  0.3897  0.1685
  128ACOH    O1 9920   4.275   3.778   2.709  0.1337  0.6342 -0.0633
  128ACOH    C1 9921   4.348   3.870   2.913  0.0795 -0.4287  0.1646
  128ACOH    H1 9922   4.449   3.905   2.893 -0.4215 -0.8900 -3.5970
  128ACOH    H2 9923   4.333   3.846   3.018  0.2907  0.0471  0.3065
  128ACOH    H3 9924   4.281   3.953   2.890 -3.3438 -2.4618  2.3043
  129ACOH    H4 9925   4.612   8.112   4.270  0.4675 -0.0691  1.1831
  129ACOH    O2 9926   4.672   8.047   4.230 -0.1001 -0.1213  0.4005
  129ACOH    C2 9927   4.719   8.092   4.109 -0.4819  0.7837 -1.1588
  129ACOH    O1 9928   4.643   8.123   4.021  0.4268  0.5892 -0.2593
  129ACOH    C1 9929   4.836   8.020   4.065  0.2671 -0.4317  0.3082
  129ACOH    H1 9930   4.886   8.065   3.979 -1.1673  0.6028 -0.0210
  129ACOH    H2 9931   4.806   7.922   4.028 -0.0546 -0.9912  2.0026
  129ACOH    H3 9932   4.899   8.010   4.153  2.2403 -2.1426 -1.2510
  130ACOH    H4 9933   8.665   4.638   4.360  0.5978 -0.9084  1.5258
  130ACOH    O2 9934   8.607   4.695   4.413 -0.3835 -0.0916 -0.3612
  130ACOH    C2 9935   8.479   4.664   4.376  0.4722 -0.6203  0.2369
  130ACOH    O1 9936   8.453   4.584   4.291 -0.1449  0.6949 -0.2854
  130ACOH    C1 9937   8.379   4.733   4.457  0.7188 -0.0886 -0.3295
  130ACOH    H1 9938   8.359   4.682   4.551 -1.6051  1.9018  0.3163
  130ACOH    H2 9939   8.285   4.739   4.403 -0.2711  0.0018  1.3850
  130ACOH    H3 9940   8.413   4.833   4.485 -1.4884  0.8458 -0.9177
  131ACOH    H4 9941   3.988   2.408   4.328 -0.0444  1.1646 -1.6370
  131ACOH    O2 9942   4.040   2.327   4.313 -1.0560  0.1044  0.4087
  131ACOH    C2 9943   3.976   2.221   4.361 -0.5546 -0.0017 -0.0200
  131ACOH    O1 9944   3.867   2.194   4.324 -0.1805 -0.5736 -0.3184
  131ACOH    C1 9945   4.059   2.124   4.441  0.3382  0.3625 -0.0934
  131ACOH    H1 9946   4.160   2.159   4.423  0.1699  0.5023 -0.7965
  131ACOH    H2 9947   4.050   2.024   4.397  0.3952  0.1162  0.4489
  131ACOH    H3 9948   4.042   2.129   4.549 -0.2634  2.4023 -0.2672
  132ACOH    H4 9949   7.995   4.298   3.454  0.2501 -1.3777  0.0032
  132ACOH    O2 9950   7.933   4.237   3.497  0.0248 -0.6465  0.7293
  132ACOH    C2 9951   8.005   4.163   3.584  0.1009  0.1551 -0.0428
  132ACOH    O1 9952   8.126   4.174   3.607  0.1347 -0.1617  0.1321
  132ACOH    C1 9953   7.912   4.087   3.673  0.3154 -0.3340 -1.1687
  132ACOH    H1 9954   7.824   4.146   3.697  1.1442  0.6075 -0.3598
  132ACOH    H2 9955   7.955   4.067   3.771 -0.0513 -0.9745 -1.1407
  132ACOH    H3 9956   7.898   3.992   3.622 -2.1570 -0.1413 -0.9145
  133ACOH    H4 9957   7.116   8.794   4.445  0.3801  0.8259  0.9511
  133ACOH    O2 9958   7.031   8.840   4.453 -0.0096  0.3804 -0.4831
  133ACOH    C2 9959   7.043   8.949   4.530 -0.5480  0.0059  0.1393
  133ACOH    O1 9960   7.146   8.990   4.574 -0.1981 -0.6634  0.0309
  133ACOH    C1 9961   6.914   9.018   4.535  0.9351 -0.4401 -0.4189
  133ACOH    H1 9962   6.869   9.010   4.436 -1.4036 -1.9600  0.7272
  133ACOH    H2 9963   6.915   9.125   4.559  0.2314 -0.3358 -0.8324
  133ACOH    H3 9964   6.848   8.972   4.610  0.4506  2.0903  0.7832
  134ACOH    H4 9965   2.975   1.259   3.448 -1.6646  0.2030  0.8039
  134ACOH    O2 9966   2.981   1.182   3.506 -0.5978 -0.3021  0.0286
  134ACOH    C2 9967   3.104   1.128   3.509 -0.1758 -0.4356  0.1345
  134ACOH    O1 9968   3.137   1.033   3.577 -0.1596 -0.2633  0.5928
  134ACOH    C1 9969   3.213   1.196   3.431 -0.0677  0.1474 -0.2632
  134ACOH    H1 9970   3.258   1.125   3.362  0.0537 -0.3980  0.3720
  134ACOH    H2 9971   3.293   1.220   3.500  0.0663  0.3660 -0.4954
  134ACOH    H3 9972   3.174   1.280   3.375 -1.0801  1.3746  2.1875
  135ACOH    H4 9973   4.570   5.244   1.104 -0.2886  1.0815 -0.5103
  135ACOH    O2 9974   4.521   5.186   1.044 -0.4606  0.2891  0.3850
  135ACOH    C2 9975   4.407   5.149   1.098 -0.1317  0.1938 -0.2845
  135ACOH    O1 9976   4.365   5.186   1.209  0.5368 -0.3564  0.1394
  135ACOH    C1 9977   4.325   5.066   1.011 -0.3177 -0.1118 -0.1196
  135ACOH    H1 9978   4.228   5.107   0.985 -0.6184 -2.2393 -2.5538
  135ACOH    H2 9979   4.292   4.971   1.054 -0.8832 -1.3880 -3.2667
  135ACOH    H3 9980   4.379   5.048   0.918 -1.6717  0.0356 -0.9463
  136ACOH    H4 9981   6.943   4.863   4.525  1.9240  1.1025 -0.0053
  136ACOH    O2 9982   6.892   4.944   4.536 -0.4948 -0.4310  0.4523
  136ACOH    C2 9983   6.808   4.928   4.640  0.8127  0.7519  0.5585
  136ACOH    O1 9984   6.812   4.840   4.721  0.8695  0.4209  0.6144
  136ACOH    C1 9985   6.706   5.033   4.662  0.2239  0.3390  0.4780
  136ACOH    H1 9986   6.696   5.049   4.769  0.7444 -0.5114  0.6546
  136ACOH    H2 9987   6.608   5.011   4.620 -0.2604 -0.0821  1.8059
  136ACOH    H3 9988   6.745   5.126   4.620  0.1231 -0.0242 -0.4345
  137ACOH    H4 9989   3.874   5.668   4.377  0.3847  1.8228  0.4875
  137ACOH    O2 9990   3.969   5.651   4.371  0.0117 -0.0312 -0.5412
  137ACOH    C2 9991   3.995   5.532   4.414  0.3378  0.0369 -0.5526
  137ACOH    O1 9992   3.911   5.444   4.427  0.4425 -0.1761  0.2093
  137ACOH    C1 9993   4.137   5.499   4.398 -0.2693  0.4541  0.1645
  137ACOH    H1 9994   4.146   5.481   4.290  0.1387  0.6963  0.1555
  137ACOH    H2 9995   4.158   5.402   4.444 -2.6602 -0.0620  0.2251
  137ACOH    H3 9996   4.203   5.582   4.422 -1.0339  1.3820 -0.9221
  138ACOH    H4 9997   4.606   3.112   3.592  3.5714 -1.3297 -1.5286
  138ACOH    O2 9998   4.663   3.117   3.671  0.4365  0.7064  0.6896
  138ACOH    C2 9999   4.590   3.089   3.777 -0.6151 -0.4964  0.1658
  138ACOH    O110000   4.475   3.052   3.789 -0.4511  0.1318  0.0488
  138ACOH    C110001   4.683   3.087   3.893  0.2691 -0.2844 -0.0876
  138ACOH    H110002   4.717   3.186   3.922 -0.1421 -0.6081  1.5353
  138ACOH    H210003   4.771   3.031   3.861 -0.3964  0.4656 -3.4234
  138ACOH    H310004   4.641   3.031   3.976 -0.5372  1.6786  0.8760
  139ACOH    H410005   6.615   6.713   3.380  0.4345 -0.9565 -1.8755
  139ACOH    O210006   6.520   6.723   3.361  0.0253 -0.3617  0.3224
  139ACOH    C210007   6.499   6.838   3.301  0.5232 -0.2580 -0.6155
  139ACOH    O110008   6.588   6.896   3.240  0.6953 -0.3198  0.0130
  139ACOH    C110009   6.358   6.889   3.290  0.3183  0.2899  0.2945
  139ACOH    H110010   6.352   6.992   3.324 -1.0376  0.6644 -1.0142
  139ACOH    H210011   6.285   6.826   3.341 -0.7304  1.3206  0.0842
  139ACOH    H310012   6.328   6.885   3.185  1.1055 -1.2270  0.1029
  140ACOH    H410013   5.485   1.966   1.685  0.0000 -0.5381 -0.3629
  140ACOH    O210014   5.560   2.024   1.663 -0.7085  0.4287 -0.2761
  140ACOH    C210015   5.522   2.147   1.700  0.7235 -0.5849  0.5320
  140ACOH    O110016   5.432   2.177   1.778 -0.0009  0.0189 -0.3846
  140ACOH    C110017   5.626   2.239   1.657  0.5729 -0.2328 -0.1502
  140ACOH    H110018   5.619   2.268   1.552 -1.8214  0.1466  0.0959
  140ACOH    H210019   5.724   2.197   1.677 -0.6364 -2.8390  0.5351
  140ACOH    H310020   5.622   2.328   1.719 -2.1119  1.1669 -2.2015
  141ACOH    H410021   7.211   2.091   4.555  0.6914 -0.7011 -0.5248
  141ACOH    O210022   7.116   2.092   4.573  0.7269 -0.2662 -0.3665
  141ACOH    C210023   7.085   2.000   4.667 -0.1396 -0.0717  0.1622
  141ACOH    O110024   7.163   1.934   4.730 -1.1125 -0.0988  0.0785
  141ACOH    C110025   6.940   1.984   4.687  0.2252  0.3671  0.6269
  141ACOH    H110026   6.894   1.993   4.589 -0.4210  3.7859  1.1589
  141ACOH    H210027   6.905   2.071   4.742 -0.0822  0.9411 -0.4658
  141ACOH    H310028   6.910   1.887   4.727 -0.7645 -0.0995 -1.2208
  142ACOH    H410029   5.143   0.768   4.560 -1.3126  3.2972  1.2310
  142ACOH    O210030   5.093   0.715   4.625  0.1009  0.2362 -0.0789
  142ACOH    C210031   4.986   0.779   4.662 -0.3281  0.1335  0.0062
  142ACOH    O110032   4.964   0.900   4.636 -0.9847  0.4498  0.2709
  142ACOH    C110033   4.893   0.694   4.741  0.1841  0.5728 -0.6681
  142ACOH    H110034   4.796   0.669   4.699  0.1808  0.3414 -0.5237
  142ACOH    H210035   4.860   0.746   4.831  1.1348  1.0348 -0.5782
  142ACOH    H310036   4.942   0.603   4.777 -0.3336 -0.4969 -2.6022
  143ACOH    H410037   4.525   4.720   4.280 -1.6104  1.2392 -0.4030
  143ACOH    O210038   4.559   4.768   4.357 -0.3054 -0.2442 -0.0353
  143ACOH    C210039   4.455   4.814   4.425  0.4622  0.4170  0.5343
  143ACOH    O110040   4.350   4.869   4.392  0.2733 -0.0037 -0.3401
  143ACOH    C110041   4.479   4.799   4.576  0.6115 -0.6240  0.5795
  143ACOH    H110042   4.579   4.836   4.598  0.9650 -1.6686  0.7565
  143ACOH    H210043   4.482   4.692   4.597  0.7286 -0.7193  0.0877
  143ACOH    H310044   4.404   4.841   4.643  1.1607 -0.1526  0.9043
  144ACOH    H410045   3.850   5.670   1.260  0.7063  0.5042 -0.1652
  144ACOH    O210046   3.941   5.637   1.269  0.5098  0.0406  0.1438
  144ACOH    C210047   4.004   5.712   1.363 -0.1280 -0.3776 -0.0830
  144ACOH    O110048   3.955   5.811   1.414  0.4975  0.0122  0.5225
  144ACOH    C110049   4.145   5.667   1.385  0.2971  0.4736  0.2735
  144ACOH    H110050   4.163   5.672   1.493 -0.4131 -1.2525  0.4836
  144ACOH    H210051   4.222   5.731   1.342  2.9506 -1.9495  1.2225
  144ACOH    H310052   4.158   5.566   1.349  0.6147  0.5424  0.1956
  145ACOH    H410053   4.943   6.617   3.454 -0.1345 -0.0135  0.8974
  145ACOH    O210054   5.010   6.668   3.501  0.0363  0.4158  0.1921
  145ACOH    C210055   5.098   6.727   3.415  1.1357  0.3462 -0.0959
  145ACOH    O110056   5.146   6.671   3.320  0.4684 -0.0188  0.0440
  145ACOH    C110057   5.152   6.846   3.478  0.4728  0.1003 -0.1015
  145ACOH    H110058   5.136   6.839   3.586  0.6585 -3.6204 -0.2626
  145ACOH    H210059   5.088   6.924   3.436  0.8851  0.7763  0.5097
  145ACOH    H310060   5.257   6.868   3.457  1.0577 -1.4469  1.1465
  146ACOH    H410061   3.307   5.962   1.077  0.4856  0.6936 -1.1201
  146ACOH    O210062   3.329   6.029   1.144  0.4682 -0.3332 -0.0947
  146ACOH    C210063   3.299   6.148   1.098 -0.4555 -1.5878  1.1740
  146ACOH    O110064   3.246   6.173   0.992  0.4928 -0.6279 -0.1307
  146ACOH    C110065   3.297   6.245   1.208  0.1240  0.1733 -0.5947
  146ACOH    H110066   3.395   6.242   1.256 -0.7166 -1.2765  1.0935
  146ACOH    H210067   3.226   6.219   1.286  0.8208 -0.5051 -0.1798
  146ACOH    H310068   3.273   6.346   1.176  2.1731  1.3586  1.4854
  147ACOH    H410069   6.471   1.241   2.821  0.8905  0.9277 -0.0859
  147ACOH    O210070   6.434   1.298   2.891 -0.1877 -0.0033  0.1278
  147ACOH    C210071   6.297   1.278   2.894 -0.1509  0.4084 -1.3142
  147ACOH    O110072   6.233   1.181   2.848  0.2180  0.4911  0.1323
  147ACOH    C110073   6.231   1.376   2.976 -0.3967  0.1445  0.4097
  147ACOH    H110074   6.186   1.330   3.064  1.0532  1.1463  1.7093
  147ACOH    H210075   6.156   1.426   2.915  0.6001 -1.2155 -2.0069
  147ACOH    H310076   6.310   1.446   3.004 -0.5554  0.9203 -1.0493
  148ACOH    H410077   4.603   0.368   4.331  0.1111  2.0067  0.5553
  148ACOH    O210078   4.700   0.379   4.330  0.3045  0.4218  0.4019
  148ACOH    C210079   4.739   0.454   4.433  0.9047  0.4577  0.5167
  148ACOH    O110080   4.665   0.507   4.522  0.1763  0.4155 -0.8095
  148ACOH    C110081   4.887   0.469   4.439  0.1766 -0.3040 -0.3511
  148ACOH    H110082   4.926   0.467   4.541  1.3451  0.6029 -0.7670
  148ACOH    H210083   4.912   0.570   4.407 -0.6519 -0.0360 -0.1611
  148ACOH    H310084   4.939   0.399   4.373  0.2024  1.1070 -1.8634
  149ACOH    H410085   5.837   4.980   1.421  0.8899  1.0004  1.8042
  149ACOH    O210086   5.903   4.911   1.440 -0.1613 -0.4048  0.4646
  149ACOH    C210087   5.868   4.810   1.360 -0.2861  0.3785 -0.5264
  149ACOH    O110088   5.769   4.803   1.290  0.6345  0.6000  0.0767
  149ACOH    C110089   5.965   4.705   1.367 -0.2988 -0.2160  0.2205
  149ACOH    H110090   6.047   4.732   1.433 -1.6717  0.4644  1.6665
  149ACOH    H210091   6.007   4.695   1.267  1.5365  1.9206  0.7385
  149ACOH    H310092   5.914   4.617   1.406  1.7137 -0.2968  2.8170
  150ACOH    H410093   7.181   1.847   2.894 -0.5679  2.6715 -0.4306
  150ACOH    O210094   7.086   1.831   2.886 -0.0563 -0.5834 -0.9033
  150ACOH    C210095   7.040   1.803   3.009 -0.6377  0.8918  0.3291
  150ACOH    O110096   7.113   1.799   3.110  0.4909  0.0919 -0.8251
  150ACOH    C110097   6.901   1.751   2.995 -0.2697  0.1811 -0.1894
  150ACOH    H110098   6.847   1.786   3.083 -0.2724 -1.1285  0.3359
  150ACOH    H210099   6.914   1.643   2.987  0.1699  0.3108 -1.4255
  150ACOH    H310100   6.863   1.793   2.902 -2.3761 -1.9549 -0.3448
  151ACOH    H410101   5.630   0.124   4.545 -2.7148  1.5939 -1.8610
  151ACOH    O210102   5.684   0.202   4.526 -0.3683  0.4707 -0.1251
  151ACOH    C210103   5.738   0.173   4.404  0.1038  0.6146  0.2867
  151ACOH    O110104   5.699   0.090   4.322 -0.4049 -0.0364 -0.3580
  151ACOH    C110105   5.857   0.257   4.384 -1.0160  0.4276 -0.5812
  151ACOH    H110106   5.843   0.319   4.295  1.2309  0.5457 -0.8779
  151ACOH    H210107   5.944   0.194   4.366 -1.1538  0.1094 -0.1404
  151ACOH    H310108   5.887   0.321   4.466 -1.0068  1.1761 -1.1612
  152ACOH    H410109   7.968   5.507   1.238  1.3396  0.3026 -1.7628
  152ACOH    O210110   7.947   5.588   1.287 -0.0373 -0.6416 -0.7639
  152ACOH    C210111   8.043   5.591   1.380 -0.4929 -0.5717 -0.5120
  152ACOH    O110112   8.129   5.510   1.409  0.1832 -0.8087 -0.2366
  152ACOH    C110113   8.036   5.719   1.452  0.7287  0.0008  0.0554
  152ACOH    H110114   8.112   5.741   1.527  0.1008  4.5742 -0.4985
  152ACOH    H210115   7.935   5.733   1.491  0.2764  0.3264 -1.1986
  152ACOH    H310116   8.031   5.795   1.373 -0.6211  1.0939  1.1689
  153ACOH    H410117   8.309   4.896   3.497 -0.5353  1.1918 -0.4410
  153ACOH    O210118   8.325   4.927   3.588 -0.3323  0.1009 -0.1005
  153ACOH    C210119   8.337   5.061   3.586  0.1061 -0.2353 -0.0946
  153ACOH    O110120   8.331   5.136   3.488 -0.2425 -0.2867 -0.2372
  153ACOH    C110121   8.340   5.108   3.726  0.1148  0.0749 -0.6709
  153ACOH    H110122   8.435   5.162   3.730  0.4237 -0.4443 -0.9817
  153ACOH    H210123   8.345   5.018   3.787  0.9454  0.1793 -0.5808
  153ACOH    H310124   8.258   5.175   3.753  1.3801  1.9155 -1.2559
  154ACOH    H410125   8.037   7.019   4.654  1.0497  0.8367 -0.3414
  154ACOH    O210126   7.998   7.038   4.740 -0.3007  0.4978 -0.8651
  154ACOH    C210127   8.051   7.157   4.789 -0.1927  0.1926 -0.4622
  154ACOH    O110128   8.104   7.239   4.723 -0.5326 -0.0620 -0.0640
  154ACOH    C110129   8.035   7.167   4.938  0.0961  1.0441 -0.3235
  154ACOH    H110130   8.110   7.104   4.984 -1.0278  0.7670  1.1480
  154ACOH    H210131   7.936   7.127   4.960  0.1757  1.6536  1.1792
  154ACOH    H310132   8.051   7.269   4.972 -0.9090  1.4999 -1.1801
  155ACOH    H410133   2.681   8.337   3.165 -2.2344 -0.1305 -0.7199
  155ACOH    O210134   2.693   8.241   3.168 -0.2141  0.1107 -0.3424
  155ACOH    C210135   2.732   8.202   3.045 -0.0430  0.4355 -0.6480
  155ACOH    O110136   2.765   8.273   2.948 -0.1615  0.1934  0.7271
  155ACOH    C110137   2.701   8.054   3.029  1.0189 -0.2272  0.2460
  155ACOH    H110138   2.700   8.017   2.927  0.4508 -0.5080  0.3529
  155ACOH    H210139   2.599   8.037   3.064  0.9899 -1.1763 -0.3134
  155ACOH    H310140   2.767   7.992   3.089  0.5356  0.5529  1.6232
  156ACOH    H410141   5.737   9.973   0.817 -0.6839  1.6431 -0.8549
  156ACOH    O210142   5.816   9.971   0.761 -0.2174  0.6742 -0.1791
  156ACOH    C210143   5.871   9.847   0.768 -0.3167  0.4424 -0.2397
  156ACOH    O110144   5.874   9.772   0.862 -0.6549  0.2114 -0.0541
  156ACOH    C110145   5.965   9.828   0.658 -0.4239 -0.6901 -0.0663
  156ACOH    H110146   5.929   9.745   0.597 -2.2023  1.4567 -1.9864
  156ACOH    H210147   6.064   9.813   0.702 -1.3431  0.8512  2.6307
  156ACOH    H310148   5.971   9.914   0.592 -0.8162 -0.2279  0.5082
  157ACOH    H410149   4.003   6.354   2.739 -1.6121 -2.1944 -1.4670
  157ACOH    O210150   3.967   6.418   2.675  0.3687  0.5631  0.0829
  157ACOH    C210151   4.066   6.501   2.640  0.1378 -0.2312  0.6439
  157ACOH    O110152   4.175   6.507   2.691 -1.1464 -0.3875 -0.1992
  157ACOH    C110153   4.023   6.598   2.531 -0.0426 -0.5337  0.2411
  157ACOH    H110154   4.114   6.647   2.495  0.5566 -1.2428  0.7656
  157ACOH    H210155   3.957   6.670   2.577  0.5737  0.3810 -0.2760
  157ACOH    H310156   3.965   6.545   2.455  1.8418 -1.4241 -0.6115
  158ACOH    H410157   5.180   1.368   1.481 -1.4104 -0.9364 -0.3458
  158ACOH    O210158   5.205   1.288   1.530  0.4875 -0.0074  0.2670
  158ACOH    C210159   5.224   1.320   1.656  0.0653 -0.2438  0.2111
  158ACOH    O110160   5.159   1.406   1.710 -0.2302  0.0396 -0.0603
  158ACOH    C110161   5.293   1.216   1.740  0.0930  0.2633 -0.7108
  158ACOH    H110162   5.401   1.228   1.735  0.1986  1.1282  2.2462
  158ACOH    H210163   5.272   1.114   1.707 -0.9305  0.0715  0.4715
  158ACOH    H310164   5.269   1.229   1.846 -1.6951 -0.7674 -0.9592
  159ACOH    H410165   5.232   1.648   1.925  0.4729  1.2504  0.8478
  159ACOH    O210166   5.294   1.649   2.000  0.7474  0.8344  0.6257
  159ACOH    C210167   5.270   1.758   2.077 -0.5128  0.1932 -0.3984
  159ACOH    O110168   5.217   1.864   2.045 -0.0959  0.4649  0.5750
  159ACOH    C110169   5.344   1.757   2.204  0.2248  0.7857  0.2997
  159ACOH    H110170   5.374   1.658   2.237 -0.3868 -0.0501 -1.5984
  159ACOH    H210171   5.279   1.800   2.281 -1.9886  0.2920 -1.2330
  159ACOH    H310172   5.438   1.812   2.196  0.9294 -0.4836 -0.1735
  160ACOH    H410173   7.781   2.222   4.422 -0.2898  1.8038  1.1000
  160ACOH    O210174   7.761   2.278   4.345 -0.0650  0.3690 -0.0296
  160ACOH    C210175   7.627   2.279   4.321  0.3934 -0.5148  0.2866
  160ACOH    O110176   7.536   2.243   4.395  0.1260 -0.0615 -0.8509
  160ACOH    C110177   7.595   2.353   4.197 -0.0103 -0.2337 -0.5788
  160ACOH    H110178   7.544   2.444   4.229  1.0492  0.3170 -0.4055
  160ACOH    H210179   7.531   2.298   4.128 -2.6840 -0.9607  2.3922
  160ACOH    H310180   7.688   2.385   4.150  0.9561  0.9844  2.0430
  161ACOH    H410181   8.953   1.566   1.554  0.4020  0.6490  0.3396
  161ACOH    O210182   8.876   1.602   1.601  0.0289  0.9505 -0.4828
  161ACOH    C210183   8.826   1.507   1.683  0.2665  0.3021  0.3800
  161ACOH    O110184   8.899   1.432   1.745 -0.2147 -0.4009  0.3128
  161ACOH    C110185   8.690   1.534   1.738  0.1023  0.3039  0.5174
  161ACOH    H110186   8.692   1.601   1.824  2.3881  0.0624  0.6721
  161ACOH    H210187   8.643   1.440   1.765  0.6348  0.3173  1.5088
  161ACOH    H310188   8.624   1.576   1.662  1.5007  0.3456 -0.6874
  162ACOH    H410189   9.090   3.217   4.545 -0.3577  0.0772  1.4131
  162ACOH    O210190   8.998   3.197   4.520  0.1529 -0.2557 -0.2417
  162ACOH    C210191   8.940   3.314   4.531  0.3440 -0.3925 -0.5138
  162ACOH    O110192   8.987   3.408   4.592  0.1401  0.2663  0.0044
  162ACOH    C110193   8.801   3.298   4.490 -0.4352  0.5902  1.0231
  162ACOH    H110194   8.787   3.341   4.390  0.6800  0.6054  0.8645
  162ACOH    H210195   8.735   3.356   4.555 -2.6834  0.4477 -1.0557
  162ACOH    H310196   8.763   3.196   4.494  2.8923 -0.7340  0.4975
  163ACOH    H410197   6.794   0.274   4.335 -0.9752  0.3638  0.6575
  163ACOH    O210198   6.823   0.355   4.380  0.5659 -0.2005  0.6914
  163ACOH    C210199   6.894   0.435   4.305 -0.4139 -0.7288  0.2514
  163ACOH    O110200   6.893   0.437   4.184  0.0932  0.5763  0.3680
  163ACOH    C110201   6.959   0.538   4.395  0.1864  0.1150 -0.3080
  163ACOH    H110202   7.067   0.525   4.383  0.2401  0.3391 -0.0847
  163ACOH    H210203   6.929   0.525   4.499 -0.3148  2.1287 -0.1879
  163ACOH    H310204   6.934   0.638   4.360  3.1547  0.6349 -1.0832
  164ACOH    H410205   7.906   6.661   0.822  0.0836 -1.3535 -0.2507
  164ACOH    O210206   7.832   6.634   0.767 -0.2867 -0.2015 -0.3376
  164ACOH    C210207   7.835   6.498   0.778  0.6127 -0.5384 -0.5255
  164ACOH    O110208   7.897   6.431   0.861  0.0372 -0.1940 -0.3987
  164ACOH    C110209   7.735   6.439   0.688  0.4609  0.4674 -0.1634
  164ACOH    H110210   7.657   6.378   0.733  0.2559  0.9934  0.2053
  164ACOH    H210211   7.787   6.379   0.613  1.8608 -2.7338  3.2604
  164ACOH    H310212   7.685   6.522   0.638  1.0525  0.6415 -0.4799
  165ACOH    H410213   6.246   8.299   3.790  4.2292 -1.7414  0.4374
  165ACOH    O210214   6.215   8.242   3.862  0.1161 -0.0124  0.1562
  165ACOH    C210215   6.215   8.122   3.799  0.0127  0.7899 -0.6267
  165ACOH    O110216   6.267   8.091   3.694 -0.0992  0.1395 -0.2512
  165ACOH    C110217   6.155   8.020   3.894  0.4360 -0.6937 -0.3009
  165ACOH    H110218   6.095   8.074   3.967  2.9450  2.4047 -0.4616
  165ACOH    H210219   6.243   7.969   3.933  0.9933  0.9904  0.6656
  165ACOH    H310220   6.090   7.947   3.845 -1.4240 -0.4524  1.7392
  166ACOH    H410221   4.219   6.113   3.328  2.8917  1.0039 -2.9071
  166ACOH    O210222   4.251   6.022   3.333  0.1075  0.0942  0.0528
  166ACOH    C210223   4.161   5.939   3.395  0.9262 -0.1914  0.2254
  166ACOH    O110224   4.059   5.979   3.450  0.3991  0.1717  0.4543
  166ACOH    C110225   4.224   5.809   3.395  0.0647 -0.4268  0.1483
  166ACOH    H110226   4.331   5.819   3.377 -0.3442 -0.4993 -2.4678
  166ACOH    H210227   4.182   5.749   3.315  0.0559  1.4090 -1.2606
  166ACOH    H310228   4.210   5.768   3.495 -0.6026 -0.5157  0.0205
  167ACOH    H410229   2.102   9.368   1.548  2.3310 -0.1938  0.6320
  167ACOH    O210230   2.091   9.280   1.509  0.1021  0.4189 -0.2230
  167ACOH    C210231   1.990   9.216   1.569 -0.1137  0.2467  0.6410
  167ACOH    O110232   1.935   9.261   1.667 -0.1456 -0.7989 -0.5039
  167ACOH    C110233   1.940   9.097   1.489 -0.2540 -0.9234 -0.4481
  167ACOH    H110234   1.991   9.103   1.393  1.6340  0.1186  0.5721
  167ACOH    H210235   1.835   9.106   1.460 -0.9361 -2.9620  1.3024
  167ACOH    H310236   1.956   9.008   1.549  1.6041  0.6000  1.3856
  168ACOH    H410237   5.830   7.018   3.314  1.6437  0.1444 -0.2802
  168ACOH    O210238   5.843   6.922   3.309  0.2936 -0.0617 -0.0430
  168ACOH    C210239   5.956   6.892   3.240 -0.2111 -0.0599  0.6862
  168ACOH    O110240   6.044   6.969   3.200 -0.3895  0.1660 -0.1915
  168ACOH    C110241   5.963   6.749   3.220  0.2160 -0.2157 -0.2498
  168ACOH    H110242   5.943   6.712   3.320 -0.2958 -1.7655 -0.9100
  168ACOH    H210243   6.053   6.713   3.172 -0.8160 -0.0134 -2.4141
  168ACOH    H310244   5.874   6.728   3.160 -0.5062 -2.1854  1.4695
  169ACOH    H410245   2.025   1.595   0.030  0.5198 -1.9281 -0.9983
  169ACOH    O210246   2.118   1.624   0.041 -0.1828  0.1142 -0.1252
  169ACOH    C210247   2.143   1.730  -0.041  0.3275  0.3881 -0.0746
  169ACOH    O110248   2.077   1.760  -0.140  0.8954  0.3115 -0.2598
  169ACOH    C110249   2.273   1.789  -0.018 -0.6391  0.4065 -0.0608
  169ACOH    H110250   2.311   1.756   0.079 -2.2464 -0.7017  0.2261
  169ACOH    H210251   2.265   1.898  -0.022 -3.2252  0.2979  0.8955
  169ACOH    H310252   2.343   1.762  -0.096 -1.4715 -1.6562 -0.1314
  170ACOH    H410253   9.720   3.377   0.194  2.8014 -1.8446  0.9163
  170ACOH    O210254   9.728   3.366   0.097 -0.0323 -0.7384  0.5158
  170ACOH    C210255   9.632   3.427   0.031 -0.5577  0.5117  0.3539
  170ACOH    O110256   9.558   3.512   0.076 -0.3104  0.2948 -0.0157
  170ACOH    C110257   9.620   3.383  -0.109  0.3990  0.2520 -0.2354
  170ACOH    H110258   9.719   3.393  -0.154  1.0569  3.6866  1.7682
  170ACOH    H210259   9.551   3.446  -0.164  0.9773  1.1444  0.0521
  170ACOH    H310260   9.594   3.277  -0.113  1.1898  0.0867 -1.3768
  171ACOH    H410261   7.877   4.440   3.953 -1.1737  1.3996 -0.2740
  171ACOH    O210262   7.799   4.383   3.955 -0.2210  0.0824 -0.1297
  171ACOH    C210263   7.849   4.264   3.999  1.2911  0.8728 -0.3526
  171ACOH    O110264   7.953   4.241   4.052 -0.2173 -0.5113  0.2418
  171ACOH    C110265   7.733   4.168   4.010  0.1594  0.5860 -0.1218
  171ACOH    H110266   7.683   4.165   3.914 -1.5629 -0.1867  0.7843
  171ACOH    H210267   7.669   4.200   4.092  0.2628 -0.0607  0.2169
  171ACOH    H310268   7.766   4.068   4.037  1.0087  0.9731  0.2965
  172ACOH    H410269   1.714   8.970   1.985 -1.1198 -1.1459 -0.4940
  172ACOH    O210270   1.666   9.005   1.908 -0.4816  0.6385 -0.1018
  172ACOH    C210271   1.746   8.980   1.801 -0.1230 -0.1920 -0.3824
  172ACOH    O110272   1.866   8.951   1.803 -0.2623 -0.2728  0.7105
  172ACOH    C110273   1.666   8.971   1.681 -0.4745  0.1612 -0.4681
  172ACOH    H110274   1.726   8.954   1.592 -1.1559  2.7543 -1.4905
  172ACOH    H210275   1.606   9.061   1.664  2.0872  2.2160  1.1023
  172ACOH    H310276   1.600   8.884   1.682  0.3631 -0.4875 -1.1171
  173ACOH    H410277   2.400   0.934   1.866  1.2320 -0.8226 -0.0889
  173ACOH    O210278   2.435   1.002   1.926 -0.5190  0.0328  0.0131
  173ACOH    C210279   2.506   0.935   2.017  0.1810  0.2938  0.3657
  173ACOH    O110280   2.511   0.816   2.045 -0.4196 -0.3593  0.7260
  173ACOH    C110281   2.561   1.017   2.127  0.0518 -0.0143  0.1367
  173ACOH    H110282   2.531   0.984   2.227 -0.3052 -0.5650 -0.1484
  173ACOH    H210283   2.542   1.124   2.123  1.6451  0.2817  0.1840
  173ACOH    H310284   2.669   1.007   2.120  0.1272  1.0625 -0.4162
  174ACOH    H410285   9.420   8.097   4.557  0.2732 -0.5208  0.3225
  174ACOH    O210286   9.425   8.065   4.649 -0.2139  0.0037  0.5340
  174ACOH    C210287   9.500   8.148   4.717 -0.5641 -0.1442 -0.0988
  174ACOH    O110288   9.562   8.240   4.673  0.0463 -0.0793  0.4148
  174ACOH    C110289   9.506   8.096   4.858  0.0663 -0.3594  0.2396
  174ACOH    H110290   9.569   8.153   4.926  0.5414  1.3677 -1.5870
  174ACOH    H210291   9.547   7.995   4.856  0.6649 -0.1254  0.4226
  174ACOH    H310292   9.408   8.091   4.904  0.3930 -0.9149  0.8743
  175ACOH    H410293   8.496   3.715   2.436  0.2641 -2.2116  0.1634
  175ACOH    O210294   8.555   3.751   2.504 -1.0296  0.2970  0.0093
  175ACOH    C210295   8.531   3.878   2.540 -0.1805  0.2852 -0.7269
  175ACOH    O110296   8.447   3.950   2.489  0.3299  0.3920 -0.9529
  175ACOH    C110297   8.620   3.930   2.649 -0.0612 -0.4365 -0.5167
  175ACOH    H110298   8.684   3.850   2.686  0.9245  0.3239 -0.5902
  175ACOH    H210299   8.568   3.966   2.738  0.4074  0.4998 -0.6201
  175ACOH    H310300   8.688   4.005   2.610  0.6254 -0.8324 -0.0999
  176ACOH    H410301   7.563   8.329   0.920 -1.7794  1.3232  2.8188
  176ACOH    O210302   7.553   8.241   0.960 -0.7502 -0.0530  0.1766
  176ACOH    C210303   7.601   8.146   0.879 -0.2486  0.2408  0.5402
  176ACOH    O110304   7.636   8.161   0.765 -0.1164 -0.2253  0.0004
  176ACOH    C110305   7.616   8.008   0.940 -0.9842  0.0492  0.6489
  176ACOH    H110306   7.535   8.000   1.012 -0.8200  1.3910  1.0106
  176ACOH    H210307   7.709   7.992   0.995 -0.7680 -0.5634  0.1035
  176ACOH    H310308   7.615   7.932   0.862 -1.0029  1.1725 -0.4765
  177ACOH    H410309   8.129   7.808   0.766 -2.2532 -0.5257  0.8566
  177ACOH    O210310   8.073   7.828   0.690 -0.3740  0.1512 -0.3756
  177ACOH    C210311   8.005   7.945   0.721  0.1624 -0.0411 -0.1495
  177ACOH    O110312   7.991   7.981   0.837  0.0219  0.0181  0.0974
  177ACOH    C110313   7.942   8.029   0.618 -0.2692  1.1434 -0.0955
  177ACOH    H110314   8.002   8.118   0.598  0.2354  0.9202  0.4171
  177ACOH    H210315   7.841   8.060   0.646 -2.1030 -2.1887 -2.6700
  177ACOH    H310316   7.940   7.980   0.521 -0.3024  0.1157  0.4168
  178ACOH    H410317   3.448   3.706   3.792 -1.0640 -0.5354 -0.4198
  178ACOH    O210318   3.395   3.780   3.757  0.0571  0.4199 -0.1324
  178ACOH    C210319   3.339   3.838   3.858 -0.6741 -0.8001 -0.3712
  178ACOH    O110320   3.360   3.814   3.974 -0.8269 -0.1655 -0.5566
  178ACOH    C110321   3.250   3.947   3.810 -0.3223  0.8091  0.0704
  178ACOH    H110322   3.161   3.947   3.874 -0.1851 -1.8372  0.3154
  178ACOH    H210323   3.207   3.936   3.710 -0.1735 -1.0571  0.1962
  178ACOH    H310324   3.297   4.044   3.825 -1.0726  0.8736  2.1786
  179ACOH    H410325   8.270   3.892   2.023  0.9141 -0.1394  0.4116
  179ACOH    O210326   8.247   3.983   2.051 -0.0354 -0.2268 -0.0583
  179ACOH    C210327   8.176   4.050   1.962 -0.0274 -0.5118 -0.3557
  179ACOH    O110328   8.155   4.020   1.844 -0.2590 -0.3599  0.2047
  179ACOH    C110329   8.135   4.182   2.014  0.1410  0.0894 -0.1231
  179ACOH    H110330   8.047   4.176   2.079  0.6046 -0.4022  0.4612
  179ACOH    H210331   8.118   4.250   1.931  1.9388 -0.9104 -1.3325
  179ACOH    H310332   8.219   4.221   2.070 -0.4064 -1.6843  2.0312
  180ACOH    H410333   4.526   1.639   4.236 -1.0445  1.2643  0.7748
  180ACOH    O210334   4.578   1.708   4.191  0.5636 -0.1217  0.4390
  180ACOH    C210335   4.510   1.734   4.081 -0.0925 -0.4294  0.1558
  180ACOH    O110336   4.418   1.663   4.031 -0.0915  0.1051  0.4153
  180ACOH    C110337   4.572   1.847   4.008 -0.7254  0.6799 -0.3747
  180ACOH    H110338   4.496   1.903   3.952 -0.2641 -0.7800 -2.4814
  180ACOH    H210339   4.652   1.804   3.948  0.0160  0.4307  0.7745
  180ACOH    H310340   4.618   1.908   4.086 -0.7754 -1.2550  1.2165
  181ACOH    H410341   6.321   9.450   0.963 -0.6692  1.7296  0.9269
  181ACOH    O210342   6.314   9.392   1.041 -0.5968  0.1071 -0.2323
  181ACOH    C210343   6.434   9.396   1.104  0.1375 -0.3280 -0.6570
  181ACOH    O110344   6.539   9.388   1.042 -0.1607  0.0537 -0.3318
  181ACOH    C110345   6.424   9.370   1.246  0.2849 -0.4198 -0.2672
  181ACOH    H110346   6.362   9.448   1.291  0.1576 -0.1517 -0.9031
  181ACOH    H210347   6.522   9.366   1.294 -0.1928  0.8991  0.8596
  181ACOH    H310348   6.376   9.274   1.266  2.0443 -1.1127  0.8064
  182ACOH    H410349   8.230   3.130   2.622  0.0288 -0.0471 -2.2641
  182ACOH    O210350   8.167   3.057   2.613 -0.6090  0.1054  0.4682
  182ACOH    C210351   8.073   3.087   2.526 -0.0016 -0.1819 -0.0232
  182ACOH    O110352   8.065   3.190   2.461  0.3742 -0.7897  0.0090
  182ACOH    C110353   7.963   2.989   2.515 -0.0724  0.1767  0.1158
  182ACOH    H110354   7.920   2.965   2.613 -0.2077  1.1393  0.3018
  182ACOH    H210355   8.012   2.900   2.475  2.5661  2.1984 -1.3319
  182ACOH    H310356   7.883   3.027   2.452 -0.7057  0.2486  0.9428
  183ACOH    H410357   9.506   5.033   3.382 -2.1383 -1.5606 -3.2726
  183ACOH    O210358   9.431   5.047   3.442  0.2013  0.2165 -0.6998
  183ACOH    C210359   9.490   5.034   3.565 -0.3593  0.6131 -0.2065
  183ACOH    O110360   9.608   5.044   3.593  0.5024  0.0564  0.2314
  183ACOH    C110361   9.385   5.001   3.667  1.3361 -0.0542 -0.3754
  183ACOH    H110362   9.304   5.073   3.658  0.6622 -0.4963  1.9767
  183ACOH    H210363   9.402   4.988   3.774 -3.3220 -0.0470  0.4593
  183ACOH    H310364   9.360   4.904   3.625  0.2879  0.1606 -0.2716
  184ACOH    H410365   6.573   1.257   2.511  0.4827 -0.6104 -3.3268
  184ACOH    O210366   6.486   1.276   2.471 -0.5937  0.2752 -0.6945
  184ACOH    C210367   6.438   1.399   2.512 -0.0202  0.2271 -0.3476
  184ACOH    O110368   6.492   1.484   2.587 -0.1553 -0.2791  0.3690
  184ACOH    C110369   6.298   1.411   2.466  0.0069  0.3979 -0.1577
  184ACOH    H110370   6.303   1.431   2.359  1.7871  0.5486 -0.0584
  184ACOH    H210371   6.257   1.502   2.511  1.0088  1.7487 -1.9241
  184ACOH    H310372   6.237   1.323   2.487  1.1290 -0.1416  0.9040
  185ACOH    H410373   3.888   4.972   4.151  1.2688  1.2773  1.9735
  185ACOH    O210374   3.971   4.950   4.105  0.0065  0.8438 -0.1907
  185ACOH    C210375   3.990   4.819   4.086 -0.0693 -0.5456  0.0574
  185ACOH    O110376   3.904   4.735   4.058  0.3438  0.2196  0.1955
  185ACOH    C110377   4.137   4.793   4.097 -0.1010  0.2717  0.6342
  185ACOH    H110378   4.156   4.708   4.162 -1.0643 -0.3696  0.0880
  185ACOH    H210379   4.183   4.886   4.131 -0.4536  0.8468 -0.4184
  185ACOH    H310380   4.175   4.763   3.999  0.2485  1.5439  0.3590
  186ACOH    H410381   4.652   5.279   2.228 -2.4688  0.7226  0.1172
  186ACOH    O210382   4.651   5.211   2.298 -0.1795  0.4493 -0.0840
  186ACOH    C210383   4.582   5.255   2.400 -0.3528  1.0654  0.5238
  186ACOH    O110384   4.539   5.367   2.417 -0.2193  0.0962  0.4719
  186ACOH    C110385   4.544   5.136   2.480  0.9090 -0.0555  0.0275
  186ACOH    H110386   4.604   5.144   2.570  0.1914 -0.0584  0.5102
  186ACOH    H210387   4.582   5.046   2.430  1.2441 -0.5735  1.2014
  186ACOH    H310388   4.437   5.133   2.500  0.7726  2.0577 -0.2962
  187ACOH    H410389   4.168   7.364   1.110  0.7308  1.7378 -0.4111
  187ACOH    O210390   4.136   7.314   1.033 -0.1532  0.0670  1.0175
  187ACOH    C210391   4.183   7.379   0.926  0.0935  0.0813  0.3360
  187ACOH    O110392   4.233   7.488   0.921  0.4744  0.2220 -0.1406
  187ACOH    C110393   4.170   7.291   0.805  0.4063  0.1246  0.3434
  187ACOH    H110394   4.069   7.253   0.788  1.0720 -0.8378 -1.5684
  187ACOH    H210395   4.237   7.205   0.811 -2.1848 -1.8955  1.2314
  187ACOH    H310396   4.200   7.359   0.726 -0.1573  0.3749  0.3404
  188ACOH    H410397   7.949   0.846   0.606  2.4938  0.5673  1.0527
  188ACOH    O210398   7.951   0.904   0.527  0.6302 -0.1663  0.4309
  188ACOH    C210399   7.893   1.024   0.556 -0.3677 -0.3335 -1.1044
  188ACOH    O110400   7.848   1.056   0.662 -0.2337 -0.5411 -0.3262
  188ACOH    C110401   7.909   1.120   0.445  0.5642  0.5594 -0.0179
  188ACOH    H110402   7.947   1.065   0.360 -0.2202  1.3788 -0.9080
  188ACOH    H210403   7.981   1.197   0.471  1.0689  0.9880 -2.5793
  188ACOH    H310404   7.812   1.160   0.414 -1.0086 -0.3166  3.3942
  189ACOH    H410405   8.031   9.950   3.906 -0.6621 -2.3948 -0.4595
  189ACOH    O210406   8.119   9.926   3.940 -0.2262 -0.5609 -0.2632
  189ACOH    C210407   8.167   9.832   3.862  0.3548  0.0840  0.4402
  189ACOH    O110408   8.103   9.741   3.814  0.6936  0.0732 -0.2232
  189ACOH    C110409   8.305   9.819   3.905  0.2210  0.2920 -0.8131
  189ACOH    H110410   8.351   9.918   3.913 -0.0675  0.5498 -2.1873
  189ACOH    H210411   8.357   9.761   3.830 -0.6588  0.5811 -1.6655
  189ACOH    H310412   8.304   9.763   3.999  4.0670 -1.6937 -1.9010
  190ACOH    H410413   8.204   4.595   1.349  1.8142  0.3001 -1.0105
  190ACOH    O210414   8.156   4.620   1.268  0.2271  0.3542 -0.0655
  190ACOH    C210415   8.168   4.512   1.185 -0.0462  0.5470  0.4371
  190ACOH    O110416   8.259   4.429   1.182 -0.0152 -0.6598 -0.0960
  190ACOH    C110417   8.108   4.550   1.052 -0.5538  0.6359 -0.0195
  190ACOH    H110418   8.104   4.460   0.990 -1.3587 -0.9634  2.3163
  190ACOH    H210419   8.174   4.623   1.004 -2.3859  1.6794 -0.9989
  190ACOH    H310420   8.006   4.585   1.067 -0.3610  1.3337 -0.2963
  191ACOH    H410421   5.089   4.492   1.126  1.2607 -0.9721 -1.7082
  191ACOH    O210422   5.073   4.412   1.178 -0.1452  0.5940  0.3481
  191ACOH    C210423   5.113   4.301   1.105  0.0654 -0.0998  0.6674
  191ACOH    O110424   5.160   4.305   0.995 -0.0956  0.5705  0.8652
  191ACOH    C110425   5.095   4.179   1.183 -0.5184 -0.3921  0.3557
  191ACOH    H110426   5.169   4.196   1.262 -2.3615 -0.3448  2.1264
  191ACOH    H210427   5.116   4.091   1.122  0.5561 -0.1076  0.3165
  191ACOH    H310428   4.994   4.181   1.224 -0.7246  2.6198 -0.1901
  192ACOH    H410429   5.132   3.844   1.002  0.4152 -0.8075  0.7949
  192ACOH    O210430   5.216   3.893   1.002 -0.0789  0.0528  0.0183
  192ACOH    C210431   5.322   3.814   0.987  0.4122 -0.0763 -0.3630
  192ACOH    O110432   5.316   3.695   0.980 -0.0900 -0.3905 -0.3622
  192ACOH    C110433   5.451   3.882   0.961  0.0237 -0.0254 -0.5452
  192ACOH    H110434   5.477   3.871   0.856 -0.4845 -0.8932 -0.5793
  192ACOH    H210435   5.526   3.840   1.028 -1.7910 -2.6734 -0.1154
  192ACOH    H310436   5.427   3.987   0.982 -2.3367 -0.8518  1.1460
  193ACOH    H410437   4.905   5.447   1.528 -0.6991  0.0410 -1.6414
  193ACOH    O210438   4.900   5.536   1.566  0.6245 -0.2397 -0.7802
  193ACOH    C210439   4.794   5.597   1.515  0.6265  0.6670 -0.0920
  193ACOH    O110440   4.709   5.544   1.449  0.2654 -0.0321 -0.2937
  193ACOH    C110441   4.787   5.735   1.552  0.5284 -0.1532 -0.0193
  193ACOH    H110442   4.686   5.769   1.574  0.5890 -1.1001  1.7596
  193ACOH    H210443   4.826   5.789   1.466 -1.5401 -1.6777 -1.9730
  193ACOH    H310444   4.852   5.751   1.639 -1.6141 -4.1003  2.4310
  194ACOH    H410445   4.380   3.002   4.699  0.4872 -1.0279  0.2701
  194ACOH    O210446   4.368   2.941   4.624  0.3362  0.3432 -0.8438
  194ACOH    C210447   4.472   2.957   4.545  0.2127 -0.0906 -0.1245
  194ACOH    O110448   4.561   3.038   4.545  0.2946 -0.4523 -0.5683
  194ACOH    C110449   4.470   2.844   4.453 -0.5754  0.0050  0.0793
  194ACOH    H110450   4.390   2.772   4.467  0.3573 -1.3409 -1.3437
  194ACOH    H210451   4.560   2.784   4.467 -0.2571  0.1626 -1.2418
  194ACOH    H310452   4.477   2.876   4.349  0.6678  0.6546  0.3447
  195ACOH    H410453   7.767   6.448   2.759  0.2273 -1.2564 -1.5841
  195ACOH    O210454   7.863   6.461   2.752  0.2232  0.3260  0.8539
  195ACOH    C210455   7.890   6.582   2.705  0.1445 -0.1997  0.0395
  195ACOH    O110456   7.817   6.676   2.691  0.1252 -0.2643  1.5780
  195ACOH    C110457   8.026   6.597   2.655  0.2555 -0.1447 -0.2810
  195ACOH    H110458   8.082   6.511   2.691  1.4955  0.3282 -1.0366
  195ACOH    H210459   8.074   6.688   2.691  0.0954 -0.2253  0.1434
  195ACOH    H310460   8.017   6.596   2.547 -0.6143  0.8235 -0.2321
  196ACOH    H410461   5.568   9.145   3.925 -0.0949 -0.4457 -0.2189
  196ACOH    O210462   5.553   9.081   3.854 -0.3166 -0.7717  0.1188
  196ACOH    C210463   5.554   8.952   3.901  0.0397 -0.1325 -0.6022
  196ACOH    O110464   5.606   8.905   4.002  0.0448 -0.4059  0.0103
  196ACOH    C110465   5.517   8.863   3.796 -0.0987  0.8930  0.5790
  196ACOH    H110466   5.611   8.830   3.751  0.3660  0.9040  1.5234
  196ACOH    H210467   5.462   8.915   3.718  1.5598  1.6791 -0.0857
  196ACOH    H310468   5.467   8.776   3.837  2.0033 -0.4867  0.2744
  197ACOH    H410469   7.388   1.241   2.973 -0.3817  1.1916 -1.6549
  197ACOH    O210470   7.481   1.233   2.947  0.1071  0.4546  0.1695
  197ACOH    C210471   7.568   1.282   3.045 -0.4470  0.9328  0.1693
  197ACOH    O110472   7.542   1.350   3.143 -0.7724 -0.0421  0.0279
  197ACOH    C110473   7.706   1.255   2.996  0.3843  0.1180  0.1279
  197ACOH    H110474   7.743   1.174   3.058 -1.0412 -0.4720  0.2293
  197ACOH    H210475   7.760   1.346   3.021  2.4914 -0.1341 -3.2018
  197ACOH    H310476   7.702   1.238   2.888  0.3228  0.4362  0.0763
  198ACOH    H410477   7.394   1.280   3.511  0.9189 -0.4958 -1.2651
  198ACOH    O210478   7.319   1.279   3.450  0.0783  0.0502 -0.2708
  198ACOH    C210479   7.291   1.407   3.418 -0.5553  0.2014  0.1312
  198ACOH    O110480   7.355   1.504   3.449  0.3129 -0.0372  0.7325
  198ACOH    C110481   7.166   1.433   3.343 -0.5515 -0.5920 -0.1681
  198ACOH    H110482   7.095   1.500   3.392 -2.0071 -2.2413  0.0465
  198ACOH    H210483   7.109   1.343   3.320 -0.9363 -1.0854  2.6242
  198ACOH    H310484   7.188   1.467   3.242 -0.4511  0.8012  0.3114
  199ACOH    H410485   7.321   0.121   1.880  0.1615 -1.7743 -0.0959
  199ACOH    O210486   7.235   0.116   1.835  0.0968 -0.6883 -0.1139
  199ACOH    C210487   7.262   0.095   1.703 -0.5988 -0.4837 -0.3228
  199ACOH    O110488   7.370   0.062   1.654  0.5660 -0.0579 -0.2806
  199ACOH    C110489   7.145   0.081   1.629  0.4073 -0.2471  0.3020
  199ACOH    H110490   7.094   0.177   1.630 -0.9405 -0.9591  1.6720
  199ACOH    H210491   7.078   0.007   1.673 -1.4270  1.4535  0.4126
  199ACOH    H310492   7.177   0.049   1.529 -0.9643  1.6562 -0.7725
  200ACOH    H410493   7.854   8.761   0.721  0.6881  0.6722  0.8639
  200ACOH    O210494   7.824   8.849   0.692  0.1125  0.0386 -0.5073
  200ACOH    C210495   7.687   8.837   0.673 -0.9522 -0.0800 -0.0539
  200ACOH    O110496   7.629   8.734   0.697 -0.5454  0.2371  0.3064
  200ACOH    C110497   7.628   8.965   0.622  0.6472  0.5407 -0.2884
  200ACOH    H110498   7.519   8.965   0.623  0.6035  2.2759 -1.9917
  200ACOH    H210499   7.660   8.982   0.519 -2.7183  0.1863 -1.4344
  200ACOH    H310500   7.656   9.044   0.691  1.1850  1.0971 -1.1390
  201ACOH    H410501   6.290   7.721   1.895 -0.9596  0.9597 -0.9458
  201ACOH    O210502   6.380   7.743   1.867 -0.5115  0.5199  0.1020
  201ACOH    C210503   6.460   7.633   1.866 -0.3356 -0.3676 -0.1684
  201ACOH    O110504   6.426   7.513   1.866 -0.1226 -0.2325 -0.1959
  201ACOH    C110505   6.604   7.670   1.852  0.3261  0.0332 -0.0457
  201ACOH    H110506   6.636   7.685   1.749  0.1949  0.8092  0.0204
  201ACOH    H210507   6.663   7.598   1.908  2.2851  0.5498 -1.4062
  201ACOH    H310508   6.620   7.759   1.913 -0.1249  0.9370 -1.2251
  202ACOH    H410509   5.733   0.447   1.492 -2.3014  0.6791  2.2652
  202ACOH    O210510   5.811   0.487   1.536 -0.1068 -0.8684 -0.0689
  202ACOH    C210511   5.924   0.441   1.484 -0.0902  0.2629  0.4953
  202ACOH    O110512   5.942   0.367   1.388 -0.3236 -0.4606  0.1872
  202ACOH    C110513   6.040   0.513   1.548 -0.1020 -0.2871 -0.2071
  202ACOH    H110514   6.031   0.615   1.512 -1.8888 -0.5301 -0.4987
  202ACOH    H210515   6.132   0.469   1.510 -0.2785 -0.9302  0.0970
  202ACOH    H310516   6.032   0.510   1.657 -1.8433 -1.2084 -0.3451
  203ACOH    H410517   6.155   7.256   2.143 -0.8925 -1.2848 -0.9252
  203ACOH    O210518   6.126   7.285   2.055 -0.0671 -0.1162 -0.8258
  203ACOH    C210519   5.996   7.263   2.040  0.3738  0.1114 -0.3604
  203ACOH    O110520   5.913   7.222   2.120  0.3002 -0.4126  0.2181
  203ACOH    C110521   5.945   7.313   1.911  0.1977  0.6741  0.5675
  203ACOH    H110522   5.885   7.241   1.855  1.6417  0.5295 -0.8310
  203ACOH    H210523   6.023   7.341   1.841 -0.7906 -1.4093 -1.4440
  203ACOH    H310524   5.878   7.396   1.934 -0.3072  0.0882  1.2262
  204ACOH    H410525   5.295   4.916   1.671  0.3963 -0.7401  0.7516
  204ACOH    O210526   5.391   4.929   1.684  0.3866  0.1486 -0.0156
  204ACOH    C210527   5.408   5.055   1.729  0.3005  0.5449 -0.0060
  204ACOH    O110528   5.313   5.119   1.773  0.0991 -0.4276  0.2058
  204ACOH    C110529   5.551   5.093   1.733 -0.0092  0.9094 -0.6828
  204ACOH    H110530   5.564   5.142   1.829  0.0769 -1.1991  0.3990
  204ACOH    H210531   5.577   5.159   1.650 -0.3528  1.4049 -0.3997
  204ACOH    H310532   5.612   5.004   1.724 -0.0357  0.9167 -0.9628
  205ACOH    H410533   4.065   4.553   2.462 -0.6258 -0.1120  2.1166
  205ACOH    O210534   4.106   4.638   2.486  0.0946  0.2231 -0.1815
  205ACOH    C210535   4.143   4.699   2.372  0.5918 -0.2493 -0.0446
  205ACOH    O110536   4.154   4.657   2.261  0.5215 -0.1236  0.3026
  205ACOH    C110537   4.179   4.840   2.402  0.4289  0.9132  0.6241
  205ACOH    H110538   4.106   4.909   2.359 -0.7018  0.9618  2.5517
  205ACOH    H210539   4.281   4.865   2.372  0.8938 -3.2512 -1.6437
  205ACOH    H310540   4.175   4.850   2.511  0.1733  2.5356  0.4887
  206ACOH    H410541   7.637   5.284   2.280  0.4906  0.2444 -0.6718
  206ACOH    O210542   7.572   5.340   2.234 -0.6558 -0.2668  0.3182
  206ACOH    C210543   7.594   5.468   2.268  0.0247  0.1096  1.0909
  206ACOH    O110544   7.677   5.508   2.350 -0.5301 -0.2277  0.2626
  206ACOH    C110545   7.485   5.554   2.219  0.0652 -0.1755  0.4165
  206ACOH    H110546   7.519   5.655   2.243 -0.0682 -0.7127  3.0356
  206ACOH    H210547   7.401   5.520   2.280  0.3300 -1.8005 -0.0832
  206ACOH    H310548   7.470   5.531   2.114 -1.0948 -1.4269  0.8334
  207ACOH    H410549   3.709   6.061   0.026  1.7514 -0.6321  1.1240
  207ACOH    O210550   3.745   6.131  -0.031 -0.0218 -0.2397  0.4519
  207ACOH    C210551   3.744   6.061  -0.152  0.2695  0.4381  0.2978
  207ACOH    O110552   3.717   5.944  -0.177  0.2237  0.1940  0.1500
  207ACOH    C110553   3.795   6.158  -0.250 -0.1194  0.2428 -0.3058
  207ACOH    H110554   3.707   6.202  -0.295 -0.7927 -3.1062 -2.4190
  207ACOH    H210555   3.850   6.112  -0.332 -1.1736 -3.6046  1.0388
  207ACOH    H310556   3.863   6.230  -0.204  0.0190  2.0954 -3.2811
  208ACOH    H410557   4.954   0.384   1.397  1.5514  0.7247 -2.6385
  208ACOH    O210558   4.940   0.295   1.359  0.3568 -0.5268  0.5612
  208ACOH    C210559   4.824   0.260   1.410 -0.0319 -0.7565 -0.9060
  208ACOH    O110560   4.728   0.333   1.425 -0.0654 -0.4493  0.5538
  208ACOH    C110561   4.805   0.112   1.409  0.3618 -0.4619  0.3914
  208ACOH    H110562   4.698   0.091   1.402  0.5455 -0.8881 -1.5972
  208ACOH    H210563   4.841   0.085   1.508  0.0326  0.7825  0.8640
  208ACOH    H310564   4.859   0.058   1.331  0.0749  0.0574 -0.1807
  209ACOH    H410565   7.768   4.998   1.079 -1.9482 -0.4920 -3.0582
  209ACOH    O210566   7.687   4.980   1.131 -0.1404 -0.4344 -0.1354
  209ACOH    C210567   7.674   5.082   1.213 -0.5188 -0.2942  0.0441
  209ACOH    O110568   7.738   5.190   1.224  0.9083 -0.0227  0.3645
  209ACOH    C110569   7.567   5.040   1.292 -0.0862 -0.1550 -0.2543
  209ACOH    H110570   7.596   5.068   1.393 -3.2059  0.4442  0.5562
  209ACOH    H210571   7.558   4.932   1.292  1.1927 -0.2976 -2.3367
  209ACOH    H310572   7.468   5.080   1.266 -0.7080 -0.0663  2.1191
  210ACOH    H410573   7.978   4.605   3.090 -0.0839  0.4047 -0.0751
  210ACOH    O210574   7.957   4.621   3.183  0.0278  0.7138 -0.1049
  210ACOH    C210575   7.855   4.713   3.187  0.5984 -0.1581  0.0974
  210ACOH    O110576   7.803   4.766   3.091 -0.5755 -0.2916 -0.7316
  210ACOH    C110577   7.818   4.752   3.329 -0.9854  0.5295  0.0664
  210ACOH    H110578   7.774   4.852   3.338 -0.2037  1.0895 -2.1082
  210ACOH    H210579   7.906   4.745   3.394 -1.0814 -0.7357  0.0632
  210ACOH    H310580   7.742   4.685   3.368 -0.6915  1.2961  2.0241
  211ACOH    H410581   8.031   3.875   1.760 -0.3078 -0.5922  2.3533
  211ACOH    O210582   7.997   3.816   1.690  0.5299  0.3724  1.1134
  211ACOH    C210583   8.059   3.697   1.713 -0.3633 -0.1316  0.3850
  211ACOH    O110584   8.114   3.667   1.813  0.2712 -0.3120  0.4798
  211ACOH    C110585   8.013   3.601   1.613  0.2353  0.2025 -0.5471
  211ACOH    H110586   7.928   3.541   1.646  1.1520 -0.3065  0.9645
  211ACOH    H210587   8.086   3.530   1.572 -0.7675 -1.3602  0.3163
  211ACOH    H310588   7.980   3.655   1.525  1.7905  1.1855 -0.5535
  212ACOH    H410589   7.160   9.032   0.820 -1.3138 -1.5682 -1.0096
  212ACOH    O210590   7.161   8.967   0.892  0.2899 -0.5459 -0.0795
  212ACOH    C210591   7.186   8.843   0.846  1.0053 -0.2153 -0.4971
  212ACOH    O110592   7.187   8.746   0.921  0.2250 -0.2449 -0.7080
  212ACOH    C110593   7.191   8.828   0.697 -0.5869 -0.7036 -0.2390
  212ACOH    H110594   7.092   8.810   0.656 -1.3770  1.1457  0.7744
  212ACOH    H210595   7.263   8.747   0.684 -0.7858 -0.8332 -0.5269
  212ACOH    H310596   7.225   8.913   0.637 -2.7968  1.5757  1.6268
  213ACOH    H410597   6.024   1.140   2.007  2.3971  1.4718 -0.1470
  213ACOH    O210598   6.021   1.126   1.911  0.7304  0.2193  0.0570
  213ACOH    C210599   6.139   1.139   1.856 -0.3936 -0.6825 -0.1470
  213ACOH    O110600   6.244   1.134   1.916 -0.1828  0.2176  0.0086
  213ACOH    C110601   6.125   1.088   1.715 -0.2171  0.4869 -0.0011
  213ACOH    H110602   6.056   1.003   1.724  1.6818 -0.9475  1.5426
  213ACOH    H210603   6.224   1.067   1.675 -0.4529 -0.3879 -0.1513
  213ACOH    H310604   6.076   1.166   1.656 -1.7095 -0.5138 -0.1191
  214ACOH    H410605   7.311   6.105   2.213  1.7473  0.4895  2.8517
  214ACOH    O210606   7.234   6.064   2.256  0.0371  0.2607 -0.2733
  214ACOH    C210607   7.237   6.092   2.390 -0.2285  0.1592 -0.5093
  214ACOH    O110608   7.335   6.126   2.457  0.7812  0.0210 -0.1663
  214ACOH    C110609   7.111   6.050   2.446 -0.9142 -0.7324  0.0183
  214ACOH    H110610   7.123   6.017   2.549  0.9845 -1.3686 -0.3865
  214ACOH    H210611   7.080   5.968   2.382  0.2355  0.3671 -1.9794
  214ACOH    H310612   7.037   6.131   2.448 -1.4522 -1.2334  1.9360
  215ACOH    H410613   8.005   6.000   4.343  0.2349 -1.1773 -1.7174
  215ACOH    O210614   7.964   6.065   4.284  0.4017  0.8338  0.3152
  215ACOH    C210615   7.977   6.037   4.157  0.1669 -0.7417 -0.1722
  215ACOH    O110616   8.043   5.946   4.114 -0.1461  0.0689 -0.0305
  215ACOH    C110617   7.895   6.133   4.074  0.5449 -0.3604  0.3917
  215ACOH    H110618   7.959   6.204   4.022  2.2762 -1.8751  0.4222
  215ACOH    H210619   7.832   6.193   4.140  1.9286  2.2349 -0.6203
  215ACOH    H310620   7.835   6.083   3.998 -0.5502 -0.4831  1.3175
  216ACOH    H410621   2.992   6.160   2.155 -0.0388  1.2920  0.7777
  216ACOH    O210622   2.943   6.201   2.081  0.3347 -0.3708 -0.4192
  216ACOH    C210623   2.807   6.184   2.091  0.4720  0.5561  0.0111
  216ACOH    O110624   2.751   6.121   2.177  0.4788  0.4376 -0.0459
  216ACOH    C110625   2.739   6.272   1.989  0.4097 -0.0425  0.3698
  216ACOH    H110626   2.662   6.331   2.040  0.4694 -0.1796  0.6211
  216ACOH    H210627   2.685   6.209   1.918  1.2633 -2.7893  2.0942
  216ACOH    H310628   2.811   6.338   1.941  0.9867  0.0716  1.3769
  217ACOH    H410629   6.800   8.733   1.379 -1.7549  1.0403 -2.0131
  217ACOH    O210630   6.773   8.646   1.347  0.1916 -0.2835 -0.2219
  217ACOH    C210631   6.876   8.566   1.344 -0.0990  0.2056  0.4707
  217ACOH    O110632   6.966   8.574   1.423  0.0312  0.3607 -0.3112
  217ACOH    C110633   6.820   8.437   1.307 -0.7266  0.7048 -0.1160
  217ACOH    H110634   6.767   8.429   1.212  1.0699 -1.1217 -1.0260
  217ACOH    H210635   6.753   8.403   1.386 -1.8448  1.3251 -0.7928
  217ACOH    H310636   6.905   8.369   1.296 -1.7276 -0.2331 -2.5112
  218ACOH    H410637   4.074   6.784   1.654  1.1165  2.7146  2.7532
  218ACOH    O210638   4.159   6.741   1.672  0.5786  0.3731 -0.0024
  218ACOH    C210639   4.229   6.739   1.557 -0.2000 -0.3707  0.0634
  218ACOH    O110640   4.209   6.808   1.455 -0.2108 -0.5826  0.0771
  218ACOH    C110641   4.341   6.646   1.582 -0.8919  0.3579 -0.2216
  218ACOH    H110642   4.409   6.643   1.497 -0.3373 -0.9102  0.2584
  218ACOH    H210643   4.296   6.551   1.611 -3.4400  1.4413 -0.4424
  218ACOH    H310644   4.395   6.683   1.670 -0.3227 -1.3658  0.1634
  219ACOH    H410645   7.916   4.961   2.747  0.3820  1.0967  0.6028
  219ACOH    O210646   7.844   4.907   2.786  0.2691  0.3990 -0.5577
  219ACOH    C210647   7.721   4.954   2.745  0.1734  0.0529  0.0177
  219ACOH    O110648   7.707   5.014   2.642  0.4496 -0.6333  0.0398
  219ACOH    C110649   7.618   4.872   2.797  0.3287  0.7273 -0.2452
  219ACOH    H110650   7.651   4.769   2.813 -1.4689  0.2031  0.1959
  219ACOH    H210651   7.529   4.861   2.735 -0.6145 -0.2128  1.2516
  219ACOH    H310652   7.602   4.921   2.893  0.5136 -0.7517  0.5631
  220ACOH    H410653   4.440   4.261   3.867  0.1105 -0.5047  0.7953
  220ACOH    O210654   4.490   4.191   3.822  0.0022 -0.5465  0.7415
  220ACOH    C210655   4.609   4.177   3.877 -0.1800  0.2728  1.2979
  220ACOH    O110656   4.647   4.252   3.963  0.1700  0.2846 -0.2084
  220ACOH    C110657   4.688   4.060   3.829 -0.4588  0.5618  0.5827
  220ACOH    H110658   4.785   4.101   3.802 -1.9484  1.9699 -2.9564
  220ACOH    H210659   4.637   4.010   3.747 -1.8437  2.0965  0.4514
  220ACOH    H310660   4.700   3.996   3.916 -0.3833  1.2592  1.0927
  221ACOH    H410661   7.407   1.806   1.324 -0.4462  0.7127 -0.7211
  221ACOH    O210662   7.354   1.736   1.284  0.0623 -0.0089 -0.1383
  221ACOH    C210663   7.367   1.750   1.151 -0.6853  0.0562 -0.0074
  221ACOH    O110664   7.456   1.807   1.091  0.3319  0.2380  0.0392
  221ACOH    C110665   7.256   1.680   1.075 -0.4837 -0.3886  0.1021
  221ACOH    H110666   7.186   1.758   1.045 -1.2858 -0.4121  1.8202
  221ACOH    H210667   7.202   1.614   1.144 -1.3545 -0.0051 -0.2061
  221ACOH    H310668   7.289   1.629   0.985 -1.4456 -2.2341  0.7652
  222ACOH    H410669   5.001   1.114   3.799  0.4701  0.0667 -0.3235
  222ACOH    O210670   5.020   1.170   3.722  0.4103  0.3897 -0.1027
  222ACOH    C210671   5.108   1.262   3.763  0.3359 -0.3182 -0.0817
  222ACOH    O110672   5.150   1.278   3.876 -0.0582 -0.5702 -0.0064
  222ACOH    C110673   5.175   1.324   3.645  0.0635  0.1086  0.6665
  222ACOH    H110674   5.149   1.430   3.639  0.1265  0.0003 -2.7863
  222ACOH    H210675   5.142   1.274   3.554 -0.5982  2.3742 -0.4032
  222ACOH    H310676   5.283   1.315   3.647 -0.0493 -1.0768  2.5587
  223ACOH    H410677   8.104   5.928   0.160 -0.6854  2.2155 -0.1548
  223ACOH    O210678   8.053   5.896   0.084 -0.2535  0.2777  0.3483
  223ACOH    C210679   7.926   5.906   0.118  0.2078  0.0907 -0.0289
  223ACOH    O110680   7.878   5.910   0.230 -0.0387  0.2416  0.0068
  223ACOH    C110681   7.839   5.864   0.005  0.7689  0.2672  0.7480
  223ACOH    H110682   7.886   5.867  -0.094 -2.3658 -0.0421 -0.8324
  223ACOH    H210683   7.747   5.922   0.010  0.7270  0.3122 -0.4091
  223ACOH    H310684   7.807   5.761   0.020  1.7287 -0.6864 -3.0549
  224ACOH    H410685   4.983   4.288   2.238 -0.0131 -2.0732 -1.0015
  224ACOH    O210686   5.067   4.282   2.286 -0.4951  0.2285  0.2196
  224ACOH    C210687   5.112   4.154   2.251 -0.1618 -0.6784 -0.3288
  224ACOH    O110688   5.050   4.072   2.181 -0.3334  0.2368 -0.0652
  224ACOH    C110689   5.235   4.121   2.320 -0.0349  0.2309  0.3614
  224ACOH    H110690   5.263   4.016   2.305 -0.5335 -0.0094  1.0840
  224ACOH    H210691   5.212   4.126   2.426 -1.5885  0.5911  0.0112
  224ACOH    H310692   5.318   4.186   2.291  0.2625 -1.1277 -1.9705
  225ACOH    H410693   0.352   7.837   3.693  2.4182  1.5977 -1.0534
  225ACOH    O210694   0.310   7.873   3.613 -0.3681  0.3519 -0.2248
  225ACOH    C210695   0.200   7.934   3.639 -0.2285  0.3322  0.0953
  225ACOH    O110696   0.160   7.970   3.747 -0.0812  0.4305 -0.8702
  225ACOH    C110697   0.120   7.947   3.514 -1.1861 -0.4423 -0.1892
  225ACOH    H110698   0.027   7.994   3.547  0.5531  2.0388  1.2998
  225ACOH    H210699   0.103   7.846   3.475  2.6737 -0.7600 -1.2141
  225ACOH    H310700   0.172   8.006   3.439 -2.6533  0.7844 -0.2714
  226ACOH    H410701   5.596   2.823   0.789  0.0784  0.3264  1.1413
  226ACOH    O210702   5.514   2.816   0.840 -0.3215 -0.4042  0.4116
  226ACOH    C210703   5.540   2.713   0.931  0.2214  0.9759  0.2165
  226ACOH    O110704   5.637   2.642   0.933 -0.3747  0.2399  0.2391
  226ACOH    C110705   5.437   2.695   1.038  0.2257  0.4556 -0.0422
  226ACOH    H110706   5.349   2.740   0.992 -1.4938 -1.1908  1.5551
  226ACOH    H210707   5.470   2.750   1.126  0.8241 -0.1592  0.1253
  226ACOH    H310708   5.429   2.590   1.068 -1.4549  1.2609  2.3782
  227ACOH    H410709   7.434   3.881   0.371  0.0531 -0.6648 -0.0087
  227ACOH    O210710   7.368   3.848   0.434 -0.2631 -0.2591 -0.1252
  227ACOH    C210711   7.347   3.710   0.410 -0.2512 -0.5859 -0.3736
  227ACOH    O110712   7.371   3.640   0.317  0.0381 -0.8481  0.4512
  227ACOH    C110713   7.265   3.669   0.526  1.4308 -0.0418  0.2372
  227ACOH    H110714   7.188   3.745   0.542  1.4169  0.0448 -0.2421
  227ACOH    H210715   7.326   3.667   0.616  2.2548 -0.7152 -0.3316
  227ACOH    H310716   7.225   3.571   0.502  3.4514 -0.6618 -0.6765
  228ACOH    H410717   5.843   2.642   0.398  1.5119 -0.2982  0.9512
  228ACOH    O210718   5.889   2.669   0.317 -0.1239 -0.2070  0.0451
  228ACOH    C210719   5.833   2.787   0.279  0.1182  0.3120  0.6448
  228ACOH    O110720   5.713   2.815   0.289  0.0027 -0.0190 -0.1115
  228ACOH    C110721   5.910   2.855   0.171 -0.8938 -0.1651 -0.0242
  228ACOH    H110722   5.943   2.951   0.209 -0.2554 -1.2837  2.3145
  228ACOH    H210723   5.862   2.859   0.073 -0.0794 -1.6046 -0.5085
  228ACOH    H310724   5.998   2.791   0.164 -0.5143  0.1779  1.5899
  229ACOH    H410725   7.370   3.357   0.551  0.2068  2.2027 -0.6227
  229ACOH    O210726   7.380   3.406   0.635  0.2631  0.8441  0.1719
  229ACOH    C210727   7.471   3.346   0.707 -0.1711 -0.0762 -0.2589
  229ACOH    O110728   7.521   3.235   0.692 -0.5246 -0.0007  0.1745
  229ACOH    C110729   7.509   3.424   0.829 -0.4209  0.3594 -0.1543
  229ACOH    H110730   7.572   3.508   0.797 -1.1779  2.3960  3.4156
  229ACOH    H210731   7.560   3.374   0.912 -0.1987  0.9286  0.0594
  229ACOH    H310732   7.425   3.471   0.881 -0.3308 -1.9270  2.1601
  230ACOH    H410733   6.867   1.371   3.021  0.7369 -0.8341  0.9677
  230ACOH    O210734   6.776   1.337   3.014  0.5912 -0.2293 -0.4688
  230ACOH    C210735   6.754   1.281   3.131 -0.6967  0.6120 -0.6290
  230ACOH    O110736   6.824   1.274   3.228 -0.3007  0.0119 -0.1510
  230ACOH    C110737   6.629   1.204   3.133 -0.9249 -0.4674  0.3408
  230ACOH    H110738   6.615   1.155   3.230 -1.4736 -0.6085  0.1926
  230ACOH    H210739   6.626   1.125   3.058 -0.6562 -1.7555  1.6381
  230ACOH    H310740   6.545   1.270   3.116 -0.4524 -0.3562 -1.6253
  231ACOH    H410741   7.801   2.007   4.050  0.8602 -1.9916  1.6912
  231ACOH    O210742   7.710   1.988   4.080 -0.3235  0.1162 -0.3532
  231ACOH    C210743   7.626   2.021   3.975 -0.3578  0.1045  0.4579
  231ACOH    O110744   7.638   2.105   3.888 -0.3705 -0.3206 -0.2008
  231ACOH    C110745   7.504   1.937   3.989  0.6771 -0.0638 -0.8152
  231ACOH    H110746   7.428   1.968   3.917 -1.7463  1.0542  2.0681
  231ACOH    H210747   7.459   1.936   4.089  0.7045  0.0545 -0.8009
  231ACOH    H310748   7.540   1.837   3.966 -0.5560 -0.4495 -1.1067
  232ACOH    H410749   7.469   6.047   3.474 -0.5009 -1.0259 -1.8496
  232ACOH    O210750   7.453   5.981   3.543 -0.1786  0.2880 -0.4921
  232ACOH    C210751   7.323   5.982   3.561 -0.2346  0.6000 -0.4099
  232ACOH    O110752   7.262   6.088   3.566  0.5185  0.5070 -0.2029
  232ACOH    C110753   7.274   5.862   3.633  0.9092 -0.2095  0.7152
  232ACOH    H110754   7.176   5.827   3.598  0.8327 -0.1367  0.8545
  232ACOH    H210755   7.256   5.896   3.735 -0.0605  1.8960 -0.1291
  232ACOH    H310756   7.345   5.780   3.620  1.7070  0.5044  0.5181
  233ACOH    H410757   3.484   6.069   4.235  1.5259  0.3825  0.0640
  233ACOH    O210758   3.521   6.061   4.146  0.2540  0.2444 -0.4735
  233ACOH    C210759   3.558   6.184   4.115 -0.1672  0.2436 -0.6382
  233ACOH    O110760   3.592   6.212   4.005  0.2313  1.0151  0.0706
  233ACOH    C110761   3.521   6.285   4.219 -0.0138 -0.5326 -0.5534
  233ACOH    H110762   3.550   6.388   4.199  1.0413 -0.9761 -1.4325
  233ACOH    H210763   3.584   6.252   4.301  1.8108 -0.3382 -1.8348
  233ACOH    H310764   3.414   6.280   4.235 -0.0234  1.5869  0.1586
  234ACOH    H410765   4.122   6.867   3.704  0.2567  0.3650 -1.5213
  234ACOH    O210766   4.130   6.773   3.724 -0.1067  0.5707 -0.4074
  234ACOH    C210767   4.252   6.731   3.689  0.5965 -0.2448  0.4980
  234ACOH    O110768   4.333   6.788   3.625 -0.3362  0.2286 -0.1908
  234ACOH    C110769   4.278   6.585   3.732  0.1168  0.2183  0.2360
  234ACOH    H110770   4.338   6.589   3.823 -0.1334  2.1195  0.3440
  234ACOH    H210771   4.319   6.524   3.652 -2.6293 -0.7262 -0.4938
  234ACOH    H310772   4.179   6.540   3.745 -0.4063  1.4455  0.5839
  235ACOH    H410773   7.595   5.621   4.574  0.8859 -1.8486  0.7839
  235ACOH    O210774   7.504   5.599   4.600  0.1536  0.1081 -0.0933
  235ACOH    C210775   7.511   5.485   4.664  0.1061 -1.0903 -0.0155
  235ACOH    O110776   7.609   5.427   4.701 -0.6265  0.1765 -0.1962
  235ACOH    C110777   7.378   5.420   4.679 -0.1348 -0.3345  0.5540
  235ACOH    H110778   7.400   5.313   4.683  3.8424  0.3486 -0.7902
  235ACOH    H210779   7.314   5.441   4.594 -0.6668 -0.0952  1.0075
  235ACOH    H310780   7.333   5.466   4.767 -1.2242  2.9828 -1.6536
  236ACOH    H410781   4.364   4.060   3.282  1.0762  0.3611 -0.4894
  236ACOH    O210782   4.329   4.139   3.239 -0.6130  0.1315  0.4305
  236ACOH    C210783   4.228   4.176   3.312 -0.1585 -0.4154 -0.6499
  236ACOH    O110784   4.198   4.138   3.424  0.2718  0.2475 -0.3803
  236ACOH    C110785   4.170   4.292   3.245  0.2071  0.1310 -0.5976
  236ACOH    H110786   4.068   4.263   3.220  0.6301 -1.2066 -0.8154
  236ACOH    H210787   4.228   4.310   3.154  0.4060 -2.2184 -0.9822
  236ACOH    H310788   4.185   4.379   3.308 -0.8949  0.6437 -1.0389
  237ACOH    H410789   3.249   1.850   1.145  1.2853  0.7443  0.4800
  237ACOH    O210790   3.253   1.915   1.073 -0.1773 -0.3087 -0.5692
  237ACOH    C210791   3.151   1.877   0.989  0.4697 -0.0082 -0.4735
  237ACOH    O110792   3.089   1.773   0.995  0.0406  0.5404  0.4098
  237ACOH    C110793   3.158   1.962   0.870 -0.6718  0.0177  0.4864
  237ACOH    H110794   3.106   2.056   0.885 -2.8903 -1.1708  0.5039
  237ACOH    H210795   3.109   1.907   0.789  2.0639  1.1247 -1.9741
  237ACOH    H310796   3.258   1.989   0.838 -0.9259  0.0271 -0.3064
  238ACOH    H410797   7.438   7.185   4.059 -0.4110 -0.2319 -1.0113
  238ACOH    O210798   7.358   7.129   4.057 -0.3264 -0.3959  0.0680
  238ACOH    C210799   7.355   7.052   3.950 -0.0845  0.0306 -0.0753
  238ACOH    O110800   7.416   7.083   3.850 -0.1478  0.7197 -0.6420
  238ACOH    C110801   7.237   6.965   3.943 -0.6233  0.1184 -0.5353
  238ACOH    H110802   7.184   6.958   4.039  1.8133  0.4271  0.8720
  238ACOH    H210803   7.267   6.864   3.915  1.8036 -0.4124  3.4704
  238ACOH    H310804   7.163   7.003   3.873 -0.4842  1.4762  0.0349
  239ACOH    H410805   3.574   6.243   1.512 -0.7667  0.3919  2.6123
  239ACOH    O210806   3.586   6.147   1.522  0.0298  0.2131  0.1369
  239ACOH    C210807   3.651   6.118   1.636  0.0066  0.0352 -0.3954
  239ACOH    O110808   3.662   6.190   1.731 -0.3273 -0.4344  0.0359
  239ACOH    C110809   3.699   5.975   1.641 -0.0195  0.3719  0.5466
  239ACOH    H110810   3.707   5.941   1.538 -1.5776 -0.8477  0.8000
  239ACOH    H210811   3.616   5.926   1.693 -0.2079  1.0029  0.8480
  239ACOH    H310812   3.792   5.970   1.696 -0.3556  1.5079  1.2469
  240ACOH    H410813   4.928   1.523   1.070  0.4806  1.2944 -1.3295
  240ACOH    O210814   4.852   1.491   1.018 -0.5791  0.2965  0.7982
  240ACOH    C210815   4.828   1.572   0.912  0.3759 -0.5739 -0.0152
  240ACOH    O110816   4.892   1.674   0.896  0.4621  0.0505  0.2254
  240ACOH    C110817   4.706   1.544   0.840  0.3336  0.2042  0.4828
  240ACOH    H110818   4.651   1.459   0.882  0.2623 -1.8087 -3.5169
  240ACOH    H210819   4.747   1.506   0.747  0.7175 -0.6269  0.9887
  240ACOH    H310820   4.641   1.629   0.821 -0.4421 -0.7299 -1.1352
  241ACOH    H410821   7.648   4.772   3.750  0.4562 -0.2324 -0.1226
  241ACOH    O210822   7.618   4.683   3.777  0.1598 -0.1049 -0.0344
  241ACOH    C210823   7.678   4.597   3.697 -0.2294  0.3548  0.7214
  241ACOH    O110824   7.788   4.613   3.641  0.3434  0.1033  0.1837
  241ACOH    C110825   7.606   4.467   3.691 -0.6803 -0.6784 -0.1707
  241ACOH    H110826   7.505   4.480   3.732 -0.8231 -1.7975 -0.1460
  241ACOH    H210827   7.658   4.392   3.750 -0.7843 -0.1990  0.5418
  241ACOH    H310828   7.603   4.444   3.585 -1.3367  0.4403 -0.4075
  242ACOH    H410829   9.798   8.536   2.758  1.2193  0.2992  1.8097
  242ACOH    O210830   9.704   8.544   2.784  0.6900  0.0540  0.0495
  242ACOH    C210831   9.678   8.680   2.773  0.8024  0.2364  0.5948
  242ACOH    O110832   9.758   8.762   2.730 -0.4194  0.5742  0.3359
  242ACOH    C110833   9.553   8.721   2.840 -0.2482 -0.1125 -0.9932
  242ACOH    H110834   9.506   8.642   2.899 -0.9523  0.4896 -0.7374
  242ACOH    H210835   9.481   8.753   2.764  1.1140 -3.6349 -3.9486
  242ACOH    H310836   9.565   8.799   2.915  1.7928 -2.3132  1.0519
  243ACOH    H410837   5.763   6.179   2.521  2.4815  0.9034 -1.2804
  243ACOH    O210838   5.810   6.095   2.534  0.0621 -0.3062  0.1903
  243ACOH    C210839   5.941   6.111   2.541  0.1721 -0.4411 -0.7541
  243ACOH    O110840   5.997   6.211   2.513  0.3480  0.1721  0.7555
  243ACOH    C110841   6.013   5.988   2.579 -0.2599 -0.0874 -0.1925
  243ACOH    H110842   6.121   6.001   2.581 -0.2636 -0.1601  0.6087
  243ACOH    H210843   5.989   5.910   2.507 -0.1995 -1.1295  0.8918
  243ACOH    H310844   5.984   5.952   2.678 -0.5312  0.6288 -0.0068
  244ACOH    H410845   4.884   6.448   3.110 -0.2794 -1.2752 -1.6441
  244ACOH    O210846   4.947   6.385   3.148 -0.1855 -0.2914 -0.1439
  244ACOH    C210847   4.953   6.416   3.282  0.0364  0.0389  0.1510
  244ACOH    O110848   4.880   6.504   3.333  0.1317  0.0608  0.0731
  244ACOH    C110849   5.050   6.341   3.365  0.2484 -0.2722  0.6084
  244ACOH    H110850   4.999   6.275   3.435  1.5248  0.2520  2.0758
  244ACOH    H210851   5.116   6.406   3.422  0.8175  0.1295 -0.4821
  244ACOH    H310852   5.113   6.282   3.297 -1.4551 -0.4253 -0.8688
  245ACOH    H410853   0.085   5.568   4.058 -0.6188  0.6239  0.3308
  245ACOH    O210854   0.049   5.588   4.146 -0.8544 -0.3328  0.4556
  245ACOH    C210855  -0.085   5.594   4.123 -0.1058 -0.7041 -0.3435
  245ACOH    O110856  -0.158   5.564   4.026  0.8866  0.1406 -0.1904
  245ACOH    C110857  -0.149   5.626   4.254  0.5562  0.7386 -0.4959
  245ACOH    H110858  -0.174   5.531   4.302 -1.8234  2.0172  0.8945
  245ACOH    H210859  -0.240   5.684   4.234  0.5647  1.0010  0.2017
  245ACOH    H310860  -0.091   5.690   4.320  0.3160 -1.3839  1.8418
  246ACOH    H410861   9.326   0.136   0.548  2.7769  0.3488  1.4024
  246ACOH    O210862   9.354   0.043   0.541 -0.5046 -0.5939 -0.0221
  246ACOH    C210863   9.255  -0.040   0.510  0.0254  0.5131  0.3082
  246ACOH    O110864   9.133  -0.027   0.537 -0.3621 -0.3247 -0.2352
  246ACOH    C110865   9.304  -0.165   0.438  0.2944 -0.2692  0.4010
  246ACOH    H110866   9.321  -0.253   0.500  0.4870 -0.9254 -0.5578
  246ACOH    H210867   9.391  -0.142   0.376 -0.2377  0.7914  0.0429
  246ACOH    H310868   9.223  -0.199   0.373  0.0140  3.7793 -1.5446
  247ACOH    H410869   6.196   9.105   1.433 -1.3496 -1.1187 -0.0487
  247ACOH    O210870   6.189   9.154   1.349  0.3441 -0.0452  0.4149
  247ACOH    C210871   6.053   9.187   1.350 -0.1112 -0.4397  0.0515
  247ACOH    O110872   5.973   9.149   1.435 -0.2470  0.2269 -0.0448
  247ACOH    C110873   6.023   9.278   1.239  0.1235  0.0354  0.1296
  247ACOH    H110874   5.939   9.341   1.269 -0.0113 -0.9423  1.8895
  247ACOH    H210875   5.993   9.223   1.150 -0.1986 -0.6386  0.6499
  247ACOH    H310876   6.111   9.338   1.215 -0.3581  0.2674 -1.0985
  248ACOH    H410877   7.511   2.736   0.060  0.3516  0.6995  0.5626
  248ACOH    O210878   7.430   2.718   0.110 -0.0695  0.1904 -0.2841
  248ACOH    C210879   7.330   2.772   0.036  1.0190  0.4754 -0.1778
  248ACOH    O110880   7.328   2.799  -0.082  0.6100 -0.0224  0.2360
  248ACOH    C110881   7.202   2.782   0.117  0.0801 -0.2065  0.4739
  248ACOH    H110882   7.130   2.716   0.068  0.8021 -1.0212  0.5011
  248ACOH    H210883   7.166   2.885   0.121 -1.5369 -0.7975  2.1287
  248ACOH    H310884   7.212   2.748   0.220 -2.3891  3.6853  2.0963
  249ACOH    H410885   5.342   6.396   2.149  1.2341 -3.1948 -1.0742
  249ACOH    O210886   5.331   6.429   2.058  0.5143 -0.7747 -0.1594
  249ACOH    C210887   5.230   6.363   1.998  1.0678 -0.8756  0.5752
  249ACOH    O110888   5.172   6.264   2.040  0.4469 -0.4279 -0.1429
  249ACOH    C110889   5.190   6.423   1.865  0.2549 -0.4596 -0.2300
  249ACOH    H110890   5.109   6.494   1.880  0.7446  0.1680 -0.5782
  249ACOH    H210891   5.147   6.348   1.799  2.1270 -0.2999 -1.6872
  249ACOH    H310892   5.273   6.462   1.806  0.0922 -0.8233 -0.7056
  250ACOH    H410893   7.691   3.185   3.643 -0.3719  1.2714 -1.4796
  250ACOH    O210894   7.596   3.186   3.663 -0.0147  0.2112  0.4233
  250ACOH    C210895   7.566   3.077   3.735 -0.0805 -0.2245  0.4608
  250ACOH    O110896   7.631   2.980   3.761 -0.6581  0.1808 -0.1318
  250ACOH    C110897   7.425   3.097   3.780 -0.1585  0.1415 -0.2742
  250ACOH    H110898   7.398   3.011   3.842 -1.4398  0.4463 -0.3906
  250ACOH    H210899   7.370   3.094   3.686  1.7593  1.8757 -1.4884
  250ACOH    H310900   7.404   3.190   3.832 -0.2616 -0.0357  0.0024
  251ACOH    H410901   5.329   6.642   3.051 -1.3191 -1.7812  1.2669
  251ACOH    O210902   5.411   6.629   3.102 -0.2456  0.4802  0.1932
  251ACOH    C210903   5.458   6.752   3.132 -0.4930 -0.5283  0.2122
  251ACOH    O110904   5.405   6.860   3.131  0.1626  0.1524  0.0365
  251ACOH    C110905   5.582   6.738   3.213 -0.5775 -0.3075  1.2416
  251ACOH    H110906   5.622   6.636   3.211 -1.6196 -0.7047  0.2994
  251ACOH    H210907   5.572   6.759   3.319  1.6151 -1.7320  1.7762
  251ACOH    H310908   5.652   6.810   3.171  0.3562 -1.3870  0.9059
  252ACOH    H410909   3.174   3.747   3.297 -1.5115 -0.4039  1.0345
  252ACOH    O210910   3.127   3.770   3.215 -0.2138 -0.8884  0.1408
  252ACOH    C210911   3.120   3.908   3.216  0.0889 -0.2213  0.1586
  252ACOH    O110912   3.201   3.990   3.252 -0.1465  0.1282 -0.3176
  252ACOH    C110913   3.011   3.954   3.129 -0.0864  1.0333  0.2138
  252ACOH    H110914   2.916   3.921   3.171  0.4863 -0.5921  0.2648
  252ACOH    H210915   3.021   3.896   3.037 -0.0046 -1.5479  1.8144
  252ACOH    H310916   3.013   4.062   3.110 -0.8599  1.0851  0.3808
  253ACOH    H410917   8.002   5.204   1.794 -0.4866  0.0535 -0.4837
  253ACOH    O210918   7.928   5.172   1.849 -0.0370 -0.0848  0.0435
  253ACOH    C210919   7.838   5.270   1.869 -0.0510 -0.4645  0.4673
  253ACOH    O110920   7.821   5.359   1.793  0.0735 -0.0471  0.5763
  253ACOH    C110921   7.769   5.261   1.997  0.0675  0.0095 -0.1471
  253ACOH    H110922   7.802   5.178   2.060  0.4097 -1.2051 -1.9047
  253ACOH    H210923   7.667   5.242   1.964  0.6661 -0.0567 -1.9806
  253ACOH    H310924   7.776   5.348   2.062 -1.3910 -1.3791  1.9505
  254ACOH    H410925   0.257   4.057   2.002  0.3856 -0.2369 -0.6215
  254ACOH    O210926   0.217   3.971   2.026 -0.7737  0.4549 -0.0481
  254ACOH    C210927   0.103   3.973   2.094  0.9653 -0.0540 -0.6361
  254ACOH    O110928   0.033   4.072   2.109  0.5404  0.6675 -0.1406
  254ACOH    C110929   0.053   3.837   2.124 -0.1202 -0.1024  0.7888
  254ACOH    H110930   0.051   3.825   2.233  0.1241  1.6370  1.0028
  254ACOH    H210931   0.115   3.756   2.086 -1.7574 -1.0051 -0.0143
  254ACOH    H310932  -0.047   3.827   2.082  0.0949  2.3310 -0.3359
  255ACOH    H410933   6.202   0.751   2.017  0.6412 -0.8576 -1.8758
  255ACOH    O210934   6.286   0.799   2.015  0.5036 -0.4835  0.1791
  255ACOH    C210935   6.330   0.781   1.892 -0.2698 -0.7120  1.0152
  255ACOH    O110936   6.268   0.728   1.803 -0.4504 -0.1412  0.1706
  255ACOH    C110937   6.459   0.851   1.877  0.5927  0.3425  0.0945
  255ACOH    H110938   6.480   0.865   1.771  0.5119  0.3184  0.0756
  255ACOH    H210939   6.529   0.778   1.918  1.1282 -0.8956 -2.9144
  255ACOH    H310940   6.459   0.949   1.924 -0.3095  0.7353 -0.6965
  256ACOH    H410941   6.033   6.562   2.155 -1.5396  0.4092  1.4642
  256ACOH    O210942   6.023   6.465   2.157 -0.0822  0.1753 -0.4455
  256ACOH    C210943   6.134   6.423   2.222 -0.2136 -0.7781  0.1764
  256ACOH    O110944   6.230   6.485   2.272 -0.7528 -0.5394 -0.2715
  256ACOH    C110945   6.147   6.277   2.224 -0.1464 -0.9147  0.3800
  256ACOH    H110946   6.059   6.220   2.192 -0.1607 -0.0694 -1.1400
  256ACOH    H210947   6.184   6.230   2.315 -2.1172  2.0548  2.8217
  256ACOH    H310948   6.218   6.250   2.146 -0.6345  0.8544 -0.7081
  257ACOH    H410949   9.546   3.620   2.031  1.9287 -2.1256 -0.5014
  257ACOH    O210950   9.547   3.645   1.937 -0.6193 -0.1525 -0.0650
  257ACOH    C210951   9.676   3.636   1.892 -0.5345  0.0203  0.7356
  257ACOH    O110952   9.757   3.554   1.929  0.0066 -0.6940 -0.7041
  257ACOH    C110953   9.687   3.708   1.762  0.6314 -0.7627  0.3553
  257ACOH    H110954   9.647   3.642   1.686  0.9166  0.5110 -0.9236
  257ACOH    H210955   9.794   3.726   1.747  0.2138  0.2423 -1.4972
  257ACOH    H310956   9.627   3.799   1.765 -1.7697 -2.3097  0.2125
  258ACOH    H410957   6.018   8.119   1.254  1.2250  0.3256 -0.4769
  258ACOH    O210958   6.021   8.057   1.179  0.4863 -0.5185  0.1719
  258ACOH    C210959   5.898   8.069   1.132  0.4575 -0.8878  1.2267
  258ACOH    O110960   5.804   8.113   1.191 -0.0534 -0.0628 -0.0672
  258ACOH    C110961   5.885   7.972   1.017  0.5550  0.2411  0.5400
  258ACOH    H110962   5.856   7.878   1.064 -1.0930  0.0131 -0.9043
  258ACOH    H210963   5.983   7.954   0.971  0.8140  1.4367  0.5970
  258ACOH    H310964   5.815   8.010   0.943 -2.3233 -4.0389  0.9297
  259ACOH    H410965   4.836   1.456   3.550  1.0640 -0.7230  1.5724
  259ACOH    O210966   4.884   1.533   3.586  0.6095  0.3265  0.0071
  259ACOH    C210967   4.906   1.614   3.477 -0.5885  0.4416  0.2541
  259ACOH    O110968   4.945   1.580   3.368  0.5893 -0.5454  0.4647
  259ACOH    C110969   4.927   1.751   3.527 -0.0937  0.0380  0.2687
  259ACOH    H110970   4.955   1.820   3.447  1.3985 -2.0972 -1.1199
  259ACOH    H210971   4.999   1.752   3.609  3.5066 -1.1877 -2.7433
  259ACOH    H310972   4.837   1.793   3.572  0.0758  1.4093 -0.6351
  260ACOH    H410973   3.062   8.265   2.627 -1.4078 -1.8197 -2.0552
  260ACOH    O210974   3.121   8.189   2.640  0.6684  0.0080 -0.2631
  260ACOH    C210975   3.238   8.246   2.670  0.1997 -0.0402 -0.2408
  260ACOH    O110976   3.279   8.358   2.647  0.7300  0.6258 -0.2214
  260ACOH    C110977   3.326   8.150   2.737 -0.5056  0.1499 -0.5397
  260ACOH    H110978   3.280   8.087   2.813 -1.6073  0.0400 -1.2828
  260ACOH    H210979   3.420   8.187   2.779 -1.4933  1.8897  0.2094
  260ACOH    H310980   3.354   8.079   2.659 -4.5317  0.0180 -1.9772
  261ACOH    H410981   5.641   3.743   0.541 -0.4394  0.0656 -0.0262
  261ACOH    O210982   5.694   3.774   0.617 -0.3480  0.4021 -0.2260
  261ACOH    C210983   5.642   3.700   0.720  0.2919  0.6255  0.0714
  261ACOH    O110984   5.545   3.621   0.718  0.8625 -0.0424 -0.2526
  261ACOH    C110985   5.724   3.724   0.842  0.1145 -0.0838  0.2239
  261ACOH    H110986   5.720   3.832   0.856  0.6015 -0.0182 -0.1347
  261ACOH    H210987   5.825   3.690   0.818  0.0638 -0.8758  1.0641
  261ACOH    H310988   5.681   3.679   0.932  0.2313 -1.6878 -0.5092
  262ACOH    H410989   3.544   2.516   3.185 -2.2296  1.5155 -3.0019
  262ACOH    O210990   3.492   2.575   3.242 -0.1514  0.2072  0.4171
  262ACOH    C210991   3.555   2.605   3.357 -0.2573 -0.3304 -0.6986
  262ACOH    O110992   3.663   2.567   3.395  0.5941  0.0019  0.6682
  262ACOH    C110993   3.475   2.693   3.444 -0.2916  0.0672 -0.4427
  262ACOH    H110994   3.540   2.753   3.508  1.1263 -1.8708  0.0004
  262ACOH    H210995   3.406   2.644   3.513 -0.7764  0.3227 -0.7434
  262ACOH    H310996   3.424   2.769   3.386 -1.3016  0.9370  1.5171
  263ACOH    H410997   4.999   7.468   4.645  2.7924 -0.9894  2.2459
  263ACOH    O210998   5.041   7.554   4.659  0.6210  0.4372  0.4176
  263ACOH    C210999   5.034   7.578   4.788  0.5159 -0.5277 -1.0572
  263ACOH    O111000   4.982   7.511   4.878  0.7280 -0.0368  0.3307
  263ACOH    C111001   5.096   7.709   4.811  0.0084 -0.4479  0.3579
  263ACOH    H111002   5.012   7.779   4.808  0.2245 -0.1158  1.8478
  263ACOH    H211003   5.174   7.733   4.738 -0.2957 -1.9045 -0.4579
  263ACOH    H311004   5.151   7.707   4.904 -1.1105  0.7841  1.0585
  264ACOH    H411005   4.417   4.842   2.076  0.8665  0.0160  0.8987
  264ACOH    O211006   4.376   4.900   2.143 -0.3114 -0.2165  0.3986
  264ACOH    C211007   4.396   5.026   2.097  0.2553  0.0655 -0.5800
  264ACOH    O111008   4.479   5.059   2.013 -0.2675 -0.0526  0.4576
  264ACOH    C111009   4.304   5.124   2.165 -0.0242  0.5060  0.0812
  264ACOH    H111010   4.208   5.078   2.189 -1.2034  2.9595  0.2056
  264ACOH    H211011   4.283   5.215   2.110 -2.7080 -0.6916 -0.9552
  264ACOH    H311012   4.356   5.152   2.257  0.1782  0.7869 -0.1189
  265ACOH    H411013   4.780   3.569   1.757  0.6020 -1.9330 -3.1043
  265ACOH    O211014   4.836   3.644   1.730  0.5510 -0.6573  0.1268
  265ACOH    C211015   4.872   3.616   1.607 -0.0082  0.5507 -0.1741
  265ACOH    O111016   4.880   3.501   1.560  0.2003  0.0345 -0.6560
  265ACOH    C111017   4.952   3.726   1.551  0.1082  0.5142 -0.6957
  265ACOH    H111018   5.046   3.697   1.503  0.7273  0.9463  0.2513
  265ACOH    H211019   4.970   3.805   1.624  0.2028  0.7665 -0.9902
  265ACOH    H311020   4.888   3.768   1.473 -1.1290  1.0766  0.6086
  266ACOH    H411021   4.245   2.618   0.022  1.6149 -2.4412 -0.6798
  266ACOH    O211022   4.340   2.634   0.007  1.2814  0.7116  0.1630
  266ACOH    C211023   4.392   2.712   0.096 -0.3393 -0.3743  0.4516
  266ACOH    O111024   4.336   2.781   0.173  0.3208 -0.1060 -0.0989
  266ACOH    C111025   4.538   2.701   0.083  0.9772  0.0449  0.3175
  266ACOH    H111026   4.566   2.595   0.084 -2.0923 -0.8232  0.4562
  266ACOH    H211027   4.586   2.749   0.169 -0.2156  0.7835  0.5861
  266ACOH    H311028   4.561   2.732  -0.018 -0.8221 -2.6117 -0.9853
  267ACOH    H411029   3.756   5.455   1.103  1.4062  0.9654  0.0265
  267ACOH    O211030   3.703   5.497   1.033  0.0885 -0.2710  0.2503
  267ACOH    C211031   3.633   5.590   1.098 -0.4122  0.0590  0.1989
  267ACOH    O111032   3.652   5.636   1.210 -0.3119  0.1497  0.6795
  267ACOH    C111033   3.580   5.685   0.999  0.0875 -0.4233  0.2525
  267ACOH    H111034   3.594   5.660   0.894  0.5607 -2.0890  0.7035
  267ACOH    H211035   3.623   5.784   1.014  1.9750 -1.2251  0.1992
  267ACOH    H311036   3.472   5.695   1.015  0.2451 -0.8047  1.6108
  268ACOH    H411037   7.714   2.511   2.096 -3.8023  2.6099 -1.6134
  268ACOH    O211038   7.654   2.437   2.114  0.0385 -0.4056 -0.2698
  268ACOH    C211039   7.639   2.346   2.013  0.2252 -0.2817 -0.2562
  268ACOH    O111040   7.724   2.331   1.931  0.0562  0.5199 -0.1500
  268ACOH    C111041   7.518   2.261   2.031  0.6754  0.2302  0.3740
  268ACOH    H111042   7.514   2.166   1.976  2.1879 -0.9101  2.1769
  268ACOH    H211043   7.428   2.319   2.011  0.3820 -0.5611 -0.6446
  268ACOH    H311044   7.513   2.229   2.135  2.6362  1.4388  0.8500
  269ACOH    H411045   4.527   5.697   1.899 -1.1560  2.5763 -0.3955
  269ACOH    O211046   4.527   5.674   1.805  0.0149  0.1347  0.1356
  269ACOH    C211047   4.410   5.626   1.767 -0.3565  0.3963 -0.9627
  269ACOH    O111048   4.312   5.629   1.837 -0.4083  0.4393  0.7536
  269ACOH    C111049   4.417   5.564   1.632  0.5152  0.3775 -0.7027
  269ACOH    H111050   4.504   5.500   1.625 -0.7861 -1.5134  0.2391
  269ACOH    H211051   4.418   5.641   1.554  0.2512  1.0689 -0.0364
  269ACOH    H311052   4.333   5.496   1.625  0.8197 -0.3200  1.8951
  270ACOH    H411053   7.403   2.279   1.379  0.2246 -1.5914  0.5521
  270ACOH    O211054   7.323   2.227   1.361 -0.3462 -0.6065  0.2095
  270ACOH    C211055   7.343   2.164   1.242  0.1575 -0.3847  0.5014
  270ACOH    O111056   7.445   2.166   1.169 -0.1505  0.4039  0.8313
  270ACOH    C111057   7.221   2.084   1.213 -0.5506 -0.1176  0.6002
  270ACOH    H111058   7.197   2.011   1.290 -0.9421 -1.7389 -1.0436
  270ACOH    H211059   7.233   2.041   1.114  0.2311  0.5671  0.3883
  270ACOH    H311060   7.142   2.158   1.203 -2.2785 -2.1029 -0.9015
  271ACOH    H411061   3.745   4.525   1.252 -2.8609  0.0491 -2.1971
  271ACOH    O211062   3.736   4.429   1.247  0.6298 -0.5300  0.5400
  271ACOH    C211063   3.607   4.403   1.257  0.1179  0.1607 -0.3898
  271ACOH    O111064   3.521   4.480   1.296 -0.8187  0.7393  0.7303
  271ACOH    C111065   3.586   4.251   1.238  0.7263 -0.6052 -0.5836
  271ACOH    H111066   3.545   4.199   1.325 -1.2269 -1.6123 -2.0574
  271ACOH    H211067   3.689   4.220   1.225  1.6035  2.7778 -2.1506
  271ACOH    H311068   3.529   4.226   1.148 -1.5977 -0.0098  0.6718
  272ACOH    H411069   5.065   5.257   1.994 -0.5748 -0.8113 -0.7878
  272ACOH    O211070   5.040   5.232   2.085  0.4331  0.1722 -0.2297
  272ACOH    C211071   5.039   5.097   2.097  0.4189  0.0945 -0.0242
  272ACOH    O111072   5.063   5.022   2.004  0.2229  0.4137 -0.1027
  272ACOH    C111073   4.961   5.050   2.217 -0.2947  0.0331  0.2562
  272ACOH    H111074   4.972   5.105   2.310 -4.5705 -1.9360  2.0666
  272ACOH    H211075   4.983   4.945   2.234 -0.9575  0.0249  1.0626
  272ACOH    H311076   4.857   5.054   2.185 -0.5117 -0.6352  0.8640
  273ACOH    H411077   8.658   4.067   1.374 -0.8722 -0.6965  0.1641
  273ACOH    O211078   8.691   4.052   1.284 -0.4969 -0.3548  0.2426
  273ACOH    C211079   8.689   3.925   1.260 -0.4395  0.1346 -0.5410
  273ACOH    O111080   8.663   3.841   1.341  0.0974 -0.7416 -0.1061
  273ACOH    C111081   8.717   3.899   1.120  0.0596 -0.1497  0.2782
  273ACOH    H111082   8.623   3.868   1.073  0.1801 -0.3675  0.1806
  273ACOH    H211083   8.789   3.819   1.105  1.6073  0.6982  2.9774
  273ACOH    H311084   8.755   3.992   1.077  0.1668  0.1232  0.9521
  274ACOH    H411085   7.508   5.135   3.921 -2.5439  2.6362 -0.1672
  274ACOH    O211086   7.434   5.075   3.905 -0.1612 -0.4754  0.1036
  274ACOH    C211087   7.459   4.967   3.986 -0.3428 -0.7789 -0.9155
  274ACOH    O111088   7.570   4.945   4.035  0.3293 -0.0183 -0.0757
  274ACOH    C111089   7.357   4.857   3.965 -0.2597  0.1967  0.0682
  274ACOH    H111090   7.257   4.899   3.976 -0.5454  0.1414 -2.2253
  274ACOH    H211091   7.373   4.780   4.041  0.4812 -0.4982 -0.7950
  274ACOH    H311092   7.368   4.814   3.866 -2.0104  1.0635 -0.5083
  275ACOH    H411093   5.332   3.284   2.856 -1.1582  1.5704 -1.8084
  275ACOH    O211094   5.399   3.354   2.866  0.2643 -0.0353  0.4703
  275ACOH    C211095   5.340   3.426   2.961 -0.5262 -0.4129 -0.2179
  275ACOH    O111096   5.229   3.416   3.005  0.2270  0.3411 -0.1696
  275ACOH    C111097   5.434   3.535   2.999 -0.0005  0.6155 -0.1500
  275ACOH    H111098   5.389   3.603   3.070 -2.0649  0.6023 -1.3986
  275ACOH    H211099   5.473   3.585   2.910 -0.1132  1.3164  0.1919
  275ACOH    H311100   5.519   3.488   3.049 -1.0139 -0.1476  0.8710
  276ACOH    H411101   8.951   0.435   2.445 -0.9821 -0.5762  1.3572
  276ACOH    O211102   8.993   0.507   2.496  0.0784  0.1729 -0.5095
  276ACOH    C211103   9.115   0.514   2.443  0.3387 -0.1524 -0.3678
  276ACOH    O111104   9.168   0.427   2.367  0.2198 -1.0727 -0.5877
  276ACOH    C111105   9.193   0.621   2.496 -0.3196 -0.2064  0.1815
  276ACOH    H111106   9.225   0.591   2.596 -0.2381 -2.5608 -0.4995
  276ACOH    H211107   9.129   0.709   2.500  1.6020  1.1904  0.8026
  276ACOH    H311108   9.286   0.640   2.441 -0.1802  1.1596  0.8763
  277ACOH    H411109   9.516   6.065   1.581 -1.2708  0.4096  0.8601
  277ACOH    O211110   9.507   5.974   1.613 -0.0266 -0.1017 -0.1737
  277ACOH    C211111   9.411   5.979   1.708 -0.0646  0.0065 -0.1491
  277ACOH    O111112   9.325   6.064   1.706  0.5190 -0.5640 -0.0532
  277ACOH    C111113   9.404   5.856   1.789 -0.6642  0.3337 -1.0892
  277ACOH    H111114   9.487   5.858   1.860 -0.6396  1.0593 -1.1322
  277ACOH    H211115   9.408   5.764   1.731  2.5450 -1.0414  1.1444
  277ACOH    H311116   9.313   5.843   1.848 -0.3941 -1.9204 -1.1180
  278ACOH    H411117   1.669   0.352   4.679  1.3834 -1.0687 -3.6977
  278ACOH    O211118   1.735   0.423   4.672  0.3913  0.3104 -0.0886
  278ACOH    C211119   1.674   0.536   4.629  0.2493  0.2377  0.1677
  278ACOH    O111120   1.574   0.536   4.558 -0.0095 -0.2623  0.6228
  278ACOH    C111121   1.762   0.648   4.635  0.0879  1.2214  0.2231
  278ACOH    H111122   1.779   0.679   4.532  1.0154  1.7036  0.5158
  278ACOH    H211123   1.864   0.632   4.672  1.7785  1.1412 -4.0999
  278ACOH    H311124   1.713   0.727   4.691  0.7090  1.6196  0.2082
  279ACOH    H411125   7.233   4.029   4.509  1.2010  0.2366 -0.1937
  279ACOH    O211126   7.187   4.059   4.589 -0.0318 -0.0508 -0.7969
  279ACOH    C211127   7.133   4.177   4.555 -1.2318 -0.7157 -0.0221
  279ACOH    O111128   7.147   4.238   4.448 -0.0403  0.2724 -0.0186
  279ACOH    C111129   7.038   4.228   4.654  0.6260 -0.1145 -0.9068
  279ACOH    H111130   6.954   4.288   4.620  0.4967  0.5113  0.4917
  279ACOH    H211131   7.096   4.290   4.723 -0.2385 -1.1282  0.7657
  279ACOH    H311132   7.000   4.137   4.700  1.9056  0.2790  0.9760
  280ACOH    H411133   6.085   9.725   4.527 -1.5704  4.3824 -2.3375
  280ACOH    O211134   6.047   9.753   4.612 -0.1435  0.3173 -0.2345
  280ACOH    C211135   5.956   9.840   4.575  0.5875 -0.4192  0.2067
  280ACOH    O111136   5.928   9.870   4.463 -0.4768 -0.1638 -0.3301
  280ACOH    C111137   5.908   9.926   4.687 -0.3974  0.1090  0.1141
  280ACOH    H111138   5.821   9.986   4.661  1.8231  2.6835 -1.7027
  280ACOH    H211139   5.985  10.001   4.709  0.0138 -0.7895  1.8777
  280ACOH    H311140   5.905   9.872   4.782  0.7917  0.2968  0.2757
  281ACOH    H411141   2.611   8.528   0.554 -0.6734  1.1683 -1.3270
  281ACOH    O211142   2.516   8.509   0.550 -0.5570  0.3264 -0.5212
  281ACOH    C211143   2.451   8.626   0.537 -0.5249  0.2330 -0.2167
  281ACOH    O111144   2.499   8.734   0.510 -0.0407 -0.2313  0.0954
  281ACOH    C111145   2.311   8.594   0.541  0.0068 -0.5866 -0.6441
  281ACOH    H111146   2.262   8.664   0.474 -0.6640  0.1699  0.6197
  281ACOH    H211147   2.273   8.609   0.642  0.6202 -1.5819 -0.2543
  281ACOH    H311148   2.282   8.491   0.520  0.5039 -0.9351  0.3281
  282ACOH    H411149   7.478   2.304   2.902  0.4357 -0.0889  0.6207
  282ACOH    O211150   7.500   2.396   2.880 -0.0896 -0.1455 -0.1611
  282ACOH    C211151   7.460   2.425   2.754  0.2934 -0.7544  0.1267
  282ACOH    O111152   7.417   2.351   2.667  0.3303  0.1854 -0.1465
  282ACOH    C111153   7.499   2.565   2.720 -0.5811  0.1582  0.0776
  282ACOH    H111154   7.417   2.608   2.661  1.1568  1.4202 -1.4764
  282ACOH    H211155   7.589   2.557   2.659 -0.6913  0.3476 -0.1140
  282ACOH    H311156   7.521   2.623   2.809  0.1221 -0.6156  0.4154
  283ACOH    H411157   5.043   2.755   0.181  0.3177 -0.6387  0.7380
  283ACOH    O211158   5.089   2.711   0.108 -0.4876 -0.1194 -0.0853
  283ACOH    C211159   5.211   2.674   0.150  0.0506 -0.3154  0.9161
  283ACOH    O111160   5.259   2.647   0.257 -0.1157 -0.5054  0.7636
  283ACOH    C111161   5.279   2.638   0.018  0.3776 -0.2057 -0.2554
  283ACOH    H111162   5.222   2.680  -0.065  0.0325  0.3475  0.2585
  283ACOH    H211163   5.281   2.529   0.009  0.0516 -0.5271  3.0480
  283ACOH    H311164   5.382   2.674   0.013 -0.1320  1.3676  0.3665
  284ACOH    H411165   8.139   6.603   0.549 -0.3899 -0.9184  2.0599
  284ACOH    O211166   8.130   6.680   0.608 -0.2098 -0.0784  0.9964
  284ACOH    C211167   8.128   6.784   0.517  0.0888  0.7222 -0.1916
  284ACOH    O111168   8.097   6.790   0.398 -0.5242  0.4094 -0.0884
  284ACOH    C111169   8.112   6.906   0.600  0.5080  0.6176  0.6009
  284ACOH    H111170   8.178   6.896   0.686 -0.3270 -1.1810  1.0692
  284ACOH    H211171   8.016   6.905   0.652 -0.2615  4.5086 -0.5392
  284ACOH    H311172   8.119   6.996   0.539 -1.0941 -0.2490 -0.9276
  285ACOH    H411173   6.894   0.794   2.197  0.3879  1.6681  1.4254
  285ACOH    O211174   6.849   0.841   2.125  0.4983  0.1888  0.3622
  285ACOH    C211175   6.824   0.971   2.147  0.1565 -0.4877  0.3801
  285ACOH    O111176   6.876   1.035   2.237 -0.1628  0.3587 -0.2271
  285ACOH    C111177   6.751   1.037   2.038 -0.4173 -0.0755 -0.3277
  285ACOH    H111178   6.791   0.992   1.946  1.4850  0.8729  0.0256
  285ACOH    H211179   6.779   1.142   2.048 -2.7314  0.6002 -0.6267
  285ACOH    H311180   6.643   1.020   2.046 -0.4189 -0.9952 -1.9079
  286ACOH    H411181   2.534   9.700   1.372 -1.1156  0.9144  0.1418
  286ACOH    O211182   2.509   9.610   1.398  0.1075  0.6391  0.4011
  286ACOH    C211183   2.615   9.541   1.453 -0.1067  0.2683  0.7305
  286ACOH    O111184   2.730   9.570   1.464 -0.7755  0.0959  0.2558
  286ACOH    C111185   2.561   9.411   1.496 -0.0192 -0.0706 -0.5211
  286ACOH    H111186   2.516   9.362   1.410  0.3028 -1.0615 -0.1249
  286ACOH    H211187   2.484   9.436   1.569  0.9153  0.2040  0.3800
  286ACOH    H311188   2.633   9.341   1.537 -2.9855 -2.9285  0.0209
  287ACOH    H411189   4.955   3.855   4.452  1.2283 -0.4759  0.6958
  287ACOH    O211190   4.947   3.950   4.432 -0.3739 -0.6243  0.5548
  287ACOH    C211191   4.850   3.968   4.336 -0.0441  0.1195  0.6182
  287ACOH    O111192   4.810   3.877   4.262  0.2501 -0.0496  0.3393
  287ACOH    C111193   4.843   4.112   4.306  0.2036 -0.4377  0.2850
  287ACOH    H111194   4.777   4.126   4.221  1.8015 -0.6499 -1.0064
  287ACOH    H211195   4.940   4.142   4.268  0.1001  0.8898  1.0536
  287ACOH    H311196   4.814   4.171   4.393  1.0731 -0.7100  0.7590
  288ACOH    H411197   6.830   6.802   2.777  0.2863  3.2707  0.1191
  288ACOH    O211198   6.856   6.813   2.684  0.6994  0.1283 -0.1850
  288ACOH    C211199   6.881   6.695   2.630  0.7410 -0.4903 -0.5714
  288ACOH    O111200   6.887   6.588   2.684 -0.1517  0.0524 -0.3984
  288ACOH    C111201   6.936   6.711   2.498  1.0424 -1.0025 -0.7734
  288ACOH    H111202   6.969   6.619   2.449 -0.3725 -1.9132 -0.0482
  288ACOH    H211203   7.025   6.774   2.508  0.9919 -0.9174 -0.8695
  288ACOH    H311204   6.866   6.765   2.436 -0.3949 -2.6252 -0.6014
  289ACOH    H411205   4.673   7.257   0.433  0.4616 -0.2657  0.3011
  289ACOH    O211206   4.766   7.253   0.406  0.4052 -0.5771  0.1512
  289ACOH    C211207   4.756   7.209   0.279 -0.0436  0.3970  0.1748
  289ACOH    O111208   4.660   7.164   0.218 -0.3547  0.1097 -0.1224
  289ACOH    C111209   4.898   7.200   0.228 -0.2723 -0.6076 -0.8631
  289ACOH    H111210   4.949   7.296   0.238 -0.2754 -0.8123  1.5544
  289ACOH    H211211   4.892   7.176   0.122 -0.4851 -2.0066 -0.5478
  289ACOH    H311212   4.956   7.133   0.292  1.2901  1.3676 -0.1781
  290ACOH    H411213   3.984   8.376   1.848  0.2696  1.5750  0.3070
  290ACOH    O211214   3.975   8.343   1.939 -0.5413  0.0358 -0.3052
  290ACOH    C211215   3.862   8.280   1.955 -0.2746  0.2658  1.0743
  290ACOH    O111216   3.773   8.254   1.874 -0.2570  0.8721 -0.0335
  290ACOH    C111217   3.848   8.233   2.095  0.5244  0.6033  0.8176
  290ACOH    H111218   3.926   8.272   2.161  2.3346 -1.0029 -0.3225
  290ACOH    H211219   3.839   8.125   2.106 -3.5167  0.7355 -0.3468
  290ACOH    H311220   3.754   8.278   2.127 -0.9907 -1.3982 -0.7157
  291ACOH    H411221   7.164   2.834   4.589  0.1613 -1.2271  0.8979
  291ACOH    O211222   7.075   2.808   4.558 -0.0492 -0.0102  0.4303
  291ACOH    C211223   6.988   2.898   4.604  0.1462 -0.5603  0.2158
  291ACOH    O111224   7.012   3.006   4.657 -0.0188 -0.7308  0.1891
  291ACOH    C111225   6.845   2.859   4.567  0.4679  0.2561  0.2063
  291ACOH    H111226   6.852   2.752   4.546 -0.1146 -0.0405  1.4814
  291ACOH    H211227   6.804   2.902   4.475  1.2826 -2.7159 -1.5995
  291ACOH    H311228   6.777   2.871   4.651 -0.6345  0.0675 -0.6491
  292ACOH    H411229   5.553   0.596   4.603 -0.2099  0.8923  1.0629
  292ACOH    O211230   5.584   0.517   4.649 -0.2835  0.2864  0.1036
  292ACOH    C211231   5.480   0.449   4.704  0.2498 -1.3359  0.1745
  292ACOH    O111232   5.363   0.483   4.687 -0.2767 -0.3253 -0.1220
  292ACOH    C111233   5.517   0.323   4.774  0.6541  0.1097 -0.3271
  292ACOH    H111234   5.623   0.330   4.798  0.2752  0.7104  1.2440
  292ACOH    H211235   5.494   0.241   4.706 -2.2822  0.1880  0.5056
  292ACOH    H311236   5.451   0.306   4.860  2.3288 -2.2798  0.5484
  293ACOH    H411237   7.577   1.659   4.251 -0.3421  0.3727 -0.9006
  293ACOH    O211238   7.613   1.633   4.164  0.1571 -0.4026 -0.4700
  293ACOH    C211239   7.705   1.536   4.176  0.7046 -0.3090  0.2913
  293ACOH    O111240   7.742   1.483   4.279 -0.4097 -0.2676  0.0055
  293ACOH    C111241   7.756   1.491   4.046 -0.5791  0.7831  0.0278
  293ACOH    H111242   7.797   1.573   3.988  2.4759  0.5501  1.7801
  293ACOH    H211243   7.673   1.446   3.992 -1.1268  0.8499  0.7934
  293ACOH    H311244   7.838   1.421   4.060 -2.3517 -1.3441  0.1491
  294ACOH    H411245   8.686   3.779   4.157 -0.4581  0.6526  0.4813
  294ACOH    O211246   8.753   3.786   4.227 -0.1632  0.2386  0.2405
  294ACOH    C211247   8.776   3.669   4.279 -0.0901  0.1964 -0.4108
  294ACOH    O111248   8.704   3.569   4.269 -0.3427 -0.3202 -0.2714
  294ACOH    C111249   8.876   3.683   4.380 -0.1067 -0.5341 -0.2546
  294ACOH    H111250   8.968   3.724   4.339  0.0880 -0.6107  0.1124
  294ACOH    H211251   8.907   3.588   4.424  0.2359 -0.0898  0.4633
  294ACOH    H311252   8.842   3.743   4.464  0.0403 -1.1650  0.2547
  295ACOH    H411253   5.375   3.819   0.581  0.8913 -2.3635  2.0155
  295ACOH    O211254   5.334   3.873   0.650  0.6887  0.3250 -0.1190
  295ACOH    C211255   5.212   3.911   0.597  0.5806  0.1480  0.3536
  295ACOH    O111256   5.153   3.844   0.513  0.0688  0.5434  0.6889
  295ACOH    C111257   5.138   4.005   0.683 -0.6855  0.1934  0.0183
  295ACOH    H111258   5.076   3.948   0.752 -1.5758  2.5083  1.1911
  295ACOH    H211259   5.071   4.068   0.625 -2.6004 -1.3007  0.5356
  295ACOH    H311260   5.210   4.061   0.743 -0.7725  2.9567 -2.3509
  296ACOH    H411261   4.715   0.446   1.104 -0.8082 -0.5752  0.8641
  296ACOH    O211262   4.762   0.388   1.042 -0.2372  0.4671  0.3073
  296ACOH    C211263   4.879   0.445   1.013 -0.1911  0.3656 -0.9403
  296ACOH    O111264   4.920   0.555   1.042 -0.2465 -0.7393  0.2184
  296ACOH    C111265   4.964   0.359   0.922 -0.3032 -0.1593  0.4798
  296ACOH    H111266   5.065   0.394   0.900  0.5409 -2.3288  0.8127
  296ACOH    H211267   4.912   0.346   0.827  0.2796 -0.7299  0.2334
  296ACOH    H311268   4.970   0.257   0.960  2.2433 -0.4831 -0.6665
  297ACOH    H411269   7.034   7.662   2.015  0.0944  1.6911 -0.7974
  297ACOH    O211270   6.970   7.648   1.943 -0.3340 -0.2094 -0.0767
  297ACOH    C211271   7.016   7.720   1.835 -0.2938 -0.2029  0.2086
  297ACOH    O111272   7.106   7.798   1.838  0.5336 -0.7590  0.7717
  297ACOH    C111273   6.932   7.718   1.711  0.1498 -0.2942 -0.1452
  297ACOH    H111274   6.879   7.805   1.675  0.8345  0.2255  0.0863
  297ACOH    H211275   6.866   7.634   1.731  1.0158 -1.0772 -0.5149
  297ACOH    H311276   6.991   7.703   1.621 -0.5243  1.3251 -0.8580
  298ACOH    H411277   7.869   2.688   3.089 -0.7246  2.9369  2.1419
  298ACOH    O211278   7.775   2.692   3.063 -0.2251  0.2965 -0.3144
  298ACOH    C211279   7.700   2.648   3.166  0.6886 -0.3306 -0.0728
  298ACOH    O111280   7.740   2.647   3.280  0.3836 -0.5306  0.4736
  298ACOH    C111281   7.558   2.609   3.131  0.7233  0.5901 -0.8010
  298ACOH    H111282   7.550   2.519   3.070  1.6273  0.6533 -1.0351
  298ACOH    H211283   7.522   2.693   3.071  0.6773  0.7724 -0.5164
  298ACOH    H311284   7.498   2.593   3.220  1.0916 -1.3362 -0.8906
  299ACOH    H411285   5.006   2.903   3.110  2.3913  0.7309 -0.1557
  299ACOH    O211286   4.980   2.985   3.155 -0.6548  0.0287 -0.5120
  299ACOH    C211287   4.968   3.091   3.076  0.5797  0.1244  0.2307
  299ACOH    O111288   4.971   3.094   2.952  0.2504  0.1905  0.0185
  299ACOH    C111289   4.945   3.217   3.148  0.4477 -0.8573  0.6938
  299ACOH    H111290   5.038   3.273   3.157  0.4264 -0.1206 -2.8913
  299ACOH    H211291   4.910   3.193   3.248 -1.3071  1.8756  0.7877
  299ACOH    H311292   4.866   3.277   3.104 -0.1347 -0.2340  2.5246
  300ACOH    H411293   5.607   8.498   1.535 -1.7437 -0.0523  1.4381
  300ACOH    O211294   5.602   8.594   1.527  0.1837 -0.0403  0.1280
  300ACOH    C211295   5.729   8.651   1.524  0.0970  0.5756 -0.5718
  300ACOH    O111296   5.835   8.590   1.527  0.3838 -0.1831  0.3560
  300ACOH    C111297   5.730   8.796   1.503 -0.2848 -0.5453  0.0338
  300ACOH    H111298   5.821   8.844   1.537 -0.1234 -0.4166 -0.5633
  300ACOH    H211299   5.637   8.835   1.545 -0.7631 -1.1962 -0.3986
  300ACOH    H311300   5.728   8.807   1.394  3.3772 -0.1596 -0.0461
  301ACOH    H411301   5.394   3.522   0.176 -0.4412 -0.5819 -0.1373
  301ACOH    O211302   5.440   3.518   0.091  0.0323  0.1633  0.0743
  301ACOH    C211303   5.392   3.427   0.008  0.0491  0.0634  0.1638
  301ACOH    O111304   5.313   3.342   0.042  0.2192 -0.2627  0.4974
  301ACOH    C111305   5.441   3.446  -0.127  0.3802 -0.3784 -0.4016
  301ACOH    H111306   5.370   3.423  -0.207 -1.6054  0.6710  1.0045
  301ACOH    H211307   5.534   3.390  -0.137  0.2304 -0.7456  0.2227
  301ACOH    H311308   5.459   3.552  -0.143  2.4147 -0.8727 -1.6214
  302ACOH    H411309   7.779   8.244   2.188 -2.2186  1.1478  0.3078
  302ACOH    O211310   7.784   8.261   2.092 -0.5839 -0.1113  0.1589
  302ACOH    C211311   7.755   8.389   2.062 -0.0508  0.4997  0.2811
  302ACOH    O111312   7.695   8.473   2.128  0.3032  0.5109  0.7260
  302ACOH    C111313   7.783   8.407   1.919  0.2405  0.4442  0.1283
  302ACOH    H111314   7.835   8.502   1.910 -0.5659  0.9138  0.4130
  302ACOH    H211315   7.696   8.393   1.855  0.2593  0.5932  0.0701
  302ACOH    H311316   7.856   8.334   1.883 -1.3101 -2.0224  1.8230
  303ACOH    H411317   4.728   7.491   1.069 -0.3503  1.3703  1.0370
  303ACOH    O211318   4.718   7.447   1.156 -0.4782  0.2443  0.4686
  303ACOH    C211319   4.588   7.427   1.174  0.1630  0.0737  0.2288
  303ACOH    O111320   4.504   7.513   1.147  0.0233  1.0456  0.2009
  303ACOH    C111321   4.567   7.325   1.277 -1.0876 -0.1445 -0.2806
  303ACOH    H111322   4.563   7.373   1.375  2.0129 -0.7825  0.1864
  303ACOH    H211323   4.648   7.253   1.277  0.9480  2.1121 -0.0212
  303ACOH    H311324   4.475   7.268   1.259 -1.8958  1.0284  0.0421
  304ACOH    H411325   5.397   2.297   0.759  0.8004 -0.9641 -1.0376
  304ACOH    O211326   5.479   2.349   0.755  0.4851 -0.3619  0.3062
  304ACOH    C211327   5.574   2.274   0.811 -0.2939  0.3742 -0.3559
  304ACOH    O111328   5.554   2.162   0.856  0.2038 -0.3849 -0.2230
  304ACOH    C111329   5.715   2.316   0.781 -0.1922  0.2692 -0.1936
  304ACOH    H111330   5.778   2.227   0.776  1.3599  1.4703 -3.0738
  304ACOH    H211331   5.742   2.381   0.865 -1.5179  0.9655 -0.3017
  304ACOH    H311332   5.715   2.374   0.689  2.9405  1.2035  0.3218
  305ACOH    H411333   3.952   5.519   1.572  2.2289  2.6911 -2.3027
  305ACOH    O211334   3.894   5.476   1.507  0.6176  0.5229  0.4304
  305ACOH    C211335   3.766   5.517   1.492  0.0314  0.9674  0.2177
  305ACOH    O111336   3.678   5.440   1.451  0.4547 -0.3654  0.3421
  305ACOH    C111337   3.737   5.626   1.578 -0.5715  0.0726  0.2674
  305ACOH    H111338   3.664   5.696   1.539 -0.8545 -1.8515 -2.8891
  305ACOH    H211339   3.823   5.688   1.601 -1.0599  1.1644 -0.7741
  305ACOH    H311340   3.695   5.586   1.670 -0.4042  0.7994  0.6589
  306ACOH    H411341   7.503   0.628   0.197  0.1308 -1.5128  0.3370
  306ACOH    O211342   7.583   0.669   0.236 -0.4151 -0.1837  0.0716
  306ACOH    C211343   7.610   0.788   0.174 -0.0811  0.2923 -0.5539
  306ACOH    O111344   7.605   0.804   0.056 -0.0058 -0.0038 -0.2163
  306ACOH    C111345   7.691   0.880   0.256  0.0643 -0.1552 -0.0519
  306ACOH    H111346   7.675   0.859   0.361 -0.2704 -1.6000 -0.3820
  306ACOH    H211347   7.663   0.982   0.229  1.8630  1.0327  2.3997
  306ACOH    H311348   7.793   0.856   0.225  0.7000  0.3542  1.6120
  307ACOH    H411349   3.993   6.963   0.503 -1.7169 -1.6034  0.0579
  307ACOH    O211350   4.068   6.914   0.541 -0.0471  0.2580 -0.7521
  307ACOH    C211351   4.170   7.001   0.534 -0.5411  0.0698  0.0627
  307ACOH    O111352   4.162   7.121   0.512  0.1018  0.3224  0.2993
  307ACOH    C111353   4.295   6.922   0.562  0.4632 -0.1477 -0.7451
  307ACOH    H111354   4.295   6.879   0.662 -0.8244  0.0807 -0.6309
  307ACOH    H211355   4.380   6.990   0.567 -0.0168  0.3996  0.2260
  307ACOH    H311356   4.329   6.842   0.496  5.3833  1.4142 -0.2945
  308ACOH    H411357   7.841   5.978   1.941 -0.6007 -0.0001  2.8295
  308ACOH    O211358   7.787   5.904   1.909  1.0237 -0.1858  0.3046
  308ACOH    C211359   7.701   5.862   2.004 -0.8286  0.5980 -0.0631
  308ACOH    O111360   7.683   5.907   2.117  0.4357  0.4260 -0.7398
  308ACOH    C111361   7.630   5.746   1.958  0.0064  0.2714 -0.9567
  308ACOH    H111362   7.620   5.734   1.850  1.0051 -1.3674 -0.8743
  308ACOH    H211363   7.525   5.758   1.988  0.1899 -0.5318  0.0197
  308ACOH    H311364   7.674   5.657   2.001 -2.6596 -1.3268 -1.3980
  309ACOH    H411365   1.639   6.082   2.849 -2.2679  0.8864 -1.2299
  309ACOH    O211366   1.598   6.103   2.934 -0.3357  0.2873 -0.1268
  309ACOH    C211367   1.627   6.234   2.956  0.2725  0.3252  0.2643
  309ACOH    O111368   1.685   6.306   2.882  0.0620  0.3588 -0.1162
  309ACOH    C111369   1.553   6.284   3.071  0.9888 -0.8009  0.2665
  309ACOH    H111370   1.516   6.206   3.137 -1.6320  0.6984  0.6133
  309ACOH    H211371   1.461   6.334   3.043  1.4336 -0.7506 -1.1247
  309ACOH    H311372   1.620   6.342   3.135 -0.7514  0.8045  0.6712
  310ACOH    H411373   6.757   0.876   3.302  0.5735 -1.9195  1.3659
  310ACOH    O211374   6.821   0.926   3.355  0.1451  0.3947 -0.2089
  310ACOH    C211375   6.761   0.958   3.471 -0.1817  0.4394  0.3599
  310ACOH    O111376   6.666   0.901   3.510 -0.0461  0.0055 -0.0197
  310ACOH    C111377   6.853   1.043   3.556  0.0462  0.0854 -0.2238
  310ACOH    H111378   6.893   1.132   3.507  2.5660 -1.2189 -0.6273
  310ACOH    H211379   6.936   0.984   3.595  0.9296  1.3926 -0.0991
  310ACOH    H311380   6.792   1.075   3.640  0.8653 -0.6594  0.6616
  311ACOH    H411381   6.835   1.621   2.708 -1.0791  0.5193 -0.9931
  311ACOH    O211382   6.895   1.679   2.658 -0.2414  0.2158 -0.3498
  311ACOH    C211383   6.981   1.614   2.580 -0.6132  1.1501  0.1410
  311ACOH    O111384   6.977   1.497   2.555  0.2036 -0.2311 -0.1364
  311ACOH    C111385   7.076   1.701   2.511 -0.4887 -0.3181 -0.5688
  311ACOH    H111386   7.177   1.661   2.507 -0.6984 -1.0871  1.2420
  311ACOH    H211387   7.072   1.801   2.554  0.7305 -0.3217 -0.4504
  311ACOH    H311388   7.043   1.695   2.407 -0.5250 -0.7288 -0.5327
  312ACOH    H411389   3.975   4.820   3.393  2.4506  0.8610 -2.6876
  312ACOH    O211390   4.026   4.851   3.469 -0.6799 -0.4016  0.0172
  312ACOH    C211391   4.021   4.755   3.562  0.3981 -0.3944  0.2707
  312ACOH    O111392   3.984   4.642   3.547 -0.5133  0.4234 -1.1259
  312ACOH    C111393   4.109   4.795   3.678  0.0083  0.5254  0.2045
  312ACOH    H111394   4.038   4.827   3.754  0.5337  1.2854  0.3875
  312ACOH    H211395   4.185   4.867   3.645 -0.4203  0.2717 -1.4023
  312ACOH    H311396   4.155   4.701   3.707  1.8167  1.7751  1.5200
  313ACOH    H411397   6.842   8.792   3.899  0.0391 -0.3879 -0.8565
  313ACOH    O211398   6.890   8.707   3.902 -0.1403 -0.4722 -0.1262
  313ACOH    C211399   6.971   8.705   4.011  0.0323 -0.5508  0.3364
  313ACOH    O111400   6.987   8.788   4.102  0.3101 -0.4814 -0.1934
  313ACOH    C111401   7.026   8.569   4.027 -0.1201  0.5239  0.0863
  313ACOH    H111402   7.037   8.522   3.929 -1.0402 -2.3097  1.2624
  313ACOH    H211403   6.953   8.511   4.085  2.3204  0.3151  3.0586
  313ACOH    H311404   7.123   8.579   4.075 -0.5831 -1.7483  1.6100
  314ACOH    H411405   3.684   6.956   4.414 -0.1023  0.4176 -2.1158
  314ACOH    O211406   3.777   6.931   4.401  0.2039  0.1781  0.3726
  314ACOH    C211407   3.847   6.993   4.499 -0.2131 -0.2984  0.2682
  314ACOH    O111408   3.802   7.052   4.599  0.2506  0.7441 -0.2204
  314ACOH    C111409   3.988   6.996   4.442  0.5467 -0.1910 -0.7685
  314ACOH    H111410   3.987   6.917   4.366 -0.0483 -1.1067  0.1686
  314ACOH    H211411   4.063   6.981   4.519 -0.5521  0.5514  0.4701
  314ACOH    H311412   4.009   7.088   4.388  0.0121 -0.2907 -1.1534
  315ACOH    H411413   5.296   7.937   0.643 -0.1152 -1.6891 -1.2117
  315ACOH    O211414   5.372   7.924   0.702 -0.4418 -0.6155 -0.5255
  315ACOH    C211415   5.353   7.826   0.791 -0.2835  0.0286  0.2047
  315ACOH    O111416   5.250   7.757   0.789  0.3017 -0.5105 -0.6081
  315ACOH    C111417   5.474   7.782   0.860 -1.3495 -0.1936  0.0263
  315ACOH    H111418   5.564   7.811   0.804  0.6717  0.8936  3.6368
  315ACOH    H211419   5.480   7.674   0.876  3.7614  0.0656  0.7890
  315ACOH    H311420   5.478   7.834   0.956  0.2983 -3.8658  2.0769
  316ACOH    H411421   6.820   4.680   0.040 -1.2649  1.6572  0.5752
  316ACOH    O211422   6.816   4.605   0.101 -0.2634  0.1736 -1.1392
  316ACOH    C211423   6.933   4.547   0.125  0.5218 -0.4941  0.0253
  316ACOH    O111424   7.030   4.577   0.062 -0.2780  0.0443 -0.2812
  316ACOH    C111425   6.915   4.441   0.229  0.8349 -0.2618 -0.4184
  316ACOH    H111426   6.883   4.482   0.326 -1.2470 -2.3846 -0.1700
  316ACOH    H211427   7.013   4.396   0.243  0.9695  0.6551  2.0023
  316ACOH    H311428   6.836   4.374   0.196 -0.8735  2.1309 -1.3931
  317ACOH    H411429   8.010   1.557   1.576 -1.3670  1.5397  1.7659
  317ACOH    O211430   7.962   1.485   1.620  0.2968 -0.5840  0.2477
  317ACOH    C211431   8.037   1.377   1.636 -0.5415 -0.0691 -0.9457
  317ACOH    O111432   8.158   1.370   1.663  0.3344  0.3568  0.2650
  317ACOH    C111433   7.942   1.267   1.656  0.2967 -0.4536  0.2998
  317ACOH    H111434   7.879   1.292   1.741 -1.2306  0.6945 -1.1618
  317ACOH    H211435   7.992   1.173   1.681  0.9782  0.0843  1.0002
  317ACOH    H311436   7.888   1.249   1.564 -0.7819 -0.4339  0.9269
  318ACOH    H411437   3.535   3.850   2.441  0.3118 -0.1637  1.5272
  318ACOH    O211438   3.440   3.847   2.419  0.5763 -0.2662  0.3611
  318ACOH    C211439   3.382   3.808   2.534  0.4184 -0.7001  0.4947
  318ACOH    O111440   3.435   3.800   2.641 -0.2041 -0.7003 -0.0490
  318ACOH    C111441   3.233   3.822   2.512  0.4079  0.3758  0.1521
  318ACOH    H111442   3.167   3.816   2.599  1.0803 -0.3185  0.6134
  318ACOH    H211443   3.210   3.746   2.438  0.8175  1.7384 -1.4191
  318ACOH    H311444   3.211   3.916   2.460  0.4105  1.2461  1.6827
  319ACOH    H411445   0.382   1.259   2.121 -0.3356 -0.1975  0.3402
  319ACOH    O211446   0.331   1.337   2.094  0.0151  0.0162  0.2839
  319ACOH    C211447   0.275   1.391   2.205 -0.5732  0.3130  0.3814
  319ACOH    O111448   0.323   1.361   2.311  0.3508  0.1494  0.6972
  319ACOH    C111449   0.181   1.507   2.179  0.3787  0.3163  0.4189
  319ACOH    H111450   0.241   1.598   2.182  1.3042 -0.3146  1.3453
  319ACOH    H211451   0.097   1.509   2.249 -1.4736  0.8919 -1.7382
  319ACOH    H311452   0.143   1.501   2.077  0.4170  0.2704  0.4072
  320ACOH    H411453   2.694   6.669   0.314 -1.0297 -0.1701 -0.9085
  320ACOH    O211454   2.755   6.722   0.261 -0.0925 -0.2469  0.0649
  320ACOH    C211455   2.784   6.832   0.336 -0.2776 -0.0771 -0.4486
  320ACOH    O111456   2.761   6.843   0.452 -0.8675 -0.0216  0.4508
  320ACOH    C111457   2.876   6.924   0.267  0.1138 -0.1950 -0.1246
  320ACOH    H111458   2.852   6.922   0.161  1.4665 -0.9423 -0.4152
  320ACOH    H211459   2.979   6.890   0.278  0.4348  0.2344 -1.7524
  320ACOH    H311460   2.873   7.028   0.299  0.6711 -0.2678  0.1609
  321ACOH    H411461   7.814   8.725   0.248 -0.4825  0.3642  1.6866
  321ACOH    O211462   7.777   8.650   0.297 -0.5400 -0.9112 -0.2877
  321ACOH    C211463   7.641   8.668   0.290  0.5449 -0.1613  0.7693
  321ACOH    O111464   7.579   8.772   0.289 -0.0452  0.2415 -0.1549
  321ACOH    C111465   7.580   8.538   0.317  1.0942  0.0087 -0.0292
  321ACOH    H111466   7.471   8.537   0.308  0.9159  1.7092  1.5068
  321ACOH    H211467   7.605   8.507   0.419 -2.2431  2.2334  1.5794
  321ACOH    H311468   7.619   8.466   0.246  1.4809  1.1621 -0.9849
  322ACOH    H411469   4.884   1.783   3.152 -0.6643  2.6810  3.5169
  322ACOH    O211470   4.966   1.831   3.132  0.1502 -0.0210 -0.2735
  322ACOH    C211471   4.937   1.961   3.170 -0.6584  1.1645 -0.2216
  322ACOH    O111472   4.832   2.005   3.211 -0.4914 -0.4474  0.1978
  322ACOH    C111473   5.056   2.039   3.137  0.0568  0.1783 -0.5517
  322ACOH    H111474   5.087   2.013   3.036 -1.1600 -0.7579 -0.7030
  322ACOH    H211475   5.140   2.016   3.202 -0.1516 -1.6398 -0.9001
  322ACOH    H311476   5.036   2.146   3.148  0.0073  0.2534 -1.3254
  323ACOH    H411477   7.032   6.469   3.398 -0.6590 -0.2755  2.1752
  323ACOH    O211478   6.939   6.440   3.394 -0.3760 -0.9052 -0.6414
  323ACOH    C211479   6.925   6.348   3.294  0.4137  0.7091  0.9275
  323ACOH    O111480   7.010   6.317   3.211 -0.3128  0.0728 -0.1146
  323ACOH    C111481   6.796   6.286   3.313 -0.4129 -0.0441 -0.1426
  323ACOH    H111482   6.722   6.317   3.239 -0.2546 -0.7114 -0.5816
  323ACOH    H211483   6.739   6.310   3.403  1.3585 -1.7177  1.4633
  323ACOH    H311484   6.818   6.180   3.300  0.7017  0.1109  0.4086
  324ACOH    H411485   8.042   1.639   3.928  0.9757  1.8125 -0.7829
  324ACOH    O211486   8.111   1.627   3.996  0.2298 -0.3230 -0.3262
  324ACOH    C211487   8.195   1.528   3.964 -0.6376  0.0999 -0.3001
  324ACOH    O111488   8.168   1.428   3.900  1.1314 -0.0782 -0.3122
  324ACOH    C111489   8.311   1.531   4.057 -0.5381 -0.5467 -1.2451
  324ACOH    H111490   8.398   1.560   3.998  1.5426 -0.8652  1.5738
  324ACOH    H211491   8.323   1.435   4.107 -1.7709 -1.1231 -2.0466
  324ACOH    H311492   8.288   1.609   4.129 -4.0696 -2.1893 -0.5039
  325ACOH    H411493   4.561   0.001   1.049  1.3973 -1.7717 -0.1715
  325ACOH    O211494   4.626   0.027   0.982  0.1124  0.9465 -0.4233
  325ACOH    C211495   4.744  -0.031   1.003  0.1001 -0.0109 -0.3458
  325ACOH    O111496   4.782  -0.085   1.104 -0.0743  0.1163  0.7621
  325ACOH    C111497   4.809  -0.041   0.873 -0.6010 -0.2491 -0.5396
  325ACOH    H111498   4.764   0.031   0.804 -1.2925  0.5405  0.7150
  325ACOH    H211499   4.771  -0.137   0.838 -3.7525  1.6073 -2.5725
  325ACOH    H311500   4.917  -0.035   0.867 -0.5420  0.5131  1.2353
  326ACOH    H411501   7.441   0.790   3.956  0.0452 -1.7833 -2.2673
  326ACOH    O211502   7.462   0.858   3.890 -0.4343  0.9772  0.3191
  326ACOH    C211503   7.376   0.833   3.794 -0.6818 -0.0561 -0.0654
  326ACOH    O111504   7.306   0.738   3.779 -0.2495 -0.3269 -0.4388
  326ACOH    C111505   7.386   0.943   3.699  0.0050  0.3180 -0.0291
  326ACOH    H111506   7.357   1.040   3.741  3.4130  0.7888  1.4283
  326ACOH    H211507   7.324   0.919   3.613  2.0980 -2.2527 -0.8404
  326ACOH    H311508   7.483   0.955   3.652 -0.4986  3.0753 -0.4859
  327ACOH    H411509   2.119   2.224   3.743  1.8944  4.6174  0.8594
  327ACOH    O211510   2.029   2.257   3.762  0.0155  0.2009  0.4517
  327ACOH    C211511   1.952   2.170   3.689 -0.4657  0.9959  0.5386
  327ACOH    O111512   1.993   2.065   3.641  0.0759 -0.3127 -0.4547
  327ACOH    C111513   1.816   2.223   3.683 -0.1049 -0.0139 -0.7487
  327ACOH    H111514   1.805   2.300   3.607  0.3604 -0.1843 -0.9889
  327ACOH    H211515   1.790   2.270   3.778 -0.5040 -0.6505 -0.5392
  327ACOH    H311516   1.740   2.149   3.657  0.2296 -0.6082 -0.0498
  328ACOH    H411517   5.139   3.520   3.149  1.7119 -0.0494  0.5480
  328ACOH    O211518   5.143   3.586   3.221  0.2998  0.2165  0.4090
  328ACOH    C211519   5.013   3.630   3.242  0.3171  0.0684  0.5032
  328ACOH    O111520   4.914   3.574   3.202  0.1243  0.5034  0.7200
  328ACOH    C111521   5.022   3.751   3.322 -0.2136 -0.8245 -0.1319
  328ACOH    H111522   4.922   3.795   3.330 -1.0307 -2.3505 -1.8327
  328ACOH    H211523   5.088   3.816   3.265  1.5995  0.3619  3.1532
  328ACOH    H311524   5.060   3.724   3.421 -1.8373 -0.4161  0.6245
  329ACOH    H411525   4.953   8.663   4.476  0.1467  2.1058  2.5138
  329ACOH    O211526   4.996   8.598   4.534 -1.0697 -0.7943  0.3028
  329ACOH    C211527   5.062   8.510   4.460 -0.0619 -0.1108 -0.6892
  329ACOH    O111528   5.070   8.520   4.342  0.2949 -0.2389  0.2463
  329ACOH    C111529   5.109   8.392   4.540 -0.7349  0.2203 -0.1876
  329ACOH    H111530   5.070   8.412   4.640  0.8792  0.2278  0.4485
  329ACOH    H211531   5.217   8.380   4.537 -0.9187 -1.3455 -0.7453
  329ACOH    H311532   5.073   8.303   4.489  3.2164 -0.5637 -1.7858
  330ACOH    H411533   7.430   2.925   0.599  2.1726 -1.6724  1.0777
  330ACOH    O211534   7.364   2.878   0.651  0.3077 -0.1728  0.1054
  330ACOH    C211535   7.262   2.848   0.564 -0.1114 -1.3880  0.1967
  330ACOH    O111536   7.242   2.913   0.462 -0.4581 -0.0099 -0.8068
  330ACOH    C111537   7.146   2.785   0.630 -0.1129  0.2977 -0.2241
  330ACOH    H111538   7.067   2.855   0.657  0.1677  0.1444  1.0369
  330ACOH    H211539   7.177   2.738   0.723  0.3523  0.9959 -0.0217
  330ACOH    H311540   7.104   2.707   0.566  1.8598  0.2903 -1.5509
  331ACOH    H411541   0.461   7.749   4.685  0.2508 -1.8969 -0.6592
  331ACOH    O211542   0.493   7.735   4.775  0.3260  0.1030 -0.3596
  331ACOH    C211543   0.608   7.657   4.757 -0.3320  0.0427  0.3919
  331ACOH    O111544   0.625   7.582   4.663 -0.6914 -0.5582  0.3958
  331ACOH    C111545   0.680   7.620   4.883  0.6078  0.5412  0.7311
  331ACOH    H111546   0.697   7.720   4.924  2.4002 -0.2405  1.9488
  331ACOH    H211547   0.772   7.564   4.867  1.1499  1.7853 -0.6420
  331ACOH    H311548   0.614   7.564   4.950  0.9614  0.5476  1.0855
  332ACOH    H411549   5.759   7.597   1.581  1.3780 -2.3401  0.1852
  332ACOH    O211550   5.798   7.623   1.496  0.0522  0.4968  0.3965
  332ACOH    C211551   5.777   7.749   1.493  0.1546 -0.3247 -0.3535
  332ACOH    O111552   5.742   7.825   1.583 -0.0373  0.5796  0.6189
  332ACOH    C111553   5.814   7.799   1.359  0.4650  0.3370 -0.0680
  332ACOH    H111554   5.789   7.732   1.277 -2.7102  0.7191  0.5144
  332ACOH    H211555   5.923   7.806   1.360  0.8026 -3.6941 -1.2341
  332ACOH    H311556   5.761   7.893   1.343  0.6489  0.9721  2.8550
  333ACOH    H411557   7.916   5.638   4.397  0.8643 -0.5821 -0.3567
  333ACOH    O211558   7.870   5.676   4.321  0.1400 -0.1244  0.3046
  333ACOH    C211559   7.753   5.717   4.368  0.5648  0.2620  0.5762
  333ACOH    O111560   7.719   5.703   4.485  0.0731  0.1023 -0.2249
  333ACOH    C111561   7.653   5.759   4.263  0.5056  0.4549  0.4252
  333ACOH    H111562   7.624   5.865   4.266 -0.5722  0.2633 -2.1659
  333ACOH    H211563   7.559   5.709   4.285  0.4027  0.8494  0.8877
  333ACOH    H311564   7.677   5.736   4.159  0.6918  1.7018  0.1745
  334ACOH    H411565   4.807   7.584   3.809 -0.6656 -0.4381  1.6399
  334ACOH    O211566   4.748   7.661   3.810  0.3901  0.4182  0.1725
  334ACOH    C211567   4.821   7.766   3.780 -0.3154 -0.1372  0.0801
  334ACOH    O111568   4.931   7.796   3.823 -0.2616  0.1413 -0.2045
  334ACOH    C111569   4.743   7.868   3.704 -0.2459  0.7955 -0.2152
  334ACOH    H111570   4.664   7.916   3.762 -1.1555 -1.6496  0.6806
  334ACOH    H211571   4.704   7.821   3.613 -0.4516  2.1479 -0.8328
  334ACOH    H311572   4.818   7.935   3.664 -0.5312  1.4433  0.3332
  335ACOH    H411573   5.008   9.666   4.474  0.5745  1.2070 -0.5743
  335ACOH    O211574   5.075   9.646   4.542 -0.0786  0.5494 -0.1171
  335ACOH    C211575   5.157   9.751   4.552  0.4664 -0.7070 -0.7515
  335ACOH    O111576   5.115   9.866   4.568  0.1307  0.3252  0.1884
  335ACOH    C111577   5.293   9.711   4.593 -0.2288  0.3545  0.3860
  335ACOH    H111578   5.314   9.774   4.680  2.1025  0.3098 -0.1092
  335ACOH    H211579   5.366   9.735   4.515 -1.9890  1.8019 -0.8474
  335ACOH    H311580   5.298   9.608   4.629  2.4005  1.0727  2.2635
  336ACOH    H411581   4.860   8.945   0.385  2.1058 -0.2611  1.6636
  336ACOH    O211582   4.853   9.039   0.361  0.5237 -0.7965 -0.0284
  336ACOH    C211583   4.746   9.050   0.283 -0.0896  0.6701  0.0206
  336ACOH    O111584   4.702   8.950   0.223 -0.4549  0.4108 -0.1954
  336ACOH    C111585   4.724   9.187   0.239  0.0501  0.5815 -0.4243
  336ACOH    H111586   4.618   9.203   0.219 -0.4297 -1.6437  0.1405
  336ACOH    H211587   4.781   9.200   0.147 -0.2142 -1.4545 -0.9029
  336ACOH    H311588   4.761   9.256   0.315  0.7733 -0.5986  0.3123
  337ACOH    H411589   6.168   7.121   3.387 -1.5573 -1.5314 -0.9135
  337ACOH    O211590   6.187   7.060   3.461  0.2659 -0.0735 -0.1176
  337ACOH    C211591   6.089   7.079   3.550  0.9212  0.3198  0.0405
  337ACOH    O111592   5.975   7.121   3.536  0.2364 -0.3475  0.3714
  337ACOH    C111593   6.139   7.026   3.678  0.5044 -0.3257  0.4497
  337ACOH    H111594   6.060   6.988   3.744  0.5131  1.3076  1.4239
  337ACOH    H211595   6.201   7.097   3.733  1.0409 -1.1049  0.8620
  337ACOH    H311596   6.208   6.945   3.655 -1.6983 -2.6773  1.7621
  338ACOH    H411597   5.617   2.801   0.565 -0.6582  0.8124 -0.2995
  338ACOH    O211598   5.555   2.728   0.548  0.2668 -0.1046  0.1592
  338ACOH    C211599   5.615   2.616   0.511 -0.5211 -0.2913  0.1351
  338ACOH    O111600   5.735   2.598   0.514  0.0595  0.7699  0.2547
  338ACOH    C111601   5.524   2.501   0.481 -0.3726 -0.5730 -0.6861
  338ACOH    H111602   5.553   2.415   0.542 -0.5656 -0.4842 -0.4689
  338ACOH    H211603   5.515   2.480   0.374  1.5738  1.4060 -1.2529
  338ACOH    H311604   5.425   2.531   0.517 -1.1535 -1.3847 -2.0775
  339ACOH    H411605   3.834   5.718   2.180  0.5971 -0.5864  0.1774
  339ACOH    O211606   3.903   5.784   2.159 -0.0503  0.0498  0.0215
  339ACOH    C211607   3.966   5.738   2.051  0.3686 -0.3028  0.8042
  339ACOH    O111608   3.954   5.631   1.991 -0.5489 -0.1911 -0.0687
  339ACOH    C111609   4.071   5.836   2.020 -0.0466 -0.6031  1.0058
  339ACOH    H111610   4.058   5.876   1.919 -0.8588 -2.2316  0.4560
  339ACOH    H211611   4.173   5.797   2.022 -0.2937 -1.3235 -0.0051
  339ACOH    H311612   4.078   5.920   2.089  0.8714 -0.4684  0.7586
  340ACOH    H411613   7.042   4.748   4.203 -2.9613 -0.5018  0.2973
  340ACOH    O211614   7.014   4.838   4.180 -0.8752  0.0884 -0.0413
  340ACOH    C211615   6.998   4.848   4.050  0.1355  0.2212 -0.5016
  340ACOH    O111616   7.009   4.761   3.966 -0.4798  0.0688  0.4838
  340ACOH    C111617   6.939   4.980   4.019 -0.0390 -0.1415 -0.4304
  340ACOH    H111618   6.871   4.983   3.934  0.2219  1.0076 -0.5980
  340ACOH    H211619   7.018   5.051   3.996  0.8904 -1.3735 -1.1013
  340ACOH    H311620   6.883   5.013   4.107 -1.1881 -0.4492 -1.0325
  341ACOH    H411621   7.991   6.290   0.109  4.6554 -0.2161  0.8468
  341ACOH    O211622   8.004   6.330   0.021 -0.3652  0.6861  0.3622
  341ACOH    C211623   8.071   6.237  -0.053  0.1654 -0.3358 -0.0022
  341ACOH    O111624   8.151   6.153  -0.011 -0.1124  0.3552  0.0172
  341ACOH    C111625   8.053   6.284  -0.191  0.1827  0.0570 -0.5919
  341ACOH    H111626   8.011   6.210  -0.258  0.9323 -1.3975  0.4991
  341ACOH    H211627   8.154   6.314  -0.221  0.8762 -0.4344  1.1483
  341ACOH    H311628   7.990   6.373  -0.199 -0.7619 -0.4882  0.6215
  342ACOH    H411629   1.790   6.645   2.631 -0.5021  0.9566 -1.7782
  342ACOH    O211630   1.700   6.629   2.666  0.3892 -0.2999  0.0270
  342ACOH    C211631   1.709   6.632   2.800 -0.7209 -0.1065  0.0615
  342ACOH    O111632   1.810   6.618   2.867  0.0390  0.4268  0.1811
  342ACOH    C111633   1.570   6.636   2.859 -0.1063  0.2213 -0.0089
  342ACOH    H111634   1.494   6.669   2.788 -0.7271  0.0499  0.5715
  342ACOH    H211635   1.570   6.716   2.933 -0.0573  0.6400 -0.4570
  342ACOH    H311636   1.543   6.539   2.901 -1.5273  0.2174 -0.8851
  343ACOH    H411637   6.523   8.355   3.454 -2.0722 -1.0809  1.4424
  343ACOH    O211638   6.502   8.428   3.514 -0.5919  0.2866  0.3484
  343ACOH    C211639   6.611   8.483   3.569  0.5829  0.1454 -0.5127
  343ACOH    O111640   6.728   8.460   3.547 -0.3571  0.2725  0.3256
  343ACOH    C111641   6.574   8.599   3.645  0.4024  0.3985  0.0144
  343ACOH    H111642   6.522   8.577   3.738  0.5041 -1.2269 -0.2989
  343ACOH    H211643   6.507   8.662   3.587 -0.9203  0.1792  1.2768
  343ACOH    H311644   6.656   8.663   3.679 -0.3141  0.4809  1.6534
  344ACOH    H411645   5.671   9.382   1.274  1.9243  0.3469  0.1518
  344ACOH    O211646   5.708   9.304   1.228  0.4765 -0.3271  0.0832
  344ACOH    C211647   5.624   9.203   1.235  0.1612 -0.4630  0.2989
  344ACOH    O111648   5.503   9.209   1.245  0.3232 -0.0511 -0.6910
  344ACOH    C111649   5.691   9.074   1.211 -0.6312 -0.0106 -0.3742
  344ACOH    H111650   5.724   9.062   1.108  1.0429  3.0105 -0.2321
  344ACOH    H211651   5.626   8.989   1.232 -0.2285  0.0222  1.0704
  344ACOH    H311652   5.779   9.051   1.270 -0.7447 -2.2792 -1.0344
  345ACOH    H411653   6.149   0.998   3.129 -0.1635  0.3716  0.6460
  345ACOH    O211654   6.200   0.951   3.197 -0.1634 -0.3310  0.1598
  345ACOH    C211655   6.253   1.047   3.275 -0.0456  0.1094  1.0105
  345ACOH    O111656   6.263   1.166   3.251 -0.4244 -0.2687  0.2749
  345ACOH    C111657   6.316   0.989   3.400 -0.0452 -0.6820  0.1763
  345ACOH    H111658   6.233   0.932   3.442  0.5365 -1.6980 -0.0565
  345ACOH    H211659   6.356   1.059   3.473  1.8675 -0.6055 -0.9148
  345ACOH    H311660   6.399   0.924   3.373 -1.2462 -1.6946 -1.1752
  346ACOH    H411661   4.718   3.049   4.639 -0.5431 -1.8678  0.5771
  346ACOH    O211662   4.809   3.021   4.655  0.0881  0.3415  0.9630
  346ACOH    C211663   4.838   3.065   4.782 -0.0676  0.4997 -0.2437
  346ACOH    O111664   4.759   3.082   4.874 -0.5455  0.2175  0.1254
  346ACOH    C111665   4.978   3.030   4.814 -0.4677 -0.1460 -0.0543
  346ACOH    H111666   5.049   3.024   4.732 -1.2987 -0.0213 -0.7875
  346ACOH    H211667   4.978   2.936   4.870  2.2641 -0.0336  0.2045
  346ACOH    H311668   5.028   3.106   4.874 -0.2613  1.6064 -2.3759
  347ACOH    H411669   6.873   0.207   1.138  0.0716 -1.2542 -0.9843
  347ACOH    O211670   6.817   0.257   1.077 -0.4820 -0.0821  0.4476
  347ACOH    C211671   6.705   0.185   1.065 -0.1963  0.1412  0.4918
  347ACOH    O111672   6.680   0.078   1.121  0.1365 -0.0049  0.8405
  347ACOH    C111673   6.611   0.242   0.970 -0.0429  0.1060 -0.2935
  347ACOH    H111674   6.652   0.340   0.943  3.1336 -0.6533  1.4519
  347ACOH    H211675   6.520   0.260   1.027 -0.3437  0.9168 -1.0278
  347ACOH    H311676   6.597   0.173   0.887 -0.8431  2.4000 -2.1035
  348ACOH    H411677   7.832   5.315   4.267  0.3017 -1.9849  0.0649
  348ACOH    O211678   7.755   5.274   4.311 -0.2654 -0.5609  0.4362
  348ACOH    C211679   7.807   5.177   4.392 -0.4549 -0.6352  0.2733
  348ACOH    O111680   7.920   5.139   4.402 -0.3316 -0.2122  0.2271
  348ACOH    C111681   7.695   5.124   4.477  0.6861  0.3667  0.0988
  348ACOH    H111682   7.601   5.148   4.429  0.8221 -0.1398 -0.4303
  348ACOH    H211683   7.686   5.170   4.576  2.1380  2.8364 -0.8785
  348ACOH    H311684   7.706   5.015   4.475  0.1416  0.2992  0.7855
  349ACOH    H411685   4.001   5.040   2.097 -1.2078 -0.6151 -4.7473
  349ACOH    O211686   4.033   4.948   2.086  0.1140 -0.7501 -0.7118
  349ACOH    C211687   4.058   4.934   1.957  0.1419  0.7927 -0.2509
  349ACOH    O111688   4.065   5.016   1.871  0.3988 -0.0792 -0.2807
  349ACOH    C111689   4.104   4.798   1.920 -0.6875  0.9437  0.1201
  349ACOH    H111690   4.023   4.734   1.885  1.4886 -1.1398 -1.2500
  349ACOH    H211691   4.136   4.755   2.015  1.7421  0.6028 -0.8116
  349ACOH    H311692   4.193   4.798   1.857  0.2444 -0.4770  1.4132
  350ACOH    H411693   5.108   4.720   1.118 -0.8808 -0.0443 -0.7434
  350ACOH    O211694   5.137   4.647   1.060 -0.5490 -0.3675 -0.1815
  350ACOH    C211695   5.050   4.676   0.958  0.5768 -0.2619 -0.5610
  350ACOH    O111696   4.932   4.683   0.994 -0.6151  0.0901  0.4713
  350ACOH    C111697   5.094   4.617   0.826 -0.2887 -0.4447  0.6785
  350ACOH    H111698   5.066   4.512   0.815 -1.9738  0.2745 -2.9419
  350ACOH    H211699   5.202   4.622   0.818 -0.4419  0.6835 -0.9675
  350ACOH    H311700   5.050   4.666   0.739 -1.5354 -2.9596 -0.1828
  351ACOH    H411701   5.797   3.046   0.829  0.2956  0.8081  2.4352
  351ACOH    O211702   5.845   2.966   0.857  0.5343  0.1372  0.2261
  351ACOH    C211703   5.834   2.870   0.765  0.1906 -0.3641 -0.0941
  351ACOH    O111704   5.742   2.870   0.686  0.1252  0.1401  0.0846
  351ACOH    C111705   5.926   2.755   0.792  0.0907 -0.2311 -0.0062
  351ACOH    H111706   6.021   2.792   0.752 -0.6575  1.0319 -0.6471
  351ACOH    H211707   5.904   2.662   0.740 -0.0677  0.6765 -1.6083
  351ACOH    H311708   5.944   2.738   0.898  3.1397 -0.9707 -0.5957
  352ACOH    H411709   5.148   3.120   1.677 -1.9649 -2.0629 -0.1969
  352ACOH    O211710   5.220   3.054   1.670 -0.2176 -0.2510  0.1263
  352ACOH    C211711   5.225   3.000   1.794 -0.7036 -0.6029 -0.3007
  352ACOH    O111712   5.159   3.027   1.887  0.1489  0.1151  0.0703
  352ACOH    C111713   5.347   2.907   1.801  0.2006  0.1967 -0.2696
  352ACOH    H111714   5.390   2.890   1.702 -0.8476 -0.3489 -0.6405
  352ACOH    H211715   5.311   2.812   1.839 -0.4770  0.8147  0.6607
  352ACOH    H311716   5.424   2.944   1.868  0.8103  0.1370 -0.9395
  353ACOH    H411717   5.068   6.125   2.104 -1.7888  1.9980  0.9876
  353ACOH    O211718   4.996   6.066   2.130 -0.2340 -0.2883  0.2191
  353ACOH    C211719   4.998   6.080   2.263  0.4306 -0.2014  0.4018
  353ACOH    O111720   5.067   6.159   2.322 -0.1087  0.1836  0.2922
  353ACOH    C111721   4.900   5.990   2.329 -0.0379 -0.6291  0.6689
  353ACOH    H111722   4.805   6.039   2.312  0.2006 -0.2617  0.3756
  353ACOH    H211723   4.931   5.974   2.432 -0.2148 -0.5097  0.7395
  353ACOH    H311724   4.885   5.893   2.281 -2.7469  0.5535 -1.0033
  354ACOH    H411725   5.330   4.238   0.531 -0.8599  1.9867  0.5197
  354ACOH    O211726   5.417   4.239   0.575 -0.5334 -0.2466 -0.0077
  354ACOH    C211727   5.495   4.146   0.503 -0.5224  0.1640 -0.0797
  354ACOH    O111728   5.468   4.104   0.391  0.4113  0.0774  0.2830
  354ACOH    C111729   5.637   4.130   0.553 -0.4090  0.5350 -0.7387
  354ACOH    H111730   5.641   4.046   0.622  0.1966  0.5192 -0.7918
  354ACOH    H211731   5.672   4.219   0.604  2.9614 -0.5972 -0.9457
  354ACOH    H311732   5.699   4.102   0.468 -0.9384  0.7662 -1.2040
  355ACOH    H411733   5.203   5.350   1.294 -0.6539 -0.4631  0.4607
  355ACOH    O211734   5.243   5.399   1.368 -0.1953  0.2699 -0.2563
  355ACOH    C211735   5.362   5.346   1.399  0.0106 -0.6398  0.1380
  355ACOH    O111736   5.421   5.255   1.348 -0.2612  0.3946  1.0579
  355ACOH    C111737   5.434   5.432   1.492  0.7175  0.5298 -0.1015
  355ACOH    H111738   5.367   5.478   1.565  1.4634  0.3604  0.6970
  355ACOH    H211739   5.463   5.517   1.429  0.7514  1.7473  1.5278
  355ACOH    H311740   5.521   5.382   1.532 -0.9115 -3.5188 -1.3827
  356ACOH    H411741   7.476   4.130   4.312 -0.1637 -0.1461  0.5874
  356ACOH    O211742   7.516   4.042   4.300 -0.1035 -0.0622  0.1660
  356ACOH    C211743   7.429   3.947   4.325  0.8014  0.1605  0.9150
  356ACOH    O111744   7.318   3.969   4.375  0.1917  0.1678  0.3160
  356ACOH    C111745   7.466   3.811   4.277  0.2191  0.2361  0.6655
  356ACOH    H111746   7.574   3.799   4.270  0.4264 -0.8054  4.3823
  356ACOH    H211747   7.419   3.791   4.181 -1.4155 -0.9164  1.6953
  356ACOH    H311748   7.435   3.747   4.360 -3.3703  0.1410 -0.6769
  357SOL     OW11749   9.202   9.111   2.856  0.2675 -0.2682 -0.4653
  357SOL    HW111750   9.294   9.085   2.884 -0.2083 -1.5569 -0.0510
  357SOL    HW211751   9.153   9.149   2.935  0.8235  1.5644 -0.9717
  358SOL     OW11752   3.026   0.403   0.471  0.4332  0.0838 -0.0051
  358SOL    HW111753   2.934   0.420   0.435 -0.7054  0.3624  2.9598
  358SOL    HW211754   3.036   0.448   0.560  2.9042 -1.2812  0.4441
  359SOL     OW11755   9.837   4.946   4.339 -0.1913  0.2599 -0.4110
  359SOL    HW111756   9.880   4.862   4.372 -2.0513 -1.0552 -1.2843
  359SOL    HW211757   9.851   5.019   4.406  2.8773 -0.2481 -0.3929
  360SOL     OW11758   4.565   8.667   0.242  0.2293 -0.5928  0.3695
  360SOL    HW111759   4.517   8.747   0.205  0.3502 -0.6361  0.1129
  360SOL    HW211760   4.501   8.611   0.294  0.2735 -0.0339  1.0295
  361SOL     OW11761   4.102   1.030   0.582 -0.2111 -0.3623 -0.2266
  361SOL    HW111762   4.120   0.969   0.659 -0.0847 -1.9343 -1.4881
  361SOL    HW211763   4.179   1.030   0.520 -0.5880  0.3906 -0.7064
  362SOL     OW11764   7.702   6.213   2.424  0.2642  0.7641 -0.1570
  362SOL    HW111765   7.697   6.140   2.492  0.6475  1.4943  0.6670
  362SOL    HW211766   7.797   6.245   2.418  0.0348  1.4093 -0.2913
  363SOL     OW11767   9.531   9.226   3.807  0.1748  0.4013 -0.2169
  363SOL    HW111768   9.583   9.283   3.743  0.6328 -0.9516 -1.0704
  363SOL    HW211769   9.589   9.152   3.840 -0.5099  0.2476  0.6622
  364SOL     OW11770   2.200   2.390   3.947  0.4635  0.3449 -0.1933
  364SOL    HW111771   2.278   2.331   3.969 -0.6146 -0.6368  1.0696
  364SOL    HW211772   2.136   2.340   3.889  0.1716  0.7224 -0.1960
  365SOL     OW11773   7.690   9.194   2.613 -0.1307 -0.4675  0.7963
  365SOL    HW111774   7.654   9.273   2.663  1.8614  1.6468 -0.9615
  365SOL    HW211775   7.782   9.216   2.580 -0.3455 -2.8040 -1.4274
  366SOL     OW11776   3.695   1.192   2.748  0.1463  0.8245 -0.0144
  366SOL    HW111777   3.713   1.104   2.792 -0.7453  2.4305  3.7592
  366SOL    HW211778   3.752   1.262   2.790 -1.6761  2.6664 -0.5368
  367SOL     OW11779   1.954   1.749   2.621 -0.4865 -0.4153  0.0277
  367SOL    HW111780   1.912   1.740   2.531 -1.1684  2.4786  0.0176
  367SOL    HW211781   1.890   1.721   2.692 -0.4228 -1.3933 -0.2951
  368SOL     OW11782   8.906   6.460   3.411  0.0507 -0.2131 -0.0296
  368SOL    HW111783   8.886   6.547   3.365  3.1744  1.7565  2.1004
  368SOL    HW211784   8.872   6.464   3.505  2.7474 -0.0934  0.9807
  369SOL     OW11785   2.146   9.875   4.210  0.5938 -0.3985  0.4698
  369SOL    HW111786   2.236   9.850   4.244  1.2161  0.8895 -0.2235
  369SOL    HW211787   2.089   9.904   4.287  0.7216 -1.3212  0.9210
  370SOL     OW11788   2.901   3.501   3.542  0.2807 -1.0550 -0.6105
  370SOL    HW111789   2.894   3.498   3.442  0.3017 -0.2813 -0.6408
  370SOL    HW211790   2.952   3.422   3.574  0.5721 -1.1275 -1.2435
  371SOL     OW11791   4.815   7.353   3.200 -0.2175  0.3096  0.0482
  371SOL    HW111792   4.730   7.310   3.170 -0.3529  0.6174 -0.0148
  371SOL    HW211793   4.892   7.318   3.146 -0.8847  3.3572 -3.0786
  372SOL     OW11794   1.694   3.648   1.343 -0.3559 -0.3171  0.4072
  372SOL    HW111795   1.640   3.625   1.262 -1.2102  1.7123  0.3785
  372SOL    HW211796   1.768   3.711   1.317 -0.9541  0.7569  1.2780
  373SOL     OW11797   9.575   8.365   1.690 -0.1042  0.1382  0.4882
  373SOL    HW111798   9.609   8.383   1.783  0.4959 -1.3202  0.5631
  373SOL    HW211799   9.493   8.308   1.696  0.0510 -0.1249  0.1193
  374SOL     OW11800   1.928   0.520   1.691 -0.0327  0.3989  0.1250
  374SOL    HW111801   1.919   0.618   1.674 -0.2661  0.1833 -1.0133
  374SOL    HW211802   1.949   0.473   1.605 -0.8590 -0.6693  0.5022
  375SOL     OW11803   1.622   6.314   3.446 -0.2828 -0.7796 -0.3968
  375SOL    HW111804   1.532   6.271   3.445 -0.1026 -1.1977  0.8759
  375SOL    HW211805   1.691   6.248   3.416 -0.3402 -0.6048 -0.9095
  376SOL     OW11806   8.908   1.748   3.633 -0.0696 -0.0267 -0.1214
  376SOL    HW111807   8.837   1.695   3.679 -0.6372  1.1823  0.4342
  376SOL    HW211808   8.883   1.845   3.633  1.8740  0.5165  0.6832
  377SOL     OW11809   0.232   5.642   4.751  0.0734  0.2603 -0.1413
  377SOL    HW111810   0.273   5.683   4.832  1.1627 -0.5928 -0.2386
  377SOL    HW211811   0.269   5.550   4.738 -4.0423 -1.7251  1.4038
  378SOL     OW11812   1.455   8.132   0.746 -0.2284  0.2743 -0.0928
  378SOL    HW111813   1.511   8.053   0.772 -0.7115 -0.8372 -2.3837
  378SOL    HW211814   1.392   8.153   0.821  0.3406 -1.0909  0.8041
  379SOL     OW11815   1.916   9.712   1.992  0.0445 -0.2254  0.3112
  379SOL    HW111816   1.851   9.787   1.977  1.4512  1.2346  1.3134
  379SOL    HW211817   1.868   9.625   1.985 -2.2075  0.8311  1.8008
  380SOL     OW11818   3.480   5.081   0.899 -0.1766 -0.6503 -0.2908
  380SOL    HW111819   3.456   4.993   0.857 -1.7117  0.6903 -2.3002
  380SOL    HW211820   3.544   5.129   0.839 -0.6325  0.3168 -0.0069
  381SOL     OW11821   2.170   7.245   0.251 -0.3103 -0.2918  0.2034
  381SOL    HW111822   2.089   7.300   0.268  0.2919  1.3448 -2.0269
  381SOL    HW211823   2.234   7.256   0.328 -1.3781 -0.1001  1.0751
  382SOL     OW11824   8.848   7.497   2.899 -0.4550  0.1015 -0.5913
  382SOL    HW111825   8.826   7.593   2.914 -0.5470 -0.1563  1.0784
  382SOL    HW211826   8.937   7.476   2.940 -0.6825 -0.6485 -0.4677
  383SOL     OW11827   5.851   7.635   1.876 -0.5144 -0.2986 -0.2970
  383SOL    HW111828   5.786   7.629   1.952  0.9602 -0.4270  0.9844
  383SOL    HW211829   5.878   7.730   1.862 -1.2191 -0.2034 -1.0493
  384SOL     OW11830   4.079   3.928   4.395  0.0746 -0.1155 -0.3017
  384SOL    HW111831   4.170   3.945   4.434  1.1701 -2.1494 -1.8785
  384SOL    HW211832   4.058   3.999   4.328  0.9585 -0.1815 -0.6655
  385SOL     OW11833   7.567   2.998   0.551  0.1856  1.0666  0.0355
  385SOL    HW111834   7.540   3.078   0.603 -0.8175  1.5109 -1.1393
  385SOL    HW211835   7.567   3.020   0.453  2.0001  0.2480 -0.1739
  386SOL     OW11836   2.869   1.875   2.895 -0.0962  0.0082 -0.2714
  386SOL    HW111837   2.793   1.828   2.939  0.9903 -1.7813 -0.2657
  386SOL    HW211838   2.880   1.841   2.802 -0.7644  1.9486 -1.0855
  387SOL     OW11839   4.707   8.367   3.075  0.2495 -0.1252 -0.4008
  387SOL    HW111840   4.649   8.391   3.152 -0.8777  1.4514 -1.7041
  387SOL    HW211841   4.796   8.412   3.085 -0.0010  0.3208 -0.1953
  388SOL     OW11842   9.819   5.740   4.713  0.0254 -0.9205 -0.9391
  388SOL    HW111843   9.819   5.762   4.811  0.0343 -2.0872 -0.6682
  388SOL    HW211844   9.913   5.742   4.679  0.0463 -0.7377 -0.8699
  389SOL     OW11845   1.973   5.852   0.209  0.0707  0.0469 -0.2650
  389SOL    HW111846   2.000   5.835   0.303  0.7056 -0.3446 -0.5191
  389SOL    HW211847   1.876   5.829   0.198 -0.3822  1.4226  0.6287
  390SOL     OW11848   8.944   8.489   0.307  0.1160  0.6065  0.4694
  390SOL    HW111849   9.041   8.484   0.330  0.0994  1.1160  0.6439
  390SOL    HW211850   8.915   8.585   0.303 -0.3288  0.4633  0.2092
  391SOL     OW11851   7.066   9.629   1.955  0.5159 -0.4585  0.0108
  391SOL    HW111852   7.045   9.614   1.858  0.1600 -0.9154  0.1601
  391SOL    HW211853   7.044   9.724   1.979  2.3420  0.2065 -0.8117
  392SOL     OW11854   8.602   7.272   4.382 -0.5529  0.4804 -0.3310
  392SOL    HW111855   8.505   7.279   4.363 -0.7828  1.5792  1.0912
  392SOL    HW211856   8.641   7.364   4.391  0.0206  0.0560  1.8730
  393SOL     OW11857   7.514   0.988   3.160  0.1751  0.0680 -0.0079
  393SOL    HW111858   7.559   0.906   3.125  1.0060  0.5207 -0.0301
  393SOL    HW211859   7.581   1.063   3.163  0.0456  0.1184  2.2658
  394SOL     OW11860   2.310   4.755   2.140 -0.2512 -0.0608 -0.0220
  394SOL    HW111861   2.323   4.660   2.115 -0.2820 -0.0554 -0.0605
  394SOL    HW211862   2.391   4.808   2.115  0.4078 -0.3584  1.4227
  395SOL     OW11863   4.672   7.248   4.736  0.2023 -0.6410  0.0760
  395SOL    HW111864   4.650   7.204   4.823  0.9488 -2.0659 -0.4486
  395SOL    HW211865   4.588   7.269   4.687 -0.3018  1.4293  1.7319
  396SOL     OW11866   0.934   5.691   0.473  0.4219  0.3790  0.0230
  396SOL    HW111867   0.962   5.606   0.427 -0.7182 -0.7068  1.2923
  396SOL    HW211868   0.865   5.738   0.417 -0.3679 -0.5239  0.2209
  397SOL     OW11869   7.565   2.652   1.915  0.6209  0.2996  0.4296
  397SOL    HW111870   7.488   2.715   1.905 -1.1789 -1.6939  1.3414
  397SOL    HW211871   7.638   2.678   1.852 -1.1317  1.7176 -1.0508
  398SOL     OW11872   8.293   2.866   2.930  0.1540  0.9552  0.7571
  398SOL    HW111873   8.259   2.891   3.021  0.3442  1.7368  0.6139
  398SOL    HW211874   8.393   2.860   2.932  0.0140 -2.1328  1.3798
  399SOL     OW11875   5.008   0.233   3.441  0.3902 -0.1830 -0.6233
  399SOL    HW111876   5.017   0.236   3.342 -0.9482  0.9071 -0.7326
  399SOL    HW211877   4.913   0.210   3.465 -0.1607  2.9575  0.3732
  400SOL     OW11878   1.638   7.568   2.572 -0.1301  0.1074  0.1019
  400SOL    HW111879   1.642   7.503   2.495 -1.6584 -0.2955  0.3516
  400SOL    HW211880   1.618   7.659   2.538  3.5745  0.8142 -0.4254
  401SOL     OW11881   0.103   7.102   1.165 -0.3065  0.5703  0.4931
  401SOL    HW111882   0.052   7.075   1.084 -0.4113  1.0285  0.4037
  401SOL    HW211883   0.039   7.130   1.237 -0.1610  2.4228 -0.0689
  402SOL     OW11884   7.730   5.702   0.363  0.5490 -0.1481  0.1410
  402SOL    HW111885   7.641   5.671   0.331  0.8529 -0.6379 -0.2578
  402SOL    HW211886   7.760   5.779   0.308 -0.2585  0.9399  1.2063
  403SOL     OW11887   1.578   2.855   2.645  0.0035 -0.0830 -0.3910
  403SOL    HW111888   1.564   2.758   2.667 -0.2892 -0.1464 -0.8387
  403SOL    HW211889   1.544   2.873   2.552 -2.6372  1.0886  0.7434
  404SOL     OW11890   3.052   1.603   1.622  0.0093  0.3123 -0.3746
  404SOL    HW111891   3.082   1.509   1.607  0.2701 -0.0719  2.3317
  404SOL    HW211892   3.101   1.664   1.561  1.1080 -1.1115 -0.9416
  405SOL     OW11893   7.563   7.871   2.061 -0.0573  0.1078  0.5798
  405SOL    HW111894   7.504   7.837   1.987  0.8043  1.1263 -0.5986
  405SOL    HW211895   7.523   7.955   2.098  0.0862  0.2037  0.5170
  406SOL     OW11896   2.065   7.728   1.480  0.1378 -0.1400 -0.1551
  406SOL    HW111897   1.981   7.782   1.479  0.0129 -0.3343 -1.5824
  406SOL    HW211898   2.056   7.654   1.547 -1.1354 -0.6249 -0.8505
  407SOL     OW11899   7.906   9.651   0.650 -0.4957 -0.2589  0.3217
  407SOL    HW111900   7.850   9.642   0.733  0.3477  2.4719  1.2441
  407SOL    HW211901   8.002   9.660   0.676 -0.2073  0.4403 -0.9371
  408SOL     OW11902   0.185   6.086   0.703  0.5364 -0.0866  0.1541
  408SOL    HW111903   0.120   6.048   0.638  0.8160 -2.1446  1.0419
  408SOL    HW211904   0.144   6.165   0.749 -0.6848 -0.3116 -0.5303
  409SOL     OW11905   9.608   8.771   2.453 -0.1790  0.1748  0.1509
  409SOL    HW111906   9.685   8.785   2.516  0.7687 -0.8276 -0.7602
  409SOL    HW211907   9.619   8.831   2.373 -0.5337  0.2976  0.1944
  410SOL     OW11908   2.521   1.915   2.727 -0.0507  0.1398  0.4650
  410SOL    HW111909   2.488   1.821   2.715 -1.1371  0.5848 -0.1647
  410SOL    HW211910   2.582   1.938   2.652  0.0595  0.0064  0.5127
  411SOL     OW11911   1.658   1.449   3.728 -0.2149  0.0458  0.3782
  411SOL    HW111912   1.632   1.367   3.677 -1.8795  0.8232 -0.0637
  411SOL    HW211913   1.617   1.446   3.819  0.1851  0.1288  0.5624
  412SOL     OW11914   0.598   6.071   2.374  0.0631  0.4221  0.1035
  412SOL    HW111915   0.697   6.073   2.387  0.1885  1.5776 -0.9030
  412SOL    HW211916   0.577   6.037   2.282 -0.5784 -2.1328  1.1641
  413SOL     OW11917   3.853   6.369   2.113  0.1401 -0.6929 -0.2513
  413SOL    HW111918   3.945   6.384   2.149 -0.2392  1.2432  0.0019
  413SOL    HW211919   3.857   6.300   2.041  1.9211 -0.1482 -0.7282
  414SOL     OW11920   2.533   8.941   4.616 -0.2787  0.2785 -0.3976
  414SOL    HW111921   2.520   8.932   4.517 -0.5105 -0.7527 -0.2771
  414SOL    HW211922   2.630   8.932   4.638 -0.3310 -0.4160 -0.4400
  415SOL     OW11923   3.170   7.149   0.897  0.4125 -0.6072 -0.4902
  415SOL    HW111924   3.159   7.110   0.989 -1.1949 -0.1059 -0.4587
  415SOL    HW211925   3.081   7.181   0.864  1.0245 -0.5810 -2.1333
  416SOL     OW11926   4.568   2.012   3.163 -0.2239  0.5454 -0.2271
  416SOL    HW111927   4.666   2.033   3.167  0.0153 -0.7082  0.7699
  416SOL    HW211928   4.516   2.088   3.202  0.5178  0.1067  1.6630
  417SOL     OW11929   7.517   7.519   1.918  0.3439 -0.0688 -0.4574
  417SOL    HW111930   7.574   7.516   1.836  0.2207 -2.6260 -0.5034
  417SOL    HW211931   7.477   7.428   1.934 -0.3282  0.6142  1.9510
  418SOL     OW11932   7.191   0.901   2.477  0.1920 -0.2335 -0.9723
  418SOL    HW111933   7.102   0.874   2.514  1.2052  1.1432  2.6688
  418SOL    HW211934   7.180   0.985   2.423 -0.6703  0.1853 -0.1616
  419SOL     OW11935   9.906   0.768   1.861  0.3573 -0.3543  0.1185
  419SOL    HW111936   9.950   0.857   1.847 -1.5137  0.6047  0.1484
  419SOL    HW211937   9.875   0.731   1.773 -2.4148  0.9383  0.4893
  420SOL     OW11938   2.198   7.403   2.375 -0.0815 -0.2737  0.2436
  420SOL    HW111939   2.173   7.492   2.338  0.7795 -0.3599 -0.5643
  420SOL    HW211940   2.134   7.333   2.339  1.2269 -0.4821 -1.7613
  421SOL     OW11941   8.255   0.094   3.099  0.7080  0.4476 -0.3195
  421SOL    HW111942   8.325   0.078   3.169  1.3813  2.0068 -0.6238
  421SOL    HW211943   8.246   0.192   3.082 -1.7625  0.2889 -0.0952
  422SOL     OW11944   3.050   6.829   3.011 -0.0937 -0.0065 -0.7325
  422SOL    HW111945   2.969   6.888   3.014  0.1904  0.3257  1.4082
  422SOL    HW211946   3.107   6.854   2.933 -0.5272  1.8276 -0.4844
  423SOL     OW11947   9.428   2.912   0.082  0.4127  0.1721  0.4889
  423SOL    HW111948   9.370   2.868   0.014 -0.2631 -0.6253  1.5687
  423SOL    HW211949   9.398   3.007   0.095  0.8437  0.4754 -0.6518
  424SOL     OW11950   0.665   0.986   1.989  0.6126 -0.2301  0.6256
  424SOL    HW111951   0.735   0.955   2.053 -0.0492 -1.3838  0.8264
  424SOL    HW211952   0.578   0.996   2.038  0.8430  2.1350  0.5876
  425SOL     OW11953   1.954   7.162   1.040 -0.1480  0.2481  0.5729
  425SOL    HW111954   1.878   7.139   1.102  0.5484 -0.7354  1.0800
  425SOL    HW211955   2.007   7.237   1.079 -1.4353  1.6137 -0.2653
  426SOL     OW11956   2.689   9.551   3.615  0.3067 -0.5479 -0.3099
  426SOL    HW111957   2.785   9.555   3.644  0.1027 -0.9149  0.4283
  426SOL    HW211958   2.644   9.474   3.661 -0.9137  0.9679  1.0729
  427SOL     OW11959   0.731   0.487   3.665 -0.0809 -0.7308  0.4832
  427SOL    HW111960   0.745   0.403   3.613  0.1192 -0.7860  0.6284
  427SOL    HW211961   0.673   0.468   3.744 -1.3572 -0.4192 -0.3533
  428SOL     OW11962   9.893   1.888   1.201 -0.8239  0.5264  0.5434
  428SOL    HW111963   9.919   1.828   1.277  0.3111 -0.3356 -0.5075
  428SOL    HW211964   9.885   1.982   1.234 -0.6020  0.1226  1.7772
  429SOL     OW11965   9.959   1.698   4.574 -0.2056 -0.5504 -0.4063
  429SOL    HW111966  10.049   1.723   4.612 -0.1622 -0.8982 -0.2823
  429SOL    HW211967   9.903   1.780   4.567  0.0737 -0.3513 -0.3564
  430SOL     OW11968   3.791   0.452   3.784  0.1197 -0.0622 -0.1404
  430SOL    HW111969   3.758   0.546   3.786 -1.2653 -0.5009 -1.1353
  430SOL    HW211970   3.858   0.441   3.711 -1.4958 -0.3756 -1.6189
  431SOL     OW11971   5.378   0.865   2.707  0.1181  0.3684 -0.5497
  431SOL    HW111972   5.307   0.900   2.646  1.2261 -1.5689 -3.0068
  431SOL    HW211973   5.455   0.833   2.653  2.0500  0.5748  1.9982
  432SOL     OW11974   0.655   0.555   4.048 -0.2235  0.0004  0.4567
  432SOL    HW111975   0.626   0.649   4.027  0.5475  0.0629 -0.4218
  432SOL    HW211976   0.638   0.535   4.144  3.4115  2.5304  1.7619
  433SOL     OW11977   3.480   1.676   0.343 -0.3774  0.7577  0.0146
  433SOL    HW111978   3.517   1.619   0.270 -0.8207  2.1252 -1.3106
  433SOL    HW211979   3.554   1.706   0.403 -0.2544 -1.8597  1.2200
  434SOL     OW11980   5.787   7.920   2.117  0.0000  0.1543 -0.1044
  434SOL    HW111981   5.745   7.857   2.051 -0.0606  1.1016 -0.9929
  434SOL    HW211982   5.836   7.992   2.067 -0.7090  1.3341  0.8803
  435SOL     OW11983   4.645   2.895   2.348  0.2233 -0.2381  0.0428
  435SOL    HW111984   4.643   2.816   2.286 -2.1790  0.6017 -1.0020
  435SOL    HW211985   4.669   2.977   2.297  1.1333 -0.0131  0.8227
  436SOL     OW11986   7.484   8.682   1.021 -0.2255 -0.0554  0.3570
  436SOL    HW111987   7.522   8.766   0.980 -1.4738  0.7766  0.8844
  436SOL    HW211988   7.387   8.675   0.998 -0.7524  0.0154  2.4959
  437SOL     OW11989   1.124   0.876   2.241  0.8292 -0.1931  0.0036
  437SOL    HW111990   1.192   0.808   2.214  1.3865  0.5656 -0.5338
  437SOL    HW211991   1.125   0.887   2.340  0.2468 -1.4636  0.1649
  438SOL     OW11992   9.235   0.612   1.887 -0.1710  0.4334 -0.2227
  438SOL    HW111993   9.166   0.621   1.815  0.5553  1.3693 -0.8050
  438SOL    HW211994   9.192   0.625   1.976 -0.7464  0.9745 -0.5793
  439SOL     OW11995   2.373   8.883   0.859 -0.3209  0.2237  0.0615
  439SOL    HW111996   2.302   8.818   0.886 -1.0903  0.6193 -0.9606
  439SOL    HW211997   2.331   8.969   0.833  0.7053  1.1937  1.5283
  440SOL     OW11998   9.625   8.869   1.177  0.5305 -0.2098 -0.2574
  440SOL    HW111999   9.717   8.897   1.204  0.6630 -0.9637  0.0779
  440SOL    HW212000   9.598   8.787   1.228  0.6254 -1.4033 -2.0754
  441SOL     OW12001   0.333   8.718   1.114  0.4645  0.4776  0.5610
  441SOL    HW112002   0.236   8.730   1.137  0.6275 -0.2475  1.6809
  441SOL    HW212003   0.370   8.805   1.083 -0.3587  0.9522  0.8667
  442SOL     OW12004   1.562   2.787   1.712  0.7388 -0.0620 -0.3576
  442SOL    HW112005   1.464   2.808   1.717  0.1533 -2.4395 -1.2225
  442SOL    HW212006   1.606   2.849   1.648  0.0078  1.7086  0.8225
  443SOL     OW12007   8.224   6.746   4.489 -0.4123  0.2498 -0.3593
  443SOL    HW112008   8.219   6.731   4.588 -0.5721  2.7739  0.0486
  443SOL    HW212009   8.279   6.673   4.447 -2.0890 -2.0298  1.2775
  444SOL     OW12010   2.337   5.407   4.616 -0.6231 -0.4323 -0.9083
  444SOL    HW112011   2.272   5.374   4.548 -3.4522  1.7438  0.6230
  444SOL    HW212012   2.345   5.340   4.690  0.3482 -1.5543 -2.0155
  445SOL     OW12013   2.340   0.860   4.672  0.0930 -0.1913  0.2272
  445SOL    HW112014   2.371   0.888   4.581 -1.4098 -0.8405 -0.4959
  445SOL    HW212015   2.409   0.800   4.713 -0.2865 -1.8930 -1.5117
  446SOL     OW12016   3.491   4.385   0.637 -0.2505 -0.1322  0.2577
  446SOL    HW112017   3.503   4.354   0.731  0.1179  1.1290  0.6267
  446SOL    HW212018   3.553   4.461   0.618 -1.6617  0.8764 -0.4195
  447SOL     OW12019   4.869   8.465   1.432  0.5144  0.3715 -0.0797
  447SOL    HW112020   4.809   8.455   1.511  1.6903 -2.2488  0.5616
  447SOL    HW212021   4.963   8.477   1.463  1.0194 -0.9202 -1.0592
  448SOL     OW12022   0.167   8.717   2.753 -0.6179 -0.1871  0.1534
  448SOL    HW112023   0.138   8.621   2.758  1.3934 -0.8532 -0.5668
  448SOL    HW212024   0.168   8.747   2.658 -2.1756  0.8662  0.4496
  449SOL     OW12025   4.602   2.981   2.881 -0.0188 -0.2617 -1.2006
  449SOL    HW112026   4.597   3.080   2.869  0.1136 -0.0667  0.1957
  449SOL    HW212027   4.617   2.937   2.793  0.2700  0.9827 -1.7878
  450SOL     OW12028   9.215   4.818   2.032 -0.3512  0.0789  0.1491
  450SOL    HW112029   9.151   4.745   2.008 -1.7809  1.2935  0.2339
  450SOL    HW212030   9.268   4.844   1.951 -0.1609 -0.7155  0.0108
  451SOL     OW12031   1.206   5.462   1.215 -0.2587 -0.2346  1.2848
  451SOL    HW112032   1.286   5.421   1.173  1.1396  2.3384  1.3316
  451SOL    HW212033   1.132   5.468   1.148  0.9688  1.1145  0.0025
  452SOL     OW12034   7.023   9.104   4.019  0.0468  0.5332 -0.3020
  452SOL    HW112035   7.076   9.094   4.103 -0.2405  0.2046 -0.1576
  452SOL    HW212036   6.929   9.072   4.035  0.1077  0.0618 -0.8737
  453SOL     OW12037   0.567   0.820   3.343  0.7308  0.2960 -0.0865
  453SOL    HW112038   0.665   0.840   3.343  0.5058  1.4325  0.0980
  453SOL    HW212039   0.551   0.729   3.381  1.4217  1.5292  3.3439
  454SOL     OW12040   2.294   2.706   1.999  0.1203 -0.6424  0.0885
  454SOL    HW112041   2.252   2.778   2.056  1.7585  0.0852  0.3916
  454SOL    HW212042   2.224   2.667   1.939 -1.8467 -1.9329  3.0891
  455SOL     OW12043   4.397   9.171   2.857 -0.5259 -0.0022 -0.3955
  455SOL    HW112044   4.489   9.142   2.833 -0.6769  1.7815 -3.2721
  455SOL    HW212045   4.401   9.239   2.930  0.3338 -0.7747  0.2920
  456SOL     OW12046   8.362   0.652   1.325 -0.8645  0.0085  0.4660
  456SOL    HW112047   8.410   0.725   1.375 -0.8488  0.5337 -0.3047
  456SOL    HW212048   8.416   0.568   1.329  0.0337  0.5361 -0.1956
  457SOL     OW12049   4.622   1.760   2.904 -0.3835  0.0598 -0.0825
  457SOL    HW112050   4.648   1.752   3.000 -2.1340  2.2070  0.6089
  457SOL    HW212051   4.705   1.762   2.848  0.6605 -1.1165  1.3750
  458SOL     OW12052   0.772   9.740   4.139 -0.1092  0.0448 -0.2678
  458SOL    HW112053   0.687   9.765   4.185 -1.8145 -0.0115 -3.2241
  458SOL    HW212054   0.808   9.656   4.179 -1.8764 -0.3578  0.5407
  459SOL     OW12055   7.994   5.704   2.637  0.3257 -0.7476 -0.5664
  459SOL    HW112056   7.969   5.746   2.724  0.5111 -0.0841 -0.8291
  459SOL    HW212057   7.913   5.698   2.579  0.4347 -0.1140 -0.7894
  460SOL     OW12058   8.757   4.670   2.064  0.5363 -0.0597 -0.4307
  460SOL    HW112059   8.849   4.640   2.037  0.3145  0.5819 -1.9537
  460SOL    HW212060   8.761   4.767   2.091  0.3324 -0.0659 -0.3830
  461SOL     OW12061   4.786   9.875   1.922 -0.6327  0.0890 -0.2335
  461SOL    HW112062   4.830   9.815   1.989 -0.4516  0.2835 -0.1778
  461SOL    HW212063   4.768   9.965   1.964  0.3091  0.5060 -0.7241
  462SOL     OW12064   7.241   8.931   2.795 -0.4674 -0.3436 -0.2930
  462SOL    HW112065   7.312   8.989   2.754 -0.3368  1.5631  2.4260
  462SOL    HW212066   7.280   8.881   2.872 -1.5066 -1.1610 -0.2906
  463SOL     OW12067   0.647   0.895   2.333  0.5470  0.0461  0.0876
  463SOL    HW112068   0.678   0.916   2.425  0.7325 -2.6504  0.6944
  463SOL    HW212069   0.721   0.912   2.268  0.5552  1.5420  0.4689
  464SOL     OW12070   7.559   7.775   3.822 -0.4244  0.3467 -0.3257
  464SOL    HW112071   7.559   7.869   3.788  0.6959  0.3425 -0.3776
  464SOL    HW212072   7.553   7.712   3.745  2.5307  0.3287 -0.6254
  465SOL     OW12073   0.591   5.167   4.474  0.2927 -0.1621 -0.3428
  465SOL    HW112074   0.677   5.217   4.488  0.1894 -0.0890  0.0374
  465SOL    HW212075   0.580   5.146   4.377  0.1946  0.7944 -0.5357
  466SOL     OW12076   8.913   2.299   3.061  0.2428  0.2068  0.2794
  466SOL    HW112077   8.940   2.307   2.965  0.2360 -1.1105  0.1557
  466SOL    HW212078   8.995   2.287   3.118  0.1280 -1.0616  0.2010
  467SOL     OW12079   4.520   0.821   2.619 -0.6047  0.0950  0.6587
  467SOL    HW112080   4.465   0.904   2.629  0.1827  0.5869  0.9710
  467SOL    HW212081   4.460   0.742   2.611 -1.3596  0.5293  1.8348
  468SOL     OW12082   8.751   2.719   1.792 -0.3612 -0.3602  0.7752
  468SOL    HW112083   8.728   2.813   1.818  0.3273  0.2067 -0.6552
  468SOL    HW212084   8.840   2.695   1.830  0.3766  0.2621 -0.5660
  469SOL     OW12085   3.846   4.610   2.763 -0.3389  0.1651 -0.3419
  469SOL    HW112086   3.842   4.595   2.862 -2.3468  1.9371 -0.1168
  469SOL    HW212087   3.913   4.681   2.742  1.0432 -1.1184 -0.4137
  470SOL     OW12088   2.826   5.509   2.119 -0.2060  0.0082 -0.4052
  470SOL    HW112089   2.920   5.478   2.102  0.3213  1.2470  0.2169
  470SOL    HW212090   2.782   5.530   2.031  0.6132  0.8982 -0.6173
  471SOL     OW12091   3.996   1.287   0.581 -0.7496  0.3594 -0.2019
  471SOL    HW112092   3.897   1.272   0.584 -0.7563  0.0488 -1.6251
  471SOL    HW212093   4.044   1.200   0.592 -0.6893  0.1270 -2.1203
  472SOL     OW12094   3.859   0.462   2.447  0.7376 -0.5346 -0.0975
  472SOL    HW112095   3.895   0.381   2.493 -0.8138 -0.1883  1.7846
  472SOL    HW212096   3.890   0.463   2.352  1.4307 -2.9117  0.0754
  473SOL     OW12097   1.912   7.270   0.576 -0.1756  0.1801 -0.0237
  473SOL    HW112098   1.819   7.242   0.553  0.7814 -1.6774 -1.7577
  473SOL    HW212099   1.945   7.337   0.510 -0.3559  1.0452  0.7470
  474SOL     OW12100   5.234   8.818   3.648 -0.0019 -0.1154  0.1963
  474SOL    HW112101   5.227   8.860   3.739 -0.0402  0.6989 -0.1759
  474SOL    HW212102   5.155   8.846   3.593 -0.1211 -0.8354  0.0041
  475SOL     OW12103   4.303   2.299   2.675  0.1162 -0.4777  0.2607
  475SOL    HW112104   4.343   2.362   2.741 -1.5145  0.7319  0.1182
  475SOL    HW212105   4.206   2.286   2.695 -0.1486 -0.9459 -1.2435
  476SOL     OW12106   6.751   8.002   1.946 -0.2133  0.0771 -0.1059
  476SOL    HW112107   6.785   7.941   2.017 -0.8992  1.1006  1.1139
  476SOL    HW212108   6.828   8.040   1.894  0.3052 -0.2764  0.4039
  477SOL     OW12109   1.644   2.573   4.686  0.4939  0.4801 -0.0339
  477SOL    HW112110   1.657   2.651   4.748 -0.1195  0.0975  0.5847
  477SOL    HW212111   1.546   2.560   4.668  0.4369 -1.3453  1.4432
  478SOL     OW12112   8.037   5.297   0.071 -0.2593  0.1105  0.7613
  478SOL    HW112113   7.943   5.263   0.063  0.1963 -0.8945 -0.3987
  478SOL    HW212114   8.037   5.397   0.061 -1.0886  0.0201 -0.2058
  479SOL     OW12115   8.845   9.807   0.366 -0.0516  0.0967  0.4514
  479SOL    HW112116   8.836   9.852   0.455 -1.0832  0.9571 -0.0862
  479SOL    HW212117   8.756   9.769   0.339  0.8556 -2.6430  1.0775
  480SOL     OW12118   4.025   7.180   0.117 -0.2737  0.1036 -0.0543
  480SOL    HW112119   3.986   7.098   0.075 -0.5911  0.4350 -0.4149
  480SOL    HW212120   4.012   7.258   0.055  1.0471  0.2038 -0.2180
  481SOL     OW12121   2.078   0.749   2.714 -0.5000 -0.6066 -0.3965
  481SOL    HW112122   1.994   0.742   2.768 -0.7159 -0.8324 -0.7519
  481SOL    HW212123   2.157   0.758   2.774 -0.8312  0.1259 -0.0678
  482SOL     OW12124   9.651   0.437   4.339  0.2766  0.1791  0.2352
  482SOL    HW112125   9.686   0.366   4.400  0.6519 -0.2020 -0.4287
  482SOL    HW212126   9.621   0.515   4.394  0.8225 -0.0722  0.8988
  483SOL     OW12127   8.539   7.810   0.019  0.1695  0.4546 -0.3069
  483SOL    HW112128   8.484   7.892   0.033 -1.0755 -0.4338  0.0917
  483SOL    HW212129   8.500   7.756  -0.056  1.5945  0.7353 -1.2811
  484SOL     OW12130   4.355   1.181   3.066 -0.2704 -0.0785  0.4263
  484SOL    HW112131   4.269   1.209   3.024 -0.8926  0.9493  2.3467
  484SOL    HW212132   4.427   1.181   2.997 -1.6102 -0.0329 -0.9892
  485SOL     OW12133   2.319   9.600   4.293 -0.6878  0.2933  0.0021
  485SOL    HW112134   2.374   9.680   4.318  0.3104 -0.1125 -0.8664
  485SOL    HW212135   2.375   9.535   4.242 -1.9297 -0.2065 -0.7635
  486SOL     OW12136   8.446   6.928   4.336 -0.4587  0.0607  0.5854
  486SOL    HW112137   8.446   6.850   4.273  0.6235  0.5786 -0.0612
  486SOL    HW212138   8.502   6.905   4.416 -1.7892 -0.5762  1.3430
  487SOL     OW12139   0.152   4.112   4.778  0.3790 -0.3418 -0.1362
  487SOL    HW112140   0.162   4.028   4.725  0.3736 -1.1400  1.1147
  487SOL    HW212141   0.056   4.141   4.776  0.3471 -0.4683 -0.4182
  488SOL     OW12142   8.733   5.077   3.718 -0.1887 -0.1285  0.5573
  488SOL    HW112143   8.782   5.095   3.802 -1.9842 -1.5038  1.9454
  488SOL    HW212144   8.649   5.025   3.738  0.5121 -2.5466 -2.2983
  489SOL     OW12145   0.125   4.807   3.485  0.1995 -0.0881  0.0745
  489SOL    HW112146   0.105   4.894   3.441  0.4784 -0.1992 -0.2688
  489SOL    HW212147   0.218   4.808   3.521  0.5605 -0.6301 -0.8439
  490SOL     OW12148   2.040   2.032   3.230  0.3818 -0.3873 -0.2411
  490SOL    HW112149   1.946   2.060   3.251  0.5658  0.6330 -0.7382
  490SOL    HW212150   2.104   2.092   3.277  0.7960 -1.5365  0.6813
  491SOL     OW12151   3.141   0.576   3.924 -0.7309  0.3001 -0.0996
  491SOL    HW112152   3.043   0.597   3.918 -0.5908  0.6159 -1.6283
  491SOL    HW212153   3.190   0.658   3.954 -0.9140  0.2070  0.4517
  492SOL     OW12154   0.400   3.018   2.979  0.1736 -0.5394 -1.1601
  492SOL    HW112155   0.368   2.928   3.007  0.3202 -0.0465  0.6196
  492SOL    HW212156   0.329   3.065   2.926 -1.0309 -0.4988  0.4860
  493SOL     OW12157   7.724   8.358   3.185 -0.0078  0.1247 -0.2193
  493SOL    HW112158   7.726   8.386   3.281 -0.5856  1.5044 -0.5939
  493SOL    HW212159   7.683   8.431   3.130  1.2744 -0.2175 -1.6666
  494SOL     OW12160   6.798   8.360   2.195  0.2811 -0.1611 -0.3009
  494SOL    HW112161   6.754   8.446   2.167 -0.3821 -0.4181 -0.0578
  494SOL    HW212162   6.868   8.335   2.128 -0.9638 -0.5213 -1.4902
  495SOL     OW12163   3.623   1.972   4.643 -0.1264  0.2068  0.5206
  495SOL    HW112164   3.580   2.033   4.575 -1.8720 -0.4504  0.9996
  495SOL    HW212165   3.720   1.963   4.622 -0.6377 -0.0419 -1.9580
  496SOL     OW12166   7.058   9.491   4.749 -0.1585 -0.5448 -0.0900
  496SOL    HW112167   7.094   9.458   4.836  0.2865 -0.7790 -0.3587
  496SOL    HW212168   6.982   9.553   4.765 -1.4589 -2.2187  0.4157
  497SOL     OW12169   0.910   7.385   2.237 -0.2846  0.0065 -0.2538
  497SOL    HW112170   0.964   7.361   2.156 -1.5054 -0.6315 -0.8758
  497SOL    HW212171   0.963   7.364   2.319  0.7191  0.0904 -0.8714
  498SOL     OW12172   2.360   6.027   0.368 -0.2324  0.2339  0.2436
  498SOL    HW112173   2.346   6.002   0.272 -1.9949  0.6816  0.3562
  498SOL    HW212174   2.444   5.986   0.401 -0.5837 -1.5343 -0.9541
  499SOL     OW12175   0.804   8.888   4.071 -0.0840  0.1472 -0.5679
  499SOL    HW112176   0.720   8.876   4.123 -0.4533 -0.0924 -1.2188
  499SOL    HW212177   0.832   8.984   4.073 -0.1581  0.1544 -0.0231
  500SOL     OW12178   3.474   0.295   1.285 -0.6241  0.2115 -0.1941
  500SOL    HW112179   3.502   0.203   1.311  2.3186  0.4463 -2.2852
  500SOL    HW212180   3.390   0.290   1.231 -1.5531 -1.0479  1.3334
  501SOL     OW12181   7.846   1.172   4.065 -0.7086 -0.2636  0.8302
  501SOL    HW112182   7.861   1.202   4.159 -1.4688 -0.5445  1.0494
  501SOL    HW212183   7.767   1.111   4.062 -0.0960 -1.0433  0.1631
  502SOL     OW12184   0.961   5.666   3.887  0.1254  0.3101 -0.1729
  502SOL    HW112185   1.018   5.589   3.857  0.6333  0.1918  1.0605
  502SOL    HW212186   0.865   5.646   3.868  0.0052 -1.7119  2.3518
  503SOL     OW12187   8.493   9.603   4.356  0.4291 -0.3633  0.5278
  503SOL    HW112188   8.438   9.653   4.424  1.5075  0.4083  0.8426
  503SOL    HW212189   8.583   9.644   4.350  0.2299 -0.2204 -1.6436
  504SOL     OW12190   0.295   5.975   4.364 -0.3049 -0.3494  0.1182
  504SOL    HW112191   0.255   6.045   4.424  1.4724  0.4668  0.3975
  504SOL    HW212192   0.385   5.949   4.400  0.5291 -0.2870 -1.8575
  505SOL     OW12193   9.118   9.220   3.084 -0.0153  0.5061 -0.4409
  505SOL    HW112194   9.047   9.154   3.110 -0.8290  0.3972 -2.8187
  505SOL    HW212195   9.163   9.253   3.167 -2.8971  0.6750  1.1666
  506SOL     OW12196   4.200   4.578   1.645  0.4075  0.4355 -0.0670
  506SOL    HW112197   4.232   4.553   1.736  1.1160  2.3472  0.2250
  506SOL    HW212198   4.107   4.544   1.631  0.2743  0.2003  1.3800
  507SOL     OW12199   1.518   3.006   3.119 -0.1118  0.0454  0.3366
  507SOL    HW112200   1.531   3.007   3.020 -1.8156 -0.7422  0.0846
  507SOL    HW212201   1.450   2.936   3.143 -0.0349  0.5245  2.0216
  508SOL     OW12202   9.290   4.190   3.307  0.1038  0.3452 -0.3572
  508SOL    HW112203   9.389   4.186   3.324  0.2491 -0.0078 -1.2633
  508SOL    HW212204   9.241   4.158   3.388  0.8087 -1.6387 -0.6723
  509SOL     OW12205   3.390   3.207   3.993  0.3982  0.1578 -0.2876
  509SOL    HW112206   3.405   3.273   4.067 -1.3024 -1.1679  1.2951
  509SOL    HW212207   3.356   3.255   3.912  0.2966  1.3843  0.4671
  510SOL     OW12208   9.965   2.499   1.054  0.2123  0.0654  0.3528
  510SOL    HW112209   9.907   2.419   1.069 -1.8049  1.2577 -0.8726
  510SOL    HW212210  10.002   2.530   1.142 -1.9592 -0.0253  1.3378
  511SOL     OW12211   9.520   8.191   2.626 -0.2909  0.2609 -0.3001
  511SOL    HW112212   9.595   8.149   2.575 -1.8883 -1.8527 -0.9610
  511SOL    HW212213   9.454   8.231   2.563 -1.1885 -0.4560  0.1772
  512SOL     OW12214   3.503   0.990   0.595  0.1735 -0.5075  0.1321
  512SOL    HW112215   3.427   0.955   0.651 -0.1274  0.1562  0.1463
  512SOL    HW212216   3.569   1.036   0.654  0.8258 -1.4951  0.1769
  513SOL     OW12217   0.050   0.122   4.047  0.5908 -0.1197 -0.4503
  513SOL    HW112218   0.070   0.068   4.128 -0.2499  0.6022  0.2545
  513SOL    HW212219  -0.048   0.119   4.028  0.5646  0.9413 -0.5480
  514SOL     OW12220   4.025   9.316   3.544 -0.2683 -0.0458  0.3866
  514SOL    HW112221   3.988   9.290   3.455 -0.7550  0.2185  0.5072
  514SOL    HW212222   4.022   9.238   3.606 -3.5669  0.7716  1.3536
  515SOL     OW12223   1.236   0.136   1.447 -0.3273 -0.6677  0.2019
  515SOL    HW112224   1.212   0.135   1.350 -0.8940 -0.8224  0.3415
  515SOL    HW212225   1.217   0.046   1.487  1.6348 -1.1734  0.0434
  516SOL     OW12226   0.823   6.503   1.126  0.2322  0.0141 -0.1864
  516SOL    HW112227   0.824   6.564   1.047  0.6319 -1.0550 -1.0241
  516SOL    HW212228   0.882   6.539   1.198  0.5393  0.5586 -0.7130
  517SOL     OW12229   9.261   6.508   4.650 -0.4373  0.0878  0.1330
  517SOL    HW112230   9.233   6.603   4.640  1.2280  0.5169 -0.5305
  517SOL    HW212231   9.204   6.450   4.592 -0.3466  0.8823 -0.7518
  518SOL     OW12232   2.611   0.212   3.730 -0.3069 -0.1892  0.0843
  518SOL    HW112233   2.628   0.143   3.660  1.0764  0.5317 -0.3033
  518SOL    HW212234   2.513   0.214   3.752 -1.0695  0.8308 -3.1648
  519SOL     OW12235   1.874   7.562   1.905 -0.0629  0.3206  0.3448
  519SOL    HW112236   1.784   7.581   1.866 -0.7863  0.2686  1.9497
  519SOL    HW212237   1.877   7.595   2.000  1.7789  0.7677  0.1434
  520SOL     OW12238   4.117   0.227   1.461  0.1743  0.0414 -0.0312
  520SOL    HW112239   4.154   0.147   1.510  0.5892 -0.1034 -0.5824
  520SOL    HW212240   4.018   0.233   1.478 -0.0676 -1.2412 -0.8835
  521SOL     OW12241   3.871   4.204   0.900 -0.2639 -0.0564 -0.7736
  521SOL    HW112242   3.858   4.302   0.889  0.4710  0.3792  2.0195
  521SOL    HW212243   3.965   4.180   0.875  0.7874  0.6214  2.3186
  522SOL     OW12244   3.654   3.012   3.398 -0.3649 -0.0219  0.1130
  522SOL    HW112245   3.725   2.980   3.461  0.3184  0.2502 -0.5100
  522SOL    HW212246   3.577   3.048   3.450  0.0461 -0.1107  0.7948
  523SOL     OW12247   3.308   9.691   2.990 -0.3102 -0.0714 -0.1153
  523SOL    HW112248   3.249   9.683   2.910  0.2686  1.1065 -0.6843
  523SOL    HW212249   3.391   9.636   2.976 -0.1662  0.2076 -0.3793
  524SOL     OW12250   4.747   1.184   0.143 -0.3044 -0.7440  0.2380
  524SOL    HW112251   4.798   1.200   0.059  0.3617  0.6372  0.8964
  524SOL    HW212252   4.650   1.203   0.128 -0.3441 -1.4744 -0.4728
  525SOL     OW12253   8.169   0.582   0.002 -0.1631 -0.1613 -0.1212
  525SOL    HW112254   8.233   0.506   0.012  0.3283  0.3070  0.3135
  525SOL    HW212255   8.172   0.616  -0.092  1.0405  0.5776  0.1780
  526SOL     OW12256   4.828   0.426   2.272  0.3763  0.5073 -0.2495
  526SOL    HW112257   4.761   0.362   2.235  0.4666  0.3322 -0.1119
  526SOL    HW212258   4.920   0.398   2.243  0.3743  0.8424 -0.5772
  527SOL     OW12259   2.968   0.004   0.567 -0.1426  0.2943 -0.0890
  527SOL    HW112260   2.990  -0.044   0.652  1.3703 -0.9115 -1.1504
  527SOL    HW212261   3.041   0.069   0.545 -1.4491  2.0027  0.5288
  528SOL     OW12262   7.880   0.673   0.401 -0.3323  1.0756 -0.2664
  528SOL    HW112263   7.899   0.665   0.304 -2.0723  1.8409 -0.7014
  528SOL    HW212264   7.897   0.767   0.431 -0.8699  1.1267 -0.1025
  529SOL     OW12265   8.578   6.197   2.714  0.2902  0.2453 -0.0979
  529SOL    HW112266   8.577   6.113   2.659  2.2253 -0.0037  0.2128
  529SOL    HW212267   8.630   6.180   2.798 -2.2816  0.7354  1.6400
  530SOL     OW12268   9.111   3.365   2.809 -0.1713 -0.3901 -0.4230
  530SOL    HW112269   9.052   3.351   2.730 -0.9749  0.4436  0.0277
  530SOL    HW212270   9.062   3.340   2.893 -0.6611  2.3308  0.1453
  531SOL     OW12271   6.774   6.677   3.406  0.3251 -0.2546 -0.1359
  531SOL    HW112272   6.826   6.757   3.376  0.5271 -0.1195  0.5625
  531SOL    HW212273   6.837   6.601   3.422  0.2646 -0.2036  0.3439
  532SOL     OW12274   5.845   9.052   2.532 -0.2828 -0.4226  0.2740
  532SOL    HW112275   5.934   9.008   2.547 -0.8582 -2.2883 -1.5754
  532SOL    HW212276   5.857   9.131   2.471  0.3039  0.1532  1.1316
  533SOL     OW12277   6.786   7.593   2.760  0.7948 -0.0168  0.1058
  533SOL    HW112278   6.734   7.513   2.730  0.5797  0.8843 -1.9834
  533SOL    HW212279   6.728   7.651   2.816  0.3325 -0.2917 -0.0861
  534SOL     OW12280   1.851   7.114   2.253 -0.2034 -0.1627 -0.3982
  534SOL    HW112281   1.762   7.097   2.210 -1.1564  1.6660  0.7411
  534SOL    HW212282   1.848   7.084   2.348  0.8262 -1.2231 -0.6863
  535SOL     OW12283   4.036   0.873   1.973  0.0252 -0.5031 -0.1535
  535SOL    HW112284   4.045   0.853   2.070 -1.0567 -2.3759 -0.4233
  535SOL    HW212285   4.011   0.790   1.924 -0.2624  0.6079 -1.9292
  536SOL     OW12286   4.650   7.886   1.395  0.5775 -0.9640 -0.4049
  536SOL    HW112287   4.670   7.890   1.493 -3.3442 -1.4689  0.5318
  536SOL    HW212288   4.664   7.976   1.354  2.3048 -0.7619  0.6070
  537SOL     OW12289   0.790   1.151   3.741 -0.1747  0.1147 -0.1460
  537SOL    HW112290   0.845   1.209   3.800  0.6586  0.5924 -1.3623
  537SOL    HW212291   0.693   1.161   3.764 -0.0092  1.7320 -0.1227
  538SOL     OW12292   3.945   1.699   4.430 -0.0933 -0.1130  0.6265
  538SOL    HW112293   3.966   1.745   4.344 -0.5149  0.7316  0.9764
  538SOL    HW212294   3.864   1.641   4.418 -0.1026 -0.0614  0.4395
  539SOL     OW12295   4.048   1.433   0.007  0.0091  0.3429 -0.0397
  539SOL    HW112296   4.036   1.369   0.083  0.6939 -0.8008 -0.8789
  539SOL    HW212297   4.145   1.442  -0.014 -0.2694 -0.8264 -1.9807
  540SOL     OW12298   5.218   3.168   2.815 -0.2008  0.2329 -0.2893
  540SOL    HW112299   5.144   3.121   2.863  1.0943 -2.2883 -0.6953
  540SOL    HW212300   5.218   3.141   2.718  1.2950  0.1181 -0.2708
  541SOL     OW12301   4.210   0.923   1.383  0.0119  0.3281  0.6042
  541SOL    HW112302   4.220   0.942   1.480  2.2867 -2.2331  0.9441
  541SOL    HW212303   4.128   0.866   1.368  1.2548 -1.7313  1.4377
  542SOL     OW12304   0.910   9.993   4.139 -0.7640  0.1684  0.1546
  542SOL    HW112305   0.901   9.893   4.133  1.5561  0.0522 -2.7301
  542SOL    HW212306   0.920  10.031   4.047  1.0091  2.7628  1.3489
  543SOL     OW12307   9.849   6.452   1.691  0.9742 -0.1929  0.0701
  543SOL    HW112308   9.797   6.537   1.681 -0.3952 -1.1197 -1.0627
  543SOL    HW212309   9.932   6.469   1.743  1.2253  2.0398 -1.0055
  544SOL     OW12310   2.821   4.286   1.009  0.7878 -0.2383  0.9009
  544SOL    HW112311   2.803   4.385   1.011 -2.2192 -0.6094 -2.2251
  544SOL    HW212312   2.903   4.269   0.956 -0.6445  0.4543 -1.6389
  545SOL     OW12313   4.867   8.069   3.362 -0.3294 -0.0773  0.0858
  545SOL    HW112314   4.899   7.977   3.383 -0.2443 -0.0482  0.0861
  545SOL    HW212315   4.827   8.071   3.271 -1.6940 -0.4525  0.6668
  546SOL     OW12316   2.537   2.486   3.322 -0.7653  0.3977  0.0627
  546SOL    HW112317   2.624   2.532   3.339 -1.4147  1.1284  1.5067
  546SOL    HW212318   2.488   2.475   3.408 -2.0623 -0.1126 -0.7291
  547SOL     OW12319   8.880   7.033   2.131 -0.5966 -0.4272 -0.4253
  547SOL    HW112320   8.855   6.937   2.114 -1.1950 -0.4403  0.5319
  547SOL    HW212321   8.799   7.085   2.156  0.2278 -0.3913  2.3441
  548SOL     OW12322   8.657   9.223   2.089  0.1482 -0.2343  0.5453
  548SOL    HW112323   8.601   9.222   2.172  1.2292 -0.5105  1.2789
  548SOL    HW212324   8.683   9.317   2.067 -0.6753 -0.0925  0.1407
  549SOL     OW12325   5.444   0.982   2.220  0.7695 -0.0301  0.2293
  549SOL    HW112326   5.410   0.905   2.275  0.1750  1.5082  2.0984
  549SOL    HW212327   5.399   1.066   2.250  2.8023  1.3501 -0.4536
  550SOL     OW12328   1.466   7.591   2.277 -0.3621  0.1355 -0.0661
  550SOL    HW112329   1.468   7.627   2.370 -0.2318  0.4472 -0.1875
  550SOL    HW212330   1.371   7.587   2.245 -0.3524  0.6722 -0.1658
  551SOL     OW12331   2.441   1.206   2.588  0.2737  0.7702 -0.7409
  551SOL    HW112332   2.356   1.221   2.539  1.6718  0.3797 -3.3974
  551SOL    HW212333   2.489   1.294   2.600 -0.7896  1.0985  1.3982
  552SOL     OW12334   4.557   1.616   0.444 -0.5171 -0.3507  0.2984
  552SOL    HW112335   4.486   1.546   0.446 -0.8228 -0.0221  1.0320
  552SOL    HW212336   4.518   1.701   0.408 -0.2995 -0.3817 -0.0151
  553SOL     OW12337   9.456   6.057   2.677 -0.3814  0.1722  0.1502
  553SOL    HW112338   9.362   6.066   2.712 -0.2439  1.0090  0.3262
  553SOL    HW212339   9.517   6.033   2.753 -0.2224  1.1191  0.3360
  554SOL     OW12340   1.963   9.442   2.857 -0.0775 -0.3864 -0.2359
  554SOL    HW112341   1.903   9.392   2.794  0.5025 -1.4769  0.0621
  554SOL    HW212342   2.057   9.436   2.824  0.2496 -1.0821  0.8158
  555SOL     OW12343   3.310   1.771   1.693 -0.2898 -0.2555  0.3441
  555SOL    HW112344   3.298   1.869   1.714 -0.7692 -0.3871  0.7065
  555SOL    HW212345   3.264   1.717   1.763  0.0773 -0.7458  0.2052
  556SOL     OW12346   4.455   8.619   1.185 -0.0893  0.7669  0.2630
  556SOL    HW112347   4.542   8.646   1.227 -0.8720  1.4323  1.5150
  556SOL    HW212348   4.383   8.682   1.215 -0.8826  0.6189 -1.2767
  557SOL     OW12349   4.110   7.893   0.404 -0.5383  0.0805  0.3379
  557SOL    HW112350   4.018   7.933   0.403 -0.9424 -0.7943  1.5003
  557SOL    HW212351   4.154   7.912   0.492 -1.2329 -3.0727  1.4197
  558SOL     OW12352   9.171   6.079   0.921  0.2894  0.1369  0.1426
  558SOL    HW112353   9.099   6.029   0.874  0.7254  1.0579 -1.5469
  558SOL    HW212354   9.255   6.024   0.920 -0.0575 -0.4192  1.0475
  559SOL     OW12355   0.075   8.260   1.514  0.6526  0.4256  0.2528
  559SOL    HW112356  -0.021   8.288   1.522  0.9631  0.8257  3.1880
  559SOL    HW212357   0.084   8.165   1.543  0.7612 -0.4891 -2.6450
  560SOL     OW12358   2.019   1.557   0.355 -0.1885  0.0384  0.6479
  560SOL    HW112359   1.980   1.647   0.335  0.2549  0.3575  1.2202
  560SOL    HW212360   2.119   1.562   0.348 -0.1488 -0.3555  0.9173
  561SOL     OW12361   2.735   6.666   1.636 -0.1395  0.1469 -0.2533
  561SOL    HW112362   2.790   6.677   1.718 -1.0381  0.0482  0.3762
  561SOL    HW212363   2.725   6.568   1.615 -1.1069  0.0980  0.3670
  562SOL     OW12364   9.033   4.697   2.322 -0.0233  0.3716  0.1274
  562SOL    HW112365   8.970   4.632   2.279  0.1853  0.4332 -0.2762
  562SOL    HW212366   8.998   4.724   2.412 -0.1820 -0.1934  0.2371
  563SOL     OW12367   1.056   4.683   3.542  0.2555  0.0916  0.3580
  563SOL    HW112368   1.014   4.721   3.459  0.6462 -1.4407 -0.5713
  563SOL    HW212369   1.156   4.695   3.537  0.4120 -1.3461 -0.1109
  564SOL     OW12370   9.899   2.917   3.381 -0.3543 -0.1334  0.8862
  564SOL    HW112371   9.915   2.908   3.479  0.7555 -0.4028  0.6878
  564SOL    HW212372   9.939   3.003   3.349  2.0237 -1.4871  0.1223
  565SOL     OW12373   8.301   9.752   2.320 -0.3676  0.1685  0.0776
  565SOL    HW112374   8.243   9.687   2.271  1.5123 -0.9876 -0.6425
  565SOL    HW212375   8.354   9.704   2.390  0.2700  1.0910  0.2415
  566SOL     OW12376   8.190   2.870   1.734 -0.7337  0.0611  0.1462
  566SOL    HW112377   8.289   2.862   1.735 -0.6197  0.9051 -1.9518
  566SOL    HW212378   8.159   2.915   1.818  0.5058 -1.5452  1.4840
  567SOL     OW12379   9.780   4.946   3.920 -0.1074  0.8309 -0.4022
  567SOL    HW112380   9.872   4.944   3.881 -0.8731  1.5738 -2.2845
  567SOL    HW212381   9.776   5.014   3.993  0.9575  0.4548  0.0151
  568SOL     OW12382   8.303   1.659   2.271 -0.3232  0.7859  0.0397
  568SOL    HW112383   8.237   1.723   2.231  2.1591  2.1585 -2.0328
  568SOL    HW212384   8.331   1.692   2.361 -1.6002  0.7824  0.4487
  569SOL     OW12385   2.278   3.146   0.743 -0.1029 -0.2969 -0.1928
  569SOL    HW112386   2.261   3.239   0.712 -0.1079 -0.3516 -0.3570
  569SOL    HW212387   2.377   3.127   0.739 -0.1649 -0.5142 -0.7856
  570SOL     OW12388   4.379   4.496   1.937  0.2838 -0.2108 -0.0698
  570SOL    HW112389   4.464   4.466   1.980  0.3825 -0.9072 -0.7439
  570SOL    HW212390   4.302   4.472   1.996  0.4194 -1.1430 -0.2725
  571SOL     OW12391   3.923   3.583   0.889 -0.0122 -0.0264 -0.0881
  571SOL    HW112392   3.885   3.498   0.927  2.4708 -0.8590  0.6245
  571SOL    HW212393   3.911   3.656   0.956 -0.3524 -0.2726  0.1262
  572SOL     OW12394   2.783   0.829   0.322  0.3864  0.5836 -0.1221
  572SOL    HW112395   2.853   0.878   0.375  0.4481  0.0659  0.2774
  572SOL    HW212396   2.757   0.746   0.371 -0.1440  0.5187 -0.5197
  573SOL     OW12397   0.155   5.050   4.375 -0.7691  0.3497 -0.6039
  573SOL    HW112398   0.139   5.013   4.283  0.6909 -0.7825 -0.4191
  573SOL    HW212399   0.068   5.082   4.414 -1.5272  0.0721 -2.0459
  574SOL     OW12400   8.837   5.955   3.796 -0.1293  0.2506 -0.2979
  574SOL    HW112401   8.800   5.926   3.884 -1.4322  0.6611 -0.6929
  574SOL    HW212402   8.937   5.959   3.801  0.0063 -2.6973  0.2431
  575SOL     OW12403   0.199   4.093   1.337 -1.3173 -0.1985 -0.0637
  575SOL    HW112404   0.204   3.996   1.359 -2.6613 -0.1210  0.6090
  575SOL    HW212405   0.126   4.108   1.270  0.1174  0.1076 -1.6076
  576SOL     OW12406   1.569   0.919   1.118 -0.4680 -0.1854  0.0724
  576SOL    HW112407   1.563   0.947   1.022 -0.1391 -0.6633 -0.0901
  576SOL    HW212408   1.520   0.985   1.175  1.8976  1.7925 -0.0904
  577SOL     OW12409   1.463   2.857   2.392  0.4594 -0.0063 -0.2723
  577SOL    HW112410   1.417   2.775   2.359 -0.1997 -0.9710  2.8658
  577SOL    HW212411   1.405   2.937   2.375 -0.4518 -0.6542 -0.2110
  578SOL     OW12412   2.373   2.054   2.454 -0.6120  0.0118 -0.0804
  578SOL    HW112413   2.469   2.042   2.477 -0.5296 -0.4791 -0.6468
  578SOL    HW212414   2.316   2.002   2.518 -0.5232  0.5886  0.4701
  579SOL     OW12415   5.000   9.137   2.353 -0.3782  0.4257  0.3507
  579SOL    HW112416   5.092   9.117   2.320 -0.2765  0.2308  0.7597
  579SOL    HW212417   4.942   9.056   2.345 -0.6930  0.7232 -0.5090
  580SOL     OW12418   4.244   0.649   2.061  0.3279 -0.3892  0.1825
  580SOL    HW112419   4.321   0.708   2.039 -0.6054  0.9211  0.3803
  580SOL    HW212420   4.182   0.695   2.125 -0.1787 -1.7571  0.7119
  581SOL     OW12421   1.100   4.106   1.942 -0.1008  0.8097 -0.2459
  581SOL    HW112422   1.167   4.053   1.994  1.1186  1.9328 -0.6649
  581SOL    HW212423   1.146   4.160   1.872 -1.5613  0.6833 -1.3392
  582SOL     OW12424   2.895   4.896   0.835 -0.1064  0.9433 -0.1861
  582SOL    HW112425   2.973   4.865   0.780  0.1697  2.4076 -0.6252
  582SOL    HW212426   2.896   4.848   0.923  0.5166 -0.0368 -0.7108
  583SOL     OW12427   6.036   9.036   2.237  0.1102  0.4619 -0.1592
  583SOL    HW112428   6.039   8.980   2.320  3.7571  1.4563  0.4291
  583SOL    HW212429   5.941   9.044   2.207 -0.7818 -4.0190  1.0902
  584SOL     OW12430   3.221   3.601   4.321 -0.1427  0.1514  0.0088
  584SOL    HW112431   3.150   3.642   4.264  1.2218  0.8781 -1.2087
  584SOL    HW212432   3.179   3.542   4.390 -1.9080  0.5016 -0.7445
  585SOL     OW12433   1.942   4.540   0.014  0.7103  0.5442 -0.1816
  585SOL    HW112434   1.910   4.447  -0.003  0.0307  0.7091  0.1696
  585SOL    HW212435   1.868   4.604  -0.003  1.5912  1.1582 -1.8449
  586SOL     OW12436   7.976   5.573   3.505  0.2559 -0.2339  0.0315
  586SOL    HW112437   8.052   5.625   3.543  0.1461 -0.1414  0.1285
  586SOL    HW212438   7.976   5.481   3.544  1.1055 -0.6702 -0.9788
  587SOL     OW12439   9.724   6.078   1.302  0.1029 -0.4493 -0.2343
  587SOL    HW112440   9.652   6.115   1.360  0.7182 -0.9860  0.8965
  587SOL    HW212441   9.691   5.996   1.256 -0.5463  0.2556 -1.0390
  588SOL     OW12442   0.772   7.672   3.228  0.2628 -0.4983 -0.3047
  588SOL    HW112443   0.820   7.757   3.206  0.1577 -0.5156 -0.6091
  588SOL    HW212444   0.837   7.606   3.267  0.1331  0.0747  0.8886
  589SOL     OW12445   4.545   1.746   1.772 -0.3235  0.0777 -0.2843
  589SOL    HW112446   4.493   1.732   1.856  0.2414  1.4639  0.3224
  589SOL    HW212447   4.547   1.844   1.750 -1.3310 -0.3600 -2.4879
  590SOL     OW12448   9.321   4.502   1.675  0.4709  0.0194  0.1446
  590SOL    HW112449   9.284   4.464   1.760 -0.7697 -2.1295 -1.3043
  590SOL    HW212450   9.382   4.436   1.632  2.4045  1.7501  0.1773
  591SOL     OW12451   0.811   2.358   3.984  0.0996  0.1422  0.2396
  591SOL    HW112452   0.906   2.360   3.951 -0.0873  0.8101 -0.2684
  591SOL    HW212453   0.750   2.381   3.908 -0.5778 -1.7303  0.1734
  592SOL     OW12454   9.922   3.788   1.496  0.5669  0.1655 -0.6289
  592SOL    HW112455   9.990   3.811   1.427  1.2624 -1.2737 -0.4580
  592SOL    HW212456   9.928   3.690   1.517 -1.4662  0.0416 -0.5030
  593SOL     OW12457   1.555   0.840   0.607  0.2615  0.4894  0.0889
  593SOL    HW112458   1.644   0.830   0.562  0.2985  0.8740  0.0675
  593SOL    HW212459   1.483   0.840   0.538  0.2175 -0.1836  0.1380
  594SOL     OW12460   1.521   1.834   3.247 -0.4524  0.5138 -0.3891
  594SOL    HW112461   1.609   1.872   3.276  0.0644 -0.7598 -0.2764
  594SOL    HW212462   1.533   1.740   3.216 -1.4538  0.9555 -2.2215
  595SOL     OW12463   7.854   9.905   3.873 -0.0968 -0.3332 -0.3423
  595SOL    HW112464   7.757   9.877   3.873 -0.4703  0.7877 -2.8709
  595SOL    HW212465   7.909   9.831   3.835 -0.3247  0.0243 -1.3986
  596SOL     OW12466   6.818   8.082   3.467  0.0283  0.6335 -0.4954
  596SOL    HW112467   6.833   8.011   3.536 -1.7788 -0.5451 -1.2961
  596SOL    HW212468   6.877   8.065   3.388  1.9376  1.8598  0.6200
  597SOL     OW12469   3.664   7.394   0.866  0.2649  0.1730  0.0716
  597SOL    HW112470   3.670   7.423   0.771  0.0018  0.8775  0.2655
  597SOL    HW212471   3.580   7.342   0.880 -0.2212  0.9629  0.1461
  598SOL     OW12472   7.854   7.808   1.709  0.0952 -0.1622 -0.4511
  598SOL    HW112473   7.831   7.784   1.803 -1.2916  1.0371 -0.4761
  598SOL    HW212474   7.937   7.759   1.682  1.7177  1.0836  2.0818
  599SOL     OW12475   9.672   9.150   1.992 -0.2189  0.0895  0.2381
  599SOL    HW112476   9.595   9.211   1.971 -0.0079  1.0149  2.0044
  599SOL    HW212477   9.696   9.160   2.089  1.4002 -1.0284 -0.0349
  600SOL     OW12478   5.936   0.629   3.121  0.5179 -0.1486  0.6095
  600SOL    HW112479   5.903   0.535   3.121 -0.3895  0.1607  0.4941
  600SOL    HW212480   5.870   0.687   3.169  0.7262  0.5452  0.0649
  601SOL     OW12481   5.471   9.670   3.315 -0.1003 -0.0407 -0.0176
  601SOL    HW112482   5.458   9.715   3.403  1.1475  0.6391 -0.1663
  601SOL    HW212483   5.427   9.723   3.243 -0.0104  0.0980  0.0286
  602SOL     OW12484   9.189   6.350   3.841  0.0768  0.0462  1.0618
  602SOL    HW112485   9.251   6.302   3.903 -0.1405  0.0105  1.2508
  602SOL    HW212486   9.235   6.365   3.753  0.2697 -0.1933  1.1221
  603SOL     OW12487   4.796   9.982   4.087  0.4744  0.4983  0.1090
  603SOL    HW112488   4.799  10.043   4.008 -0.0205 -0.1667 -0.4368
  603SOL    HW212489   4.710   9.995   4.137  0.0738 -0.1902 -0.3802
  604SOL     OW12490   9.251   7.701   2.934 -0.3599  0.2236  0.2477
  604SOL    HW112491   9.166   7.713   2.984 -0.7120  0.7689 -0.4622
  604SOL    HW212492   9.259   7.773   2.865  0.0978 -0.5184 -0.4898
  605SOL     OW12493   4.895   8.710   3.821  0.5136 -0.0305  0.5608
  605SOL    HW112494   4.969   8.643   3.811  0.8516  0.1469  1.7998
  605SOL    HW212495   4.911   8.765   3.903  0.3758  1.7292 -0.5640
  606SOL     OW12496   9.494   3.471   0.473  0.3909  0.3650 -0.3149
  606SOL    HW112497   9.523   3.486   0.567 -0.4193 -0.6584  0.1119
  606SOL    HW212498   9.467   3.558   0.432  0.1125  0.7300  0.6193
  607SOL     OW12499   2.010   9.800   3.073 -0.2513 -0.5752 -0.5077
  607SOL    HW112500   2.024   9.859   3.153 -0.9901  0.1658 -0.9156
  607SOL    HW212501   2.059   9.714   3.087  1.7540  0.5501 -0.3784
  608SOL     OW12502   4.587   9.448   2.714 -0.1900  0.2046  0.5571
  608SOL    HW112503   4.615   9.359   2.751  0.0801  0.1448  0.2122
  608SOL    HW212504   4.488   9.452   2.708 -0.1784 -0.3429 -0.0775
  609SOL     OW12505   9.816   8.444   2.456 -0.2383  0.7034 -0.6858
  609SOL    HW112506   9.901   8.435   2.404  0.5573  1.0070  0.5496
  609SOL    HW212507   9.837   8.469   2.550 -1.5195 -1.9887  0.3855
  610SOL     OW12508   2.883   5.363   3.370  0.3273  0.2047  0.3290
  610SOL    HW112509   2.904   5.382   3.465 -4.3703 -0.6211  1.6794
  610SOL    HW212510   2.903   5.267   3.349  1.3125  0.3755  0.4882
  611SOL     OW12511   4.690   7.586   0.155 -0.1800  0.3138  0.3677
  611SOL    HW112512   4.785   7.583   0.124 -0.3018  0.9191 -0.0668
  611SOL    HW212513   4.649   7.673   0.129 -0.5330  0.4984  1.5191
  612SOL     OW12514   4.773   1.776   1.993 -0.1492 -0.3219  0.0957
  612SOL    HW112515   4.794   1.689   2.038  0.7995  0.7383  1.7752
  612SOL    HW212516   4.795   1.769   1.896 -0.8805 -2.2149  0.0473
  613SOL     OW12517   2.203   6.204   3.693  0.2783 -0.3151  0.5327
  613SOL    HW112518   2.262   6.127   3.673  1.5817  0.6690  0.5427
  613SOL    HW212519   2.159   6.190   3.782  1.1433 -0.6498  0.9071
  614SOL     OW12520   5.172   9.443   2.278 -0.7474 -0.2632  0.3794
  614SOL    HW112521   5.198   9.490   2.362 -1.0961 -2.8784  2.0216
  614SOL    HW212522   5.074   9.423   2.280 -0.5193 -1.4702 -0.0468
  615SOL     OW12523   3.926   1.112   1.968  0.6635  0.7833  0.3799
  615SOL    HW112524   3.847   1.093   1.910  0.3581  1.0293  0.7123
  615SOL    HW212525   3.977   1.028   1.983 -0.4564  0.2757  1.5167
  616SOL     OW12526   0.267   5.314   3.357  0.2775  0.6151 -0.0549
  616SOL    HW112527   0.318   5.336   3.440  0.7012 -2.0086  0.3947
  616SOL    HW212528   0.328   5.317   3.278  0.6461 -0.3440  0.1925
  617SOL     OW12529   2.760   6.711   0.880  0.3056 -0.0524 -0.0066
  617SOL    HW112530   2.673   6.741   0.919 -0.6575 -0.6095 -1.6855
  617SOL    HW212531   2.756   6.614   0.859  2.1474 -0.6037  2.0025
  618SOL     OW12532   8.218   2.529   1.279  0.3031  0.0128  0.3194
  618SOL    HW112533   8.233   2.626   1.259 -1.0647 -0.0102 -0.9725
  618SOL    HW212534   8.133   2.519   1.331  1.1364 -0.3865  1.6050
  619SOL     OW12535   1.629   1.998   0.680 -0.9299  0.2759 -0.3782
  619SOL    HW112536   1.592   2.087   0.706 -1.0014  0.1995 -0.2162
  619SOL    HW212537   1.703   1.974   0.742 -1.5155 -0.1922  0.1459
  620SOL     OW12538   0.622   8.108   1.245  0.7766 -0.2114  0.1307
  620SOL    HW112539   0.524   8.100   1.261  0.8486 -1.1675  0.1355
  620SOL    HW212540   0.662   8.171   1.311  0.2083 -0.0484  0.3185
  621SOL     OW12541   9.295   8.860   4.068 -0.0448 -0.6083 -0.1324
  621SOL    HW112542   9.306   8.870   3.969 -0.1533  0.5825 -0.0243
  621SOL    HW212543   9.217   8.799   4.086  0.9174 -2.0599 -0.7859
  622SOL     OW12544   3.216   4.273   0.291 -0.0891 -0.6556 -0.1272
  622SOL    HW112545   3.137   4.320   0.251  0.3334  0.7192  0.5863
  622SOL    HW212546   3.208   4.277   0.391  0.5913 -1.0128 -0.0632
  623SOL     OW12547   7.630   1.470   4.726 -0.7204 -0.5735 -0.5622
  623SOL    HW112548   7.688   1.418   4.664  1.6292  1.6416 -0.2814
  623SOL    HW212549   7.643   1.438   4.820  0.9049  0.6239 -0.3587
  624SOL     OW12550   1.992   7.594   4.140 -0.1932  0.5232  0.7489
  624SOL    HW112551   2.087   7.574   4.116 -0.5417  0.2418 -0.4692
  624SOL    HW212552   1.980   7.692   4.151  0.1860  0.5812  0.6507
  625SOL     OW12553   2.888   3.183   1.827 -0.2382  0.0627 -0.4102
  625SOL    HW112554   2.862   3.135   1.911  3.3672 -0.1330  0.6858
  625SOL    HW212555   2.920   3.118   1.759  1.2624  0.5786 -0.2195
  626SOL     OW12556   2.442   8.182   0.774 -0.2647  0.1401 -0.1567
  626SOL    HW112557   2.535   8.216   0.767 -0.5579  0.6197 -1.8249
  626SOL    HW212558   2.415   8.178   0.871  1.3853  0.2184  0.3114
  627SOL     OW12559   2.267   1.641   3.949 -0.6435 -0.6029  0.3643
  627SOL    HW112560   2.173   1.609   3.948 -0.9693  0.3231  1.0964
  627SOL    HW212561   2.326   1.572   3.906 -1.3152 -2.2329  1.9850
  628SOL     OW12562   1.388   1.781   2.275 -0.3461 -1.0484  0.8522
  628SOL    HW112563   1.395   1.701   2.215  0.6407 -1.6009  1.6759
  628SOL    HW212564   1.381   1.864   2.220 -1.3745 -1.6986 -0.0114
  629SOL     OW12565   9.052   1.268   1.280  0.4946 -0.1754  0.0538
  629SOL    HW112566   9.132   1.293   1.226  0.1545 -1.2287 -0.9391
  629SOL    HW212567   9.029   1.172   1.265 -1.1367  0.1891  0.0955
  630SOL     OW12568   1.420   4.891   2.006  0.2040 -0.5428  0.7532
  630SOL    HW112569   1.461   4.831   1.937 -3.6010 -0.8481 -1.3765
  630SOL    HW212570   1.439   4.987   1.982 -2.3492 -0.5721 -1.6932
  631SOL     OW12571   0.957   2.169   4.761 -0.0427 -0.5245 -0.1946
  631SOL    HW112572   0.922   2.078   4.780 -1.5238 -0.0777 -0.7277
  631SOL    HW212573   1.053   2.163   4.733 -0.0229 -1.8698  0.1431
  632SOL     OW12574   9.917   3.730   4.734 -0.0534 -0.0284 -0.7270
  632SOL    HW112575   9.951   3.704   4.825  1.2710 -2.5581 -1.8810
  632SOL    HW212576   9.986   3.787   4.688 -0.2335  0.3263 -0.5554
  633SOL     OW12577   9.495   5.888   0.517  0.5499  0.3842 -0.4446
  633SOL    HW112578   9.458   5.890   0.610 -0.5502 -0.4529 -0.8429
  633SOL    HW212579   9.468   5.972   0.468 -2.4725 -1.0074 -1.3095
  634SOL     OW12580   4.371   7.732   4.110 -0.3806 -0.2782 -0.3022
  634SOL    HW112581   4.318   7.812   4.083 -0.7507 -0.5066 -0.2698
  634SOL    HW212582   4.422   7.697   4.031  2.9075  2.2972  0.5632
  635SOL     OW12583   2.992   1.139   0.707  0.1298  0.2703  0.6380
  635SOL    HW112584   2.988   1.185   0.618  1.5409  0.0868  0.4695
  635SOL    HW212585   2.928   1.183   0.770  0.6126  1.7152  0.1347
  636SOL     OW12586   9.903   5.204   2.146 -0.1796  0.1150 -0.1065
  636SOL    HW112587   9.921   5.237   2.053  0.2795  2.3115  0.7141
  636SOL    HW212588   9.986   5.213   2.201 -0.8756  0.3421  0.9246
  637SOL     OW12589   0.069   6.638   4.164  0.0042  0.2119  0.1727
  637SOL    HW112590   0.045   6.735   4.162  0.1399  0.2642  0.9331
  637SOL    HW212591   0.167   6.628   4.181 -0.0536 -0.0583  0.3578
  638SOL     OW12592   8.771   6.812   4.204  0.4395  0.1654  0.1172
  638SOL    HW112593   8.810   6.722   4.224 -0.4200 -0.1952  0.1782
  638SOL    HW212594   8.682   6.801   4.161  1.2272  0.9747 -1.7762
  639SOL     OW12595   7.598   0.605   3.691  0.0794  0.7618 -0.3184
  639SOL    HW112596   7.510   0.592   3.645  0.5686  2.9213 -1.9693
  639SOL    HW212597   7.601   0.550   3.774 -2.7664  0.5254 -0.3266
  640SOL     OW12598   8.388   0.861   3.734 -0.0075  0.1361 -0.4472
  640SOL    HW112599   8.411   0.781   3.679 -1.5540  0.0628 -1.0099
  640SOL    HW212600   8.420   0.944   3.687  0.3483 -0.0542 -0.5396
  641SOL     OW12601   0.901   1.712   1.968  0.0269 -0.2077  0.3956
  641SOL    HW112602   0.850   1.694   1.884 -0.7190 -0.5260  0.9044
  641SOL    HW212603   0.954   1.631   1.993 -0.5955 -0.4975  0.8034
  642SOL     OW12604   1.533   1.271   3.515  0.0946 -0.1503  0.3619
  642SOL    HW112605   1.473   1.236   3.443 -0.0450  0.8009  0.0097
  642SOL    HW212606   1.495   1.248   3.604 -0.7159  0.3272  0.1403
  643SOL     OW12607   1.857   0.074   1.642 -0.1374 -0.4629  0.5351
  643SOL    HW112608   1.843   0.065   1.543 -1.9802  1.3840  0.6061
  643SOL    HW212609   1.786   0.023   1.691 -0.5126  0.4043  0.8992
  644SOL     OW12610   9.558   2.664   4.549 -0.5755 -0.1243  0.2641
  644SOL    HW112611   9.610   2.749   4.555  3.0170 -2.2781  1.1676
  644SOL    HW212612   9.527   2.649   4.455  1.5397  0.6072 -0.5533
  645SOL     OW12613   2.362   4.459   3.863  0.2193 -0.1284  0.3316
  645SOL    HW112614   2.325   4.539   3.910 -0.5112 -0.0406 -0.3827
  645SOL    HW212615   2.455   4.442   3.894  1.6055  2.9641 -1.8490
  646SOL     OW12616   9.960   4.746   4.490  0.2010  0.1882 -0.0098
  646SOL    HW112617   9.947   4.648   4.507  0.9547  0.2836  1.1649
  646SOL    HW212618   9.926   4.798   4.569 -1.2279  0.9408 -1.1015
  647SOL     OW12619   0.950   8.300   3.408  0.0677 -0.0943  0.1474
  647SOL    HW112620   1.049   8.310   3.419  0.4797 -1.4990 -1.9955
  647SOL    HW212621   0.906   8.389   3.418  1.9149  1.1643 -2.4622
  648SOL     OW12622   1.215   8.887   3.080 -0.4881  0.4949  0.1785
  648SOL    HW112623   1.214   8.985   3.095 -1.5441  0.4728  0.3024
  648SOL    HW212624   1.256   8.866   2.992 -0.7243  1.0824 -0.0687
  649SOL     OW12625   1.263   4.639   3.258  0.0275 -0.1025 -0.1808
  649SOL    HW112626   1.242   4.720   3.204  1.0965  0.4772  0.2603
  649SOL    HW212627   1.283   4.666   3.352  0.3224 -0.8830 -0.0162
  650SOL     OW12628   4.960   2.613   0.684  0.3666  0.1373 -0.2593
  650SOL    HW112629   5.022   2.626   0.607 -1.6258 -0.3627 -1.9929
  650SOL    HW212630   4.866   2.607   0.650 -0.4982 -0.5414  2.1796
  651SOL     OW12631   8.577   7.157   2.427  0.1870 -0.0003 -0.0883
  651SOL    HW112632   8.524   7.164   2.512 -1.0279 -0.2451 -0.8157
  651SOL    HW212633   8.553   7.232   2.366 -0.9146 -1.2787 -1.2815
  652SOL     OW12634   5.122   9.416   3.995  0.6157  0.3154  0.1676
  652SOL    HW112635   5.073   9.348   4.050  1.6046 -0.1965  0.4220
  652SOL    HW212636   5.094   9.407   3.899 -0.2967  0.4882  0.4094
  653SOL     OW12637   0.249   4.412   1.173  0.0219  0.4475  0.1372
  653SOL    HW112638   0.272   4.331   1.119 -2.1347  0.3499 -0.6503
  653SOL    HW212639   0.312   4.419   1.251  1.8094 -0.5705 -1.1883
  654SOL     OW12640   2.753   4.659   3.568  0.0484 -0.4361  0.3252
  654SOL    HW112641   2.781   4.753   3.548  0.0231 -0.4721  0.1234
  654SOL    HW212642   2.657   4.658   3.595 -0.1986 -0.5146 -0.5405
  655SOL     OW12643   3.416   7.268   0.861  0.0526  0.2410  0.2342
  655SOL    HW112644   3.324   7.241   0.890 -0.1459  0.8225  0.1556
  655SOL    HW212645   3.420   7.273   0.761  0.4784 -0.8510  0.1875
  656SOL     OW12646   3.887   6.459   3.147 -0.4029 -0.2422 -0.0323
  656SOL    HW112647   3.823   6.518   3.097 -0.9246 -0.2760  0.5948
  656SOL    HW212648   3.869   6.363   3.124 -0.5504 -0.2491  0.1117
  657SOL     OW12649   7.400   7.781   1.872  0.0745 -0.1308  0.1104
  657SOL    HW112650   7.303   7.771   1.851  0.3889 -0.9970 -0.9341
  657SOL    HW212651   7.438   7.693   1.901  0.6801  0.0741 -0.0406
  658SOL     OW12652   0.335   7.046   0.673 -0.1348  0.5996 -0.1600
  658SOL    HW112653   0.248   7.092   0.693 -1.7991 -1.7812 -1.6678
  658SOL    HW212654   0.317   6.956   0.634  3.0172  0.8702 -2.4193
  659SOL     OW12655   1.620   4.034   4.025 -0.9430 -0.6078 -0.3209
  659SOL    HW112656   1.625   3.939   3.992 -1.0830  0.0430 -2.2562
  659SOL    HW212657   1.648   4.096   3.952 -0.1696  0.8184  1.1644
  660SOL     OW12658   3.123   5.481   2.083 -0.0223 -0.4097  0.0221
  660SOL    HW112659   3.099   5.455   2.177 -0.2552 -0.8718 -0.1637
  660SOL    HW212660   3.193   5.418   2.048 -0.3495 -0.5850 -0.3162
  661SOL     OW12661   9.259   7.660   3.405  0.3050  0.2433  0.2184
  661SOL    HW112662   9.276   7.743   3.353  0.5170 -0.1246 -0.3050
  661SOL    HW212663   9.179   7.613   3.367  0.3776  0.0446  0.3105
  662SOL     OW12664   3.803   4.044   3.456 -0.7054 -0.0763 -0.2777
  662SOL    HW112665   3.889   4.063   3.503 -1.2479  0.0506  0.6843
  662SOL    HW212666   3.737   4.116   3.476 -0.5086  0.7132 -2.3824
  663SOL     OW12667   3.000   8.694   0.019  0.0085 -1.0573 -0.5508
  663SOL    HW112668   2.927   8.712   0.084  0.8012 -1.9673  0.6095
  663SOL    HW212669   2.981   8.610  -0.031  0.2140 -1.2590 -0.2951
  664SOL     OW12670   7.700   1.782   3.244  0.1944 -0.5312  0.1477
  664SOL    HW112671   7.673   1.745   3.333  0.2942 -0.2854  0.2804
  664SOL    HW212672   7.733   1.875   3.255  1.3888 -0.9310  0.0287
  665SOL     OW12673   6.813   0.270   3.093 -0.5213 -0.2857  0.1531
  665SOL    HW112674   6.739   0.242   3.154  0.1932 -3.6646 -0.3967
  665SOL    HW212675   6.900   0.271   3.143 -0.5880  1.3797  0.2467
  666SOL     OW12676   8.631   8.462   1.987  0.6181 -0.6459 -0.4833
  666SOL    HW112677   8.581   8.398   2.046 -0.3702  0.9272  0.4420
  666SOL    HW212678   8.688   8.521   2.043  0.2198  0.3970 -1.1510
  667SOL     OW12679   8.394   9.731   3.203  0.1217  0.0817 -0.0690
  667SOL    HW112680   8.487   9.715   3.234  0.0262 -1.0185 -0.3077
  667SOL    HW212681   8.337   9.759   3.280 -0.1867 -2.9201  0.8628
  668SOL     OW12682   1.628   9.578   3.676 -0.0888 -0.0088  0.6414
  668SOL    HW112683   1.638   9.481   3.652 -2.7982 -0.5775  1.6672
  668SOL    HW212684   1.665   9.593   3.768 -0.5082 -0.2670  0.8538
  669SOL     OW12685   8.311   1.965   1.520  0.1633 -0.2230 -0.1842
  669SOL    HW112686   8.310   2.057   1.560  1.5498  0.3647 -1.4323
  669SOL    HW212687   8.352   1.901   1.584  2.5921  0.7503 -0.6673
  670SOL     OW12688   2.380   6.006   1.988 -0.0986 -0.3292 -0.4810
  670SOL    HW112689   2.305   5.968   2.042  0.5206  0.8231  1.2331
  670SOL    HW212690   2.411   5.938   1.922 -1.1136 -1.6366  0.3663
  671SOL     OW12691   0.569   6.619   2.829  0.0909 -0.4945  0.2276
  671SOL    HW112692   0.591   6.527   2.796  3.8492  1.2151 -2.2991
  671SOL    HW212693   0.644   6.653   2.886 -0.5867  1.5987 -0.1034
  672SOL     OW12694   3.296   0.526   2.520  0.2815  0.2269  0.3887
  672SOL    HW112695   3.388   0.553   2.491  0.4901 -1.5182 -0.6668
  672SOL    HW212696   3.262   0.454   2.459 -1.3467  0.0970  1.4305
  673SOL     OW12697   1.718   9.412   4.132 -0.2891  0.3210  0.3638
  673SOL    HW112698   1.634   9.465   4.125  0.2645  1.4870  1.9598
  673SOL    HW212699   1.713   9.352   4.212 -0.6550 -1.5911 -1.0722
  674SOL     OW12700   9.511   9.788   1.814  0.0789 -0.0303 -0.0425
  674SOL    HW112701   9.588   9.794   1.752 -0.5820 -0.7120 -0.9505
  674SOL    HW212702   9.481   9.879   1.841  0.2281  0.2749 -0.9074
  675SOL     OW12703   9.732   2.539   2.875  0.7930  0.1582  0.4865
  675SOL    HW112704   9.709   2.636   2.879 -1.2379 -0.1880 -1.8362
  675SOL    HW212705   9.701   2.494   2.959 -1.7938  0.8085 -0.0820
  676SOL     OW12706   8.522   5.974   2.589  0.6090 -0.0396  0.2314
  676SOL    HW112707   8.465   5.935   2.661 -1.7752 -0.7943 -2.0282
  676SOL    HW212708   8.588   5.906   2.559  1.9098  0.4156  1.9367
  677SOL     OW12709   0.031   1.181   3.365  0.2230 -0.5225 -0.1880
  677SOL    HW112710   0.067   1.263   3.321 -1.5956  1.0855  1.2255
  677SOL    HW212711  -0.028   1.132   3.301  0.4102 -0.1215 -0.6718
  678SOL     OW12712   0.521   1.510   3.734  0.1896 -0.0777 -0.0673
  678SOL    HW112713   0.606   1.542   3.692  0.2710 -1.1188 -0.7042
  678SOL    HW212714   0.505   1.415   3.709 -0.3119 -0.3910  1.4120
  679SOL     OW12715   1.805   2.618   1.782  0.1764 -0.2289 -0.3740
  679SOL    HW112716   1.723   2.668   1.754 -0.4457 -2.3047 -2.4240
  679SOL    HW212717   1.803   2.603   1.880 -1.9853 -0.3956 -0.4180
  680SOL     OW12718   2.951   3.369   2.387  0.1955  0.4361 -0.4235
  680SOL    HW112719   3.045   3.339   2.397  0.7540  2.0527 -0.6896
  680SOL    HW212720   2.891   3.310   2.441  1.3684 -0.4970 -0.1273
  681SOL     OW12721   2.286   4.110   0.380  0.5482 -0.3697 -0.3594
  681SOL    HW112722   2.229   4.126   0.299 -1.2122  2.6029  1.3554
  681SOL    HW212723   2.368   4.167   0.374  0.8060 -0.7417 -0.4003
  682SOL     OW12724   2.516   6.495   2.804 -0.3329  0.1096 -0.3053
  682SOL    HW112725   2.606   6.502   2.848 -0.6211 -0.3233  0.3723
  682SOL    HW212726   2.528   6.471   2.708  0.2307 -1.7924  0.2105
  683SOL     OW12727   2.870   9.740   1.156 -0.0752 -0.0922  0.3980
  683SOL    HW112728   2.883   9.753   1.058 -0.5643  1.1095  0.4962
  683SOL    HW212729   2.796   9.675   1.171  0.7153 -1.1316 -0.0299
  684SOL     OW12730   0.540   2.801   0.177  0.4821  0.1327 -0.9948
  684SOL    HW112731   0.518   2.894   0.150  2.3690  0.6490 -0.8265
  684SOL    HW212732   0.639   2.793   0.192  0.4250 -2.0289 -1.5700
  685SOL     OW12733   0.188   6.219   0.272  0.3056 -0.2266 -0.7215
  685SOL    HW112734   0.201   6.302   0.327  0.9631 -1.5163  1.1215
  685SOL    HW212735   0.108   6.230   0.213 -0.4555  1.1795  0.5466
  686SOL     OW12736   6.285   8.488   1.857  0.2291 -0.3983 -0.1257
  686SOL    HW112737   6.198   8.522   1.820  0.3741  0.2877  0.1679
  686SOL    HW212738   6.358   8.551   1.832  0.7452 -1.2721 -0.8683
  687SOL     OW12739   9.091   1.759   1.777 -0.0296  0.1894 -1.0029
  687SOL    HW112740   9.128   1.666   1.778  0.2026  0.2695  1.2903
  687SOL    HW212741   9.163   1.823   1.803 -1.3157  0.5049  1.9858
  688SOL     OW12742   4.625   8.554   2.330 -0.4603  0.0313  0.1831
  688SOL    HW112743   4.612   8.639   2.381  2.0782  0.6851 -0.1687
  688SOL    HW212744   4.713   8.558   2.282 -0.2513 -2.8468  0.2640
  689SOL     OW12745   4.816   6.547   2.997 -0.6554 -0.4162  0.7375
  689SOL    HW112746   4.724   6.562   2.960 -0.6404 -0.2944  0.7497
  689SOL    HW212747   4.884   6.574   2.930 -0.6274 -0.8322  0.5953
  690SOL     OW12748   5.504   0.440   3.982 -0.0891  0.3143 -0.1320
  690SOL    HW112749   5.512   0.427   4.080  0.0054  0.8548 -0.0663
  690SOL    HW212750   5.442   0.515   3.963 -0.3336  0.0224 -0.4951
  691SOL     OW12751   2.891   6.020   0.369 -0.1299 -0.2682  0.3484
  691SOL    HW112752   2.945   5.980   0.443  0.8135 -0.9840 -0.6983
  691SOL    HW212753   2.943   6.015   0.283 -0.9508  1.1050 -0.2497
  692SOL     OW12754   2.184   1.195   2.448  0.5250  0.4277 -0.1855
  692SOL    HW112755   2.104   1.244   2.411  0.2411 -0.0579 -0.2222
  692SOL    HW212756   2.241   1.163   2.372 -0.1327 -0.6943 -0.2307
  693SOL     OW12757   2.696   2.073   0.840  0.6209  0.0982 -0.0162
  693SOL    HW112758   2.754   2.145   0.803  0.7338 -0.1872 -0.3974
  693SOL    HW212759   2.700   1.993   0.780 -1.0464  0.4808 -0.6507
  694SOL     OW12760   1.427   8.801   2.379 -0.1808  0.3582 -0.0863
  694SOL    HW112761   1.476   8.754   2.306 -1.8232 -1.6481  0.0263
  694SOL    HW212762   1.365   8.869   2.340  0.4629  0.7523 -0.4179
  695SOL     OW12763   3.938   0.197   2.493 -0.6727 -0.1665  0.5536
  695SOL    HW112764   3.997   0.168   2.417 -0.1315  1.1404  0.4577
  695SOL    HW212765   3.959   0.143   2.574 -0.4906 -0.8387  0.0592
  696SOL     OW12766   8.506   2.673   2.705 -0.3886 -0.2050  0.1929
  696SOL    HW112767   8.461   2.712   2.624 -2.1507 -1.3110  0.6098
  696SOL    HW212768   8.493   2.574   2.705  0.1585 -0.2780  1.5083
  697SOL     OW12769   2.818   2.519   1.280  0.5105  0.7106  0.0009
  697SOL    HW112770   2.746   2.577   1.317  0.1645 -0.4133  1.1297
  697SOL    HW212771   2.865   2.567   1.206  1.0340  2.9013  1.6951
  698SOL     OW12772   7.397   9.364   4.031 -0.4725  0.8386 -0.2117
  698SOL    HW112773   7.375   9.440   3.970 -3.9208  0.2801  0.2652
  698SOL    HW212774   7.408   9.398   4.125 -2.3662  0.7125  0.0613
  699SOL     OW12775   4.053   0.422   0.330  0.1073 -0.1588 -0.3520
  699SOL    HW112776   4.142   0.378   0.329  0.6147  0.8748 -1.6688
  699SOL    HW212777   3.987   0.365   0.281  0.2587 -0.4788 -0.1820
  700SOL     OW12778   0.074   8.808   3.856 -0.0712  0.3666 -0.4701
  700SOL    HW112779   0.130   8.778   3.934  1.9481  1.3196 -1.5263
  700SOL    HW212780  -0.016   8.763   3.861  0.4139 -0.4351  1.7889
  701SOL     OW12781   8.854   7.305   4.152 -0.5858  0.5590 -0.2788
  701SOL    HW112782   8.808   7.217   4.162 -1.3282  0.9770  0.1051
  701SOL    HW212783   8.903   7.308   4.065 -1.0905  0.0063 -0.5878
  702SOL     OW12784   2.778   9.149   3.991  0.6404 -0.1233  0.4432
  702SOL    HW112785   2.691   9.157   3.943  1.1765 -0.0933 -0.5340
  702SOL    HW212786   2.768   9.085   4.068  0.1098 -1.2018 -0.5035
  703SOL     OW12787   0.060   3.119   4.457  0.3489  0.3044  0.4671
  703SOL    HW112788   0.123   3.195   4.469  1.5603 -0.8827  1.8458
  703SOL    HW212789   0.105   3.046   4.404 -0.1268 -0.2498  0.8125
  704SOL     OW12790   9.410   4.439   2.082 -0.3134 -0.4951 -0.5375
  704SOL    HW112791   9.450   4.391   2.004  1.6678  0.7598 -0.3175
  704SOL    HW212792   9.482   4.465   2.146 -1.5655  1.1737  0.2301
  705SOL     OW12793   2.919   9.976   2.753 -0.0531 -0.3023  0.2238
  705SOL    HW112794   2.922   9.879   2.777  0.9146 -0.3923 -0.2470
  705SOL    HW212795   2.823  10.005   2.745 -0.3514 -1.1868  0.4622
  706SOL     OW12796   8.123   1.543   4.332  0.2211 -0.4835 -0.3569
  706SOL    HW112797   8.039   1.597   4.343  0.6907  0.4033 -1.0027
  706SOL    HW212798   8.107   1.450   4.363 -0.4174  0.1953  1.4087
  707SOL     OW12799   8.422   8.578   0.207  0.3252 -0.4096  0.5252
  707SOL    HW112800   8.348   8.592   0.141  0.5396  1.9343  0.7516
  707SOL    HW212801   8.384   8.553   0.296 -0.2022  0.9196  0.6770
  708SOL     OW12802   3.469   9.376   4.188 -0.0663 -0.2106 -0.0482
  708SOL    HW112803   3.408   9.455   4.187  0.7113  0.4376  1.9291
  708SOL    HW212804   3.557   9.402   4.148 -0.1880 -0.3999 -0.4426
  709SOL     OW12805   6.744   8.978   1.934  0.3905  1.1143  1.1535
  709SOL    HW112806   6.664   9.000   1.990  0.0869  2.3391  0.2709
  709SOL    HW212807   6.800   9.060   1.922  0.9445  0.6435  0.4639
  710SOL     OW12808   5.259   2.233   1.402 -0.0453 -0.3817 -0.0294
  710SOL    HW112809   5.230   2.139   1.423  0.7807 -0.4634  0.7938
  710SOL    HW212810   5.265   2.285   1.488 -0.5598  0.4458 -0.4873
  711SOL     OW12811   1.650   4.900   2.218  0.0402  0.0600  0.0108
  711SOL    HW112812   1.612   4.808   2.210 -0.5865  0.2076  1.2208
  711SOL    HW212813   1.590   4.965   2.170  0.2411 -0.0874 -0.4481
  712SOL     OW12814   9.433   6.524   0.669  0.3809  0.0474 -0.0628
  712SOL    HW112815   9.352   6.582   0.681 -0.6712 -1.1084 -1.4416
  712SOL    HW212816   9.489   6.528   0.751  0.0707  2.6192  0.0782
  713SOL     OW12817   5.200   2.581   1.337 -0.2277  0.0506  0.1209
  713SOL    HW112818   5.122   2.550   1.391  0.6892 -1.0937  0.7847
  713SOL    HW212819   5.181   2.566   1.240 -1.3607  0.9721  0.1883
  714SOL     OW12820   7.788   3.742   4.028 -0.2770 -0.0422  0.3081
  714SOL    HW112821   7.801   3.643   4.034 -2.4668 -0.3585  0.2728
  714SOL    HW212822   7.862   3.782   3.974  0.7278 -1.6319  0.4654
  715SOL     OW12823   9.467   6.962   1.777 -0.4795 -0.3403  0.2202
  715SOL    HW112824   9.485   6.901   1.854 -0.8869  1.4178  1.7243
  715SOL    HW212825   9.554   6.990   1.736 -0.2786 -1.7117 -0.3444
  716SOL     OW12826   8.585   7.223   3.244  0.4291  0.4264 -0.2490
  716SOL    HW112827   8.641   7.299   3.278  0.8328 -0.7585  1.8163
  716SOL    HW212828   8.559   7.164   3.320 -2.1640 -0.0381 -1.4308
  717SOL     OW12829   1.122   6.728   3.718 -0.0854 -0.7364  0.4359
  717SOL    HW112830   1.182   6.796   3.676 -1.4095  0.5039  0.5199
  717SOL    HW212831   1.083   6.764   3.802  0.0431 -2.0083  1.0549
  718SOL     OW12832   9.817   1.814   1.993  0.0228 -0.1226 -0.2175
  718SOL    HW112833   9.725   1.838   2.023 -0.1174 -0.0093 -0.7370
  718SOL    HW212834   9.883   1.837   2.065 -0.4662 -1.2353  0.5968
  719SOL     OW12835   9.601   8.934   2.232 -0.5434 -0.8766  0.3405
  719SOL    HW112836   9.593   8.921   2.133  1.5395 -1.3611  0.2135
  719SOL    HW212837   9.608   9.032   2.252  1.0641 -0.8677 -0.1833
  720SOL     OW12838   8.497   7.400   2.326  0.3730  0.4787 -0.5380
  720SOL    HW112839   8.453   7.406   2.415 -1.4023  1.0591 -1.4432
  720SOL    HW212840   8.527   7.491   2.297  2.2928  0.0854  0.1023
  721SOL     OW12841   0.839   9.346   2.263 -0.0865 -0.3995 -0.6076
  721SOL    HW112842   0.757   9.345   2.321 -0.3563  0.2128 -0.9818
  721SOL    HW212843   0.920   9.356   2.321 -0.3535  0.1984 -0.3317
  722SOL     OW12844   8.784   6.574   2.147  0.5220 -0.1544  0.7194
  722SOL    HW112845   8.785   6.568   2.247  1.0979 -0.0206  0.7280
  722SOL    HW212846   8.848   6.645   2.117 -1.5782  1.6425  0.3580
  723SOL     OW12847   7.641   3.600   0.216  0.2650 -0.5413 -0.1857
  723SOL    HW112848   7.547   3.580   0.243  0.4666  0.0163  0.9743
  723SOL    HW212849   7.641   3.641   0.125 -0.7440  0.7517  0.3719
  724SOL     OW12850   4.991   7.044   3.692  0.1642  0.3060 -0.0469
  724SOL    HW112851   4.951   7.066   3.603 -2.0086 -1.3352  0.4663
  724SOL    HW212852   4.927   7.071   3.764  1.3007  0.3658  0.9463
  725SOL     OW12853   7.875   7.291   2.202  0.1111  0.1098 -0.2696
  725SOL    HW112854   7.868   7.293   2.102  0.2435  0.1957 -0.2769
  725SOL    HW212855   7.833   7.373   2.240 -0.1027 -0.0110 -0.2457
  726SOL     OW12856   0.979   8.688   4.124  0.1539 -0.6437  0.0157
  726SOL    HW112857   0.935   8.602   4.100 -0.2555 -0.6773  0.8492
  726SOL    HW212858   0.922   8.764   4.093 -1.0540 -0.6864  2.0172
  727SOL     OW12859   3.201   4.726   1.997  0.7300 -0.0755  0.6416
  727SOL    HW112860   3.104   4.714   1.979  0.3680 -1.9366  3.4596
  727SOL    HW212861   3.219   4.820   2.028 -0.6079 -0.4236  2.5403
  728SOL     OW12862   1.974   6.052   4.233  0.3027 -0.6805  0.1938
  728SOL    HW112863   1.905   6.001   4.182  0.7934  0.3006 -1.4873
  728SOL    HW212864   1.971   6.025   4.329 -2.4367 -0.6177  0.1563
  729SOL     OW12865   9.007   8.569   3.834  0.3748  0.3287 -0.1735
  729SOL    HW112866   9.021   8.605   3.926  0.3360  0.7047 -0.3150
  729SOL    HW212867   8.909   8.556   3.817  0.4533 -0.9450  0.2976
  730SOL     OW12868   0.241   2.769   1.459 -0.1543  0.0796 -0.0294
  730SOL    HW112869   0.178   2.744   1.532 -0.9894 -0.5805 -0.9605
  730SOL    HW212870   0.335   2.745   1.486 -0.5142 -0.6271  0.6049
  731SOL     OW12871   0.630   5.211   0.196 -0.1449  0.5058  0.6096
  731SOL    HW112872   0.613   5.154   0.115 -1.8537  1.0347  0.5640
  731SOL    HW212873   0.609   5.159   0.279 -1.4956  0.9772  0.5760
  732SOL     OW12874   8.503   2.219   4.216 -0.2360 -0.4345  0.3667
  732SOL    HW112875   8.548   2.169   4.290 -0.0872 -0.9356 -0.0611
  732SOL    HW212876   8.549   2.306   4.202 -0.2288 -0.3632  0.8278
  733SOL     OW12877   9.529   1.825   2.039  0.1596 -0.0797  0.5065
  733SOL    HW112878   9.499   1.806   2.133  1.2854 -0.8730  0.7242
  733SOL    HW212879   9.494   1.913   2.010  0.3340  0.4679  1.9145
  734SOL     OW12880   9.004   6.631   1.300 -0.2070  0.0343 -0.1228
  734SOL    HW112881   9.029   6.551   1.246 -0.7669 -0.1057 -0.1690
  734SOL    HW212882   8.974   6.603   1.391  0.4502  0.2526  0.1691
  735SOL     OW12883   4.695   4.067   0.625  0.4487 -0.5674  0.2079
  735SOL    HW112884   4.624   4.094   0.560 -0.0900 -1.3021  0.4787
  735SOL    HW212885   4.735   3.980   0.596 -0.4777 -1.3988  1.3671
  736SOL     OW12886   9.999   2.049   0.267 -0.1794  0.1797  0.0938
  736SOL    HW112887  10.017   2.090   0.357 -0.4709 -1.3578  0.8646
  736SOL    HW212888  10.084   2.015   0.228 -0.5577 -2.4396  1.4403
  737SOL     OW12889   9.101   2.981   4.004  0.4429 -0.5968 -0.0606
  737SOL    HW112890   9.015   2.930   4.010  1.4998 -2.4604 -0.4901
  737SOL    HW212891   9.097   3.043   3.925 -1.3145  0.9148  1.1769
  738SOL     OW12892   1.762   8.407   2.251 -0.4049  0.2410 -0.0842
  738SOL    HW112893   1.715   8.395   2.339 -0.1362 -4.0996 -0.4329
  738SOL    HW212894   1.722   8.345   2.183  0.8162  1.9890 -2.4773
  739SOL     OW12895   5.169   1.363   2.829 -0.1359  0.3480 -0.1413
  739SOL    HW112896   5.234   1.326   2.763  1.6862  0.4561  1.5473
  739SOL    HW212897   5.208   1.443   2.874 -1.1400 -0.0154  1.4198
  740SOL     OW12898   5.362   8.559   3.635  0.3201 -0.2658 -0.1566
  740SOL    HW112899   5.326   8.651   3.653  0.1521 -0.0867 -1.3599
  740SOL    HW212900   5.297   8.508   3.580  0.8167 -0.8067 -0.2448
  741SOL     OW12901   3.638   4.927   2.916  0.0646  0.3407  0.2946
  741SOL    HW112902   3.610   4.831   2.902 -0.9492  0.4854  1.2709
  741SOL    HW212903   3.568   4.987   2.877 -0.1509  0.6917  1.2116
  742SOL     OW12904   1.337   3.377   0.741 -0.9757 -0.5197  0.3839
  742SOL    HW112905   1.330   3.292   0.688  2.5226 -0.4614 -0.2884
  742SOL    HW212906   1.354   3.454   0.679  1.0660 -0.1406  1.3732
  743SOL     OW12907   9.065   1.476   1.451  0.0461  0.7087 -0.5882
  743SOL    HW112908   9.144   1.457   1.509  0.5293  2.1589 -0.7495
  743SOL    HW212909   9.035   1.391   1.407  0.2142 -0.2402  1.0843
  744SOL     OW12910   1.208   6.033   1.213 -0.2732  0.2305  0.0761
  744SOL    HW112911   1.132   6.004   1.154 -2.7426  1.8798  2.2989
  744SOL    HW212912   1.193   5.998   1.306  1.9469  0.2204  0.4547
  745SOL     OW12913   9.890   4.180   4.764  0.3210 -0.1528  0.1716
  745SOL    HW112914   9.809   4.157   4.710 -0.1448  1.3582  0.1879
  745SOL    HW212915   9.862   4.235   4.843  1.2328 -0.5748  0.7829
  746SOL     OW12916   1.555   8.916   0.239 -0.1850 -0.1399 -0.0794
  746SOL    HW112917   1.553   9.013   0.216  0.8226  0.4243  2.0601
  746SOL    HW212918   1.554   8.861   0.156  0.6689  1.7427 -1.3423
  747SOL     OW12919   0.876   8.402   2.588  0.3526 -0.6222 -0.2199
  747SOL    HW112920   0.793   8.390   2.642  0.0408  0.0281 -0.5547
  747SOL    HW212921   0.939   8.462   2.638  0.2721 -0.4267 -0.3560
  748SOL     OW12922   2.001   8.513   2.120  0.0319  0.1106 -0.2132
  748SOL    HW112923   1.989   8.611   2.130 -0.8461  0.1389 -1.4398
  748SOL    HW212924   1.923   8.466   2.162 -1.0932  0.0601 -2.2810
  749SOL     OW12925   0.490   6.760   0.806  0.2702  0.0840  0.1743
  749SOL    HW112926   0.564   6.794   0.748  0.4129  0.3339  0.5020
  749SOL    HW212927   0.526   6.690   0.868  0.3153  0.4811  0.5982
  750SOL     OW12928   1.274   4.163   3.367 -0.1393  0.1149 -0.0861
  750SOL    HW112929   1.324   4.128   3.446 -1.5620  1.5265  1.4759
  750SOL    HW212930   1.191   4.110   3.353 -0.6438  0.7901  0.2985
  751SOL     OW12931   5.754   7.370   3.120  0.0168 -0.2851 -0.2087
  751SOL    HW112932   5.818   7.444   3.143  1.2270 -2.1785  2.7881
  751SOL    HW212933   5.661   7.405   3.122  0.5043  0.9823  2.0903
  752SOL     OW12934   9.025   3.059   1.829 -0.7235  0.2384  0.1304
  752SOL    HW112935   9.124   3.054   1.839 -0.7457 -0.9192 -0.1824
  752SOL    HW212936   8.981   3.047   1.919 -0.6469 -1.6059 -0.0588
  753SOL     OW12937   0.883   7.962   0.586 -0.7007  0.4882 -0.4189
  753SOL    HW112938   0.929   8.025   0.523 -2.2002  1.6526 -0.3851
  753SOL    HW212939   0.805   7.920   0.539 -0.1190 -0.8244 -0.2197
  754SOL     OW12940   2.851   4.867   2.898 -0.0034 -0.1102  0.3144
  754SOL    HW112941   2.884   4.934   2.832  2.0429  0.9983  2.3810
  754SOL    HW212942   2.770   4.902   2.944 -0.8066 -0.4371 -0.8236
  755SOL     OW12943   9.274   0.778   2.928 -0.2937 -0.1985 -0.5075
  755SOL    HW112944   9.314   0.694   2.965 -2.2498 -0.5679  0.8315
  755SOL    HW212945   9.342   0.851   2.930  1.5077 -1.7751 -1.8743
  756SOL     OW12946   4.451   1.176   3.381  0.4353 -0.2104 -0.1461
  756SOL    HW112947   4.482   1.159   3.287  1.1951  0.0164  0.0596
  756SOL    HW212948   4.483   1.102   3.440 -0.8293 -0.8401 -0.2241
  757SOL     OW12949   0.951   4.931   4.531  0.9130  0.0332  0.1406
  757SOL    HW112950   1.041   4.889   4.522  0.5121 -0.8486  0.1463
  757SOL    HW212951   0.936   4.996   4.457  1.8549  0.7615  0.5738
  758SOL     OW12952   3.557   9.320   2.018  0.0815 -0.1222 -0.5008
  758SOL    HW112953   3.566   9.221   2.016  1.9543  0.0338 -0.3140
  758SOL    HW212954   3.584   9.358   1.930 -2.0673  0.1406 -1.0869
  759SOL     OW12955   9.574   4.004   2.434 -0.2742  0.0002 -0.2376
  759SOL    HW112956   9.645   3.964   2.376 -1.4593  0.1324 -1.8135
  759SOL    HW212957   9.614   4.076   2.490  0.7813  0.2926 -1.3374
  760SOL     OW12958   2.685   8.239   1.726 -0.0694 -0.5373 -0.0369
  760SOL    HW112959   2.783   8.258   1.713 -0.4554  0.1630 -2.1246
  760SOL    HW212960   2.671   8.141   1.739  0.8704 -0.6805 -0.0598
  761SOL     OW12961   1.858   4.766   1.999 -0.3005 -0.2945 -0.2388
  761SOL    HW112962   1.834   4.842   2.060 -1.7518 -2.3246  1.7742
  761SOL    HW212963   1.957   4.755   1.997 -0.2075  0.2493  1.1901
  762SOL     OW12964   0.978   1.309   3.857  0.3146  0.1076 -0.1720
  762SOL    HW112965   0.992   1.317   3.955  1.7206  0.7464 -0.4037
  762SOL    HW212966   0.967   1.400   3.817 -1.1458 -0.2025 -0.4862
  763SOL     OW12967   8.582   1.945   1.219  0.1236  0.1260 -0.2517
  763SOL    HW112968   8.606   1.910   1.309 -0.8152 -0.5880 -0.2828
  763SOL    HW212969   8.484   1.933   1.202 -0.5305  3.9608  0.2853
  764SOL     OW12970   8.496   6.211   0.989  0.1393 -1.0556 -0.4797
  764SOL    HW112971   8.490   6.289   1.052 -1.5221 -1.3095 -0.2875
  764SOL    HW212972   8.524   6.130   1.040 -1.4185 -1.3117  0.0197
  765SOL     OW12973   9.631   2.143   3.677  0.0547  0.0156 -0.1062
  765SOL    HW112974   9.702   2.205   3.710 -1.3893 -0.0858  3.4410
  765SOL    HW212975   9.651   2.050   3.706  0.9389 -0.8514 -3.3071
  766SOL     OW12976   0.922   9.322   2.724 -0.1066 -0.0130 -0.1146
  766SOL    HW112977   0.913   9.392   2.795  1.7081  1.2865 -1.1085
  766SOL    HW212978   0.844   9.261   2.727 -1.7963  2.1229  0.7525
  767SOL     OW12979   3.400   8.614   0.763 -0.0556 -0.0933 -0.1593
  767SOL    HW112980   3.370   8.682   0.829 -3.0375 -0.6719 -0.8739
  767SOL    HW212981   3.377   8.522   0.796  1.9958 -0.6524 -0.1984
  768SOL     OW12982   3.031   7.452   3.295 -0.1744 -0.1200  0.0003
  768SOL    HW112983   3.071   7.388   3.229  1.4413  1.5047 -0.6643
  768SOL    HW212984   2.931   7.444   3.293 -0.3165  1.1685 -4.1071
  769SOL     OW12985   9.841   8.312   3.153 -0.0920 -0.2726 -0.2004
  769SOL    HW112986   9.782   8.308   3.073  0.4314 -3.3247 -0.4725
  769SOL    HW212987   9.787   8.337   3.233 -1.0600  0.4658 -1.0835
  770SOL     OW12988   5.066   7.423   1.559  0.0955  0.0949  0.0864
  770SOL    HW112989   4.991   7.365   1.590 -0.9420  1.4051  0.0415
  770SOL    HW212990   5.036   7.479   1.482  0.4556  2.1972  1.4505
  771SOL     OW12991   5.749   9.704   1.706 -0.5783 -0.3214  0.4235
  771SOL    HW112992   5.820   9.764   1.742 -0.9882  1.1965 -1.2374
  771SOL    HW212993   5.786   9.649   1.631 -0.6893 -0.7916  0.7148
  772SOL     OW12994   4.136   4.182   0.238  0.4047 -0.4765 -0.4143
  772SOL    HW112995   4.221   4.235   0.235  0.2786 -0.2269  0.1950
  772SOL    HW212996   4.070   4.229   0.297  0.6072 -1.7654  0.8892
  773SOL     OW12997   2.959   7.607   1.566 -0.6565 -0.2143 -0.5869
  773SOL    HW112998   3.027   7.621   1.494  0.2912  0.6232  0.4491
  773SOL    HW212999   2.998   7.548   1.637 -0.6171  1.1430  0.5323
  774SOL     OW13000   2.379   4.256   0.793  0.5454  0.1327 -0.3604
  774SOL    HW113001   2.383   4.293   0.886 -0.5370 -0.2942 -0.1373
  774SOL    HW213002   2.434   4.312   0.732 -0.5502  1.7324  0.0986
  775SOL     OW13003   8.934   8.878   0.116  0.5343  0.2897 -0.2072
  775SOL    HW113004   8.976   8.809   0.057  0.7065  0.0297  0.2198
  775SOL    HW213005   8.953   8.856   0.211  0.1319  0.6314 -0.0477
  776SOL     OW13006   9.225   1.053   0.307 -0.2804  0.2922 -0.2413
  776SOL    HW113007   9.176   1.065   0.394  0.8649  0.2251  0.4178
  776SOL    HW213008   9.303   0.993   0.321  1.3694  2.2690 -0.7706
  777SOL     OW13009   3.560   1.679   1.655 -0.0223  0.0325  0.1328
  777SOL    HW113010   3.471   1.711   1.687  0.5300  0.8337  0.9004
  777SOL    HW213011   3.620   1.757   1.640  0.1774 -0.4389 -1.5238
  778SOL     OW13012   4.110   7.674   1.349  0.3182 -0.4287  0.0974
  778SOL    HW113013   4.119   7.724   1.264 -2.2531 -0.1074 -0.0240
  778SOL    HW213014   4.112   7.737   1.426 -0.4124 -0.3893  0.0886
  779SOL     OW13015   2.452   5.547   3.208  0.0215 -0.1060  0.2391
  779SOL    HW113016   2.478   5.525   3.114 -2.0787 -0.9782 -0.1775
  779SOL    HW213017   2.526   5.522   3.270  1.0423 -0.4268 -1.0839
  780SOL     OW13018   3.778   4.715   1.824  0.2787  0.1700  0.8149
  780SOL    HW113019   3.765   4.812   1.845  0.2306  0.1037  1.0897
  780SOL    HW213020   3.715   4.689   1.751  1.5321  0.7700 -0.4836
  781SOL     OW13021   1.251   3.414   1.237  0.0930  0.5996  0.1964
  781SOL    HW113022   1.174   3.392   1.177  0.1888 -0.3822  0.4219
  781SOL    HW213023   1.306   3.487   1.196 -1.1795  1.5727  0.2252
  782SOL     OW13024   1.149   6.981   1.848  0.3403 -0.5618 -0.1997
  782SOL    HW113025   1.086   6.994   1.772 -0.8839  0.9135  1.0337
  782SOL    HW213026   1.174   6.884   1.855 -1.3584 -1.0710 -1.0460
  783SOL     OW13027   0.078   1.485   4.039  0.1768 -0.2898  0.3041
  783SOL    HW113028   0.065   1.498   4.137  0.1829  1.3402  0.1075
  783SOL    HW213029  -0.006   1.509   3.990  0.1810 -1.0686 -0.0947
  784SOL     OW13030   9.585   4.167   3.143 -0.3982  1.0550 -0.0255
  784SOL    HW113031   9.512   4.150   3.077  0.1844 -1.1739 -0.1473
  784SOL    HW213032   9.641   4.244   3.113 -0.0788  0.0072 -2.1873
  785SOL     OW13033   1.304   4.409   3.675  0.1541  0.2593 -0.3759
  785SOL    HW113034   1.364   4.478   3.716  0.0009  0.1393  0.0631
  785SOL    HW213035   1.355   4.325   3.661 -0.1920 -0.2205  1.0891
  786SOL     OW13036   3.834   8.031   2.893  0.7838 -0.8701 -0.5026
  786SOL    HW113037   3.836   8.056   2.796 -1.2022 -2.1804 -0.9054
  786SOL    HW213038   3.739   8.023   2.923  1.3427  1.5286  2.1070
  787SOL     OW13039   0.562   7.229   3.928  0.3912 -0.7065 -0.1427
  787SOL    HW113040   0.556   7.284   3.845 -0.3644 -1.2511 -0.4561
  787SOL    HW213041   0.606   7.282   4.001  0.5687 -0.0424 -0.7321
  788SOL     OW13042   7.688   9.731   0.511  0.7710  0.3422 -0.1720
  788SOL    HW113043   7.777   9.710   0.550 -0.2030 -1.0312  1.3376
  788SOL    HW213044   7.617   9.717   0.580 -0.7575  0.0544 -1.7788
  789SOL     OW13045   1.892   2.954   1.643 -0.1463 -0.2040  0.1533
  789SOL    HW113046   1.842   2.953   1.730  0.7978 -4.2009  0.7241
  789SOL    HW213047   1.850   2.890   1.579  0.0703  1.6214 -1.8993
  790SOL     OW13048   3.947   3.372   0.503 -0.7589  0.2353 -0.3155
  790SOL    HW113049   3.999   3.448   0.541 -0.9132  0.7478 -1.1221
  790SOL    HW213050   4.008   3.295   0.486 -0.2158  0.9160 -1.4735
  791SOL     OW13051   9.572   1.345   2.428 -0.0894  0.4396 -0.1811
  791SOL    HW113052   9.620   1.257   2.426 -0.7699 -0.0575  2.5458
  791SOL    HW213053   9.500   1.341   2.497 -1.0319  2.6934 -1.0203
  792SOL     OW13054   1.368   6.815   3.965  0.2422 -0.7231 -0.0525
  792SOL    HW113055   1.464   6.815   3.991 -0.4946 -2.0058  2.8563
  792SOL    HW213056   1.344   6.728   3.923 -0.0402 -1.0423  0.7708
  793SOL     OW13057   3.601   7.866   1.654 -0.1220 -0.0476 -0.0506
  793SOL    HW113058   3.696   7.876   1.682 -0.3145  0.9794  0.2662
  793SOL    HW213059   3.558   7.956   1.650 -1.2737 -0.5621  0.4944
  794SOL     OW13060   7.828   1.200   4.332  0.6443  0.5063  0.2261
  794SOL    HW113061   7.792   1.289   4.360 -3.8881 -1.4038  0.9255
  794SOL    HW213062   7.807   1.132   4.403  3.0359 -1.3399 -0.7786
  795SOL     OW13063   3.109   2.557   3.730 -0.0271  0.2379 -0.0250
  795SOL    HW113064   3.101   2.563   3.829 -0.6968 -0.3106 -0.0421
  795SOL    HW213065   3.127   2.648   3.693 -0.0961  0.4996  0.5745
  796SOL     OW13066   2.886   6.628   0.012  0.0119 -0.1050 -0.7791
  796SOL    HW113067   2.815   6.646   0.079 -0.6921  1.1822 -1.8543
  796SOL    HW213068   2.861   6.548  -0.042 -0.2280 -0.1386 -0.6201
  797SOL     OW13069   8.494   4.586   1.025  0.0300 -0.4496  0.4616
  797SOL    HW113070   8.555   4.554   0.953 -0.6706 -0.7676  0.0084
  797SOL    HW213071   8.409   4.533   1.023  0.1935 -0.7892  1.8213
  798SOL     OW13072   8.702   4.010   0.690 -0.7654  0.0512  0.0485
  798SOL    HW113073   8.615   3.995   0.737 -0.0522 -1.6189  0.8912
  798SOL    HW213074   8.773   4.028   0.757  0.0651 -1.3562 -0.4163
  799SOL     OW13075   5.554   8.613   2.941  0.1815  0.2039  0.9039
  799SOL    HW113076   5.548   8.707   2.973  1.2010 -0.1438  2.1550
  799SOL    HW213077   5.472   8.563   2.968 -0.6853  0.8962 -0.3761
  800SOL     OW13078   0.217   9.679   0.098 -0.1309 -0.2408  0.0147
  800SOL    HW113079   0.147   9.709   0.033  0.2370 -0.4596 -0.4871
  800SOL    HW213080   0.269   9.759   0.129 -1.4152  0.0918  1.3584
  801SOL     OW13081   1.866   4.293   4.731 -1.1476  0.3225  0.0133
  801SOL    HW113082   1.792   4.259   4.672 -1.7439 -0.7874  1.3661
  801SOL    HW213083   1.949   4.240   4.713 -1.0094  0.7514 -0.6357
  802SOL     OW13084   5.902   9.795   2.190  0.1118 -0.3384  0.1054
  802SOL    HW113085   5.971   9.841   2.135 -0.8931  0.6476 -0.3715
  802SOL    HW213086   5.918   9.814   2.287 -0.4921  1.3634 -0.1037
  803SOL     OW13087   9.452   7.503   1.491  0.0517 -0.0338 -0.0651
  803SOL    HW113088   9.374   7.562   1.512  0.2293  0.5623 -1.0361
  803SOL    HW213089   9.421   7.426   1.434  0.1550  0.1790 -0.4134
  804SOL     OW13090   2.944   7.577   4.770  0.0593  0.0665  0.4479
  804SOL    HW113091   2.966   7.647   4.839  1.7661 -0.0289  0.0112
  804SOL    HW213092   2.989   7.599   4.684  0.2630 -1.3553  0.1820
  805SOL     OW13093   8.304   5.507   3.494  0.3860  0.1120 -0.8573
  805SOL    HW113094   8.244   5.436   3.531  0.9725 -0.6527 -1.3559
  805SOL    HW213095   8.278   5.595   3.532 -1.2752 -0.1536 -1.3192
  806SOL     OW13096   1.791   9.360   0.973  0.3482  0.0763 -0.3589
  806SOL    HW113097   1.891   9.355   0.969  0.4810  0.6584  1.5057
  806SOL    HW213098   1.753   9.267   0.970  1.0606 -0.2676  0.8481
  807SOL     OW13099   3.090   0.024   4.639  0.1713  0.1405 -0.1316
  807SOL    HW113100   3.081   0.040   4.540  0.6625 -0.1734 -0.2286
  807SOL    HW213101   3.157  -0.049   4.655 -1.4950 -1.3250  0.3348
  808SOL     OW13102   8.944   2.746   0.249 -0.0212 -0.0430  0.4866
  808SOL    HW113103   8.934   2.722   0.152  0.7991 -1.3389  0.7169
  808SOL    HW213104   9.020   2.810   0.259  0.5481 -0.7077  0.4014
  809SOL     OW13105   0.120   4.198   2.353  0.9118 -0.3270 -0.3031
  809SOL    HW113106   0.095   4.295   2.352  2.5024  0.0968 -1.2057
  809SOL    HW213107   0.079   4.153   2.274 -0.3240 -0.5371  0.4428
  810SOL     OW13108   9.687   1.036   2.984 -0.8236 -0.7704  0.3592
  810SOL    HW113109   9.594   1.068   3.001 -0.9173 -1.0600  0.3894
  810SOL    HW213110   9.685   0.954   2.926 -0.5121  0.1177 -0.9322
  811SOL     OW13111   7.474   1.114   2.055 -0.4144  0.1424 -0.1474
  811SOL    HW113112   7.544   1.120   1.984  0.7223  0.7130  1.0091
  811SOL    HW213113   7.472   1.199   2.107 -0.9534 -0.4298  0.7748
  812SOL     OW13114   1.910   6.977   1.618  0.2543  0.1575  0.0693
  812SOL    HW113115   1.965   6.957   1.537 -1.5611 -2.7158 -0.5036
  812SOL    HW213116   1.943   6.924   1.695 -2.5937 -2.9110 -0.6785
  813SOL     OW13117   7.631   8.496   1.541 -0.1238  0.3058 -0.2724
  813SOL    HW113118   7.608   8.515   1.446 -0.8333  2.4908  0.3057
  813SOL    HW213119   7.575   8.420   1.574 -0.5110  0.1180 -1.3352
  814SOL     OW13120   0.509   9.173   0.265 -0.0831 -0.0222 -0.2458
  814SOL    HW113121   0.489   9.261   0.309 -0.3635 -0.1208 -0.1742
  814SOL    HW213122   0.608   9.163   0.256 -0.0301  0.0916  0.1786
  815SOL     OW13123   8.591   2.323   0.638  0.2032  0.1478  0.1801
  815SOL    HW113124   8.687   2.295   0.649  0.3053 -0.6625 -2.3762
  815SOL    HW213125   8.542   2.252   0.588 -1.3059  1.4133 -0.1619
  816SOL     OW13126   8.298   4.823   3.344  0.0944  0.1908  0.5912
  816SOL    HW113127   8.206   4.863   3.342 -0.3876 -0.9327 -0.6400
  816SOL    HW213128   8.350   4.856   3.264 -0.0971 -1.1549 -0.0893
  817SOL     OW13129   2.909   5.114   2.224 -0.1091 -0.1461  0.1151
  817SOL    HW113130   2.875   5.199   2.185  0.8244  0.0141 -0.3732
  817SOL    HW213131   2.897   5.115   2.323 -0.3804  0.4274  0.0777
  818SOL     OW13132   9.735   4.066   0.381 -0.1464 -0.3211  0.0378
  818SOL    HW113133   9.661   4.116   0.425  1.3960  0.8509  1.3603
  818SOL    HW213134   9.805   4.043   0.449  1.0775 -0.7279 -1.3283
  819SOL     OW13135   8.159   0.472   4.018 -0.1441 -0.4217 -0.3914
  819SOL    HW113136   8.164   0.538   4.092 -0.2260 -1.7894  0.8634
  819SOL    HW213137   8.241   0.414   4.020 -0.3205 -0.6953 -1.1413
  820SOL     OW13138   8.139   6.874   3.202  0.3360  0.1701 -0.1520
  820SOL    HW113139   8.133   6.799   3.137 -1.2019  0.0251  0.1538
  820SOL    HW213140   8.098   6.846   3.289 -3.5999  2.5561 -1.1397
  821SOL     OW13141   0.052   3.226   1.024 -0.3971  0.2163 -0.1023
  821SOL    HW113142   0.008   3.298   1.079  1.9463 -0.2628  2.5329
  821SOL    HW213143  -0.005   3.144   1.025 -1.5072  0.9822 -0.3387
  822SOL     OW13144   8.554   3.089   0.665 -0.1840  0.4686 -0.2518
  822SOL    HW113145   8.637   3.134   0.632  0.8250 -0.0294  1.5819
  822SOL    HW213146   8.542   3.003   0.615  0.2313  0.6732 -0.7176
  823SOL     OW13147   8.423   0.568   3.089  0.6387 -0.2346 -0.0195
  823SOL    HW113148   8.430   0.470   3.107  1.5081 -0.2306 -0.3127
  823SOL    HW213149   8.327   0.594   3.080  0.3493 -0.8237  1.3654
  824SOL     OW13150   4.512   7.426   0.756 -0.1512  0.1680 -0.5081
  824SOL    HW113151   4.436   7.476   0.799 -1.0115 -0.4738 -1.2626
  824SOL    HW213152   4.594   7.437   0.811 -0.7834  0.9057  0.3061
  825SOL     OW13153   8.883   2.320   0.720 -0.6734 -0.1019 -0.0536
  825SOL    HW113154   8.868   2.355   0.813 -0.1722 -1.4379  0.5407
  825SOL    HW213155   8.941   2.384   0.670 -0.1602  0.1742  0.8667
  826SOL     OW13156   1.028   5.942   2.305  0.3380 -0.4055 -0.0274
  826SOL    HW113157   0.973   5.899   2.233 -0.5752 -0.4804  0.6952
  826SOL    HW213158   1.121   5.905   2.303 -0.2805 -2.0515  0.2340
  827SOL     OW13159   8.562   4.097   1.512  0.6668 -0.1444  0.5239
  827SOL    HW113160   8.525   4.149   1.435 -0.7167 -2.3494 -0.3364
  827SOL    HW213161   8.486   4.060   1.566  1.4961 -4.3544 -1.0024
  828SOL     OW13162   1.036   1.693   0.213 -0.1672 -0.1246 -0.2461
  828SOL    HW113163   1.072   1.615   0.163 -1.6719 -1.1061  0.1555
  828SOL    HW213164   0.936   1.688   0.215 -0.3135  2.0000 -0.5125
  829SOL     OW13165   3.660   4.863   4.475 -0.5605  0.8504  0.0200
  829SOL    HW113166   3.704   4.866   4.386  0.1861  1.0210  0.3941
  829SOL    HW213167   3.712   4.805   4.537  0.3523  2.7645  1.1030
  830SOL     OW13168   7.018   9.321   2.839  0.5038 -0.0543  0.3450
  830SOL    HW113169   7.080   9.301   2.763  1.6654  0.2705  1.1887
  830SOL    HW213170   7.012   9.242   2.900  1.3049  0.4527  1.0900
  831SOL     OW13171   0.343   8.976   0.754 -0.4924 -0.3594  0.0831
  831SOL    HW113172   0.319   8.881   0.734  1.8240 -0.8011 -0.7951
  831SOL    HW213173   0.431   8.997   0.711 -0.9293  2.1538  0.3662
  832SOL     OW13174   0.182   0.004   0.180  0.2531  0.1667  0.3606
  832SOL    HW113175   0.221   0.047   0.261  0.7864 -0.1789  0.2910
  832SOL    HW213176   0.221   0.046   0.098  1.1555 -0.7666  0.2917
  833SOL     OW13177   9.583   6.310   2.671 -0.7596 -0.4508 -0.5928
  833SOL    HW113178   9.598   6.368   2.591 -1.3768  0.2489 -0.2092
  833SOL    HW213179   9.553   6.219   2.642 -2.4365  0.2670 -1.0947
  834SOL     OW13180   6.792   0.090   4.333  0.1186  0.3963  0.2309
  834SOL    HW113181   6.761   0.009   4.382  0.0302 -1.2157 -2.4335
  834SOL    HW213182   6.891   0.086   4.322  0.0628  0.4208 -0.2889
  835SOL     OW13183   9.049   9.642   1.453 -0.0245  0.1746 -0.0593
  835SOL    HW113184   9.105   9.616   1.532 -0.4758  0.1357  0.2449
  835SOL    HW213185   8.953   9.621   1.471  0.1224 -1.9265 -1.4568
  836SOL     OW13186   4.852   3.104   0.963  0.0051 -0.2901  0.2278
  836SOL    HW113187   4.874   3.008   0.980  1.8827  0.0107 -0.3323
  836SOL    HW213188   4.935   3.159   0.972 -0.9365  1.2097 -0.0295
  837SOL     OW13189   3.722   6.421   2.876  0.2951 -0.2885  0.3370
  837SOL    HW113190   3.793   6.484   2.847  1.5395 -1.5599  0.5938
  837SOL    HW213191   3.737   6.331   2.834 -0.6000 -0.8265  1.1463
  838SOL     OW13192   1.755   5.844   4.514 -1.0639 -0.0023  0.2009
  838SOL    HW113193   1.690   5.773   4.539  0.5349 -1.7139 -0.3610
  838SOL    HW213194   1.848   5.805   4.512 -0.2439  1.9306 -0.7707
  839SOL     OW13195   3.767   2.850   1.935 -0.1773  0.0715 -0.4186
  839SOL    HW113196   3.829   2.893   1.870  0.3430 -1.0770 -0.7059
  839SOL    HW213197   3.713   2.780   1.888 -1.4599  0.8353 -0.1025
  840SOL     OW13198   1.505   8.085   3.461  0.2470 -0.1082  0.2385
  840SOL    HW113199   1.556   8.109   3.544  1.7352  0.8809 -0.9262
  840SOL    HW213200   1.429   8.025   3.484  1.8462 -1.4925  2.0707
  841SOL     OW13201   4.523   0.804   3.831  0.7107  0.0382 -0.1236
  841SOL    HW113202   4.510   0.736   3.903 -0.4521  0.1824 -0.1934
  841SOL    HW213203   4.448   0.871   3.833  0.6925  0.0815 -1.4247
  842SOL     OW13204   2.171   5.736   3.189 -0.0486  0.6419 -0.0378
  842SOL    HW113205   2.238   5.661   3.183 -0.4800  0.2498  0.0082
  842SOL    HW213206   2.201   5.802   3.257  0.3040  0.4718 -0.0283
  843SOL     OW13207   8.080   9.425   0.273  0.7801  0.0466 -0.6380
  843SOL    HW113208   8.031   9.449   0.189 -0.2170 -0.1111 -0.1107
  843SOL    HW213209   8.128   9.338   0.260 -2.0104 -1.6585 -0.0298
  844SOL     OW13210   3.865   8.432   3.951  0.0170  0.4521  0.1639
  844SOL    HW113211   3.947   8.464   3.999 -0.6600  1.4886  0.6367
  844SOL    HW213212   3.886   8.347   3.902  0.9861 -0.0674  1.4684
  845SOL     OW13213   3.235   0.627   1.899 -0.1576 -0.3719 -0.4078
  845SOL    HW113214   3.239   0.726   1.888 -1.9002 -0.1853  0.5416
  845SOL    HW213215   3.152   0.591   1.856 -0.5949 -1.1511  1.0500
  846SOL     OW13216   2.387   4.003   3.220 -0.0109 -0.1453 -0.3130
  846SOL    HW113217   2.418   3.973   3.310  0.9326 -0.9452 -0.8963
  846SOL    HW213218   2.423   3.942   3.150 -0.0887  0.9202 -1.3025
  847SOL     OW13219   2.048   3.177   1.913 -0.2704  0.0864 -0.8220
  847SOL    HW113220   1.991   3.233   1.973  1.0743 -1.0791  1.6277
  847SOL    HW213221   1.991   3.134   1.844 -2.1052  0.3195  0.5085
  848SOL     OW13222   8.491   5.482   3.174 -0.0816  0.0331 -0.2492
  848SOL    HW113223   8.406   5.428   3.179 -1.5334  2.1926 -0.9005
  848SOL    HW213224   8.524   5.500   3.266 -0.0416 -1.2547 -0.0025
  849SOL     OW13225   8.956   3.662   1.773 -0.0549  0.3380 -0.5608
  849SOL    HW113226   8.856   3.663   1.774 -0.0518  1.7666  0.0002
  849SOL    HW213227   8.988   3.567   1.769 -1.4244 -0.1302 -0.8912
  850SOL     OW13228   9.931   0.018   0.451  0.1821  0.0152 -0.0473
  850SOL    HW113229   9.981  -0.026   0.525  1.4493  0.8499 -0.3664
  850SOL    HW213230   9.922  -0.045   0.374 -1.8083 -1.1066  1.0763
  851SOL     OW13231   3.661   3.135   1.099 -0.3051 -0.3082 -0.1650
  851SOL    HW113232   3.628   3.217   1.052  2.9483  1.9854  1.3593
  851SOL    HW213233   3.744   3.102   1.053  0.8433 -0.1760  1.7618
  852SOL     OW13234   3.347   7.771   0.382  0.1401  0.6712  0.6939
  852SOL    HW113235   3.428   7.720   0.353 -0.3057  0.3210  0.0622
  852SOL    HW213236   3.339   7.853   0.326 -0.4677  0.2290  0.1361
  853SOL     OW13237   1.462   5.369   4.376 -0.2871 -0.4274  0.9381
  853SOL    HW113238   1.543   5.425   4.360 -1.4971  1.0538 -0.1091
  853SOL    HW213239   1.461   5.293   4.311 -0.3768  0.2704  0.1217
  854SOL     OW13240   3.433   3.922   0.130 -0.0168 -0.2497 -0.3096
  854SOL    HW113241   3.448   3.934   0.229  0.0042 -0.7481 -0.2478
  854SOL    HW213242   3.521   3.905   0.086  0.0134  0.2982 -0.4641
  855SOL     OW13243   9.741   4.988   2.236  0.3022  0.0221 -0.5189
  855SOL    HW113244   9.686   5.011   2.317  1.1712  1.2223 -0.2471
  855SOL    HW213245   9.804   5.063   2.217  0.5607 -0.5395 -1.9326
  856SOL     OW13246   5.637   8.569   3.607 -0.4431 -0.4267  0.4057
  856SOL    HW113247   5.651   8.653   3.555  0.2323 -0.1088  1.0888
  856SOL    HW213248   5.539   8.553   3.619 -0.5683  1.2691  1.8545
  857SOL     OW13249   9.503   3.572   4.443 -0.4726 -0.3776 -0.1618
  857SOL    HW113250   9.566   3.648   4.459 -0.2219 -0.7072  0.4464
  857SOL    HW213251   9.409   3.603   4.455 -0.2669 -0.8003  2.7968
  858SOL     OW13252   0.159   8.516   2.174  0.0154  0.9115  0.0797
  858SOL    HW113253   0.111   8.602   2.162  3.0175  2.3482 -2.3095
  858SOL    HW213254   0.153   8.462   2.090 -0.0463 -0.2498  0.8218
  859SOL     OW13255   0.724   5.271   2.672  0.6069 -0.0200 -0.1361
  859SOL    HW113256   0.799   5.325   2.634  0.0161  0.6266 -0.3995
  859SOL    HW213257   0.682   5.322   2.747 -0.6090  0.3342 -1.0525
  860SOL     OW13258   7.618   9.213   3.373  0.2643  0.1469  0.4761
  860SOL    HW113259   7.529   9.181   3.341  0.0198 -0.2759  1.5640
  860SOL    HW213260   7.607   9.300   3.422  0.1873 -0.8314  2.2214
  861SOL     OW13261   9.959   4.113   4.063  0.0800 -0.7071 -0.0255
  861SOL    HW113262   9.957   4.105   4.163  1.8379  0.3095  0.1116
  861SOL    HW213263   9.910   4.196   4.036  2.0192  0.5440  0.2127
  862SOL     OW13264   2.850   5.744   2.270  0.1896  0.6266 -0.1162
  862SOL    HW113265   2.798   5.775   2.350  0.2642 -0.2031  0.2529
  862SOL    HW213266   2.812   5.658   2.237  0.5566  0.6506 -0.6011
  863SOL     OW13267   9.524   6.230   0.107  0.3531 -0.5688 -0.3975
  863SOL    HW113268   9.562   6.216   0.198  0.8534 -0.9898 -0.6656
  863SOL    HW213269   9.549   6.320   0.073  0.6590 -0.6409 -0.3592
  864SOL     OW13270   9.203   9.998   4.255  0.0531  0.1383 -0.1549
  864SOL    HW113271   9.127   9.979   4.316 -1.6839  3.3305 -1.2132
  864SOL    HW213272   9.195   9.942   4.172 -1.7105  1.1000 -0.6673
  865SOL     OW13273   3.149   9.541   2.242 -0.1743 -0.2165 -0.1354
  865SOL    HW113274   3.101   9.499   2.319  1.6582  0.9335  1.7109
  865SOL    HW213275   3.243   9.507   2.239  0.9978  2.8182  0.6949
  866SOL     OW13276   0.518   4.356   3.787  0.1871  0.2980  0.7430
  866SOL    HW113277   0.449   4.378   3.719  0.6385 -0.4099  0.0522
  866SOL    HW213278   0.609   4.370   3.748  0.4570 -0.9120  0.9218
  867SOL     OW13279   4.423   0.425   3.641 -0.0549 -0.2443  0.4889
  867SOL    HW113280   4.395   0.373   3.722 -2.5867  1.8602  1.0383
  867SOL    HW213281   4.384   0.383   3.559  0.1446 -0.7431  0.6481
  868SOL     OW13282   8.979   9.945   4.428  0.1278  0.5128  0.0235
  868SOL    HW113283   8.893   9.949   4.377 -0.1774  2.5289  0.6355
  868SOL    HW213284   8.993   9.853   4.464 -1.2458 -0.0992 -0.9657
  869SOL     OW13285   0.034   8.347   1.986 -0.5766 -0.3376 -0.1052
  869SOL    HW113286   0.006   8.305   2.072  0.8669 -0.9095  0.1050
  869SOL    HW213287   0.056   8.275   1.920 -1.6624  0.0937 -0.9670
  870SOL     OW13288   3.588   7.981   4.368 -0.0306 -0.6291  0.1288
  870SOL    HW113289   3.686   7.985   4.346  0.3947 -0.3916  1.9615
  870SOL    HW213290   3.553   8.073   4.381  0.0704 -0.7932  1.7578
  871SOL     OW13291   2.507   2.116   2.222  0.4897  0.1418  0.1826
  871SOL    HW113292   2.470   2.083   2.309  4.1736 -0.1101  1.7514
  871SOL    HW213293   2.529   2.038   2.164  0.0976  0.2302 -0.0857
  872SOL     OW13294   4.725   9.061   3.554  0.0001  0.1183 -0.1435
  872SOL    HW113295   4.767   8.976   3.586  1.9284  1.3021  0.5206
  872SOL    HW213296   4.656   9.091   3.621 -0.4252 -0.7089 -0.2031
  873SOL     OW13297   1.427   7.247   2.853  0.6583 -0.0792  0.2140
  873SOL    HW113298   1.458   7.152   2.843 -1.0730 -0.4574 -2.0195
  873SOL    HW213299   1.383   7.276   2.769  0.7201  2.5755  1.0641
  874SOL     OW13300   8.500   0.741   4.137 -0.7104  0.3665 -0.2057
  874SOL    HW113301   8.456   0.815   4.086  0.0170  0.2917 -0.9449
  874SOL    HW213302   8.599   0.743   4.121 -0.5728 -0.1620  0.5493
  875SOL     OW13303   1.288   7.968   1.274  0.3124 -1.3175 -1.2137
  875SOL    HW113304   1.371   7.917   1.252  0.5969 -1.4522  0.1457
  875SOL    HW213305   1.216   7.945   1.208  1.2382 -1.4665 -2.1793
  876SOL     OW13306   2.249   7.455   2.898 -0.0130  0.1014 -0.1237
  876SOL    HW113307   2.220   7.384   2.834  0.2931  1.0156 -1.2803
  876SOL    HW213308   2.340   7.432   2.934 -0.1724 -0.3906 -0.0315
  877SOL     OW13309   2.979   0.767   4.691 -0.3268  0.1317  0.3749
  877SOL    HW113310   3.060   0.820   4.714  0.1352 -1.5209  2.7473
  877SOL    HW213311   2.990   0.726   4.600  1.5271 -0.1512  0.7224
  878SOL     OW13312   9.949   9.085   0.798  0.1574  0.3151  0.2953
  878SOL    HW113313   9.981   8.991   0.814 -1.0539 -0.1459  0.0725
  878SOL    HW213314  10.019   9.149   0.828  1.2733 -0.6703 -0.1399
  879SOL     OW13315   3.245   1.783   4.460 -0.3770  0.0483 -0.3356
  879SOL    HW113316   3.340   1.801   4.434 -0.7404 -0.2911 -1.9492
  879SOL    HW213317   3.237   1.691   4.498  0.1082  0.4373  0.7230
  880SOL     OW13318   6.858   8.815   2.508  0.4418  0.1000  0.3639
  880SOL    HW113319   6.841   8.721   2.540 -0.8573  0.6604  1.3240
  880SOL    HW213320   6.806   8.879   2.563  0.8575  1.3605 -0.6919
  881SOL     OW13321   2.812   8.874   2.294  0.1206 -0.1928  0.2512
  881SOL    HW113322   2.719   8.910   2.307  0.6065  0.7914  1.0418
  881SOL    HW213323   2.872   8.910   2.366  1.4474  0.3136 -1.0856
  882SOL     OW13324   3.593   2.800   2.329 -0.1916  0.1420  0.2726
  882SOL    HW113325   3.618   2.772   2.422  3.9687 -1.0279 -1.0708
  882SOL    HW213326   3.667   2.855   2.290 -0.9863 -0.9826 -2.9935
  883SOL     OW13327   0.659   6.011   0.543 -0.5475  0.0111  0.7536
  883SOL    HW113328   0.579   6.019   0.603 -0.0053 -0.7815  1.6077
  883SOL    HW213329   0.738   6.050   0.589 -0.4832  0.9542 -0.1657
  884SOL     OW13330   7.732   9.548   2.516  0.8872 -0.0343 -0.5386
  884SOL    HW113331   7.700   9.601   2.594 -1.1850 -1.6239 -0.2605
  884SOL    HW213332   7.757   9.456   2.546  1.1884 -0.2966 -1.5616
  885SOL     OW13333   4.885   1.868   1.159  0.3688 -0.4577 -0.9201
  885SOL    HW113334   4.908   1.965   1.151 -0.9912  0.0777  1.0901
  885SOL    HW213335   4.822   1.843   1.085 -0.6050  0.6512 -0.5015
  886SOL     OW13336   1.347   7.172   3.922 -0.0257  0.4478  0.0513
  886SOL    HW113337   1.390   7.243   3.978  1.6180 -0.3020 -0.2406
  886SOL    HW213338   1.343   7.087   3.974  0.9783 -0.1004 -0.7508
  887SOL     OW13339   9.223   7.900   2.694  0.0905  0.2392  0.5716
  887SOL    HW113340   9.253   7.984   2.649  0.8270  0.0487  0.6918
  887SOL    HW213341   9.287   7.826   2.673  0.6726  0.2450  2.2214
  888SOL     OW13342   4.229   8.516   0.185 -0.0629  0.9397 -0.0785
  888SOL    HW113343   4.247   8.607   0.148 -2.6627  0.7900 -1.8851
  888SOL    HW213344   4.135   8.512   0.219  1.0774 -0.1026  3.1179
  889SOL     OW13345   1.517   7.792   2.436 -0.1965  0.9390 -0.4970
  889SOL    HW113346   1.435   7.833   2.476 -0.7205  2.4109 -2.9906
  889SOL    HW213347   1.592   7.857   2.439  0.1637  0.5311 -0.6160
  890SOL     OW13348   5.022   9.531   1.224  0.0582  0.8140 -0.6186
  890SOL    HW113349   4.994   9.436   1.235  0.7567  0.6727 -0.0410
  890SOL    HW213350   5.122   9.537   1.220  0.0968  1.6929  1.0735
  891SOL     OW13351   5.048   8.844   2.318 -0.0055  0.1192 -0.2560
  891SOL    HW113352   5.095   8.791   2.389 -0.7064 -0.2913 -0.0937
  891SOL    HW213353   5.114   8.903   2.272  0.3065  0.9654  1.2449
  892SOL     OW13354   1.663   5.567   1.783 -0.3053  0.0181 -0.3676
  892SOL    HW113355   1.605   5.581   1.703  0.2743  2.2277 -0.4369
  892SOL    HW213356   1.756   5.599   1.763 -0.4184  1.6544  1.5313
  893SOL     OW13357   0.142   3.848   4.619  0.2030  0.3545  0.1166
  893SOL    HW113358   0.203   3.774   4.647  0.4184  0.7379  0.6767
  893SOL    HW213359   0.178   3.893   4.538 -0.9257 -1.4000 -1.4069
  894SOL     OW13360   9.859   1.278   1.867 -0.6204 -0.3728 -0.5199
  894SOL    HW113361   9.761   1.291   1.850 -0.5113  1.0009 -0.1927
  894SOL    HW213362   9.894   1.205   1.809 -2.3884 -2.7112  1.2469
  895SOL     OW13363   8.678   2.461   1.935  0.6435  0.3193  0.8934
  895SOL    HW113364   8.696   2.427   2.027  1.6797  1.2208  1.0401
  895SOL    HW213365   8.763   2.497   1.896  0.0308  0.7196 -0.0914
  896SOL     OW13366   7.248   8.716   3.795  0.1006 -0.3478 -0.3346
  896SOL    HW113367   7.181   8.733   3.723 -0.3097  1.3425  0.4246
  896SOL    HW213368   7.235   8.781   3.870  3.1240  0.6000 -0.5448
  897SOL     OW13369   4.458   8.819   4.350 -0.2614  0.0939 -0.0861
  897SOL    HW113370   4.421   8.880   4.280 -1.6969 -0.0081  0.5621
  897SOL    HW213371   4.437   8.855   4.441  2.9174  1.0153  0.3309
  898SOL     OW13372   9.927   2.013   3.471 -0.0155 -0.2067 -0.0778
  898SOL    HW113373   9.953   1.982   3.563  0.6842  0.7404  0.0427
  898SOL    HW213374   9.936   2.112   3.465  0.4013 -0.3079 -1.3120
  899SOL     OW13375   3.120   5.817   4.166 -0.6640  0.1787 -0.0681
  899SOL    HW113376   3.123   5.797   4.068  2.0875 -0.2126  0.0587
  899SOL    HW213377   3.110   5.732   4.217 -0.0919  0.1926  0.0664
  900SOL     OW13378   8.948   8.245   4.535 -0.3530  0.1052  0.2675
  900SOL    HW113379   8.960   8.148   4.511 -0.9785  0.4741 -1.6469
  900SOL    HW213380   8.854   8.260   4.568 -1.2624  0.5806 -2.3757
  901SOL     OW13381   3.028   3.949   4.735 -0.5034  0.3758 -0.2072
  901SOL    HW113382   3.053   3.929   4.830 -1.2938  0.9730  0.1305
  901SOL    HW213383   2.982   3.870   4.695 -1.0370  0.4662  0.2193
  902SOL     OW13384   2.275   6.828   1.351  0.1182  0.4279  1.0363
  902SOL    HW113385   2.223   6.793   1.273  0.7106 -0.3835  0.9911
  902SOL    HW213386   2.346   6.891   1.318  1.8486 -1.6352  0.6451
  903SOL     OW13387   2.229   0.217   4.333 -0.4236  0.3379 -0.1193
  903SOL    HW113388   2.199   0.299   4.382 -0.4692  0.5117 -0.4382
  903SOL    HW213389   2.193   0.218   4.240  1.3240  1.0187 -0.8062
  904SOL     OW13390   5.941   7.877   1.854  0.1925 -0.0392 -0.0381
  904SOL    HW113391   5.968   7.881   1.757 -0.6491 -1.3627 -0.3434
  904SOL    HW213392   5.967   7.962   1.899  1.1879  0.3341 -1.2779
  905SOL     OW13393   5.173   7.986   0.516  0.1141  0.0192 -0.2057
  905SOL    HW113394   5.125   7.900   0.503  0.5023 -0.3306  0.5803
  905SOL    HW213395   5.141   8.054   0.450  0.9845 -1.2172 -1.9307
  906SOL     OW13396   9.601   2.175   4.007  0.1215  0.1930  0.3254
  906SOL    HW113397   9.622   2.252   4.067 -0.7621  1.3262 -0.7865
  906SOL    HW213398   9.504   2.177   3.984  0.8533  1.1524 -2.9757
  907SOL     OW13399   1.730   8.201   4.728  0.3231  0.1027 -0.3717
  907SOL    HW113400   1.806   8.139   4.749 -0.9468 -0.8496  1.5744
  907SOL    HW213401   1.659   8.193   4.799  0.2197  3.9669  0.0983
  908SOL     OW13402   7.975   2.237   2.798  0.2241  0.7268 -0.1219
  908SOL    HW113403   7.918   2.228   2.716  0.3688  1.4214 -0.3005
  908SOL    HW213404   8.059   2.185   2.786 -0.0038  0.3759 -0.1931
  909SOL     OW13405   1.198   7.214   3.685  0.4423  0.3681  0.2639
  909SOL    HW113406   1.098   7.218   3.685  0.4801  1.5818  0.3859
  909SOL    HW213407   1.229   7.146   3.751 -0.2677  1.1406  1.4144
  910SOL     OW13408   2.813   6.937   0.733  0.4023  0.6607 -0.0175
  910SOL    HW113409   2.796   6.897   0.642  1.4432  0.1426  0.0061
  910SOL    HW213410   2.832   6.864   0.798  1.0514  1.1133  0.3054
  911SOL     OW13411   8.799   0.175   3.142 -0.3502  0.0035 -0.3704
  911SOL    HW113412   8.857   0.173   3.060  2.4838  0.4323  1.5354
  911SOL    HW213413   8.852   0.141   3.220 -2.1182  2.1005  1.8049
  912SOL     OW13414   9.161   8.551   0.447 -0.6128  0.0525 -0.2663
  912SOL    HW113415   9.125   8.642   0.467  0.7680  0.2835  1.2913
  912SOL    HW213416   9.155   8.494   0.529  0.6720 -0.5269 -0.5560
  913SOL     OW13417   9.918   9.295   4.141 -0.1023  0.6188  0.2076
  913SOL    HW113418  10.009   9.314   4.178 -0.1196  0.8042  0.1517
  913SOL    HW213419   9.862   9.253   4.213 -0.1437  1.0035  0.3982
  914SOL     OW13420   5.255   0.231   1.306 -0.2305  0.0230 -0.1751
  914SOL    HW113421   5.167   0.264   1.270 -1.0534 -0.2428  1.5476
  914SOL    HW213422   5.288   0.156   1.249 -0.8338  0.5081 -1.1774
  915SOL     OW13423   8.596   9.151   1.387 -0.6892 -0.1070  0.0161
  915SOL    HW113424   8.597   9.240   1.342 -0.8970  0.4322  1.0630
  915SOL    HW213425   8.520   9.148   1.452 -0.0873 -0.6926  0.6935
  916SOL     OW13426   0.323   3.756   3.114 -0.2189 -0.2183  0.2924
  916SOL    HW113427   0.408   3.707   3.133  0.7160  2.2046  2.6366
  916SOL    HW213428   0.341   3.855   3.114 -2.6640  0.2601 -1.1385
  917SOL     OW13429   6.115   8.803   2.965 -0.4006  0.3676 -0.0794
  917SOL    HW113430   6.092   8.726   3.024 -3.4034  1.0819 -0.2237
  917SOL    HW213431   6.097   8.777   2.869  0.8567  0.4670 -0.3483
  918SOL     OW13432   1.018   7.720   0.665 -0.0470 -0.4316 -0.2917
  918SOL    HW113433   1.003   7.817   0.646 -0.6966 -0.5483 -0.3826
  918SOL    HW213434   1.083   7.682   0.599  1.3692  0.2961  0.6668
  919SOL     OW13435   3.696   1.326   0.515  0.1601 -0.7139  0.2556
  919SOL    HW113436   3.609   1.280   0.531 -0.1272 -0.9424 -1.8707
  919SOL    HW213437   3.713   1.392   0.588 -3.0116  1.1813 -0.6514
  920SOL     OW13438   9.512   5.801   3.220 -0.5328 -0.0958  0.3936
  920SOL    HW113439   9.569   5.760   3.149 -0.3274 -0.2408  0.6393
  920SOL    HW213440   9.563   5.873   3.267 -1.0825  0.8350 -0.4101
  921SOL     OW13441   4.650   3.020   3.280  0.3122  0.4730  0.0055
  921SOL    HW113442   4.568   3.044   3.227  0.1075 -1.1900 -0.4658
  921SOL    HW213443   4.721   2.987   3.218  0.2242 -1.0823  0.7099
  922SOL     OW13444   1.022   1.953   1.659 -0.6873  0.2676  0.2001
  922SOL    HW113445   0.981   1.902   1.583 -0.8525  0.7451 -0.0385
  922SOL    HW213446   0.974   2.040   1.669 -0.7770  0.1272  0.9682
  923SOL     OW13447   2.917   1.053   1.395 -0.0860 -0.3009  0.7548
  923SOL    HW113448   2.859   1.080   1.319 -0.8623 -1.7359  0.8335
  923SOL    HW213449   2.938   0.955   1.389  0.8325 -0.1743  1.7179
  924SOL     OW13450   6.361   8.589   3.180 -0.0602 -0.0457 -0.0296
  924SOL    HW113451   6.312   8.641   3.110 -0.0904  0.1823  0.1585
  924SOL    HW213452   6.354   8.491   3.161  1.0939  0.0662 -1.1240
  925SOL     OW13453   8.189   9.051   3.209  0.4735 -0.1487  0.5930
  925SOL    HW113454   8.154   8.974   3.156 -1.3904  1.2553 -0.2859
  925SOL    HW213455   8.112   9.106   3.242  1.7138  0.4783  2.5259
  926SOL     OW13456   0.993   2.590   1.140  0.2992 -0.5709 -0.2182
  926SOL    HW113457   0.996   2.687   1.114 -0.9940 -0.3451  0.4457
  926SOL    HW213458   1.031   2.579   1.231 -0.4180 -0.5541  0.0835
  927SOL     OW13459   4.174   9.664   3.034 -0.4939 -0.0746  0.0750
  927SOL    HW113460   4.137   9.573   3.020  0.4353 -0.2768 -1.0852
  927SOL    HW213461   4.115   9.731   2.989 -0.2849 -0.2548 -0.4691
  928SOL     OW13462   9.982   9.704   4.724  0.1361 -0.2667  0.1636
  928SOL    HW113463   9.915   9.779   4.730 -2.5424 -2.3913 -2.2258
  928SOL    HW213464   9.994   9.677   4.629  3.2473 -1.0277  0.7209
  929SOL     OW13465   6.059   8.540   3.056 -1.1851 -0.0029 -0.2761
  929SOL    HW113466   6.086   8.462   3.113 -1.3658 -0.7498 -1.2164
  929SOL    HW213467   5.967   8.570   3.081 -1.5281 -0.7555 -0.6306
  930SOL     OW13468   4.984   3.804   1.022 -0.2757  0.6972 -0.2115
  930SOL    HW113469   4.951   3.736   0.957  1.1635  1.4854 -1.8398
  930SOL    HW213470   4.920   3.881   1.026 -0.8523  0.2051  0.0482
  931SOL     OW13471   2.328   8.675   0.178  0.3838 -0.4508  0.2563
  931SOL    HW113472   2.281   8.587   0.182  0.8302 -0.8453 -2.1059
  931SOL    HW213473   2.276   8.744   0.228  0.6927 -2.3323  3.2472
  932SOL     OW13474   1.729   2.915   2.363 -0.2844 -0.5618 -0.0159
  932SOL    HW113475   1.630   2.914   2.378 -0.4571 -0.6762 -1.0775
  932SOL    HW213476   1.767   2.826   2.389 -0.4965 -0.5795  0.2305
  933SOL     OW13477   0.876   2.359   2.245  0.2801 -0.0300  0.5978
  933SOL    HW113478   0.930   2.317   2.318 -0.0715  0.5588  1.2006
  933SOL    HW213479   0.802   2.414   2.285  0.4214  0.7480 -0.1851
  934SOL     OW13480   0.214   7.882   0.032  0.0418 -0.2745  0.0646
  934SOL    HW113481   0.208   7.843   0.124  2.9419  1.6388  1.1337
  934SOL    HW213482   0.168   7.971   0.030 -0.5986 -0.6151 -0.5182
  935SOL     OW13483   8.371   9.303   2.448 -0.1013 -0.8526  0.2131
  935SOL    HW113484   8.297   9.253   2.495  1.2088 -4.3127 -1.2697
  935SOL    HW213485   8.354   9.304   2.350  1.4673 -1.0747 -0.0770
  936SOL     OW13486   2.990   6.287   2.800  0.3377  0.3142  0.2392
  936SOL    HW113487   2.898   6.276   2.761  0.8166 -0.2999 -0.7212
  936SOL    HW213488   2.983   6.285   2.900 -0.2877 -3.3004  0.1681
  937SOL     OW13489   9.267   2.850   0.934  0.2312  0.0307  0.2510
  937SOL    HW113490   9.357   2.849   0.977  0.6630  1.1690 -0.6028
  937SOL    HW213491   9.272   2.899   0.847 -1.4577  1.1027  0.7188
  938SOL     OW13492   2.630   6.172   0.103  0.0354  0.6923 -0.1249
  938SOL    HW113493   2.562   6.245   0.109 -2.0075 -1.2100  0.4698
  938SOL    HW213494   2.720   6.209   0.125 -1.2753  2.6038  2.3033
  939SOL     OW13495   9.546   7.209   0.038 -0.0671  0.4352  0.2601
  939SOL    HW113496   9.635   7.169   0.058  0.2005  0.8334 -0.1405
  939SOL    HW213497   9.556   7.306   0.016 -0.8900  1.1393  2.7875
  940SOL     OW13498   9.599   2.912   3.215  0.1919  0.4812  0.0302
  940SOL    HW113499   9.505   2.900   3.181  0.2834  0.1501 -0.1074
  940SOL    HW213500   9.596   2.949   3.308 -0.0928 -0.3782  0.3650
  941SOL     OW13501   9.309   3.086   1.835 -0.2561 -0.5292 -0.8850
  941SOL    HW113502   9.374   3.097   1.910 -0.7178 -1.7224 -0.2933
  941SOL    HW213503   9.354   3.038   1.759  0.2728  0.8698 -1.4583
  942SOL     OW13504   3.381   7.197   1.963 -0.6240 -0.4953  0.1197
  942SOL    HW113505   3.286   7.224   1.947 -0.4635  0.4532  0.7095
  942SOL    HW213506   3.411   7.135   1.890 -1.1909  0.4481 -0.9258
  943SOL     OW13507   0.250   2.595   4.617 -0.3295 -0.5508 -0.2240
  943SOL    HW113508   0.230   2.511   4.567  0.6498 -1.0830  0.2625
  943SOL    HW213509   0.326   2.643   4.574 -0.9915  0.1605 -0.5910
  944SOL     OW13510   8.180   5.026   1.425 -0.5463  0.3772 -0.0038
  944SOL    HW113511   8.161   5.124   1.430  0.1772  0.4427  1.6240
  944SOL    HW213512   8.170   4.985   1.515  1.0455 -0.6820 -0.2796
  945SOL     OW13513   7.268   4.576   4.440 -0.3116 -0.0251  0.2971
  945SOL    HW113514   7.270   4.536   4.532 -1.5041  1.2012  0.8888
  945SOL    HW213515   7.359   4.573   4.400  0.2898 -0.2878  1.6502
  946SOL     OW13516   7.904   2.365   1.562 -0.5994 -1.1242 -0.0282
  946SOL    HW113517   7.884   2.271   1.532 -0.8817 -1.5491  1.4646
  946SOL    HW213518   7.957   2.363   1.646 -1.3425  0.0622  0.4825
  947SOL     OW13519   9.894   4.116   3.127 -1.0380 -0.0673  0.6293
  947SOL    HW113520   9.916   4.178   3.203 -0.4547 -0.3890  0.7191
  947SOL    HW213521   9.917   4.161   3.041 -2.0280  0.4387  0.6128
  948SOL     OW13522   1.639   7.423   2.825 -0.3302 -0.2234  0.6550
  948SOL    HW113523   1.547   7.389   2.842  0.6030 -2.7057  0.9730
  948SOL    HW213524   1.645   7.458   2.731 -0.8242 -2.8232 -0.3882
  949SOL     OW13525   3.498   8.115   1.597 -0.6421  0.1140 -0.1645
  949SOL    HW113526   3.556   8.187   1.635  1.0783 -1.0938 -0.4810
  949SOL    HW213527   3.461   8.145   1.509  1.1169  0.1114 -0.9174
  950SOL     OW13528   0.951   4.237   3.065  0.0692 -0.3022 -0.7463
  950SOL    HW113529   0.980   4.333   3.057 -1.6279  0.3223  0.2894
  950SOL    HW213530   1.011   4.180   3.009  0.8129  1.4170 -1.7751
  951SOL     OW13531   3.099   6.346   4.230  0.0716  0.0595  1.2651
  951SOL    HW113532   3.084   6.334   4.328 -1.0869 -1.6234  0.8955
  951SOL    HW213533   3.132   6.261   4.190 -0.6495  0.3677 -0.0232
  952SOL     OW13534   1.672   9.959   2.850 -0.2388  0.2485  0.3057
  952SOL    HW113535   1.613  10.039   2.842 -1.6849 -0.5370  2.7672
  952SOL    HW213536   1.641   9.902   2.926  0.9804 -2.4743 -1.1806
  953SOL     OW13537   8.827   5.450   2.564 -0.4330 -0.5308 -0.1187
  953SOL    HW113538   8.818   5.385   2.489  0.7540  0.7723 -1.4360
  953SOL    HW213539   8.742   5.453   2.617 -0.5420 -3.0155 -0.1133
  954SOL     OW13540   7.830   4.808   0.824  0.2636 -0.2675  0.4492
  954SOL    HW113541   7.861   4.839   0.914 -0.2166  0.0248  0.5134
  954SOL    HW213542   7.910   4.785   0.768  0.7284  2.2562 -0.0165
  955SOL     OW13543   1.464   3.045   3.431  0.5823  0.4120 -0.4930
  955SOL    HW113544   1.544   3.067   3.374  1.4710 -1.9688 -0.2567
  955SOL    HW213545   1.488   3.056   3.527  0.1627  1.1072 -0.4694
  956SOL     OW13546   3.005   0.601   1.775 -0.3076 -0.1249  0.2089
  956SOL    HW113547   2.943   0.679   1.774  0.8098  0.7724 -1.4144
  956SOL    HW213548   3.027   0.574   1.681  1.6107 -0.5286  0.7362
  957SOL     OW13549   1.358   6.048   1.723  0.4503  0.0308 -0.4811
  957SOL    HW113550   1.352   6.104   1.805 -0.8698 -1.2548  0.3061
  957SOL    HW213551   1.454   6.025   1.705  0.6776 -0.2624  1.0903
  958SOL     OW13552   3.113   9.900   1.073  0.3069 -0.1243  0.1972
  958SOL    HW113553   3.036   9.848   1.036  0.6322 -0.8466  0.5334
  958SOL    HW213554   3.139   9.971   1.007 -0.0820 -0.4392 -0.3019
  959SOL     OW13555   1.570   7.907   0.812  0.4480 -0.0735 -0.2153
  959SOL    HW113556   1.517   7.854   0.878  2.0367 -0.9716  0.3662
  959SOL    HW213557   1.634   7.846   0.764 -0.0951  0.7200 -1.9775
  960SOL     OW13558   7.026   9.547   0.527  0.1791  0.1846 -0.3172
  960SOL    HW113559   7.049   9.490   0.449 -1.3850  1.0872 -1.4475
  960SOL    HW213560   7.078   9.632   0.522  1.1997 -0.3763  0.4438
  961SOL     OW13561   2.808   8.949   1.664 -0.4031 -0.3355 -0.3729
  961SOL    HW113562   2.785   8.976   1.570 -1.6799  0.4919  0.1759
  961SOL    HW213563   2.746   8.877   1.694 -0.4797 -0.0738  0.0999
  962SOL     OW13564   8.256   4.633   0.591 -0.2004  0.6052  0.4156
  962SOL    HW113565   8.309   4.572   0.649 -0.8413 -0.4308 -0.0904
  962SOL    HW213566   8.274   4.613   0.495 -2.0541 -0.2336  0.2374
  963SOL     OW13567   0.335   1.525   0.454 -0.2552 -0.3282  0.0006
  963SOL    HW113568   0.358   1.505   0.358 -2.6185  1.4976 -1.0152
  963SOL    HW213569   0.270   1.457   0.488 -0.9625  0.1435 -0.3774
  964SOL     OW13570   9.611   6.569   0.884 -0.7279  0.0789 -0.2200
  964SOL    HW113571   9.652   6.479   0.873 -1.0044 -0.1437  0.5490
  964SOL    HW213572   9.684   6.638   0.891 -0.4731 -0.2914  0.9529
  965SOL     OW13573   0.369   0.547   0.698 -0.1560 -0.3625  0.2633
  965SOL    HW113574   0.296   0.527   0.763 -1.1413 -0.1501 -0.7664
  965SOL    HW213575   0.377   0.646   0.686  0.2306 -0.3881  0.2798
  966SOL     OW13576   9.489   6.703   1.107  0.3605  0.2505  0.3606
  966SOL    HW113577   9.492   6.687   1.008  0.3523 -1.5644  0.6422
  966SOL    HW213578   9.395   6.699   1.139  0.3853  0.6324  0.4855
  967SOL     OW13579   0.840   0.612   3.335  0.2458  0.6222 -0.1199
  967SOL    HW113580   0.746   0.595   3.363  0.5084 -0.5067  0.1017
  967SOL    HW213581   0.893   0.648   3.412  0.8682 -2.0963  0.7815
  968SOL     OW13582   8.601   4.827   1.060  0.1236  0.2186 -0.0641
  968SOL    HW113583   8.572   4.736   1.031 -0.1430 -0.4276  2.1154
  968SOL    HW213584   8.567   4.896   0.995  0.4072 -1.2321 -1.7740
  969SOL     OW13585   0.043   8.343   4.469  0.5245  0.3106  0.3561
  969SOL    HW113586  -0.021   8.284   4.518  0.1429  1.0565  0.7805
  969SOL    HW213587   0.023   8.339   4.371  1.7277 -1.7026  0.1689
  970SOL     OW13588   6.958   0.139   1.256 -0.7627  0.1479  0.0468
  970SOL    HW113589   6.971   0.046   1.221 -0.4413  0.2148 -0.0085
  970SOL    HW213590   7.047   0.182   1.271 -0.8911  0.1249  0.9311
  971SOL     OW13591   5.114   5.255   1.190 -0.1209 -0.7239 -0.0219
  971SOL    HW113592   5.017   5.232   1.197 -0.4204  0.2621 -0.7916
  971SOL    HW213593   5.165   5.174   1.162 -0.5984 -1.4711  1.2321
  972SOL     OW13594   9.020   4.361   1.420 -0.1944 -0.4019  0.4554
  972SOL    HW113595   8.975   4.287   1.470  0.2647 -1.0620 -0.0847
  972SOL    HW213596   8.977   4.448   1.441 -1.7635 -1.0330 -0.1052
  973SOL     OW13597   0.848   4.840   4.218  0.0692  0.3550 -0.3292
  973SOL    HW113598   0.752   4.816   4.237 -0.2469  0.6153 -1.5844
  973SOL    HW213599   0.859   4.861   4.121  1.2691  0.9724 -0.0725
  974SOL     OW13600   9.596   2.707   1.035  0.2830  0.2741  0.2868
  974SOL    HW113601   9.521   2.649   1.066  0.2204  0.2764  0.1412
  974SOL    HW213602   9.566   2.803   1.037  0.1075  0.2327 -0.2656
  975SOL     OW13603   4.737   8.190   0.765  0.1257  0.1669  0.8722
  975SOL    HW113604   4.672   8.150   0.700 -3.6564  2.7835  2.8732
  975SOL    HW213605   4.817   8.225   0.715 -1.6918  0.1887 -2.1162
  976SOL     OW13606   0.048   6.774   2.131 -0.3054  0.1040  0.5242
  976SOL    HW113607  -0.025   6.829   2.090  0.4150  0.3699 -0.4143
  976SOL    HW213608   0.051   6.791   2.229 -0.3657  1.4158  0.3012
  977SOL     OW13609   3.280   8.712   3.696 -0.4212 -0.3943  0.0578
  977SOL    HW113610   3.237   8.796   3.662  0.5430  0.5211  1.0363
  977SOL    HW213611   3.374   8.707   3.662 -0.5205 -1.1714 -0.1187
  978SOL     OW13612   3.579   7.851   4.605  0.4857 -0.1648 -0.0382
  978SOL    HW113613   3.584   7.907   4.522 -0.2808  0.7552  0.5382
  978SOL    HW213614   3.671   7.838   4.642  0.7605 -0.0527 -0.6733
  979SOL     OW13615   7.562   6.464   3.130  0.7729 -0.3881  0.5737
  979SOL    HW113616   7.564   6.553   3.086  0.3268 -0.0596  1.2241
  979SOL    HW213617   7.655   6.438   3.157  0.8295  0.1157  0.8698
  980SOL     OW13618   2.852   4.839   0.451 -0.6829 -0.3878  0.2160
  980SOL    HW113619   2.763   4.816   0.410 -1.9445  0.7468  2.2071
  980SOL    HW213620   2.846   4.929   0.494  0.7633 -1.2475  2.3050
  981SOL     OW13621   3.233   0.450   0.867  0.1031  0.2801  0.7258
  981SOL    HW113622   3.204   0.521   0.803  2.1228  1.2913  0.9176
  981SOL    HW213623   3.165   0.441   0.940 -0.6528  1.3234  0.1634
  982SOL     OW13624   8.625   1.777   2.385  0.3820 -0.0736  0.2463
  982SOL    HW113625   8.570   1.723   2.449  1.3220 -0.9745  0.3118
  982SOL    HW213626   8.602   1.751   2.291 -0.2577  0.5117  0.2359
  983SOL     OW13627   1.954   7.690   3.739 -0.4192 -0.3891  0.2850
  983SOL    HW113628   1.987   7.624   3.807  1.7673  0.3505 -0.0305
  983SOL    HW213629   1.911   7.640   3.663 -0.9650 -1.3246  1.1978
  984SOL     OW13630   9.080   5.926   2.769  0.1071  0.5945 -0.5157
  984SOL    HW113631   9.039   5.861   2.833  0.0481  0.0612 -1.0868
  984SOL    HW213632   9.112   5.877   2.688  2.6688  0.8730  0.2747
  985SOL     OW13633   6.030   7.629   2.239 -0.8114  0.4107 -0.6921
  985SOL    HW113634   6.088   7.562   2.285 -0.2085  0.6965 -1.0339
  985SOL    HW213635   5.941   7.588   2.221 -1.4861  0.6764  1.8102
  986SOL     OW13636   6.773   9.866   4.511 -0.3482 -0.2392  0.2740
  986SOL    HW113637   6.826   9.788   4.478  2.1742  0.5358  2.3382
  986SOL    HW213638   6.698   9.833   4.568  0.7659 -1.1904  1.2283
  987SOL     OW13639   8.545   4.809   3.710  0.1429 -0.1398  0.5098
  987SOL    HW113640   8.559   4.710   3.720  0.9295 -0.2875 -1.8847
  987SOL    HW213641   8.454   4.826   3.672  0.5820 -0.0120 -0.4828
  988SOL     OW13642   7.920   9.731   4.371  0.2813  0.0010  0.6014
  988SOL    HW113643   7.978   9.727   4.289  1.2757 -0.8008  1.3233
  988SOL    HW213644   7.977   9.722   4.453 -0.8709 -0.7910  1.3379
  989SOL     OW13645   1.967   5.025   2.078 -0.0417  0.1331 -0.1664
  989SOL    HW113646   2.035   4.959   2.046  0.8995  1.0927 -0.1938
  989SOL    HW213647   1.953   5.013   2.177 -1.6235 -1.6457 -0.5759
  990SOL     OW13648   8.157   7.428   2.115  0.4035 -0.2073  0.1978
  990SOL    HW113649   8.062   7.415   2.087  0.3964 -1.1425  0.6331
  990SOL    HW213650   8.182   7.525   2.106 -0.3815 -0.0726 -0.5596
  991SOL     OW13651   2.619   5.344   2.221  0.2884  0.1606  0.2041
  991SOL    HW113652   2.699   5.400   2.198 -0.5021  1.9700  1.7535
  991SOL    HW213653   2.560   5.394   2.284 -0.9561 -2.0479  0.8481
  992SOL     OW13654   2.781   2.535   0.269 -0.4844  0.7785 -0.4331
  992SOL    HW113655   2.769   2.620   0.320  0.1135  0.2409  0.6110
  992SOL    HW213656   2.864   2.541   0.214  0.3408  0.3397  0.7405
  993SOL     OW13657   4.096   1.823   4.183  0.3104 -1.0937  0.2833
  993SOL    HW113658   4.107   1.868   4.094  1.5967 -0.6074  0.6765
  993SOL    HW213659   4.176   1.842   4.240  0.4506 -3.1365  0.7940
  994SOL     OW13660   2.953   1.088   4.696 -0.1004  0.0448  0.1151
  994SOL    HW113661   2.869   1.049   4.659 -0.1427  0.3960 -0.1632
  994SOL    HW213662   2.942   1.186   4.708  0.5929  0.2518 -0.8456
  995SOL     OW13663   1.966   9.304   1.987  0.7702 -0.3589 -0.2425
  995SOL    HW113664   1.903   9.319   1.911  0.5389  0.6970  0.1545
  995SOL    HW213665   1.914   9.299   2.072  1.3634  2.7098  0.3677
  996SOL     OW13666   4.153   3.857   1.724 -0.2686 -0.3735  0.7073
  996SOL    HW113667   4.107   3.897   1.644  1.0376  2.8467  1.4831
  996SOL    HW213668   4.241   3.819   1.696 -1.0110 -1.7156  0.1591
  997SOL     OW13669   2.719   7.471   3.093  0.5486  0.0660  0.0657
  997SOL    HW113670   2.643   7.475   3.028 -1.0526 -1.7334  1.7806
  997SOL    HW213671   2.785   7.402   3.063  0.3433 -0.0187 -0.1964
  998SOL     OW13672   3.332   9.381   1.533  0.1845  0.2955  0.1094
  998SOL    HW113673   3.273   9.458   1.507  1.3970  1.8299  1.8465
  998SOL    HW213674   3.307   9.301   1.478 -2.0514  1.5127 -0.7159
  999SOL     OW13675   3.169   2.822   2.546 -0.2192 -0.7734 -0.5713
  999SOL    HW113676   3.083   2.771   2.552  0.9075 -2.7670 -0.8029
  999SOL    HW213677   3.228   2.780   2.477  0.5363  1.2185 -1.1656
 1000SOL     OW13678   0.890   4.826   2.700  0.4468  0.0845  0.1540
 1000SOL    HW113679   0.875   4.729   2.715  1.3516 -0.2000 -0.7005
 1000SOL    HW213680   0.977   4.840   2.652 -0.3234  1.2088 -0.9710
 1001SOL     OW13681   0.976   1.931   0.997 -0.6597 -0.3040  0.1151
 1001SOL    HW113682   0.955   2.000   0.927 -0.4461 -1.5892 -1.2429
 1001SOL    HW213683   1.019   1.976   1.076 -0.3291  1.0890 -0.8386
 1002SOL     OW13684   5.482   9.800   3.541  0.9241 -0.2358  0.1543
 1002SOL    HW113685   5.517   9.726   3.598  0.5051 -0.6259 -0.0939
 1002SOL    HW213686   5.498   9.887   3.587 -0.7749 -0.6402  1.5949
 1003SOL     OW13687   9.531   2.668   2.265  0.1846  0.4212  0.1938
 1003SOL    HW113688   9.630   2.664   2.257  0.1224  0.5155 -0.6663
 1003SOL    HW213689   9.491   2.578   2.249  0.2075  0.1251  1.7408
 1004SOL     OW13690   0.688   0.846   4.514 -0.0778  0.6786 -0.2646
 1004SOL    HW113691   0.720   0.791   4.437  0.4839 -0.8565  1.0511
 1004SOL    HW213692   0.614   0.907   4.483 -0.4941 -0.5883 -1.8039
 1005SOL     OW13693   1.905   5.692   0.495 -0.5086  0.2125 -0.1381
 1005SOL    HW113694   1.974   5.620   0.507 -0.9006 -0.1370  0.0123
 1005SOL    HW213695   1.822   5.652   0.456 -1.1902  0.3508  1.1647
 1006SOL     OW13696   2.462   2.557   4.555  0.0149 -0.5247 -0.3919
 1006SOL    HW113697   2.430   2.577   4.463 -3.0764 -2.8889  0.0848
 1006SOL    HW213698   2.385   2.554   4.618  2.1656  1.9436  2.5140
 1007SOL     OW13699   0.360   0.107   4.281 -0.2226 -0.4661 -0.0844
 1007SOL    HW113700   0.428   0.080   4.213  0.4571 -1.2798  0.9119
 1007SOL    HW213701   0.321   0.196   4.255  2.8558  1.1395  0.5395
 1008SOL     OW13702   5.953   8.139   2.923 -0.1592 -0.0863  0.0553
 1008SOL    HW113703   5.956   8.085   2.839  1.3723 -0.4185  0.3190
 1008SOL    HW213704   5.928   8.233   2.901 -1.7683 -0.6362 -0.5309
 1009SOL     OW13705   5.216   7.210   2.172 -0.6606 -0.1970 -0.1264
 1009SOL    HW113706   5.119   7.191   2.154 -0.7611 -1.0669  1.2783
 1009SOL    HW213707   5.267   7.208   2.086 -1.8705  0.1628 -0.8628
 1010SOL     OW13708   2.826   3.156   3.981 -0.4953 -0.2342 -0.2593
 1010SOL    HW113709   2.879   3.138   4.064  0.9259 -0.6541 -1.2334
 1010SOL    HW213710   2.878   3.125   3.901 -1.1536  1.5875 -1.4300
 1011SOL     OW13711   4.903   1.184   2.131  0.0858 -0.1199  0.1929
 1011SOL    HW113712   5.000   1.177   2.105  0.1417 -1.2687  0.6771
 1011SOL    HW213713   4.896   1.233   2.218  0.2619 -0.4572  0.3941
 1012SOL     OW13714   6.900   8.619   2.857  0.5531 -0.3354 -0.3296
 1012SOL    HW113715   6.983   8.675   2.854 -1.2792  2.6662  2.3260
 1012SOL    HW213716   6.905   8.556   2.934  0.5357 -0.4571 -0.4269
 1013SOL     OW13717   8.135   8.159   0.997 -0.3197 -0.4300  0.8689
 1013SOL    HW113718   8.195   8.226   0.954 -1.9173  0.1890 -0.4401
 1013SOL    HW213719   8.094   8.100   0.927 -2.5698  0.2745  1.5333
 1014SOL     OW13720   2.576   6.484   4.621 -0.7365 -0.1120  0.2908
 1014SOL    HW113721   2.555   6.554   4.553  2.3777  0.6139  0.0040
 1014SOL    HW213722   2.516   6.405   4.606 -0.4836  0.2334 -3.0240
 1015SOL     OW13723   0.281   0.287   1.766 -0.0411 -0.0416 -0.0507
 1015SOL    HW113724   0.368   0.337   1.776 -0.0775  0.2276 -1.0208
 1015SOL    HW213725   0.206   0.346   1.797 -0.0895  0.5488 -1.2440
 1016SOL     OW13726   0.379   9.774   1.862  0.5628 -0.0424 -0.0053
 1016SOL    HW113727   0.286   9.738   1.856  0.0986  1.0251  0.6797
 1016SOL    HW213728   0.413   9.760   1.955  0.2624  1.5549  0.3512
 1017SOL     OW13729   1.280   6.283   2.319 -0.2822 -0.0832  0.2124
 1017SOL    HW113730   1.252   6.232   2.238  0.8122 -0.1232 -0.1533
 1017SOL    HW213731   1.209   6.349   2.343 -1.5546 -1.5338  0.4949
 1018SOL     OW13732   0.026   1.639   1.346 -0.0357 -0.1161  0.3969
 1018SOL    HW113733   0.015   1.565   1.412  0.5353 -0.7922 -0.2678
 1018SOL    HW213734   0.118   1.677   1.353 -0.0185 -0.1025  0.0675
 1019SOL     OW13735   4.393   2.108   2.476  1.0720  0.3772  0.0981
 1019SOL    HW113736   4.488   2.078   2.485  0.5306 -0.9582  1.5390
 1019SOL    HW213737   4.377   2.186   2.537  1.5480  1.3941 -1.0510
 1020SOL     OW13738   8.924   4.296   3.453 -0.2989  0.3090 -0.4425
 1020SOL    HW113739   8.953   4.281   3.547 -0.5024  1.6722 -0.1500
 1020SOL    HW213740   8.990   4.357   3.408 -0.9695  0.8264 -0.7358
 1021SOL     OW13741   7.467   9.372   2.158 -0.3409 -0.3073  0.1734
 1021SOL    HW113742   7.408   9.452   2.164 -0.2008 -0.1916 -0.0340
 1021SOL    HW213743   7.561   9.400   2.140  0.5016 -0.2119  4.2646
 1022SOL     OW13744   9.515   5.839   4.119  0.3631 -0.0368 -0.0942
 1022SOL    HW113745   9.599   5.891   4.137 -0.4875  1.0251  0.8987
 1022SOL    HW213746   9.523   5.748   4.161  0.3554  0.6761  1.4861
 1023SOL     OW13747   8.876   3.916   4.627  0.5540  0.3135  0.5580
 1023SOL    HW113748   8.784   3.932   4.662  0.3768 -1.4034  0.9487
 1023SOL    HW213749   8.937   3.892   4.703  1.7066  2.9266  0.5100
 1024SOL     OW13750   4.477   7.076   3.750  0.1997  0.6403 -0.1183
 1024SOL    HW113751   4.552   7.057   3.686 -0.7664 -0.0077 -1.0570
 1024SOL    HW213752   4.424   6.993   3.765 -1.2842  1.4873 -0.6729
 1025SOL     OW13753   3.342   0.012   0.648 -0.8035  0.0185 -0.3150
 1025SOL    HW113754   3.438   0.034   0.666 -0.7506 -0.2802 -0.2370
 1025SOL    HW213755   3.303   0.082   0.588 -0.9436  0.9592  0.8411
 1026SOL     OW13756   7.953   7.414   2.694 -0.1604  0.4859 -0.7412
 1026SOL    HW113757   7.929   7.396   2.789  0.5921 -0.3274 -0.7008
 1026SOL    HW213758   7.920   7.340   2.636 -1.4932  1.4693 -1.2560
 1027SOL     OW13759   4.303   0.934   3.194 -0.3556  0.0785  0.3668
 1027SOL    HW113760   4.345   1.013   3.150  1.9662 -0.7980  0.9531
 1027SOL    HW213761   4.314   0.853   3.136 -0.3259 -0.3759  0.9999
 1028SOL     OW13762   0.551   5.163   0.878  0.1894 -0.4092 -0.4321
 1028SOL    HW113763   0.631   5.207   0.837  1.1397 -1.2407  0.5199
 1028SOL    HW213764   0.568   5.066   0.890 -0.8350 -0.5290  0.1100
 1029SOL     OW13765   9.924   6.041   4.625 -0.3989 -0.0287  0.4698
 1029SOL    HW113766   9.934   5.950   4.584  1.7950 -0.9390  2.9479
 1029SOL    HW213767   9.852   6.038   4.695  0.7362 -0.2541  1.6345
 1030SOL     OW13768   9.945   3.159   2.604  0.4081 -0.0155  0.2498
 1030SOL    HW113769   9.924   3.248   2.644 -0.1895 -0.0378 -0.0063
 1030SOL    HW213770   9.943   3.166   2.504 -1.6588 -0.7655  0.2121
 1031SOL     OW13771   4.510   0.908   1.579 -0.0506 -0.0381  0.6346
 1031SOL    HW113772   4.584   0.863   1.628  3.0207  3.1944 -0.7788
 1031SOL    HW213773   4.473   0.846   1.510 -0.3586 -2.5212  2.9438
 1032SOL     OW13774   9.686   6.206   0.324  0.9555 -0.2177  0.1941
 1032SOL    HW113775   9.642   6.238   0.408 -0.9576 -2.0624 -0.0746
 1032SOL    HW213776   9.785   6.206   0.337  0.8415  2.2931  1.4330
 1033SOL     OW13777   3.764   1.832   1.554  0.1926 -0.5822 -0.1209
 1033SOL    HW113778   3.851   1.830   1.604  0.1350  1.0184  0.0693
 1033SOL    HW213779   3.748   1.924   1.519 -2.4370 -0.3280  1.6426
 1034SOL     OW13780   3.616   0.895   0.346  0.3196  0.3042 -0.3802
 1034SOL    HW113781   3.615   0.957   0.268  1.0366  1.4022  0.4682
 1034SOL    HW213782   3.567   0.937   0.423  0.0756 -0.5330 -0.0731
 1035SOL     OW13783   4.795   4.507   1.949  0.1481  0.1851  0.2259
 1035SOL    HW113784   4.811   4.604   1.928  0.5723 -0.2860 -1.7135
 1035SOL    HW213785   4.802   4.453   1.865 -0.0814 -1.5414  1.2941
 1036SOL     OW13786   8.349   7.900   0.622  0.2304  0.4192 -0.5904
 1036SOL    HW113787   8.259   7.870   0.588 -1.2497  0.0560  3.3201
 1036SOL    HW213788   8.352   7.999   0.625  0.1372  0.4407 -1.2194
 1037SOL     OW13789   4.283   6.795   2.275 -0.2913  0.9270 -0.3655
 1037SOL    HW113790   4.324   6.748   2.354  1.3920  3.3201  0.2564
 1037SOL    HW213791   4.202   6.745   2.245 -0.2136 -0.7570  2.0562
 1038SOL     OW13792   7.677   6.051   3.157  0.7430  0.6768  0.0561
 1038SOL    HW113793   7.640   6.093   3.074  1.0913  0.7849 -0.0424
 1038SOL    HW213794   7.773   6.075   3.167  1.0490 -0.3823 -0.1968
 1039SOL     OW13795   9.182   8.672   0.907  0.5237  0.1197 -0.2399
 1039SOL    HW113796   9.181   8.768   0.935  1.2573 -0.2594  1.1237
 1039SOL    HW213797   9.187   8.614   0.988  0.6257 -1.0564 -1.0814
 1040SOL     OW13798   3.774   4.681   1.272  0.5613 -0.0127 -0.5447
 1040SOL    HW113799   3.786   4.741   1.351 -0.7099 -0.4168 -0.0245
 1040SOL    HW213800   3.785   4.733   1.188  3.5902  0.1028 -0.1352
 1041SOL     OW13801   2.051   3.147   1.516 -0.1594 -0.3407 -0.2443
 1041SOL    HW113802   2.034   3.169   1.420 -2.0210  1.9939  0.5869
 1041SOL    HW213803   1.978   3.088   1.550  0.1614 -0.6418 -0.0710
 1042SOL     OW13804   3.082   8.799   4.000  0.0556  0.8819  0.2627
 1042SOL    HW113805   3.155   8.828   4.061  0.5463 -0.1437  0.1680
 1042SOL    HW213806   3.106   8.712   3.958 -0.9600  0.8259 -0.2190
 1043SOL     OW13807   7.379   0.294   0.455  0.3253  0.1789 -0.3537
 1043SOL    HW113808   7.422   0.319   0.542 -1.1736 -0.8344  0.6917
 1043SOL    HW213809   7.424   0.345   0.381  2.9815 -0.4557  0.7404
 1044SOL     OW13810   2.189   3.482   1.965  0.2064 -0.0378  0.0660
 1044SOL    HW113811   2.219   3.527   1.881  2.9726  0.7861  1.4256
 1044SOL    HW213812   2.091   3.464   1.961 -0.0262  1.6607 -2.5592
 1045SOL     OW13813   9.814   1.480   2.472 -0.3711 -0.0481 -0.0075
 1045SOL    HW113814   9.804   1.512   2.566  1.5079 -1.5211  0.7213
 1045SOL    HW213815   9.734   1.426   2.447 -2.2253  2.7398 -0.2705
 1046SOL     OW13816   9.292   5.525   4.686  0.1890  0.2152  0.1205
 1046SOL    HW113817   9.326   5.439   4.647  0.3501  0.1919  0.3147
 1046SOL    HW213818   9.198   5.513   4.716  0.1460  0.1621 -0.0298
 1047SOL     OW13819   6.442   9.221   2.137 -0.4860  0.2638  0.2217
 1047SOL    HW113820   6.451   9.123   2.120 -0.8624  0.5742 -1.8414
 1047SOL    HW213821   6.360   9.238   2.192 -0.1197 -0.6122  1.0542
 1048SOL     OW13822   2.361   6.296   4.619  0.3961 -0.1942 -0.4468
 1048SOL    HW113823   2.353   6.268   4.714  1.4410  1.9384  0.3072
 1048SOL    HW213824   2.291   6.364   4.599  0.5496 -0.2079 -1.0340
 1049SOL     OW13825   2.179   0.865   1.017 -0.5409 -0.3194 -0.0850
 1049SOL    HW113826   2.103   0.906   1.066  0.1848 -0.4091  1.1349
 1049SOL    HW213827   2.264   0.881   1.068  0.1652 -0.7746 -1.0979
 1050SOL     OW13828   3.128   8.393   0.622 -0.3668  0.3355  0.0258
 1050SOL    HW113829   3.137   8.317   0.558 -0.5478 -0.8652  1.3977
 1050SOL    HW213830   3.153   8.362   0.714  0.0695  2.0773  0.5065
 1051SOL     OW13831   8.156   1.455   2.353 -0.2432 -0.0275 -0.0550
 1051SOL    HW113832   8.222   1.510   2.302 -0.5385  0.0021 -0.4061
 1051SOL    HW213833   8.107   1.395   2.290 -2.3162  1.7108 -0.1623
 1052SOL     OW13834   9.822   1.556   3.795 -0.3561 -0.3157  0.0977
 1052SOL    HW113835   9.863   1.633   3.844  1.0888 -1.3352  0.5324
 1052SOL    HW213836   9.725   1.574   3.781 -0.1413  1.3829  0.5890
 1053SOL     OW13837   7.518   6.928   2.743  0.1839 -0.2260 -0.2205
 1053SOL    HW113838   7.571   6.875   2.677  0.7824 -0.7305  0.6590
 1053SOL    HW213839   7.421   6.905   2.735  0.3914 -1.1317 -0.1427
 1054SOL     OW13840   1.091   7.213   1.510  0.0342  0.1269 -0.3168
 1054SOL    HW113841   1.068   7.164   1.425  0.5180  1.7496 -1.4148
 1054SOL    HW213842   1.036   7.177   1.585 -0.2087 -1.5293 -1.2573
 1055SOL     OW13843   2.037   4.099   4.010 -0.4552  0.2457 -0.0667
 1055SOL    HW113844   2.118   4.147   3.978  0.9985 -1.0143  1.6384
 1055SOL    HW213845   2.043   4.086   4.109 -2.6092 -0.1194  0.0387
 1056SOL     OW13846   0.135   4.477   2.365 -0.2668  0.1078 -0.3948
 1056SOL    HW113847   0.049   4.527   2.368  0.3423  1.1512  0.0054
 1056SOL    HW213848   0.199   4.518   2.430  0.5796 -0.5689 -0.7958
 1057SOL     OW13849   3.574   8.957   2.621  0.8919 -0.3031  0.3226
 1057SOL    HW113850   3.519   8.881   2.653  0.3507  0.2505  0.7112
 1057SOL    HW213851   3.638   8.985   2.693  1.3274 -0.6144  0.0571
 1058SOL     OW13852   1.275   0.049   4.741  0.2752 -0.3069  0.2211
 1058SOL    HW113853   1.334   0.011   4.812 -0.4835  0.0442  1.0435
 1058SOL    HW213854   1.278  -0.010   4.661  1.0337 -0.7756  0.5831
 1059SOL     OW13855   8.749   7.952   1.565 -0.0679 -0.7577 -0.0309
 1059SOL    HW113856   8.798   7.911   1.641  0.0235 -2.0729 -0.7848
 1059SOL    HW213857   8.778   7.909   1.479  1.6740  2.4206 -1.0884
 1060SOL     OW13858   8.447   6.785   0.721  0.3718 -0.0135 -0.3490
 1060SOL    HW113859   8.422   6.690   0.739 -1.0515  0.4061 -0.1052
 1060SOL    HW213860   8.457   6.798   0.622 -1.0205 -0.0320 -0.5050
 1061SOL     OW13861   2.928   1.355   3.325  0.2522  0.3450 -0.4628
 1061SOL    HW113862   2.896   1.285   3.261  2.0149  0.3863 -1.4201
 1061SOL    HW213863   2.962   1.434   3.274  2.0857  0.2007  0.4879
 1062SOL     OW13864   3.672   1.300   0.926  0.5883 -0.1782 -0.1438
 1062SOL    HW113865   3.696   1.243   0.847 -1.4570 -1.7889  0.3410
 1062SOL    HW213866   3.573   1.311   0.930  0.8041  1.4667  1.1427
 1063SOL     OW13867   0.797   8.094   0.826 -0.4341  0.5962 -0.2877
 1063SOL    HW113868   0.839   8.022   0.772 -0.0235  1.0372 -0.5671
 1063SOL    HW213869   0.698   8.083   0.827 -0.5719  1.4821 -2.4305
 1064SOL     OW13870   5.864   8.109   3.705 -0.5569 -0.0907 -0.3268
 1064SOL    HW113871   5.838   8.199   3.670  0.7246  0.2510 -0.4065
 1064SOL    HW213872   5.784   8.065   3.746 -0.6494  2.0982  1.9169
 1065SOL     OW13873   9.031   7.433   2.122  0.3276  0.2846 -0.3283
 1065SOL    HW113874   9.044   7.348   2.172  0.8891  0.4021 -0.2728
 1065SOL    HW213875   8.961   7.420   2.051  0.2330 -0.1476 -0.1570
 1066SOL     OW13876   1.627   6.387   0.996  0.1048  0.0237  0.0632
 1066SOL    HW113877   1.657   6.356   0.906 -1.2148  0.1157 -0.4130
 1066SOL    HW213878   1.664   6.325   1.066  1.3723  0.1227 -0.5021
 1067SOL     OW13879   9.936   2.729   1.981  0.2681 -0.1731 -0.2143
 1067SOL    HW113880   9.934   2.825   1.952  0.8455  0.0211  0.3745
 1067SOL    HW213881  10.027   2.707   2.017 -0.3846 -0.4222  1.3575
 1068SOL     OW13882   3.750   4.516   0.911 -0.2968  0.1826  0.3932
 1068SOL    HW113883   3.758   4.545   0.816  0.3185  2.5320  1.1330
 1068SOL    HW213884   3.654   4.524   0.940 -0.4388 -0.2875  0.0608
 1069SOL     OW13885   8.873   6.888   3.916  0.0061 -0.5121 -1.2448
 1069SOL    HW113886   8.806   6.913   3.986  0.6436  0.2458 -0.8945
 1069SOL    HW213887   8.946   6.833   3.958 -0.2832 -1.1687 -1.5854
 1070SOL     OW13888   1.635   5.257   1.097 -0.4417  0.2858  0.7363
 1070SOL    HW113889   1.576   5.299   1.027  0.4485  0.5430  0.1373
 1070SOL    HW213890   1.674   5.329   1.155 -0.6896  0.1130  1.1232
 1071SOL     OW13891   1.355   8.395   1.555 -0.1914  0.0069 -0.8491
 1071SOL    HW113892   1.326   8.316   1.501 -2.0512 -0.2435  0.4908
 1071SOL    HW213893   1.332   8.479   1.506 -0.5648 -0.2361 -1.0878
 1072SOL     OW13894   7.360   9.156   3.277 -0.1601  0.1495  0.0002
 1072SOL    HW113895   7.399   9.119   3.193  0.6990 -0.5247  0.6880
 1072SOL    HW213896   7.313   9.084   3.328 -0.3548  0.4686  0.2801
 1073SOL     OW13897   2.828   2.875   1.669 -0.3061  0.3278 -0.0585
 1073SOL    HW113898   2.869   2.829   1.748 -0.7775 -0.4156 -0.2462
 1073SOL    HW213899   2.891   2.947   1.636  1.1884 -1.2820 -0.8097
 1074SOL     OW13900   3.580   0.228   2.955 -0.4632  0.0823  0.1685
 1074SOL    HW113901   3.531   0.148   2.988 -0.2790  0.1513  0.6230
 1074SOL    HW213902   3.557   0.245   2.859 -1.0663 -0.0813  0.2823
 1075SOL     OW13903   4.876   6.907   3.162  0.4782 -0.3161  0.4347
 1075SOL    HW113904   4.966   6.918   3.119  1.4275  0.8148  2.5852
 1075SOL    HW213905   4.809   6.964   3.114  0.8698 -1.2652 -1.2699
 1076SOL     OW13906   3.255   0.842   4.758 -0.5224  0.0219 -0.2106
 1076SOL    HW113907   3.321   0.885   4.696 -1.0437  0.1197 -0.7046
 1076SOL    HW213908   3.288   0.751   4.784 -0.3301 -0.0460 -0.6848
 1077SOL     OW13909   7.739   4.074   0.149  0.7904  0.6069 -0.0993
 1077SOL    HW113910   7.693   4.150   0.102 -0.2329 -0.7276 -1.2992
 1077SOL    HW213911   7.803   4.031   0.085  2.3278  1.2609  0.9810
 1078SOL     OW13912   2.470   3.230   1.579  0.2867  0.0562 -0.2090
 1078SOL    HW113913   2.537   3.258   1.648  0.0613  1.7264 -0.6515
 1078SOL    HW213914   2.378   3.234   1.618  0.2371  0.1221 -0.3332
 1079SOL     OW13915   2.889   6.202   0.879  0.7231 -0.2075 -0.2009
 1079SOL    HW113916   2.852   6.148   0.955  1.0815 -1.0527 -0.6202
 1079SOL    HW213917   2.989   6.198   0.881  0.7113 -1.6422 -1.7122
 1080SOL     OW13918   4.065   2.483   1.431 -0.1252 -0.6401 -0.1343
 1080SOL    HW113919   4.140   2.424   1.463 -1.9442 -0.8116  4.0885
 1080SOL    HW213920   3.999   2.428   1.380  0.4404 -1.3357 -0.1232
 1081SOL     OW13921   1.331   9.385   2.877 -0.2646  0.2115  0.0008
 1081SOL    HW113922   1.285   9.456   2.823  1.4542  0.7890 -0.7491
 1081SOL    HW213923   1.423   9.416   2.901 -0.4114 -0.7261  1.8762
 1082SOL     OW13924   8.649   2.170   2.780 -0.7366 -0.0528  0.0651
 1082SOL    HW113925   8.620   2.129   2.693  0.0431 -0.1475 -0.1500
 1082SOL    HW213926   8.737   2.215   2.768 -0.9022  0.4334  0.6683
 1083SOL     OW13927   2.424   0.828   0.566  0.0432 -0.1250  0.1702
 1083SOL    HW113928   2.356   0.784   0.625  0.8134 -0.9603  0.4438
 1083SOL    HW213929   2.382   0.852   0.479 -0.1104 -2.3440 -0.3714
 1084SOL     OW13930   0.398   6.521   3.662 -0.4774 -0.0590 -0.4312
 1084SOL    HW113931   0.367   6.509   3.756 -0.5228 -0.0488 -0.4449
 1084SOL    HW213932   0.349   6.457   3.602  0.5245 -1.0255 -0.2492
 1085SOL     OW13933   8.211   1.171   4.098  0.1182  0.4534 -0.4080
 1085SOL    HW113934   8.212   1.088   4.042 -0.0429  0.1094  0.0870
 1085SOL    HW213935   8.166   1.245   4.048 -0.2760  0.0734 -0.6212
 1086SOL     OW13936   8.914   6.191   4.072  0.0166  0.5092 -0.8040
 1086SOL    HW113937   8.903   6.270   4.011 -0.9755 -0.0932 -1.4243
 1086SOL    HW213938   9.000   6.145   4.052 -0.5381  0.0131 -2.1291
 1087SOL     OW13939   3.832   3.846   1.882 -0.3594  0.1002  0.2518
 1087SOL    HW113940   3.896   3.909   1.838 -1.7108  0.2175 -1.6355
 1087SOL    HW213941   3.769   3.809   1.813 -2.4219  0.1159  2.0602
 1088SOL     OW13942   1.427   8.703   1.669  0.1812  0.3191 -0.0810
 1088SOL    HW113943   1.331   8.723   1.688  0.0819 -0.9102  0.7066
 1088SOL    HW213944   1.469   8.661   1.749  1.1303 -0.0122 -0.7512
 1089SOL     OW13945   0.281   1.713   1.389  0.5427 -0.6048  0.1107
 1089SOL    HW113946   0.332   1.659   1.323  1.8953  1.0851 -0.2575
 1089SOL    HW213947   0.295   1.676   1.481  0.7942 -1.3507 -0.2264
 1090SOL     OW13948   0.475   2.913   1.983  0.1828  0.3475  0.2548
 1090SOL    HW113949   0.417   2.977   1.934 -0.1049  0.7002  1.0384
 1090SOL    HW213950   0.448   2.911   2.080  0.4752 -0.6274  0.3230
 1091SOL     OW13951   3.836   0.724   0.986  0.4434 -0.0507 -0.6258
 1091SOL    HW113952   3.831   0.727   0.886 -0.3140  0.8549 -0.5713
 1091SOL    HW213953   3.876   0.809   1.020  1.6937 -0.7902 -0.2007
 1092SOL     OW13954   3.653   6.585   2.236  0.2318 -0.2773 -0.6159
 1092SOL    HW113955   3.722   6.515   2.218  1.1187  0.7316 -1.2289
 1092SOL    HW213956   3.671   6.665   2.179 -1.6291 -0.1000 -1.0028
 1093SOL     OW13957   3.286   6.671   0.998 -0.5642 -0.0984  0.2148
 1093SOL    HW113958   3.263   6.675   1.095 -0.2714  0.3071  0.2690
 1093SOL    HW213959   3.328   6.582   0.978  0.9017  0.4260  0.8114
 1094SOL     OW13960   7.826   9.887   1.935 -0.3697 -0.3399 -0.0739
 1094SOL    HW113961   7.805   9.897   2.032 -2.2158  1.4481 -0.6257
 1094SOL    HW213962   7.921   9.914   1.918  0.0393 -0.9034  1.2369
 1095SOL     OW13963   9.983   2.701   3.116 -0.4097  0.1446 -0.4922
 1095SOL    HW113964  10.037   2.620   3.138  1.6880  1.3202 -1.2228
 1095SOL    HW213965   9.933   2.731   3.198  0.7486 -0.4094  0.4266
 1096SOL     OW13966   2.588   1.514   3.101 -0.2416 -0.1302  0.4927
 1096SOL    HW113967   2.574   1.415   3.092  0.0826 -0.0028 -2.0527
 1096SOL    HW213968   2.519   1.553   3.162 -2.9834 -1.3450 -1.7029
 1097SOL     OW13969   1.201   3.273   0.038 -0.7154 -0.4300  0.1536
 1097SOL    HW113970   1.128   3.205   0.034 -1.8152  0.7809 -0.8834
 1097SOL    HW213971   1.194   3.323   0.124 -0.0563 -1.4415  0.8077
 1098SOL     OW13972   8.407   6.552   1.415  0.4607  0.0985  0.2102
 1098SOL    HW113973   8.391   6.494   1.495 -0.3055  0.0139 -0.0026
 1098SOL    HW213974   8.407   6.496   1.333 -0.2832  0.3921  0.0027
 1099SOL     OW13975   1.850   0.599   0.206 -0.1516 -0.5258  0.1343
 1099SOL    HW113976   1.785   0.669   0.178  1.4963  0.5898 -1.0361
 1099SOL    HW213977   1.815   0.508   0.183 -0.9465  0.1086 -1.1707
 1100SOL     OW13978   6.796   0.015   3.317  0.4732  0.2005 -0.1701
 1100SOL    HW113979   6.705   0.039   3.281  0.6493 -0.5220 -1.1316
 1100SOL    HW213980   6.786  -0.029   3.406 -0.0312  1.2812  0.3152
 1101SOL     OW13981   3.634   0.609   4.468 -0.1499  0.6785  0.2599
 1101SOL    HW113982   3.697   0.551   4.519  1.5130  1.2551 -1.0795
 1101SOL    HW213983   3.635   0.701   4.507 -1.6319  0.2256  1.4243
 1102SOL     OW13984   2.245   4.431   2.447  0.5397 -0.0770  0.4009
 1102SOL    HW113985   2.338   4.438   2.484  0.3544 -1.7584  1.2471
 1102SOL    HW213986   2.237   4.347   2.393 -0.3084  0.3838 -0.1999
 1103SOL     OW13987   7.793   0.774   2.391 -0.5450  0.1135 -0.4146
 1103SOL    HW113988   7.744   0.687   2.385 -1.0037  0.3503 -0.1173
 1103SOL    HW213989   7.734   0.848   2.359 -0.9897  0.6242  1.5071
 1104SOL     OW13990   4.705   0.628   2.093 -0.3382  0.1858  0.4725
 1104SOL    HW113991   4.619   0.678   2.081 -0.5171 -0.2488 -0.0643
 1104SOL    HW213992   4.693   0.557   2.163 -0.7154 -0.5618 -0.3470
 1105SOL     OW13993   1.254   4.012   0.028  0.3436 -0.6687 -0.1456
 1105SOL    HW113994   1.314   3.958  -0.031  1.0330 -1.5950  1.3668
 1105SOL    HW213995   1.168   4.030  -0.019  0.7773 -1.6173 -1.3232
 1106SOL     OW13996   2.686   9.852   0.711  0.2206 -0.4104  0.4039
 1106SOL    HW113997   2.717   9.890   0.624  1.6031  0.8475  1.4045
 1106SOL    HW213998   2.623   9.916   0.755  0.6850 -0.3358  0.9862
 1107SOL     OW13999   0.173   6.853   0.384  0.1644 -0.4538  0.4334
 1107SOL    HW114000   0.257   6.844   0.438  0.8133 -0.8397 -0.6227
 1107SOL    HW214001   0.169   6.944   0.343  1.8873 -1.6306 -2.4643
 1108SOL     OW14002   4.711   8.656   1.326  0.1027  0.1096  0.0098
 1108SOL    HW114003   4.783   8.588   1.340  0.3895  0.7174  1.5750
 1108SOL    HW214004   4.750   8.748   1.336 -1.0545  0.4276  1.7464
 1109SOL     OW14005   8.961   1.059   3.614 -0.0866  0.2278 -0.5809
 1109SOL    HW114006   8.929   1.080   3.522 -0.7755 -0.0565 -0.4083
 1109SOL    HW214007   9.056   1.030   3.610 -0.0069  0.5525 -1.1603
 1110SOL     OW14008   2.622   8.463   2.640 -0.5236 -0.4496  1.2214
 1110SOL    HW114009   2.615   8.561   2.626  0.4082 -0.5759 -0.1918
 1110SOL    HW214010   2.550   8.416   2.589 -0.2805 -0.5826  1.0023
 1111SOL     OW14011   1.749   4.169   2.391  0.2851 -0.4698  0.0498
 1111SOL    HW114012   1.716   4.145   2.482 -0.1028 -1.2575 -0.2987
 1111SOL    HW214013   1.770   4.267   2.388 -1.5694 -0.0607  0.3993
 1112SOL     OW14014   2.520   2.099   4.060 -0.3601  0.7548 -0.3895
 1112SOL    HW114015   2.448   2.146   4.110 -0.0691  1.0347 -0.2307
 1112SOL    HW214016   2.496   2.003   4.049 -1.5742  1.2021 -1.8363
 1113SOL     OW14017   2.191   0.071   3.002  0.4891  0.2246  0.2069
 1113SOL    HW114018   2.154   0.095   3.092 -0.9386 -2.6733  0.4654
 1113SOL    HW214019   2.266   0.005   3.014 -0.5595 -1.1825 -0.7411
 1114SOL     OW14020   8.388   5.800   0.505  0.2868  0.1120 -0.1044
 1114SOL    HW114021   8.479   5.768   0.477  0.1903 -0.1851 -0.0744
 1114SOL    HW214022   8.319   5.765   0.442  0.4923  2.6992 -1.7951
 1115SOL     OW14023   9.189   3.966   3.503 -0.1054 -0.1437  0.0534
 1115SOL    HW114024   9.187   3.961   3.602  0.8834 -0.9452  0.0319
 1115SOL    HW214025   9.096   3.951   3.467 -0.6513  1.1413  0.8788
 1116SOL     OW14026   2.159   3.090   0.993 -0.1955  0.3194  0.2217
 1116SOL    HW114027   2.136   2.994   0.975  1.4018 -0.1169  0.3879
 1116SOL    HW214028   2.194   3.132   0.909 -0.1333  0.5365  0.3554
 1117SOL     OW14029   4.890   0.842   3.540  0.6562 -0.3337 -0.1460
 1117SOL    HW114030   4.896   0.743   3.529  1.6529 -0.3717  0.6571
 1117SOL    HW214031   4.980   0.882   3.522  0.5076  0.3192  0.5421
 1118SOL     OW14032   1.678   2.270   0.487 -0.3097 -0.2736  0.6309
 1118SOL    HW114033   1.607   2.237   0.550 -0.3188  1.4868  1.5887
 1118SOL    HW214034   1.667   2.368   0.473  0.6083 -0.3857 -0.9662
 1119SOL     OW14035   3.423   5.542   2.236 -0.2493 -0.5786 -0.1537
 1119SOL    HW114036   3.395   5.635   2.259  2.3842  0.2612 -0.1548
 1119SOL    HW214037   3.443   5.536   2.138 -0.7957 -1.2377 -0.2244
 1120SOL     OW14038   7.092   9.065   3.005  0.0391 -0.0584 -0.7041
 1120SOL    HW114039   7.108   9.015   3.090  1.1517  0.4958 -0.5737
 1120SOL    HW214040   7.161   9.038   2.937 -0.0744  0.4204 -1.0119
 1121SOL     OW14041   3.490   4.643   0.958 -0.4925 -0.4955 -0.5715
 1121SOL    HW114042   3.460   4.713   1.024 -1.0927 -0.5946 -0.7295
 1121SOL    HW214043   3.448   4.663   0.869  1.4574  0.4686 -1.3031
 1122SOL     OW14044   3.528   2.975   1.271  0.1823 -0.6245  0.1397
 1122SOL    HW114045   3.583   3.041   1.220 -1.2000 -0.2905 -0.9374
 1122SOL    HW214046   3.585   2.896   1.295  2.0032  1.2094  1.9621
 1123SOL     OW14047   7.786   0.102   2.999  0.7568  0.5510 -0.1730
 1123SOL    HW114048   7.746   0.020   3.040 -2.3304  1.6421 -0.8301
 1123SOL    HW214049   7.795   0.173   3.069  2.4356  0.0315  0.1630
 1124SOL     OW14050   1.155   5.610   4.725  0.2927 -0.4667  0.3531
 1124SOL    HW114051   1.163   5.680   4.795  2.0542 -0.3202  0.0218
 1124SOL    HW214052   1.219   5.630   4.650 -2.7236  0.3220 -2.1147
 1125SOL     OW14053   8.456   1.574   2.495  0.1597  0.0610  0.2188
 1125SOL    HW114054   8.515   1.542   2.421 -1.0694  1.9998 -1.6573
 1125SOL    HW214055   8.378   1.512   2.505  0.7871 -0.6897  0.4992
 1126SOL     OW14056   6.398   9.345   1.884  0.1213 -0.1358 -0.2270
 1126SOL    HW114057   6.405   9.302   1.974 -0.6817 -0.5543 -0.3613
 1126SOL    HW214058   6.422   9.442   1.892  0.3512 -0.2361  0.3759
 1127SOL     OW14059   9.510   1.431   3.281  0.2473 -0.1042  0.2548
 1127SOL    HW114060   9.537   1.510   3.225 -2.2050  0.0746 -0.7587
 1127SOL    HW214061   9.590   1.395   3.329  1.9836  1.1708 -1.5803
 1128SOL     OW14062   3.601   7.698   4.309 -0.2529  0.3554 -0.7534
 1128SOL    HW114063   3.665   7.648   4.368  0.7653  1.2673 -1.0802
 1128SOL    HW214064   3.578   7.785   4.352  2.1916  1.9971 -2.7011
 1129SOL     OW14065   7.504   1.923   1.398  0.2184 -0.5971 -0.8915
 1129SOL    HW114066   7.511   1.938   1.496 -1.4440 -0.1385 -0.8318
 1129SOL    HW214067   7.537   2.005   1.349 -0.4491 -0.2134 -0.6963
 1130SOL     OW14068   1.947   3.412   4.382  0.0416  0.3005 -1.4948
 1130SOL    HW114069   1.860   3.452   4.353 -1.1820  0.9555  2.7093
 1130SOL    HW214070   1.936   3.313   4.394 -1.1919  0.7946  2.1847
 1131SOL     OW14071   2.833   2.621   2.638  0.4693 -0.6837  0.1429
 1131SOL    HW114072   2.865   2.543   2.692 -4.0873 -3.8127 -1.3355
 1131SOL    HW214073   2.875   2.618   2.547  0.2962 -1.4695  0.0841
 1132SOL     OW14074   0.097   0.745   2.381 -0.2495  0.3266 -0.1785
 1132SOL    HW114075   0.069   0.750   2.285 -0.4460  1.9154 -0.0490
 1132SOL    HW214076   0.126   0.835   2.412  0.6405 -0.3511  1.0210
 1133SOL     OW14077   2.794   6.937   3.037 -0.6610  0.0043 -0.1679
 1133SOL    HW114078   2.808   6.905   3.131 -0.4655 -0.3887 -0.3304
 1133SOL    HW214079   2.703   6.980   3.030 -0.8530 -0.3592  0.0899
 1134SOL     OW14080   0.823   8.053   1.739  0.1751  0.0454 -0.0804
 1134SOL    HW114081   0.733   8.021   1.710  1.0400 -2.8269  0.2992
 1134SOL    HW214082   0.893   8.019   1.677  1.1284  1.3508  0.2522
 1135SOL     OW14083   0.477   8.562   2.258  0.5245 -0.2863 -0.2822
 1135SOL    HW114084   0.521   8.472   2.258  0.6317 -0.2337 -0.1406
 1135SOL    HW214085   0.381   8.552   2.234  0.2675 -0.5694  0.8309
 1136SOL     OW14086   8.089   6.673   3.688 -0.2770 -0.7431 -0.1385
 1136SOL    HW114087   8.081   6.584   3.642 -1.2440 -0.5785 -0.2999
 1136SOL    HW214088   8.163   6.669   3.755  0.0465 -1.5032 -0.5327
 1137SOL     OW14089   9.241   5.020   0.759 -0.4115 -0.3101 -0.1018
 1137SOL    HW114090   9.261   5.117   0.775  0.8145 -0.6804  0.7463
 1137SOL    HW214091   9.267   4.967   0.840 -1.1120 -1.3461 -0.5420
 1138SOL     OW14092   2.096   2.384   2.596 -0.5004  0.3641 -0.6141
 1138SOL    HW114093   2.035   2.306   2.584 -3.3893  2.3445  0.6650
 1138SOL    HW214094   2.175   2.356   2.651 -1.7473 -1.5261  0.2615
 1139SOL     OW14095   2.085   9.233   4.546 -0.3700  0.5819 -0.1124
 1139SOL    HW114096   2.150   9.217   4.472 -0.3795  0.5399 -0.1123
 1139SOL    HW214097   2.110   9.177   4.625  0.7151  2.0095  0.5688
 1140SOL     OW14098   0.806   5.321   3.058 -0.5487  0.3220 -0.2895
 1140SOL    HW114099   0.889   5.276   3.026 -1.3180 -0.3266 -1.3701
 1140SOL    HW214100   0.734   5.254   3.073 -0.7728  0.8289  1.0512
 1141SOL     OW14101   3.097   5.322   3.113 -0.2264 -0.8117  0.0258
 1141SOL    HW114102   3.082   5.318   3.212  0.7277  1.0929  0.2647
 1141SOL    HW214103   3.134   5.412   3.088 -1.2950 -0.9410 -2.1767
 1142SOL     OW14104   4.735   7.581   0.452 -0.1266  0.3092  0.4461
 1142SOL    HW114105   4.685   7.581   0.366  1.5746  2.6198 -0.5965
 1142SOL    HW214106   4.813   7.518   0.446 -0.0731  0.3849  0.3543
 1143SOL     OW14107   1.292   1.924   1.693  0.3705 -0.9017  0.0818
 1143SOL    HW114108   1.194   1.938   1.711  0.2143 -3.0043  1.0689
 1143SOL    HW214109   1.345   1.970   1.764  0.1477  1.2478 -1.1265
 1144SOL     OW14110   0.569   7.396   3.650 -0.3273  0.2657  0.5371
 1144SOL    HW114111   0.573   7.479   3.594 -0.2270  1.0265  1.6627
 1144SOL    HW214112   0.606   7.319   3.598 -1.8448  0.5961 -1.0881
 1145SOL     OW14113   9.241   6.804   0.156 -0.4259  0.3112  0.3756
 1145SOL    HW114114   9.190   6.876   0.202  0.2131  0.4077  0.9347
 1145SOL    HW214115   9.232   6.719   0.207 -1.2247 -0.0241 -0.3121
 1146SOL     OW14116   3.996   3.338   2.845  0.2995  0.1435 -0.3054
 1146SOL    HW114117   3.963   3.395   2.920  0.9031  1.0186 -0.7076
 1146SOL    HW214118   3.919   3.314   2.785 -0.2196 -0.7207  0.6872
 1147SOL     OW14119   1.360   7.956   2.728 -0.6590 -0.2751 -0.3896
 1147SOL    HW114120   1.307   8.006   2.797 -0.8450 -1.6775  0.5046
 1147SOL    HW214121   1.434   8.014   2.695 -0.8554  0.5844  0.6553
 1148SOL     OW14122   2.681   4.660   3.217  0.0770  0.9663 -0.3141
 1148SOL    HW114123   2.700   4.748   3.260 -0.9353  1.3484 -0.6301
 1148SOL    HW214124   2.707   4.586   3.278 -0.5748  1.5024  0.6192
 1149SOL     OW14125   3.323   8.156   1.812 -0.0642  0.0290  0.4300
 1149SOL    HW114126   3.358   8.156   1.718  0.1717  1.7368  0.4986
 1149SOL    HW214127   3.380   8.215   1.869 -0.8206 -0.1752  1.4082
 1150SOL     OW14128   2.530   1.760   4.461 -0.3025  0.2016 -0.1281
 1150SOL    HW114129   2.474   1.706   4.399 -0.3348  0.7776 -0.6042
 1150SOL    HW214130   2.506   1.857   4.453  0.1472  0.3527  0.3013
 1151SOL     OW14131   5.719   8.796   3.473  0.3379  0.3345 -0.3459
 1151SOL    HW114132   5.629   8.838   3.485  1.2948  1.8575  2.2252
 1151SOL    HW214133   5.753   8.815   3.381 -0.2307  3.3464  0.0101
 1152SOL     OW14134   2.803   2.766   2.896  0.2899 -0.2333  0.1056
 1152SOL    HW114135   2.881   2.803   2.947 -0.2739  0.3418  0.5473
 1152SOL    HW214136   2.836   2.723   2.812  0.9488  1.2811 -0.4231
 1153SOL     OW14137   9.537   6.921   2.759 -0.0751 -0.0083 -0.2458
 1153SOL    HW114138   9.581   6.899   2.672  1.2055 -0.0901  0.4180
 1153SOL    HW214139   9.579   6.869   2.833 -0.3380  0.9645  0.6065
 1154SOL     OW14140   6.969   0.777   2.557  0.0862 -0.2660  0.0689
 1154SOL    HW114141   7.008   0.712   2.623 -1.5565  0.2859  1.6324
 1154SOL    HW214142   6.892   0.824   2.599 -2.8329 -1.9358 -3.1782
 1155SOL     OW14143   8.149   2.445   2.731 -0.1061  0.4923  0.4411
 1155SOL    HW114144   8.079   2.380   2.762 -0.5403  0.4776 -0.5520
 1155SOL    HW214145   8.125   2.479   2.640  0.8335  1.0045  0.3771
 1156SOL     OW14146   2.150   4.136   0.730 -0.1755  0.2039 -0.2540
 1156SOL    HW114147   2.143   4.069   0.656  0.0034 -0.3629  0.2369
 1156SOL    HW214148   2.246   4.152   0.752 -0.1952  1.1192 -0.8138
 1157SOL     OW14149   4.036   8.896   4.568  0.2321 -0.2699 -0.0439
 1157SOL    HW114150   4.048   8.805   4.609  0.7401  0.6830  1.9906
 1157SOL    HW214151   4.099   8.907   4.492  0.3485 -1.5203 -0.1476
 1158SOL     OW14152   2.987   7.575   1.236  0.4631 -0.0900  0.2938
 1158SOL    HW114153   2.897   7.550   1.273  1.6788 -3.6387  1.0290
 1158SOL    HW214154   3.053   7.582   1.310  1.2608  0.3274 -0.4542
 1159SOL     OW14155   7.824   6.388   3.179 -0.2769  0.2063  0.3402
 1159SOL    HW114156   7.914   6.368   3.216 -0.4249  0.2087  0.7015
 1159SOL    HW214157   7.834   6.430   3.089  0.0488 -0.8969 -0.1511
 1160SOL     OW14158   1.065   1.715   4.398 -0.0862 -0.1608 -0.9434
 1160SOL    HW114159   0.970   1.688   4.414 -0.0059 -1.0113 -1.8550
 1160SOL    HW214160   1.108   1.739   4.485 -1.2672  0.6724 -0.5830
 1161SOL     OW14161   4.265   7.038   3.071  0.4050  0.2929 -0.1810
 1161SOL    HW114162   4.186   7.094   3.045  1.1209  0.9599 -0.9734
 1161SOL    HW214163   4.317   7.015   2.989 -0.1049 -1.9202  0.0943
 1162SOL     OW14164   9.605   9.587   4.056 -0.1295 -0.0052 -0.5431
 1162SOL    HW114165   9.669   9.653   4.095  1.4466 -1.4911 -0.5750
 1162SOL    HW214166   9.552   9.545   4.129 -1.2808  1.4123 -0.5389
 1163SOL     OW14167   8.172   5.718   3.660 -0.4763 -0.2254 -0.0089
 1163SOL    HW114168   8.266   5.752   3.666  0.3172 -2.4740  0.9839
 1163SOL    HW214169   8.111   5.781   3.707  0.7512  0.5421  0.5957
 1164SOL     OW14170   3.491   3.425   1.306  0.6432  0.0575  0.6208
 1164SOL    HW114171   3.470   3.508   1.255 -0.1071 -0.8129 -0.4993
 1164SOL    HW214172   3.589   3.405   1.299  0.2212 -1.2152 -2.2723
 1165SOL     OW14173   8.950   7.798   1.733 -0.1518 -0.5566  0.3947
 1165SOL    HW114174   9.019   7.805   1.660 -0.1761  1.0591  0.5174
 1165SOL    HW214175   8.992   7.818   1.821 -0.8285  0.6967  0.4421
 1166SOL     OW14176   2.319   1.595   0.301  0.5660  0.4395 -0.4781
 1166SOL    HW114177   2.322   1.564   0.397  0.0435  2.4771  0.2209
 1166SOL    HW214178   2.316   1.516   0.241  0.1939 -0.8728  1.2224
 1167SOL     OW14179   3.035   6.368   3.793 -0.1961 -0.1412 -0.5022
 1167SOL    HW114180   3.016   6.448   3.851 -1.7531  1.3159 -2.9445
 1167SOL    HW214181   3.105   6.392   3.726 -0.6690 -0.8424 -1.2452
 1168SOL     OW14182   2.459   1.938   1.570 -0.2443 -0.1211 -0.0162
 1168SOL    HW114183   2.376   1.992   1.585 -0.2660 -0.0264 -0.4735
 1168SOL    HW214184   2.531   1.997   1.533  0.2589 -0.0445  1.0714
 1169SOL     OW14185   3.809   3.681   2.717  0.3270 -0.1377  0.6397
 1169SOL    HW114186   3.717   3.689   2.678  1.1883  2.1617 -1.0296
 1169SOL    HW214187   3.803   3.689   2.817 -1.3240 -0.5025  0.5891
 1170SOL     OW14188   0.408   5.862   3.070  0.2786  0.1079  0.3812
 1170SOL    HW114189   0.490   5.877   3.015  1.0254 -0.6917  1.2592
 1170SOL    HW214190   0.358   5.782   3.036 -0.8025  1.2982 -0.9068
 1171SOL     OW14191   0.246   6.717   4.495 -0.1624 -0.1472  0.2796
 1171SOL    HW114192   0.192   6.661   4.557  0.8229 -1.1918  0.2237
 1171SOL    HW214193   0.327   6.665   4.466  0.3146  0.9922 -0.4557
 1172SOL     OW14194   5.831   9.295   2.403  0.1200  0.2152 -0.7594
 1172SOL    HW114195   5.749   9.292   2.347 -0.0137 -0.6456 -0.5291
 1172SOL    HW214196   5.864   9.389   2.410  0.7455  0.2016 -3.1530
 1173SOL     OW14197   1.174   8.593   4.583 -0.4325 -0.1682  0.1104
 1173SOL    HW114198   1.267   8.556   4.573  1.0706  3.0224  1.4993
 1173SOL    HW214199   1.144   8.629   4.495 -0.8860 -2.2532 -0.6308
 1174SOL     OW14200   4.629   0.751   0.153  0.0174 -0.1006  0.5505
 1174SOL    HW114201   4.689   0.681   0.192  1.4055 -0.3760 -1.9367
 1174SOL    HW214202   4.657   0.841   0.185  1.5045 -0.2723 -0.2309
 1175SOL     OW14203   3.362   6.048   3.478 -0.6579  0.0108 -0.3756
 1175SOL    HW114204   3.417   6.089   3.406  0.9364 -1.9681 -0.3517
 1175SOL    HW214205   3.359   6.109   3.557  3.9252 -0.9285  0.7109
 1176SOL     OW14206   5.825   9.327   1.987 -0.3048 -0.2142  0.2222
 1176SOL    HW114207   5.776   9.321   1.900 -0.1932  0.8041  0.0799
 1176SOL    HW214208   5.838   9.236   2.025 -0.8453 -0.6168 -0.5586
 1177SOL     OW14209   1.376   8.457   2.313  0.3762 -0.2146 -0.8579
 1177SOL    HW114210   1.371   8.363   2.280 -2.2576 -0.6280  0.5255
 1177SOL    HW214211   1.283   8.495   2.319  1.0296  1.0679  2.4156
 1178SOL     OW14212   9.229   4.271   2.224  0.1334 -0.0275 -0.0306
 1178SOL    HW114213   9.158   4.320   2.276  0.3488 -0.4004  0.6193
 1178SOL    HW214214   9.291   4.338   2.182  0.3924  0.2703  0.8096
 1179SOL     OW14215   1.438   6.123   0.447  0.3712 -0.4718 -0.0494
 1179SOL    HW114216   1.521   6.127   0.503 -0.0087 -1.5369  0.6191
 1179SOL    HW214217   1.453   6.060   0.371 -0.1695 -1.5527  0.7088
 1180SOL     OW14218   2.000   6.476   4.467 -0.1761 -0.4547 -0.0141
 1180SOL    HW114219   2.051   6.416   4.406  1.7814  0.5742  0.5677
 1180SOL    HW214220   1.927   6.521   4.417  0.1369 -1.1558 -1.1113
 1181SOL     OW14221   0.713   1.032   0.117 -0.3265  0.1067  0.2180
 1181SOL    HW114222   0.643   1.103   0.122  0.3331  0.8683 -1.0356
 1181SOL    HW214223   0.676   0.950   0.074 -0.4523  0.5120 -0.4486
 1182SOL     OW14224   3.864   8.015   4.306 -0.1053  0.2470  0.0006
 1182SOL    HW114225   3.919   7.962   4.242 -0.4732  0.5920 -0.6053
 1182SOL    HW214226   3.896   7.999   4.399 -0.2580 -1.0963 -0.1700
 1183SOL     OW14227   2.730   0.952   4.608 -0.8704  0.7639  0.6360
 1183SOL    HW114228   2.638   0.916   4.595 -0.3042 -0.8361  0.9666
 1183SOL    HW214229   2.792   0.878   4.633  0.3339  1.9700  1.3024
 1184SOL     OW14230   7.746   5.111   0.668  0.1376  0.1361  0.1142
 1184SOL    HW114231   7.809   5.156   0.605 -0.5597  1.7328  0.5411
 1184SOL    HW214232   7.790   5.103   0.758  0.0442  0.5136  0.1952
 1185SOL     OW14233   3.809   5.268   4.180 -0.2415  0.3500 -0.0496
 1185SOL    HW114234   3.892   5.323   4.190  0.0047 -0.0358  0.0308
 1185SOL    HW214235   3.787   5.258   4.083  1.7790 -2.4563 -0.2976
 1186SOL     OW14236   8.299   4.516   0.306 -0.6199 -0.2833 -1.0629
 1186SOL    HW114237   8.214   4.481   0.267 -0.5497 -0.8021 -0.7453
 1186SOL    HW214238   8.342   4.579   0.240 -0.9171 -0.5291 -1.4932
 1187SOL     OW14239   8.088   8.904   0.139 -0.0357  0.3286  0.3269
 1187SOL    HW114240   7.989   8.905   0.124 -0.0091 -0.0100  0.1226
 1187SOL    HW214241   8.107   8.895   0.236 -0.2188 -2.3977  0.1645
 1188SOL     OW14242   3.464   2.302   2.661 -0.0866 -0.2989  0.3529
 1188SOL    HW114243   3.478   2.312   2.562  0.2449 -1.2159  0.3104
 1188SOL    HW214244   3.497   2.213   2.691 -0.9440 -0.3507  1.1577
 1189SOL     OW14245   9.621   4.645   1.130  0.3173 -0.3772  0.1374
 1189SOL    HW114246   9.553   4.687   1.070 -0.9573 -0.6300  1.3824
 1189SOL    HW214247   9.619   4.546   1.117  1.2769 -0.3005 -0.6664
 1190SOL     OW14248   1.568   7.231   0.122 -0.6539 -0.7335  0.1486
 1190SOL    HW114249   1.650   7.175   0.131  2.1636  3.2922  0.9464
 1190SOL    HW214250   1.546   7.273   0.210 -1.2417  1.2575 -0.9039
 1191SOL     OW14251   7.297   9.714   1.433 -0.1558 -0.0343 -0.1812
 1191SOL    HW114252   7.337   9.687   1.521 -0.6972  1.2959  0.4737
 1191SOL    HW214253   7.359   9.686   1.359  0.0548 -1.6453  0.5687
 1192SOL     OW14254   8.036   3.811   3.866 -0.0898  0.2033 -0.0942
 1192SOL    HW114255   8.078   3.720   3.865 -0.9782 -0.2013 -0.6782
 1192SOL    HW214256   8.103   3.879   3.836  0.4447 -0.3156 -0.0786
 1193SOL     OW14257   4.410   2.667   1.609 -0.2475 -0.2045  0.8139
 1193SOL    HW114258   4.487   2.623   1.562 -1.6580 -2.7787  0.8230
 1193SOL    HW214259   4.347   2.706   1.542 -1.4636 -2.5100  0.5684
 1194SOL     OW14260   5.270   7.701   2.259 -0.0526 -0.5634  0.1015
 1194SOL    HW114261   5.240   7.700   2.163 -1.0617 -1.0313  0.4084
 1194SOL    HW214262   5.194   7.672   2.317  0.7776 -1.0090  0.9782
 1195SOL     OW14263   1.865   1.557   0.851 -0.2094  0.2801 -0.0235
 1195SOL    HW114264   1.782   1.586   0.804 -0.9039 -0.9198  0.4308
 1195SOL    HW214265   1.908   1.636   0.895 -1.4152  0.8132  0.2074
 1196SOL     OW14266   0.632   0.567   1.526 -0.0301  0.4996 -0.0839
 1196SOL    HW114267   0.541   0.531   1.546  1.1038 -2.7665 -0.6354
 1196SOL    HW214268   0.678   0.591   1.612 -0.3903 -0.4240  0.3713
 1197SOL     OW14269   9.305   9.681   2.522 -0.1049 -0.1964  0.1336
 1197SOL    HW114270   9.235   9.705   2.454  0.4258  0.5008 -0.1802
 1197SOL    HW214271   9.280   9.719   2.611 -0.2050 -0.0787  0.0548
 1198SOL     OW14272   8.172   8.410   4.440 -0.4772 -0.9314 -0.1536
 1198SOL    HW114273   8.111   8.435   4.364 -0.7995  0.6211  0.6046
 1198SOL    HW214274   8.251   8.361   4.403  1.0516  2.6891 -1.9598
 1199SOL     OW14275   1.314   0.737   3.116 -0.0150  0.2160 -0.1195
 1199SOL    HW114276   1.402   0.728   3.163 -0.3686  2.5558  1.0511
 1199SOL    HW214277   1.329   0.740   3.017  1.1924  0.2070  0.0599
 1200SOL     OW14278   2.995   5.492   4.501  0.1227 -0.6051 -0.1809
 1200SOL    HW114279   2.895   5.497   4.495  0.0525 -0.8200  0.7922
 1200SOL    HW214280   3.025   5.520   4.592  0.9379 -0.7916 -0.3822
 1201SOL     OW14281   7.525   2.148   2.931  0.5568 -0.1081 -0.1474
 1201SOL    HW114282   7.455   2.113   2.869  0.6428 -0.3371 -0.1143
 1201SOL    HW214283   7.553   2.076   2.994 -0.0120  0.3216  0.5983
 1202SOL     OW14284   9.789   2.654   0.738 -0.3560 -0.5209  0.6624
 1202SOL    HW114285   9.695   2.682   0.718 -0.4408 -0.2574  1.4084
 1202SOL    HW214286   9.815   2.689   0.828  0.7707  0.2029  0.0668
 1203SOL     OW14287   0.147   1.347   0.649  0.3898  0.2339  0.3550
 1203SOL    HW114288   0.150   1.440   0.686 -2.5961  0.7385 -0.5862
 1203SOL    HW214289   0.146   1.281   0.724  0.3446  1.0397  1.0692
 1204SOL     OW14290   7.616   0.925   2.713 -0.6260  0.1601  0.1880
 1204SOL    HW114291   7.684   0.889   2.650 -1.1717  1.1234 -0.9754
 1204SOL    HW214292   7.573   0.850   2.763  0.0997 -0.5772 -0.2944
 1205SOL     OW14293   0.119   0.694   3.519  0.1938 -0.5261  0.0244
 1205SOL    HW114294   0.099   0.604   3.557 -1.9497 -0.6417 -1.2399
 1205SOL    HW214295   0.119   0.762   3.592  1.0901 -1.4433  0.8851
 1206SOL     OW14296   2.138   6.120   1.342 -0.4429  0.2245 -0.5667
 1206SOL    HW114297   2.193   6.137   1.424 -0.7021 -0.3527 -0.2646
 1206SOL    HW214298   2.055   6.175   1.346 -1.0003 -0.6455  0.1217
 1207SOL     OW14299   0.483   7.588   1.065  0.0753  0.8469 -0.1764
 1207SOL    HW114300   0.528   7.675   1.081 -1.6107  1.6800  0.1334
 1207SOL    HW214301   0.519   7.546   0.982  2.0773  1.0339  0.5771
 1208SOL     OW14302   8.615   8.678   1.169  0.0796  0.1027  0.5111
 1208SOL    HW114303   8.600   8.762   1.221 -0.8631 -0.1170  0.5931
 1208SOL    HW214304   8.571   8.686   1.079 -1.8189 -1.1074  1.3016
 1209SOL     OW14305   9.050   6.882   4.493 -0.0180 -0.3875 -0.2371
 1209SOL    HW114306   9.059   6.843   4.585  0.8437  0.4929  0.0665
 1209SOL    HW214307   9.088   6.975   4.493  0.6413 -0.6489 -1.6532
 1210SOL     OW14308   9.997   5.462   4.524 -0.0942 -0.3700 -0.6079
 1210SOL    HW114309   9.902   5.492   4.509  0.1195  1.8383  2.1139
 1210SOL    HW214310  10.059   5.520   4.472 -0.0659 -0.0545 -0.2224
 1211SOL     OW14311   2.733   8.994   1.048  0.2094  0.2007  0.4148
 1211SOL    HW114312   2.826   9.014   1.017  0.1055 -0.7254 -0.5396
 1211SOL    HW214313   2.704   8.907   1.010 -1.3895  0.9196 -0.0331
 1212SOL     OW14314   3.338   9.474   3.460 -0.2213 -0.3216 -0.6470
 1212SOL    HW114315   3.338   9.515   3.552  1.2712 -1.0767 -0.2901
 1212SOL    HW214316   3.427   9.489   3.417  0.0749 -2.4434 -0.8328
 1213SOL     OW14317   0.286   8.990   2.759  0.7087 -0.6489 -0.3596
 1213SOL    HW114318   0.298   9.023   2.666 -2.1572 -2.0736 -1.2609
 1213SOL    HW214319   0.247   8.899   2.759  0.3445 -0.5542  2.2573
 1214SOL     OW14320   9.798   0.829   2.802 -0.5264 -0.3772  0.0260
 1214SOL    HW114321   9.874   0.852   2.742 -0.3644 -0.4715  0.1919
 1214SOL    HW214322   9.801   0.731   2.823  0.8803  0.0801  2.1563
 1215SOL     OW14323   6.612   8.144   2.266 -0.2973  0.0929  0.6339
 1215SOL    HW114324   6.576   8.178   2.180  1.6382 -1.1747 -0.7485
 1215SOL    HW214325   6.685   8.204   2.298  1.4621 -1.3378 -0.5487
 1216SOL     OW14326   3.667   2.736   2.588  0.5225  0.0697  0.0392
 1216SOL    HW114327   3.629   2.785   2.667  0.7325  0.9461 -0.3871
 1216SOL    HW214328   3.661   2.638   2.604 -0.8299  0.2085  0.4835
 1217SOL     OW14329   1.308   2.371   0.411 -0.3675 -0.2484 -0.3883
 1217SOL    HW114330   1.286   2.381   0.508 -1.0933  0.6663 -0.6405
 1217SOL    HW214331   1.292   2.276   0.383 -0.4255 -0.4477  0.3132
 1218SOL     OW14332   5.430   6.376   2.657 -0.0629 -0.5112  0.9358
 1218SOL    HW114333   5.437   6.475   2.649 -3.0153 -0.3584 -0.3372
 1218SOL    HW214334   5.463   6.347   2.748 -0.0850  1.7125  1.6720
 1219SOL     OW14335   2.504   9.120   2.969  0.3396 -0.2705 -0.2510
 1219SOL    HW114336   2.524   9.170   3.053 -1.3501  0.2784 -0.1495
 1219SOL    HW214337   2.498   9.022   2.989 -1.4110 -0.0195  0.5575
 1220SOL     OW14338   8.874   5.446   1.992 -0.6601  0.2099  0.9544
 1220SOL    HW114339   8.915   5.436   1.901  0.7636 -0.5588  1.6607
 1220SOL    HW214340   8.829   5.535   1.999  2.1374  1.6994  0.6279
 1221SOL     OW14341   4.868   8.228   3.779  0.3065  0.5138 -0.1611
 1221SOL    HW114342   4.871   8.275   3.691  1.0517 -0.2552 -0.5635
 1221SOL    HW214343   4.775   8.198   3.798  0.0875  0.9494 -0.5528
 1222SOL     OW14344   8.418   2.458   1.441 -0.1928  0.0617  0.2911
 1222SOL    HW114345   8.492   2.424   1.384  0.2163 -0.3357  1.0441
 1222SOL    HW214346   8.341   2.486   1.383  0.2049 -0.3481 -0.4457
 1223SOL     OW14347   8.983   5.907   1.359 -0.2667  0.1224 -0.1832
 1223SOL    HW114348   9.074   5.871   1.336  0.4595  0.3629  2.1461
 1223SOL    HW214349   8.992   5.999   1.396 -1.5127  0.3205 -0.3561
 1224SOL     OW14350   8.346   7.222   2.097  0.3829 -0.7561 -0.0004
 1224SOL    HW114351   8.300   7.154   2.155  1.0733 -0.3185  1.0870
 1224SOL    HW214352   8.288   7.303   2.090  0.2995 -0.8062  0.0966
 1225SOL     OW14353   6.219   9.264   2.576 -0.2217 -0.0360 -0.6300
 1225SOL    HW114354   6.283   9.235   2.648 -0.9917 -1.8341 -0.6505
 1225SOL    HW214355   6.162   9.338   2.610  0.7069  0.4184 -0.0351
 1226SOL     OW14356   4.587   1.997   0.536 -0.1241  0.3730  0.2193
 1226SOL    HW114357   4.537   1.942   0.603  2.7059 -1.0689  1.2345
 1226SOL    HW214358   4.606   2.087   0.575  0.7723 -0.1685  1.0619
 1227SOL     OW14359   9.203   9.393   1.214 -0.0550 -0.5982  0.3048
 1227SOL    HW114360   9.150   9.465   1.169  0.6170  0.8094  1.7456
 1227SOL    HW214361   9.287   9.375   1.161  1.3917  1.9830  1.6373
 1228SOL     OW14362   9.549   5.662   0.129 -0.0169 -0.0490 -0.0888
 1228SOL    HW114363   9.543   5.584   0.067  0.4833  0.4473 -0.7625
 1228SOL    HW214364   9.499   5.739   0.091 -0.4773 -0.0227  0.5607
 1229SOL     OW14365   2.285   5.293   0.065 -0.2563  0.4251 -0.3478
 1229SOL    HW114366   2.278   5.337   0.155  0.0429 -1.7991  0.8055
 1229SOL    HW214367   2.203   5.237   0.049  0.1812 -0.0417 -0.9716
 1230SOL     OW14368   2.811   4.169   1.877 -0.5575  0.6937  0.3748
 1230SOL    HW114369   2.846   4.248   1.927 -0.9758  0.4235  1.1067
 1230SOL    HW214370   2.815   4.088   1.936  0.8273 -0.0475 -0.7055
 1231SOL     OW14371   0.921   7.252   3.727 -0.1596  0.4458  0.3219
 1231SOL    HW114372   0.904   7.351   3.717  0.0271  0.4216 -0.2700
 1231SOL    HW214373   0.840   7.202   3.696 -0.6198  0.4331  1.5268
 1232SOL     OW14374   5.811   0.097   3.110 -0.6514  0.1492 -0.3055
 1232SOL    HW114375   5.739   0.031   3.131 -0.5584  0.5156  1.2521
 1232SOL    HW214376   5.885   0.088   3.177  0.6580 -0.0730 -1.7527
 1233SOL     OW14377   4.016   4.508   0.150  0.1014 -0.4242  0.0847
 1233SOL    HW114378   4.007   4.608   0.147  0.2981 -0.3937  0.4474
 1233SOL    HW214379   4.113   4.484   0.158  0.2831 -0.7133 -2.5898
 1234SOL     OW14380   6.205   9.685   4.417 -0.7047  0.0064  0.4097
 1234SOL    HW114381   6.299   9.717   4.410 -0.2547 -0.7703  2.5296
 1234SOL    HW214382   6.174   9.653   4.327  0.9803  0.4288 -0.3443
 1235SOL     OW14383   7.337   9.445   2.525 -0.0830  0.0891  0.0390
 1235SOL    HW114384   7.276   9.367   2.516 -0.7784  0.5252  0.9585
 1235SOL    HW214385   7.420   9.418   2.574 -0.4797  0.0082  0.6706
 1236SOL     OW14386   2.962   4.583   0.585 -0.2959 -0.3230  0.4502
 1236SOL    HW114387   3.045   4.629   0.615  0.0811 -0.8261  0.1797
 1236SOL    HW214388   2.921   4.635   0.510  0.4498 -0.7368 -0.2510
 1237SOL     OW14389   2.240   8.267   4.535 -0.6139 -0.0151 -0.2101
 1237SOL    HW114390   2.193   8.326   4.601 -0.1658 -1.8416  1.7930
 1237SOL    HW214391   2.186   8.263   4.451 -1.2158  2.3268  0.0203
 1238SOL     OW14392   3.252   5.854   0.961  0.3279 -0.0205  0.1439
 1238SOL    HW114393   3.227   5.897   0.874 -0.8840 -0.7728  0.1001
 1238SOL    HW214394   3.220   5.759   0.961  1.3581 -0.3701  0.9519
 1239SOL     OW14395   9.839   6.506   0.219 -0.3733 -0.0850  0.8141
 1239SOL    HW114396   9.743   6.531   0.231 -0.2725  0.7601 -0.0036
 1239SOL    HW214397   9.888   6.517   0.306 -0.8438  0.3105  1.0314
 1240SOL     OW14398   8.022   0.816   3.926 -0.0692  0.0435 -0.0339
 1240SOL    HW114399   7.938   0.761   3.931  0.5577 -0.9799 -0.5917
 1240SOL    HW214400   8.051   0.841   4.018  0.9689 -2.6076  0.3989
 1241SOL     OW14401   9.515   9.055   4.364  0.1348  0.0807  0.2509
 1241SOL    HW114402   9.548   9.000   4.441  0.4167  1.0775  0.8390
 1241SOL    HW214403   9.545   9.013   4.278  1.8119  0.2468  0.7422
 1242SOL     OW14404   1.516   3.652   1.582  0.9680 -0.1047 -0.4546
 1242SOL    HW114405   1.582   3.640   1.508  1.8620 -1.2539  0.4944
 1242SOL    HW214406   1.563   3.641   1.670 -0.3696 -0.3077  0.2466
 1243SOL     OW14407   3.674   1.111   1.799  0.3805 -0.3511 -0.5987
 1243SOL    HW114408   3.613   1.091   1.875  2.2243 -1.6703  0.5943
 1243SOL    HW214409   3.638   1.187   1.746 -1.8931 -0.6225  0.4912
 1244SOL     OW14410   1.500   0.253   0.295 -0.2841  0.5680 -0.1455
 1244SOL    HW114411   1.412   0.298   0.301 -0.1599  0.5438  2.5589
 1244SOL    HW214412   1.511   0.190   0.372  2.6075  1.5289  0.3139
 1245SOL     OW14413   2.195   2.310   0.926  0.4247 -0.5161  0.4651
 1245SOL    HW114414   2.212   2.299   0.827  0.0879 -0.9680  0.4545
 1245SOL    HW214415   2.283   2.320   0.973  0.5944 -0.4076  0.1327
 1246SOL     OW14416   4.897   8.862   4.046 -0.1389 -0.3636 -0.0890
 1246SOL    HW114417   4.970   8.912   4.091 -0.0947  1.4945 -2.1110
 1246SOL    HW214418   4.812   8.915   4.049 -0.2078 -0.3160 -1.8904
 1247SOL     OW14419   5.647   0.532   1.768 -0.3388  0.1362  0.5426
 1247SOL    HW114420   5.692   0.533   1.679  1.5635  0.7006  1.4767
 1247SOL    HW214421   5.610   0.441   1.786 -1.9455  0.3855 -1.3951
 1248SOL     OW14422   5.955   0.165   3.957  0.1663 -0.5082  0.2811
 1248SOL    HW114423   5.971   0.121   4.045  1.3067 -1.7784 -0.5380
 1248SOL    HW214424   5.872   0.129   3.916  1.2325 -2.1490 -0.5066
 1249SOL     OW14425   1.713   3.394   2.421 -0.7155  0.2407 -0.0557
 1249SOL    HW114426   1.771   3.346   2.355 -1.8360  0.2134 -1.0256
 1249SOL    HW214427   1.760   3.398   2.509  0.0955 -1.1689 -0.4038
 1250SOL     OW14428   9.009   4.637   3.874 -0.1952  0.4649 -0.0034
 1250SOL    HW114429   8.978   4.695   3.948 -0.2541  0.5700 -0.1107
 1250SOL    HW214430   9.107   4.651   3.859 -0.6798  2.3273 -1.6313
 1251SOL     OW14431   0.095   7.742   3.238 -0.6352  0.1384 -0.6203
 1251SOL    HW114432   0.037   7.823   3.227 -0.0730  0.7027  0.4351
 1251SOL    HW214433   0.092   7.687   3.155 -0.7218  1.4549 -1.5091
 1252SOL     OW14434   0.881   9.570   0.488  0.3335  0.2242  0.3299
 1252SOL    HW114435   0.968   9.526   0.509  0.8319  0.8601 -0.3632
 1252SOL    HW214436   0.860   9.638   0.558 -0.1827 -0.7370  1.1208
 1253SOL     OW14437   9.121   7.740   1.109  0.0860  0.3747 -0.0994
 1253SOL    HW114438   9.101   7.687   1.191  1.6360  1.5852  1.0833
 1253SOL    HW214439   9.219   7.735   1.089 -0.2876 -0.0297 -1.9834
 1254SOL     OW14440   2.537   7.635   2.059  0.0786 -0.0411 -0.0400
 1254SOL    HW114441   2.630   7.620   2.026 -0.2601 -0.8976 -0.6354
 1254SOL    HW214442   2.482   7.675   1.986  0.3855  1.9828  0.8246
 1255SOL     OW14443   8.939   3.144   3.483 -0.3725  0.3789 -0.2214
 1255SOL    HW114444   8.985   3.095   3.409  1.8510  2.9784 -0.6442
 1255SOL    HW214445   8.907   3.233   3.450 -1.6226  0.5258  1.2938
 1256SOL     OW14446   9.180   0.499   4.384 -0.4826  0.0422  0.3336
 1256SOL    HW114447   9.086   0.522   4.408 -0.6776  0.1107 -0.4901
 1256SOL    HW214448   9.217   0.570   4.324 -0.6420 -1.1149 -1.1395
 1257SOL     OW14449   1.784   5.811   1.182  0.0056 -0.4056  0.3354
 1257SOL    HW114450   1.689   5.819   1.150 -0.3866  0.2762  1.6278
 1257SOL    HW214451   1.844   5.797   1.104 -0.9377  1.2239 -0.7134
 1258SOL     OW14452   0.808   8.081   2.215  0.3439 -0.6540  0.2765
 1258SOL    HW114453   0.833   8.100   2.120  2.5581 -2.2777  0.5078
 1258SOL    HW214454   0.738   8.010   2.218  0.7931 -1.1184 -0.1238
 1259SOL     OW14455   8.238   5.452   4.367  0.0042 -0.4629 -0.4770
 1259SOL    HW114456   8.257   5.401   4.283 -1.1577 -0.5879 -0.6647
 1259SOL    HW214457   8.318   5.447   4.427  0.4778 -1.1974 -1.1496
 1260SOL     OW14458   8.790   5.326   0.234 -0.7505 -0.1605 -0.3617
 1260SOL    HW114459   8.713   5.316   0.171 -2.0316  3.6154  0.4623
 1260SOL    HW214460   8.780   5.261   0.310 -0.0332 -3.6249 -3.0834
 1261SOL     OW14461   5.005   1.419   3.128 -0.1131  0.3304 -0.1884
 1261SOL    HW114462   4.963   1.424   3.218  0.3449 -2.6506  0.2229
 1261SOL    HW214463   5.097   1.459   3.131 -0.8538  2.0378  0.1632
 1262SOL     OW14464   3.584   3.160   2.174  0.0871 -0.2976 -0.3364
 1262SOL    HW114465   3.497   3.137   2.131 -0.2450  0.6351 -0.1790
 1262SOL    HW214466   3.570   3.169   2.273  0.7686 -2.0820 -0.0706
 1263SOL     OW14467   9.089   5.206   1.567  0.4768  0.0417  0.1255
 1263SOL    HW114468   9.158   5.269   1.533 -1.6231  1.0313 -2.5386
 1263SOL    HW214469   9.072   5.222   1.664  0.2730  3.3115 -0.4117
 1264SOL     OW14470   4.086   0.893   4.299  0.6033 -0.2186 -0.3424
 1264SOL    HW114471   4.124   0.977   4.337  0.3895 -0.4371  0.3682
 1264SOL    HW214472   3.987   0.900   4.296  0.5659 -0.5664  0.0196
 1265SOL     OW14473   1.607   9.649   2.221 -0.2955 -0.0839  0.6814
 1265SOL    HW114474   1.673   9.619   2.290  0.1292 -0.1768  0.2347
 1265SOL    HW214475   1.541   9.576   2.204 -0.3017 -0.1216  0.8648
 1266SOL     OW14476   0.764   4.156   4.494  0.0455 -0.4221 -0.1545
 1266SOL    HW114477   0.735   4.101   4.416 -2.5784 -0.4349  0.7966
 1266SOL    HW214478   0.798   4.244   4.462  0.2383 -0.9342 -1.3875
 1267SOL     OW14479   5.458   7.280   2.975  0.0796 -0.3832 -0.1084
 1267SOL    HW114480   5.386   7.345   2.952  0.0235  0.0362  1.2216
 1267SOL    HW214481   5.508   7.255   2.892 -0.7164  0.3687 -0.8240
 1268SOL     OW14482   9.261   3.793   1.104  0.1314 -0.3778  0.3988
 1268SOL    HW114483   9.200   3.726   1.147 -0.0395  0.0064  0.7527
 1268SOL    HW214484   9.230   3.885   1.126  0.8114 -0.1848  0.5317
 1269SOL     OW14485   0.276   8.958   3.519 -0.1391 -0.9775  0.4019
 1269SOL    HW114486   0.275   8.869   3.564  1.4606 -1.0425  0.3504
 1269SOL    HW214487   0.347   8.959   3.449  0.3697  0.5866  0.9234
 1270SOL     OW14488   5.429   8.331   3.249 -0.4536 -0.2348  0.1072
 1270SOL    HW114489   5.382   8.244   3.258  0.0465 -0.5448 -0.2230
 1270SOL    HW214490   5.526   8.314   3.230 -0.5939  0.3939 -1.1776
 1271SOL     OW14491   0.203   8.795   4.092 -0.1932  0.4022 -0.4177
 1271SOL    HW114492   0.179   8.808   4.188  0.1533  1.8602 -0.5258
 1271SOL    HW214493   0.303   8.793   4.083 -0.2013  2.1259 -0.9830
 1272SOL     OW14494   0.018   4.618   3.337 -0.0820  0.6359 -0.7949
 1272SOL    HW114495   0.060   4.688   3.394 -0.8522 -0.0386  0.6308
 1272SOL    HW214496   0.036   4.527   3.376 -1.0045  0.1997 -1.3595
 1273SOL     OW14497   9.111   0.210   4.071 -0.0255 -0.2825 -0.3499
 1273SOL    HW114498   9.177   0.170   4.134  1.2658 -1.3087 -2.3170
 1273SOL    HW214499   9.157   0.280   4.016 -0.7595 -0.4764 -1.2119
 1274SOL     OW14500   9.660   2.843   2.707  0.1206 -0.3825  0.0824
 1274SOL    HW114501   9.685   2.929   2.752  0.4635 -0.0870 -0.6596
 1274SOL    HW214502   9.742   2.789   2.689  0.3018  0.6385 -2.4628
 1275SOL     OW14503   3.821   0.741   2.216 -0.2224  0.1153 -0.0591
 1275SOL    HW114504   3.729   0.721   2.252  0.4294 -0.4229  1.3322
 1275SOL    HW214505   3.836   0.839   2.216  0.1837  0.0941  2.2788
 1276SOL     OW14506   3.624   3.882   3.570 -0.5060 -0.5549 -0.5266
 1276SOL    HW114507   3.696   3.925   3.516 -0.0574  1.3868  1.5510
 1276SOL    HW214508   3.535   3.912   3.536 -0.1955  2.1854  0.9831
 1277SOL     OW14509   1.434   2.312   3.854 -0.7184 -0.2382 -0.1940
 1277SOL    HW114510   1.398   2.354   3.771 -2.6852  1.6602  1.5719
 1277SOL    HW214511   1.409   2.215   3.854 -0.2492 -0.3938 -2.0373
 1278SOL     OW14512   3.045   0.501   1.522  0.2176 -0.2470  0.3126
 1278SOL    HW114513   3.059   0.515   1.424 -0.5914  0.7568  0.3357
 1278SOL    HW214514   3.099   0.422   1.552  1.7164  0.4018 -0.6213
 1279SOL     OW14515   4.750   7.554   0.916 -0.0021  0.3368 -0.2032
 1279SOL    HW114516   4.707   7.643   0.932  0.5936  0.1306  2.8034
 1279SOL    HW214517   4.839   7.568   0.871 -0.9456  1.0586 -1.9192
 1280SOL     OW14518   1.429   2.586   3.102  0.9231  0.7444  0.1322
 1280SOL    HW114519   1.500   2.580   3.171 -0.7742 -2.9935  1.7439
 1280SOL    HW214520   1.340   2.599   3.146  0.3049  2.8851 -1.6643
 1281SOL     OW14521   4.021   4.249   1.266  0.0311  0.2746 -0.5970
 1281SOL    HW114522   4.110   4.217   1.299  0.1207  1.0770 -0.0653
 1281SOL    HW214523   3.973   4.173   1.222  0.7995 -0.2686 -0.5086
 1282SOL     OW14524   1.395   4.876   2.653  0.0013 -0.3484 -0.0908
 1282SOL    HW114525   1.407   4.837   2.562 -1.7366 -1.1266 -0.0113
 1282SOL    HW214526   1.440   4.965   2.658  0.1452 -0.3195 -1.6853
 1283SOL     OW14527   0.205   0.874   3.244 -0.0285 -0.0550  0.3599
 1283SOL    HW114528   0.116   0.838   3.272  1.0993 -2.5428  0.9285
 1283SOL    HW214529   0.212   0.871   3.144  0.3624 -2.3771  0.4144
 1284SOL     OW14530   9.074   2.325   1.762 -0.1259 -0.3710 -1.0511
 1284SOL    HW114531   9.061   2.406   1.704 -2.1294 -0.5593 -0.8962
 1284SOL    HW214532   9.063   2.242   1.706  1.4555 -0.5542 -1.1110
 1285SOL     OW14533   1.914   4.823   2.807  0.5822  0.5467  0.3639
 1285SOL    HW114534   1.993   4.762   2.814 -0.0064 -0.0634  2.0183
 1285SOL    HW214535   1.831   4.769   2.800  0.1497  1.1724  0.6479
 1286SOL     OW14536   4.151   0.181   1.013 -0.0668 -0.5934  0.1749
 1286SOL    HW114537   4.065   0.138   1.039 -0.6761  0.4870 -0.0069
 1286SOL    HW214538   4.177   0.247   1.084 -0.8882  1.1820 -1.1465
 1287SOL     OW14539   7.547   6.792   3.389  0.1542 -0.3492  0.0034
 1287SOL    HW114540   7.613   6.720   3.409 -0.6275 -0.2657  3.1682
 1287SOL    HW214541   7.596   6.875   3.359  1.3099 -0.9980  0.0611
 1288SOL     OW14542   1.456   7.696   0.497  0.8219  0.2542 -0.0544
 1288SOL    HW114543   1.440   7.789   0.529 -0.5082  0.4611 -1.2874
 1288SOL    HW214544   1.397   7.633   0.546  0.4402  0.2817 -0.4802
 1289SOL     OW14545   4.710   0.434   3.637  0.3163 -0.3634  0.1651
 1289SOL    HW114546   4.611   0.443   3.626  0.2387 -1.3327  0.0588
 1289SOL    HW214547   4.740   0.345   3.603  1.0740 -0.5391  1.2609
 1290SOL     OW14548   8.524   6.121   2.351  0.0673  0.0797 -0.1982
 1290SOL    HW114549   8.506   6.079   2.440 -0.2927 -1.3787 -0.9471
 1290SOL    HW214550   8.582   6.202   2.364 -2.4859  1.6677  1.6704
 1291SOL     OW14551   7.508   7.942   3.100  0.3566 -0.0096 -0.0186
 1291SOL    HW114552   7.596   7.896   3.105 -0.0894 -0.7441  1.6407
 1291SOL    HW214553   7.522   8.040   3.085  1.3570 -0.4443 -2.1198
 1292SOL     OW14554   2.055   1.636   2.321 -0.3328 -0.1321  0.1555
 1292SOL    HW114555   1.993   1.713   2.338 -0.7618 -0.2922 -0.6411
 1292SOL    HW214556   2.148   1.670   2.312 -0.4225  0.2135  0.5041
 1293SOL     OW14557   7.496   8.853   3.660 -0.4754 -0.7312  0.3638
 1293SOL    HW114558   7.438   8.796   3.717  0.0689 -1.1601  0.4893
 1293SOL    HW214559   7.582   8.872   3.708  0.0034 -1.1305 -0.3259
 1294SOL     OW14560   9.866   2.337   1.566 -0.8593 -0.6675  0.3103
 1294SOL    HW114561   9.844   2.403   1.638 -0.2079 -0.7725  0.6053
 1294SOL    HW214562   9.781   2.297   1.530 -1.3031  0.8129 -0.3337
 1295SOL     OW14563   0.957   6.007   3.798  0.0046 -0.5600  0.0007
 1295SOL    HW114564   1.020   5.965   3.731 -1.3903 -1.1250 -0.9830
 1295SOL    HW214565   0.883   6.053   3.749 -1.6374 -1.9161  1.1668
 1296SOL     OW14566   1.322   4.511   4.694 -0.1763  0.2892  0.0727
 1296SOL    HW114567   1.245   4.563   4.657 -0.2400  1.0323  1.2166
 1296SOL    HW214568   1.326   4.421   4.650 -1.3202  0.4836 -0.4408
 1297SOL     OW14569   6.865   7.944   2.717  0.0005 -0.3665  0.1467
 1297SOL    HW114570   6.843   7.917   2.623  2.1611  2.1827 -1.1480
 1297SOL    HW214571   6.935   7.883   2.753  2.2707  1.2088 -1.4773
 1298SOL     OW14572   1.812   9.935   2.477  0.1537  0.3417 -0.3177
 1298SOL    HW114573   1.886   9.893   2.529 -1.3690 -0.9350  0.8608
 1298SOL    HW214574   1.828   9.921   2.379  0.4397 -1.7297  0.0022
 1299SOL     OW14575   2.783   1.586   1.608 -0.6696 -0.6322  0.0878
 1299SOL    HW114576   2.882   1.593   1.618 -0.3773 -1.9750 -1.6386
 1299SOL    HW214577   2.740   1.668   1.645  1.1211  0.2487  0.2692
 1300SOL     OW14578   0.076   7.659   1.546 -0.0912 -0.4495  0.2981
 1300SOL    HW114579   0.131   7.576   1.559  0.8182  0.0819 -0.1577
 1300SOL    HW214580   0.053   7.698   1.635 -0.3478 -1.0717  0.5085
 1301SOL     OW14581   4.118   7.271   3.373  0.1110  0.0646  0.2453
 1301SOL    HW114582   4.079   7.180   3.386 -0.4405  0.2606 -0.0366
 1301SOL    HW214583   4.045   7.338   3.357  0.4610  0.7150  1.3279
 1302SOL     OW14584   1.804   6.809   0.414  0.5400 -0.1015  0.0705
 1302SOL    HW114585   1.754   6.888   0.449 -1.8651 -0.5258 -2.3277
 1302SOL    HW214586   1.876   6.839   0.351 -0.2560  0.1812 -0.6991
 1303SOL     OW14587   2.690   7.046   3.522  0.0361 -0.7838  0.4853
 1303SOL    HW114588   2.697   7.076   3.617  1.1333  0.3678  0.0396
 1303SOL    HW214589   2.733   7.113   3.462 -0.5220 -1.5761 -0.8211
 1304SOL     OW14590   2.922   7.386   4.489  0.0348 -0.1433  0.1552
 1304SOL    HW114591   2.966   7.357   4.405 -0.8783 -1.8297  0.2521
 1304SOL    HW214592   2.959   7.475   4.517  4.0246 -1.8824  0.7088
 1305SOL     OW14593   4.377   5.066   1.486  0.7536 -0.5562  0.4058
 1305SOL    HW114594   4.310   4.992   1.486  0.0421  0.0884  0.2372
 1305SOL    HW214595   4.385   5.105   1.394  0.7698 -0.1014  0.5971
 1306SOL     OW14596   7.793   8.438   4.421  0.3028 -0.1335 -0.3381
 1306SOL    HW114597   7.869   8.430   4.357  0.0782 -0.6694 -0.5414
 1306SOL    HW214598   7.783   8.533   4.449  0.3983  0.1063 -1.1064
 1307SOL     OW14599   3.271   1.504   4.553  0.4469  0.2484 -0.0915
 1307SOL    HW114600   3.287   1.455   4.467 -2.9456 -0.0435 -0.6235
 1307SOL    HW214601   3.291   1.443   4.630 -0.7309 -0.9768 -0.7312
 1308SOL     OW14602   4.044   2.472   1.011 -0.5862 -0.4341 -0.3348
 1308SOL    HW114603   4.103   2.394   1.034 -1.0376  0.2051  3.2390
 1308SOL    HW214604   3.951   2.454   1.042 -0.4192  2.0248  1.7541
 1309SOL     OW14605   8.015   0.246   3.685  0.2398 -0.3998 -0.2343
 1309SOL    HW114606   8.002   0.258   3.783  0.1116 -1.3096 -0.1341
 1309SOL    HW214607   8.018   0.336   3.640  0.8808  0.0299  0.6661
 1310SOL     OW14608   4.828   9.954   3.748  0.1233 -0.1827  0.4431
 1310SOL    HW114609   4.912   9.903   3.730  0.1086 -0.2585  0.5890
 1310SOL    HW214610   4.851  10.049   3.768  0.0708  0.1344 -0.9625
 1311SOL     OW14611   9.261   7.714   0.774 -0.2569  0.3454 -0.4616
 1311SOL    HW114612   9.359   7.700   0.754 -0.1268 -1.4005  1.2950
 1311SOL    HW214613   9.249   7.803   0.819  0.4319  0.8385 -1.2238
 1312SOL     OW14614   1.584   2.840   1.068 -0.1643  0.1666 -0.0224
 1312SOL    HW114615   1.627   2.924   1.100  1.8780 -0.8827  0.0561
 1312SOL    HW214616   1.623   2.762   1.115 -2.9220 -0.7851  0.8247
 1313SOL     OW14617   4.620   5.224   1.836 -0.5546  0.2823 -0.1719
 1313SOL    HW114618   4.565   5.158   1.887  0.8696 -0.4017  0.5068
 1313SOL    HW214619   4.677   5.277   1.900  0.9445 -0.2981 -0.9995
 1314SOL     OW14620   1.055   4.557   1.767 -0.1618 -0.5604  0.0630
 1314SOL    HW114621   1.070   4.462   1.740 -0.4302  0.0103 -2.1457
 1314SOL    HW214622   1.075   4.617   1.690 -0.5980  1.1502  1.2583
 1315SOL     OW14623   0.576   1.753   2.787  0.5121  0.2829  0.1389
 1315SOL    HW114624   0.503   1.740   2.854 -0.0997 -0.9480 -0.7496
 1315SOL    HW214625   0.563   1.840   2.740 -1.4949 -0.7394 -1.3157
 1316SOL     OW14626   7.045   8.075   2.157 -0.2847  0.0136 -0.0359
 1316SOL    HW114627   7.131   8.028   2.138 -0.6973  0.0806 -2.2120
 1316SOL    HW214628   7.046   8.165   2.115 -1.2760  0.1646  0.2446
 1317SOL     OW14629   4.757   7.211   2.594  0.1729  0.7210 -0.5668
 1317SOL    HW114630   4.839   7.265   2.610  1.0686 -0.3949 -1.2848
 1317SOL    HW214631   4.783   7.118   2.566 -1.3216 -0.1856  0.9574
 1318SOL     OW14632   7.895   7.905   2.438 -0.3999  0.8161  0.3157
 1318SOL    HW114633   7.802   7.867   2.443 -0.6180  1.0307 -1.6436
 1318SOL    HW214634   7.961   7.834   2.464 -1.0166  0.1465  0.0916
 1319SOL     OW14635   8.874   0.708   1.460  0.7957  0.1492  0.6082
 1319SOL    HW114636   8.833   0.794   1.431  0.5557 -0.0641  0.3101
 1319SOL    HW214637   8.875   0.643   1.384 -1.2375 -0.9377  1.4536
 1320SOL     OW14638   1.571   0.222   4.763 -0.7497  0.0334  0.0048
 1320SOL    HW114639   1.514   0.185   4.689 -0.7734  1.6527 -0.7992
 1320SOL    HW214640   1.518   0.227   4.847 -0.6117 -2.1851  0.2551
 1321SOL     OW14641   1.771   7.054   0.135 -0.4963  0.6485 -0.2929
 1321SOL    HW114642   1.739   6.980   0.076 -0.0645  1.5297 -1.6628
 1321SOL    HW214643   1.845   7.021   0.193 -1.2825 -0.3704  0.1585
 1322SOL     OW14644   8.263   9.169   2.665 -0.3832 -0.0570  0.0531
 1322SOL    HW114645   8.285   9.189   2.761  0.2032 -0.9325  0.1031
 1322SOL    HW214646   8.174   9.125   2.660  0.5626 -2.0500  0.4113
 1323SOL     OW14647   8.689   8.301   3.682 -0.0220  0.2607  0.0504
 1323SOL    HW114648   8.692   8.248   3.597  0.8476  0.2286  0.0943
 1323SOL    HW214649   8.659   8.242   3.757 -1.6988  0.5259 -0.4002
 1324SOL     OW14650   4.676   9.702   4.241  0.3194 -0.2786  1.1523
 1324SOL    HW114651   4.624   9.765   4.299 -0.4893 -0.5888  0.7868
 1324SOL    HW214652   4.699   9.748   4.155  1.1095  0.0313  1.5288
 1325SOL     OW14653   4.367   8.599   2.575 -1.0767  0.5338  0.5168
 1325SOL    HW114654   4.272   8.628   2.581 -1.3296 -0.5965  2.2225
 1325SOL    HW214655   4.378   8.511   2.620  0.6276  0.2735 -0.3671
 1326SOL     OW14656   9.768   5.873   1.797  0.0952 -0.5505  0.1717
 1326SOL    HW114657   9.718   5.955   1.769  0.7692 -0.5917 -1.2238
 1326SOL    HW214658   9.748   5.799   1.733 -0.7218 -1.5514  1.5910
 1327SOL     OW14659   4.170   3.614   4.305  0.3106  0.0301  0.0900
 1327SOL    HW114660   4.077   3.651   4.303  0.5337  0.5493 -1.2627
 1327SOL    HW214661   4.205   3.609   4.212  1.4220 -0.7269  0.5478
 1328SOL     OW14662   8.157   9.086   4.152 -0.0902 -0.2390  0.3769
 1328SOL    HW114663   8.197   9.055   4.238 -0.6808  0.9561  1.1033
 1328SOL    HW214664   8.099   9.014   4.114  1.2240 -1.2615  0.2907
 1329SOL     OW14665   1.532   7.493   1.645 -0.4552  0.6587 -0.1389
 1329SOL    HW114666   1.539   7.396   1.623  0.1037  1.0994 -1.9452
 1329SOL    HW214667   1.456   7.534   1.594 -1.3535  0.9676  1.4033
 1330SOL     OW14668   5.830   9.501   2.970 -0.0796 -0.2806 -0.6075
 1330SOL    HW114669   5.929   9.505   2.982 -0.1689 -0.0518  0.0552
 1330SOL    HW214670   5.809   9.471   2.877  0.6225 -2.7502 -0.0194
 1331SOL     OW14671   1.097   9.931   0.838 -0.0450 -0.0960 -0.3516
 1331SOL    HW114672   1.061   9.864   0.773  1.5157 -0.2302 -1.1111
 1331SOL    HW214673   1.091  10.022   0.797 -0.4828  0.0131 -0.0511
 1332SOL     OW14674   8.043   9.332   4.135  0.3874 -0.2561 -0.0145
 1332SOL    HW114675   8.056   9.375   4.046  0.6400  0.4508  0.3638
 1332SOL    HW214676   8.087   9.242   4.136 -1.5047 -1.2423 -1.3436
 1333SOL     OW14677   2.470   3.971   4.154 -0.3894  0.0624 -0.1316
 1333SOL    HW114678   2.438   4.061   4.184 -0.6441 -0.6164  1.7378
 1333SOL    HW214679   2.472   3.967   4.054 -0.8735  1.9604 -0.2299
 1334SOL     OW14680   3.734   4.533   2.314 -0.3488 -0.0401  0.0434
 1334SOL    HW114681   3.675   4.453   2.296  0.3057 -1.1710  2.6764
 1334SOL    HW214682   3.715   4.568   2.406  1.4158  1.0637  0.0085
 1335SOL     OW14683   1.019   7.132   0.354  0.4794  0.2980 -0.3048
 1335SOL    HW114684   0.951   7.064   0.325  0.3752  0.4529 -0.4240
 1335SOL    HW214685   1.111   7.093   0.344  0.4297  0.2445 -0.5634
 1336SOL     OW14686   2.607   5.435   3.422 -0.7903  0.0533  0.4247
 1336SOL    HW114687   2.604   5.511   3.487  0.5174 -0.5306  1.1803
 1336SOL    HW214688   2.697   5.432   3.379 -1.3899 -0.0440 -0.8537
 1337SOL     OW14689   6.105   0.524   2.775 -0.2881 -0.0050 -0.2770
 1337SOL    HW114690   6.088   0.552   2.681 -0.5852 -0.2764 -0.3066
 1337SOL    HW214691   6.048   0.445   2.797  1.4315 -1.3514 -0.5839
 1338SOL     OW14692   2.083   4.586   1.746 -0.2072  0.0109  0.4517
 1338SOL    HW114693   2.080   4.548   1.838  2.8571  0.2170  0.6769
 1338SOL    HW214694   2.102   4.513   1.680  1.8822  0.5012  0.4764
 1339SOL     OW14695   9.113   6.006   3.764 -0.6500  0.1526  0.2010
 1339SOL    HW114696   9.178   5.931   3.774  1.0419  1.3386 -1.4666
 1339SOL    HW214697   9.144   6.085   3.818 -1.0969  0.4660  0.0035
 1340SOL     OW14698   3.600   3.445   0.107  0.2220  0.3078  0.2647
 1340SOL    HW114699   3.655   3.473   0.029 -0.2648 -1.0108 -0.5704
 1340SOL    HW214700   3.528   3.513   0.123  0.4508  0.6868 -0.3032
 1341SOL     OW14701   8.845   1.205   2.444  0.1528 -0.0458  0.2085
 1341SOL    HW114702   8.911   1.214   2.370 -0.4109  1.9965 -0.0689
 1341SOL    HW214703   8.753   1.226   2.410 -0.1250  0.7757  1.4426
 1342SOL     OW14704   0.191   9.326   4.179  0.0032 -0.1072  1.0676
 1342SOL    HW114705   0.211   9.310   4.082 -1.3942  0.9513  0.5915
 1342SOL    HW214706   0.176   9.239   4.225 -0.1603 -0.5674  0.1568
 1343SOL     OW14707   1.670   9.754   1.440 -0.4537  0.8542  0.2292
 1343SOL    HW114708   1.727   9.684   1.482 -0.4667  0.6938 -0.0178
 1343SOL    HW214709   1.657   9.733   1.343  0.9359  2.0867 -0.2389
 1344SOL     OW14710   0.204   7.143   2.745  0.4737 -0.3881  0.5329
 1344SOL    HW114711   0.284   7.202   2.742  0.0272  0.1697 -2.2961
 1344SOL    HW214712   0.224   7.057   2.697  0.6917 -2.0172  3.4566
 1345SOL     OW14713   1.201   3.102   3.372 -0.4837  0.2657 -0.1548
 1345SOL    HW114714   1.179   3.170   3.442 -0.7471 -1.1204  1.1369
 1345SOL    HW214715   1.299   3.082   3.375 -0.7161 -0.8368  0.8235
 1346SOL     OW14716   1.724   2.589   3.642 -0.4613 -0.0805  0.1721
 1346SOL    HW114717   1.749   2.526   3.716 -0.0340  0.2653  0.3237
 1346SOL    HW214718   1.637   2.632   3.663 -0.1098  0.3719  0.7013
 1347SOL     OW14719   1.084   0.517   3.891 -0.8715 -0.2209 -0.5794
 1347SOL    HW114720   1.112   0.478   3.804 -0.1109 -2.2680  0.5426
 1347SOL    HW214721   1.014   0.458   3.933 -0.9787  0.5540  0.3493
 1348SOL     OW14722   3.060   1.102   4.452  0.3044  0.2249 -0.2421
 1348SOL    HW114723   3.020   1.025   4.402  0.5325 -0.7240  0.9969
 1348SOL    HW214724   3.035   1.095   4.549 -1.6402  3.0129 -0.4746
 1349SOL     OW14725   8.132   3.179   3.898  0.0531 -0.3281 -0.1327
 1349SOL    HW114726   8.227   3.151   3.913 -0.0183 -1.1492 -1.0913
 1349SOL    HW214727   8.079   3.163   3.981  1.0525  1.4771  0.8677
 1350SOL     OW14728   8.183   2.628   0.986  0.1627  0.2514  0.2819
 1350SOL    HW114729   8.097   2.652   1.033  0.4156  3.1539 -0.6225
 1350SOL    HW214730   8.163   2.565   0.911 -1.0528  0.2093  0.6229
 1351SOL     OW14731   8.467   7.821   0.936 -0.0357 -0.2236  0.2322
 1351SOL    HW114732   8.516   7.736   0.951 -1.6626 -0.8087  2.5059
 1351SOL    HW214733   8.380   7.818   0.985 -1.1793  1.8098 -1.5853
 1352SOL     OW14734   3.501   3.736   4.545 -0.2784 -0.0538 -0.0576
 1352SOL    HW114735   3.427   3.678   4.580  0.7084 -1.7744 -0.7429
 1352SOL    HW214736   3.487   3.751   4.447  0.2497 -0.3421 -0.1764
 1353SOL     OW14737   1.298   6.786   4.510 -0.1779 -0.4297 -0.1658
 1353SOL    HW114738   1.290   6.752   4.416 -0.9311 -1.3382  0.2192
 1353SOL    HW214739   1.323   6.883   4.508 -1.4003 -0.1168 -1.3127
 1354SOL     OW14740   2.625   1.531   0.452  0.3978  0.6394 -0.0614
 1354SOL    HW114741   2.569   1.525   0.535  2.3916 -0.2446  1.2787
 1354SOL    HW214742   2.587   1.472   0.381  0.4793 -1.1316  1.3435
 1355SOL     OW14743   8.639   2.089   4.408  0.8774 -0.6963  0.3878
 1355SOL    HW114744   8.667   2.086   4.504 -1.4744 -1.8447  1.0895
 1355SOL    HW214745   8.578   2.012   4.389  1.6405 -0.7207 -2.1532
 1356SOL     OW14746   4.597   8.570   4.634 -0.1865 -0.3926  0.7491
 1356SOL    HW114747   4.618   8.569   4.536 -1.1778  1.1919  0.5162
 1356SOL    HW214748   4.524   8.505   4.652  0.1195 -0.8237  0.4758
 1357SOL     OW14749   2.686   2.907   3.902 -0.3365  0.5640 -0.1051
 1357SOL    HW114750   2.701   3.005   3.914 -2.5306  1.1827 -2.1361
 1357SOL    HW214751   2.751   2.871   3.835  2.5914 -0.0751  2.9450
 1358SOL     OW14752   6.422   0.314   3.891  0.8024  0.1688 -0.1148
 1358SOL    HW114753   6.324   0.321   3.875  0.5009  0.6446  1.9107
 1358SOL    HW214754   6.465   0.402   3.870  0.7052  0.1723 -0.3036
 1359SOL     OW14755   9.691   0.427   1.128 -0.4015  0.0167  0.0291
 1359SOL    HW114756   9.671   0.427   1.030  0.7078  1.7390 -0.2110
 1359SOL    HW214757   9.634   0.495   1.174 -0.6751 -0.5508  0.5314
 1360SOL     OW14758   1.092   6.439   2.782 -0.6587  0.1268 -0.1077
 1360SOL    HW114759   1.034   6.371   2.827 -1.5449  1.0757  0.2027
 1360SOL    HW214760   1.168   6.393   2.735 -0.0625 -0.9141  1.8543
 1361SOL     OW14761   0.283   9.567   2.422 -0.2211  0.0689  0.0635
 1361SOL    HW114762   0.282   9.484   2.478 -1.6903 -0.3141 -0.4883
 1361SOL    HW214763   0.269   9.542   2.326 -0.7334  0.9479 -0.0997
 1362SOL     OW14764   3.169   7.399   0.405  0.0947 -0.0814 -0.0463
 1362SOL    HW114765   3.209   7.311   0.379  1.0710  0.9991 -2.3757
 1362SOL    HW214766   3.070   7.388   0.417  0.1704 -1.4530 -0.5487
 1363SOL     OW14767   8.560   8.855   3.672  0.0728 -0.2883 -0.2384
 1363SOL    HW114768   8.636   8.804   3.632  0.5230  0.8491 -0.8653
 1363SOL    HW214769   8.481   8.850   3.611 -0.9506 -2.9180  1.2186
 1364SOL     OW14770   5.707   5.081   1.383  0.3189  0.3940 -0.3826
 1364SOL    HW114771   5.674   5.123   1.299  1.6257  1.2008 -0.5125
 1364SOL    HW214772   5.630   5.063   1.445 -0.7011 -0.5814 -1.8949
 1365SOL     OW14773   9.440   2.922   2.242 -0.5732  0.1358 -0.1966
 1365SOL    HW114774   9.460   2.969   2.328  0.8715  0.8891 -0.9147
 1365SOL    HW214775   9.483   2.831   2.244 -1.1657 -0.1370  0.1689
 1366SOL     OW14776   1.562   4.612   2.143  0.5599  0.2065 -0.5429
 1366SOL    HW114777   1.636   4.555   2.107  0.0065 -0.1638 -1.1038
 1366SOL    HW214778   1.478   4.593   2.093  0.8942  3.2456 -2.3966
 1367SOL     OW14779   1.026   3.166   3.153  0.6346 -0.3520 -0.8709
 1367SOL    HW114780   1.099   3.141   3.217  1.2084  2.2304 -0.4391
 1367SOL    HW214781   1.053   3.247   3.102 -0.5387 -1.4008 -3.2091
 1368SOL     OW14782   7.868   7.700   3.698 -0.0326  0.4494  0.0398
 1368SOL    HW114783   7.828   7.667   3.613 -0.1901 -0.0179  0.2949
 1368SOL    HW214784   7.855   7.799   3.704 -0.7275  0.3742 -0.1054
 1369SOL     OW14785   9.936   7.579   2.718 -0.0051 -0.1508  0.2242
 1369SOL    HW114786   9.965   7.490   2.680 -2.1141 -1.1731  0.9583
 1369SOL    HW214787   9.844   7.600   2.686 -1.6150 -0.7520  4.2376
 1370SOL     OW14788   0.265   5.818   1.131  0.2469  0.2379  0.0796
 1370SOL    HW114789   0.281   5.847   1.226 -0.7135 -2.9959  1.2886
 1370SOL    HW214790   0.352   5.787   1.091  0.3122 -0.2082  0.5598
 1371SOL     OW14791   8.585   1.130   2.775  0.3460 -0.1463  0.2214
 1371SOL    HW114792   8.631   1.085   2.698  0.9212  3.2598 -1.5192
 1371SOL    HW214793   8.651   1.188   2.823 -0.9525  0.8891  0.7744
 1372SOL     OW14794   0.140   3.875   2.665  0.5065 -0.0455  0.3329
 1372SOL    HW114795   0.164   3.789   2.711  1.2220  0.6013  1.1813
 1372SOL    HW214796   0.183   3.951   2.713 -0.6892  0.8491 -0.0082
 1373SOL     OW14797   6.713   9.852   2.243  0.0887 -0.9132  0.3341
 1373SOL    HW114798   6.726   9.823   2.337 -0.0183  1.1715  1.0337
 1373SOL    HW214799   6.764   9.937   2.227 -0.9665 -0.5143 -1.0770
 1374SOL     OW14800   7.699   0.259   3.844  0.0034  0.3598  0.0271
 1374SOL    HW114801   7.677   0.263   3.747 -0.8682  0.8028  0.2360
 1374SOL    HW214802   7.793   0.290   3.859  0.9067 -1.7904 -0.9191
 1375SOL     OW14803   2.317   4.987   1.115  0.0140 -0.2544  0.2814
 1375SOL    HW114804   2.244   5.014   1.178 -0.8019 -1.1818 -0.2525
 1375SOL    HW214805   2.373   4.917   1.157 -0.3986 -0.7162  0.0688
 1376SOL     OW14806   9.269   7.038   1.210 -0.6215  0.1113  0.1656
 1376SOL    HW114807   9.205   7.028   1.285 -0.5363 -0.8839  0.1105
 1376SOL    HW214808   9.221   7.028   1.123  0.0861 -3.9169  0.1384
 1377SOL     OW14809   9.456   3.905   4.530 -0.9278  0.3302 -0.7394
 1377SOL    HW114810   9.494   3.960   4.455  1.3713  1.1054  0.9632
 1377SOL    HW214811   9.387   3.959   4.578 -0.6421  0.7301 -0.7734
 1378SOL     OW14812   1.940   2.455   4.258  0.5557 -0.5291 -1.4634
 1378SOL    HW114813   1.862   2.495   4.307  1.6490 -0.8936  0.6267
 1378SOL    HW214814   1.906   2.392   4.189 -1.0460  0.1172 -1.2953
 1379SOL     OW14815   9.971   1.101   3.647 -0.3054  0.1282  0.0146
 1379SOL    HW114816  10.020   1.155   3.715 -0.9016 -0.6384  1.0738
 1379SOL    HW214817   9.999   1.129   3.555  1.2145  0.5155  0.5861
 1380SOL     OW14818   2.485   0.001   3.123  0.0307 -0.0988 -0.1761
 1380SOL    HW114819   2.443   0.089   3.100 -0.8252 -0.9331 -1.9246
 1380SOL    HW214820   2.583   0.005   3.107 -0.1166  0.3037 -1.0063
 1381SOL     OW14821   8.134   4.050   4.161 -0.1446  0.1951 -0.2746
 1381SOL    HW114822   8.075   4.093   4.093 -1.2966 -0.9015  0.0129
 1381SOL    HW214823   8.110   4.082   4.252  0.3502  0.4790 -0.2431
 1382SOL     OW14824   7.116   9.273   0.131 -0.5903  0.1284 -0.4436
 1382SOL    HW114825   7.190   9.206   0.118 -1.1662 -1.2506  2.9002
 1382SOL    HW214826   7.029   9.232   0.105 -1.0018 -0.6115  2.0451
 1383SOL     OW14827   4.070   3.496   2.216  0.0090 -0.2604  0.4964
 1383SOL    HW114828   4.094   3.574   2.158 -0.9104 -0.7035 -0.4811
 1383SOL    HW214829   4.014   3.432   2.165  3.3029 -3.1276  0.3255
 1384SOL     OW14830   8.352   5.127   2.263  0.5503  0.3140 -0.3357
 1384SOL    HW114831   8.395   5.082   2.342  2.2480 -1.8761 -2.4191
 1384SOL    HW214832   8.403   5.210   2.240  0.7728  0.3004  0.1012
 1385SOL     OW14833   2.985   3.086   1.595  0.0639 -0.5978 -0.1957
 1385SOL    HW114834   3.016   3.166   1.542 -0.7608 -0.5221 -0.5619
 1385SOL    HW214835   3.063   3.024   1.609  0.8439  0.5188  0.5548
 1386SOL     OW14836   7.211   0.324   3.612 -0.3036  0.0911 -0.3558
 1386SOL    HW114837   7.122   0.365   3.631 -0.4589 -0.8020  0.9008
 1386SOL    HW214838   7.271   0.392   3.570 -1.2638  0.9680 -0.3193
 1387SOL     OW14839   3.668   2.737   1.367 -0.2695 -0.3735  0.2181
 1387SOL    HW114840   3.658   2.656   1.425 -0.3188 -1.5799 -1.4227
 1387SOL    HW214841   3.738   2.719   1.297 -0.5979  0.8354 -0.4319
 1388SOL     OW14842   6.252   9.793   3.358 -0.0773 -0.0749 -0.4244
 1388SOL    HW114843   6.152   9.793   3.359 -0.0971  0.4975 -1.8200
 1388SOL    HW214844   6.287   9.852   3.431 -0.7082 -2.5604  1.9750
 1389SOL     OW14845   9.373   7.807   3.856  0.0796  0.4761  0.5374
 1389SOL    HW114846   9.451   7.759   3.816 -0.9117 -0.1305 -0.7149
 1389SOL    HW214847   9.312   7.740   3.900  0.1305  0.9153  1.2768
 1390SOL     OW14848   0.713   0.200   2.805  0.1260  0.0599  0.0320
 1390SOL    HW114849   0.645   0.217   2.734 -0.2480  2.4509  0.9112
 1390SOL    HW214850   0.743   0.287   2.844  0.9306 -1.1719  2.2492
 1391SOL     OW14851   9.151   3.627   0.425  0.5391  0.5337 -0.5147
 1391SOL    HW114852   9.101   3.586   0.348  0.8426  1.2090 -1.0797
 1391SOL    HW214853   9.159   3.560   0.499  1.5702 -0.6532 -1.6753
 1392SOL     OW14854   4.170   9.177   3.273 -0.1978  0.2050  0.5792
 1392SOL    HW114855   4.193   9.195   3.369 -0.8945  1.8978  0.4573
 1392SOL    HW214856   4.092   9.116   3.268  0.8863 -1.2338  1.0621
 1393SOL     OW14857   6.524   0.666   3.468 -0.1401  0.2534 -0.0489
 1393SOL    HW114858   6.559   0.756   3.495 -0.5025  0.7425 -1.1666
 1393SOL    HW214859   6.575   0.634   3.387 -0.7405 -0.0523 -0.3100
 1394SOL     OW14860   8.875   4.880   0.073  0.3984 -0.1178  0.3900
 1394SOL    HW114861   8.874   4.980   0.067 -0.5450 -0.2172 -1.2646
 1394SOL    HW214862   8.845   4.840  -0.014  0.7962 -1.8475  1.0157
 1395SOL     OW14863   0.537   9.269   1.131  0.1689 -0.9222  0.4714
 1395SOL    HW114864   0.451   9.220   1.140 -0.7992  0.6556 -0.1545
 1395SOL    HW214865   0.547   9.303   1.038  0.4301  0.8083  1.1138
 1396SOL     OW14866   9.286   9.308   3.280 -0.0899 -0.0096  0.4577
 1396SOL    HW114867   9.374   9.294   3.234 -0.5912 -1.5933 -0.0551
 1396SOL    HW214868   9.302   9.351   3.369  1.0819  0.9510 -0.1994
 1397SOL     OW14869   2.775   7.765   3.507 -0.0192  0.5374  0.1198
 1397SOL    HW114870   2.749   7.677   3.547 -0.4726  0.8885  0.6123
 1397SOL    HW214871   2.724   7.779   3.422  0.0088  0.3509  0.0722
 1398SOL     OW14872   9.106   0.518   1.055 -0.4959  0.2421 -0.1957
 1398SOL    HW114873   9.019   0.470   1.049  0.3789 -1.2836 -1.0907
 1398SOL    HW214874   9.145   0.527   0.963  0.7468  0.0364  0.3053
 1399SOL     OW14875   2.914   0.857   2.095  0.6821  0.3052 -0.0011
 1399SOL    HW114876   2.874   0.770   2.066 -3.4758  1.8224  0.9417
 1399SOL    HW214877   2.900   0.926   2.023  1.3398  0.9695  0.4981
 1400SOL     OW14878   8.597   9.257   4.156 -0.0962  0.3643  0.2649
 1400SOL    HW114879   8.664   9.186   4.134  0.4271  0.7444  0.6262
 1400SOL    HW214880   8.537   9.270   4.077 -0.2276 -0.5092  0.2135
 1401SOL     OW14881   9.756   8.442   1.210 -0.0629 -0.1378 -0.3090
 1401SOL    HW114882   9.831   8.484   1.159 -0.7575  0.2291 -1.0552
 1401SOL    HW214883   9.792   8.376   1.275  1.0999  1.9788  1.2522
 1402SOL     OW14884   1.221   5.523   2.060  0.4451 -0.0614  0.4941
 1402SOL    HW114885   1.220   5.545   1.962  0.4588  2.0122  0.9402
 1402SOL    HW214886   1.190   5.428   2.073 -0.1115 -0.1709 -1.4673
 1403SOL     OW14887   3.149   0.270   1.611 -0.3094 -0.0467  0.4973
 1403SOL    HW114888   3.212   0.212   1.558 -0.6528  0.5176 -0.5572
 1403SOL    HW214889   3.135   0.231   1.702  1.9116  0.0556  0.9022
 1404SOL     OW14890   0.520   5.106   4.732  0.9133 -0.0040 -0.1883
 1404SOL    HW114891   0.440   5.046   4.729  1.3185 -0.4837 -1.8031
 1404SOL    HW214892   0.552   5.124   4.639  1.8755  1.2786  0.3782
 1405SOL     OW14893   2.807   9.168   0.255  0.2422  0.2961 -0.2458
 1405SOL    HW114894   2.881   9.222   0.214  1.6061 -1.1411  0.2424
 1405SOL    HW214895   2.784   9.092   0.193  0.4282 -0.3030  0.4156
 1406SOL     OW14896   4.046   5.554   1.704  0.1362 -0.1781  0.2587
 1406SOL    HW114897   4.053   5.457   1.728 -2.9126 -0.5245 -0.0904
 1406SOL    HW214898   4.070   5.610   1.784  0.9116 -1.1931  0.7540
 1407SOL     OW14899   2.577   8.887   4.342 -0.4905  0.3010 -0.4522
 1407SOL    HW114900   2.669   8.903   4.307 -0.1672 -1.4067 -0.4275
 1407SOL    HW214901   2.510   8.907   4.271 -0.1013  1.3811 -0.5266
 1408SOL     OW14902   5.068   8.542   1.599 -0.2384  0.0546 -0.1201
 1408SOL    HW114903   5.000   8.615   1.600 -1.6396 -1.2232 -0.1415
 1408SOL    HW214904   5.155   8.578   1.566 -1.3063  1.3811 -1.5940
 1409SOL     OW14905   0.269   1.817   3.072  0.2149 -0.1748  0.2849
 1409SOL    HW114906   0.210   1.872   3.013 -0.7123 -2.1134 -0.6182
 1409SOL    HW214907   0.365   1.845   3.059 -0.1851  0.8195 -0.5850
 1410SOL     OW14908   7.158   6.560   3.439 -0.0143  0.4755 -0.4419
 1410SOL    HW114909   7.222   6.595   3.371  1.1227  0.1908  0.4761
 1410SOL    HW214910   7.172   6.608   3.526 -0.9446  0.3022 -0.1852
 1411SOL     OW14911   3.015   9.560   1.991 -0.2437 -0.1765 -0.3385
 1411SOL    HW114912   3.068   9.545   2.074  0.7909 -3.6282 -1.5072
 1411SOL    HW214913   3.075   9.594   1.918 -0.2886 -0.9581 -0.7499
 1412SOL     OW14914   1.261   7.797   0.064  0.3321  0.0320  0.7074
 1412SOL    HW114915   1.245   7.851   0.146 -0.0772  0.8136  0.1183
 1412SOL    HW214916   1.288   7.858  -0.011  0.0483 -0.6017  0.0909
 1413SOL     OW14917   1.676   8.653   2.281  0.3251 -0.4819  0.3139
 1413SOL    HW114918   1.719   8.686   2.365  0.4247 -2.9824  1.2603
 1413SOL    HW214919   1.711   8.562   2.258 -0.0349 -0.0397 -2.1986
 1414SOL     OW14920   7.985   8.655   0.477 -0.3136 -0.2394 -0.3488
 1414SOL    HW114921   7.993   8.578   0.541  1.3289 -0.1097 -0.3838
 1414SOL    HW214922   7.899   8.646   0.426 -0.4406 -1.7256  0.0805
 1415SOL     OW14923   7.347   9.990   4.393 -0.2681  0.4778 -0.4274
 1415SOL    HW114924   7.357   9.944   4.482 -2.0695 -1.3176 -1.0950
 1415SOL    HW214925   7.437  10.008   4.355  0.6270 -5.0592 -1.3417
 1416SOL     OW14926   0.566   7.141   0.798 -0.0500  0.8332 -0.0146
 1416SOL    HW114927   0.566   7.100   0.889  0.2951  1.1748  0.1466
 1416SOL    HW214928   0.492   7.103   0.743 -1.4577  1.9901  1.0273
 1417SOL     OW14929   5.751   0.107   3.787  0.0461  0.0554 -0.1501
 1417SOL    HW114930   5.803   0.074   3.709 -1.8378  1.1952 -1.9564
 1417SOL    HW214931   5.658   0.071   3.783  0.1248 -0.4658  2.0001
 1418SOL     OW14932   1.748   1.959   3.315 -0.1064 -0.0105  0.7664
 1418SOL    HW114933   1.740   1.943   3.413 -2.0159 -2.3220  0.2911
 1418SOL    HW214934   1.811   1.892   3.275  0.2021  0.5416  0.3065
 1419SOL     OW14935   1.375   7.722   2.861 -0.3710  0.4832  0.5693
 1419SOL    HW114936   1.368   7.798   2.796  1.4218  1.5571  1.5942
 1419SOL    HW214937   1.460   7.729   2.912  0.6716 -3.2226 -0.4966
 1420SOL     OW14938   5.313   0.515   4.382 -0.2222  0.1003 -0.0008
 1420SOL    HW114939   5.265   0.474   4.305  0.1382  0.4164 -0.3959
 1420SOL    HW214940   5.273   0.482   4.468  0.4751 -1.5656 -0.3046
 1421SOL     OW14941   1.948   5.883   3.121 -0.5953 -0.0222 -0.0265
 1421SOL    HW114942   2.035   5.832   3.122  0.0314  1.0183 -0.2013
 1421SOL    HW214943   1.882   5.838   3.181 -0.0725 -1.0611 -0.2116
 1422SOL     OW14944   9.031   0.730   1.689 -0.0074 -0.1932 -0.0501
 1422SOL    HW114945   9.005   0.820   1.722  0.6475  0.5131 -1.3896
 1422SOL    HW214946   8.997   0.717   1.595 -0.0929 -1.3345  0.1228
 1423SOL     OW14947   3.425   0.016   3.067 -0.0997  0.0200 -0.6206
 1423SOL    HW114948   3.500  -0.044   3.095  0.4221  1.3333  0.8720
 1423SOL    HW214949   3.358   0.022   3.140 -0.5926  0.5448 -1.1149
 1424SOL     OW14950   2.456   3.416   0.043  0.2131 -0.1127  0.2937
 1424SOL    HW114951   2.496   3.325   0.039 -1.1473 -0.8490  2.4604
 1424SOL    HW214952   2.419   3.440  -0.047  3.2026 -0.4291 -1.0770
 1425SOL     OW14953   9.420   4.945   4.384 -0.4118 -0.1030 -0.2197
 1425SOL    HW114954   9.483   4.916   4.456  0.2994 -1.0340 -1.1952
 1425SOL    HW214955   9.434   4.888   4.303 -2.3743 -0.1909 -0.5320
 1426SOL     OW14956   2.765   9.982   3.096 -0.7082 -0.5510 -0.4078
 1426SOL    HW114957   2.790   9.941   3.184 -3.6809 -0.0005  0.7757
 1426SOL    HW214958   2.818   9.940   3.023  2.3992 -0.4650  1.7278
 1427SOL     OW14959   3.460   4.622   0.006 -0.6100 -0.7366  0.5954
 1427SOL    HW114960   3.393   4.554  -0.022 -1.0449 -1.1124  2.4838
 1427SOL    HW214961   3.422   4.714  -0.008 -0.2870 -0.8924 -1.3041
 1428SOL     OW14962   0.010   7.528   0.629 -0.2082  0.0565 -0.0773
 1428SOL    HW114963   0.041   7.548   0.536 -0.2075  1.2505  0.1740
 1428SOL    HW214964   0.090   7.516   0.688 -0.2092 -0.7523 -0.2347
 1429SOL     OW14965   0.583   0.369   3.862 -0.1243 -0.4878  0.1022
 1429SOL    HW114966   0.493   0.395   3.827 -0.9165 -1.3211  1.4788
 1429SOL    HW214967   0.598   0.411   3.951  0.4634 -1.0616  0.2793
 1430SOL     OW14968   1.812   0.765   0.518  0.3948 -0.2533 -0.3800
 1430SOL    HW114969   1.904   0.736   0.547  0.6634 -0.8016 -1.7305
 1430SOL    HW214970   1.795   0.734   0.425 -1.8174 -1.5554  0.4307
 1431SOL     OW14971   7.107   6.676   2.903 -0.8871 -0.0053  0.2327
 1431SOL    HW114972   7.144   6.598   2.853 -1.8007  1.2718 -2.5561
 1431SOL    HW214973   7.007   6.673   2.899 -0.9256  1.9215 -0.9757
 1432SOL     OW14974   4.264   8.543   1.939  0.3361  0.4770 -0.0007
 1432SOL    HW114975   4.312   8.562   2.025  1.3144 -0.3962 -0.3400
 1432SOL    HW214976   4.252   8.627   1.887  0.7279  0.8314  0.4848
 1433SOL     OW14977   9.263   1.784   2.990 -0.3411  0.2115  0.2100
 1433SOL    HW114978   9.308   1.836   3.062 -2.4695  0.6693  1.2600
 1433SOL    HW214979   9.190   1.839   2.949 -0.5584 -0.8180 -0.8308
 1434SOL     OW14980   9.338   4.905   0.533 -0.0924  0.1610 -0.2893
 1434SOL    HW114981   9.416   4.848   0.560  0.1788  0.3982 -0.5612
 1434SOL    HW214982   9.310   4.961   0.611 -1.0437 -1.1062  0.2983
 1435SOL     OW14983   6.511   0.860   2.937 -0.7669 -0.0683 -0.8010
 1435SOL    HW114984   6.411   0.862   2.932 -0.6998  0.7723 -2.2607
 1435SOL    HW214985   6.547   0.839   2.846  0.3421 -2.4881  0.1596
 1436SOL     OW14986   8.777   9.966   3.728 -0.3257 -0.5538  0.0339
 1436SOL    HW114987   8.832   9.939   3.649  0.7028 -2.4320  1.3675
 1436SOL    HW214988   8.836   9.983   3.806 -1.3374  1.3886  0.4080
 1437SOL     OW14989   2.998   4.819   3.365  0.3454  0.4599 -0.4298
 1437SOL    HW114990   3.019   4.887   3.294  0.3994  0.9535  0.0574
 1437SOL    HW214991   2.939   4.748   3.326 -1.3743  1.8543 -0.4442
 1438SOL     OW14992   0.083   5.109   1.816 -0.8147 -0.0455  0.4215
 1438SOL    HW114993   0.006   5.051   1.789 -1.6705  0.6651  1.2854
 1438SOL    HW214994   0.159   5.052   1.846 -1.4409 -0.7341  0.7060
 1439SOL     OW14995   2.097   3.345   1.092 -0.5337 -0.2742  0.1632
 1439SOL    HW114996   2.045   3.423   1.060 -2.6354 -1.0581  1.5337
 1439SOL    HW214997   2.084   3.267   1.030 -0.4417 -0.2737  0.1420
 1440SOL     OW14998   1.198   5.795   0.557  0.1713 -0.2756  0.0767
 1440SOL    HW114999   1.102   5.770   0.566  0.2930 -0.2615  1.4964
 1440SOL    HW215000   1.225   5.853   0.634  0.2544  3.1717 -2.4221
 1441SOL     OW15001   9.377   1.810   3.671  0.0564  0.1862 -0.2805
 1441SOL    HW115002   9.460   1.846   3.715  1.2133  0.2381 -2.4004
 1441SOL    HW215003   9.377   1.711   3.677  0.3637  0.1757 -0.4190
 1442SOL     OW15004   9.276   7.114   4.701  0.0211  0.1558  0.2727
 1442SOL    HW115005   9.353   7.170   4.729  0.8671 -0.0017 -1.6595
 1442SOL    HW215006   9.191   7.156   4.731  0.7502  1.3820  0.6370
 1443SOL     OW15007   8.453   8.689   0.937 -0.2505 -0.4778 -0.5551
 1443SOL    HW115008   8.461   8.759   0.865  0.6970 -0.7646 -0.7400
 1443SOL    HW215009   8.393   8.616   0.905 -0.5348 -0.1783 -0.7127
 1444SOL     OW15010   8.500   7.920   1.359 -0.1772  0.1117  0.4623
 1444SOL    HW115011   8.537   7.987   1.424 -0.4721  1.7008 -0.9637
 1444SOL    HW215012   8.560   7.914   1.279 -1.8455  1.1544 -0.9209
 1445SOL     OW15013   1.262   0.569   2.496 -0.1117 -0.3382  0.6724
 1445SOL    HW115014   1.340   0.528   2.449 -0.7624 -0.4820 -0.2930
 1445SOL    HW215015   1.192   0.498   2.513 -0.4276 -0.0211  0.7045
 1446SOL     OW15016   2.040   1.348   0.918  0.1049 -0.3922  0.0033
 1446SOL    HW115017   2.044   1.280   0.844  0.6729 -0.1837 -0.1633
 1446SOL    HW215018   1.974   1.419   0.893  0.2587 -0.3478 -0.2838
 1447SOL     OW15019   0.701   9.174   2.722 -0.2222 -0.0774 -0.2164
 1447SOL    HW115020   0.706   9.078   2.692  0.0996 -0.6986  1.7854
 1447SOL    HW215021   0.613   9.212   2.694 -0.3888 -0.9836 -0.9589
 1448SOL     OW15022   8.303   3.741   2.000 -0.0639 -0.5088 -0.4897
 1448SOL    HW115023   8.392   3.698   1.988  0.5985  1.0547 -1.3212
 1448SOL    HW215024   8.235   3.694   1.944  0.1558 -1.8870  0.3710
 1449SOL     OW15025   2.359   5.524   0.931  0.2568  0.5339 -0.2459
 1449SOL    HW115026   2.261   5.540   0.918 -0.0196 -0.9449  0.0009
 1449SOL    HW215027   2.396   5.478   0.851  0.6626  0.6675 -0.1364
 1450SOL     OW15028   0.492   0.123   3.561  0.4375 -0.2230 -0.1001
 1450SOL    HW115029   0.560   0.108   3.490  0.0333 -2.3990 -0.0449
 1450SOL    HW215030   0.534   0.110   3.651  0.6690  1.4052  0.0392
 1451SOL     OW15031   0.642   8.462   4.517 -0.1248  0.0799 -0.8056
 1451SOL    HW115032   0.583   8.390   4.551  0.9647 -0.3219  0.2573
 1451SOL    HW215033   0.617   8.484   4.422 -0.7743 -1.3486 -0.9713
 1452SOL     OW15034   6.627   7.296   3.073  0.0854  0.0275 -0.3801
 1452SOL    HW115035   6.673   7.217   3.033  0.8114 -0.1903  0.8483
 1452SOL    HW215036   6.695   7.364   3.100 -0.4682  0.6444 -0.5231
 1453SOL     OW15037   9.884   5.537   3.115 -0.5287  0.0447  0.3105
 1453SOL    HW115038   9.947   5.579   3.050 -1.5797  1.0652 -0.0696
 1453SOL    HW215039   9.849   5.451   3.077  0.6151 -0.5325  0.5269
 1454SOL     OW15040   3.711   7.601   1.849  0.1336 -0.2121  0.1856
 1454SOL    HW115041   3.672   7.689   1.877  0.9671  0.0329  0.5971
 1454SOL    HW215042   3.657   7.562   1.775  0.6177  1.3365 -0.9816
 1455SOL     OW15043   4.267   1.907   2.338 -0.1635  0.1229  0.1865
 1455SOL    HW115044   4.309   1.821   2.364  0.2487  0.0720 -0.6255
 1455SOL    HW215045   4.312   1.983   2.385  1.1644  0.1116 -1.0414
 1456SOL     OW15046   2.455   3.073   3.687  0.5140 -0.2663 -0.2872
 1456SOL    HW115047   2.460   3.122   3.774  0.2311 -0.8994  0.0796
 1456SOL    HW215048   2.514   3.119   3.620 -0.3672  1.0620 -0.1751
 1457SOL     OW15049   5.897   7.894   3.059  0.4864  0.2218 -0.0249
 1457SOL    HW115050   5.925   7.827   2.990  1.0937 -1.1099  1.5019
 1457SOL    HW215051   5.934   7.984   3.035  1.2446 -0.3625 -1.0814
 1458SOL     OW15052   3.447   0.392   3.312 -0.2660  0.1086 -0.1992
 1458SOL    HW115053   3.455   0.418   3.216  1.5266  1.2921  0.2418
 1458SOL    HW215054   3.478   0.297   3.322 -2.4464 -0.7332 -1.0853
 1459SOL     OW15055   7.842   6.603   3.010  0.4116 -0.1786  0.1133
 1459SOL    HW115056   7.783   6.645   2.941  0.3200 -0.7965 -0.1798
 1459SOL    HW215057   7.841   6.660   3.093 -0.8370 -0.3475  0.2219
 1460SOL     OW15058   4.334   1.050   0.404 -0.4161 -0.1740 -0.4859
 1460SOL    HW115059   4.332   1.006   0.314  0.3842 -1.3978  0.0869
 1460SOL    HW215060   4.409   1.116   0.408  1.1212 -1.9543  0.1304
 1461SOL     OW15061   9.695   1.591   4.270 -0.2849 -0.0412 -0.4201
 1461SOL    HW115062   9.724   1.508   4.224  0.0461 -0.5478  0.6875
 1461SOL    HW215063   9.743   1.600   4.357 -0.8215  0.9530 -0.2130
 1462SOL     OW15064   8.715   9.535   2.017  0.2335 -0.2924  0.2389
 1462SOL    HW115065   8.815   9.541   2.019  0.1646  1.1032  0.8100
 1462SOL    HW215066   8.679   9.603   1.953 -0.2777 -2.1551 -1.4668
 1463SOL     OW15067   9.611   8.006   1.272  0.5578  0.7556 -0.7083
 1463SOL    HW115068   9.703   8.023   1.236 -0.0900 -1.2805 -3.5548
 1463SOL    HW215069   9.611   7.921   1.325  0.5651  1.4274  0.3801
 1464SOL     OW15070   2.926   1.953   0.063 -0.0331  0.1375  0.0545
 1464SOL    HW115071   2.898   1.859   0.081  0.5927  0.1965  1.4471
 1464SOL    HW215072   2.980   1.956  -0.021  2.3161 -1.2478  1.4324
 1465SOL     OW15073   1.463   8.536   2.062 -0.3676  0.2210  0.1510
 1465SOL    HW115074   1.442   8.508   2.155 -1.7287  1.9537  0.3700
 1465SOL    HW215075   1.562   8.527   2.046 -0.4068 -2.2469  0.9962
 1466SOL     OW15076   1.153   3.105   1.794 -0.3358  0.1458  0.1096
 1466SOL    HW115077   1.069   3.068   1.834  0.0495 -1.0625 -0.1674
 1466SOL    HW215078   1.133   3.191   1.747 -0.9992  0.9930  1.9206
 1467SOL     OW15079   2.933   8.924   0.590  0.1496  0.2849 -0.2203
 1467SOL    HW115080   3.007   8.887   0.533  0.5314 -1.1409  1.1849
 1467SOL    HW215081   2.878   8.850   0.627 -0.8418  1.2567  0.2843
 1468SOL     OW15082   2.804   2.339   4.118 -0.1247  0.0389 -0.6163
 1468SOL    HW115083   2.764   2.266   4.173 -0.3819 -0.5194 -1.5269
 1468SOL    HW215084   2.733   2.378   4.059  0.8126 -1.4809 -2.8124
 1469SOL     OW15085   3.305   0.054   1.509 -0.1254  0.6848 -0.2496
 1469SOL    HW115086   3.377   0.034   1.443 -0.7402 -2.0766 -0.1341
 1469SOL    HW215087   3.340   0.039   1.602 -0.1817  1.5671 -0.0818
 1470SOL     OW15088   8.847   0.719   2.676 -0.2667  0.0777  0.0854
 1470SOL    HW115089   8.876   0.627   2.649  1.5156  0.0897  1.8149
 1470SOL    HW215090   8.922   0.764   2.724 -1.0517  2.5193 -0.8974
 1471SOL     OW15091   3.310   9.837   4.671 -0.0776  0.3307  0.1406
 1471SOL    HW115092   3.379   9.835   4.743 -0.1232 -2.0367  0.1660
 1471SOL    HW215093   3.239   9.770   4.691 -0.8317  0.6511 -1.3884
 1472SOL     OW15094   5.201   2.266   1.144  0.4420  0.1373 -0.0594
 1472SOL    HW115095   5.251   2.261   1.230  1.0373  0.2248 -0.3950
 1472SOL    HW215096   5.191   2.362   1.117 -1.0533  0.2035  0.6615
 1473SOL     OW15097   0.162   1.899   0.680 -0.4117  0.2410  0.3666
 1473SOL    HW115098   0.071   1.898   0.639 -0.1440 -1.5394 -0.2227
 1473SOL    HW215099   0.200   1.991   0.675 -1.2398  0.4948 -1.4791
 1474SOL     OW15100   0.111   7.409   3.526  0.4335 -0.4347  0.0733
 1474SOL    HW115101   0.160   7.430   3.442  1.6516  1.1337  1.1659
 1474SOL    HW215102   0.128   7.313   3.551  1.0193 -0.5692 -0.8161
 1475SOL     OW15103   1.830   1.460   3.240  0.0571 -0.3810  0.1827
 1475SOL    HW115104   1.854   1.414   3.326  1.0481 -0.8379 -0.3322
 1475SOL    HW215105   1.895   1.533   3.221 -0.6873  0.3162  0.2692
 1476SOL     OW15106   3.877   9.147   2.153  0.3133  0.0757  0.2557
 1476SOL    HW115107   3.875   9.209   2.231  0.8293 -0.4458  0.6916
 1476SOL    HW215108   3.896   9.198   2.069 -1.2710  0.7822  0.3183
 1477SOL     OW15109   9.657   9.427   4.747  0.3263 -0.1636  0.2440
 1477SOL    HW115110   9.675   9.370   4.827  2.0509  0.2786  0.1793
 1477SOL    HW215111   9.734   9.422   4.684  0.0193  1.3670 -0.2793
 1478SOL     OW15112   4.576   0.042   4.229  0.2753  0.1830 -0.2085
 1478SOL    HW115113   4.567   0.043   4.329  1.3127 -0.7266 -0.0965
 1478SOL    HW215114   4.489   0.068   4.188 -0.0133  1.1160  0.9357
 1479SOL     OW15115   8.922   3.318   2.596  0.5200 -0.1791 -0.2518
 1479SOL    HW115116   8.840   3.284   2.641  0.2905 -2.1657 -2.0415
 1479SOL    HW215117   8.897   3.377   2.519  0.8738  2.1805  1.4106
 1480SOL     OW15118   1.820   2.667   2.427 -0.0132 -0.0592  0.3746
 1480SOL    HW115119   1.739   2.623   2.387 -0.5818 -0.2463  1.7069
 1480SOL    HW215120   1.841   2.625   2.515  1.4766  0.0704  0.0884
 1481SOL     OW15121   8.675   2.067   4.673 -0.3746 -0.1731 -0.3928
 1481SOL    HW115122   8.635   1.998   4.732 -0.0246 -0.0166  0.0249
 1481SOL    HW215123   8.763   2.097   4.710  1.3157 -2.2538 -2.5541
 1482SOL     OW15124   3.508   9.232   4.415 -0.7344 -0.5268  0.1471
 1482SOL    HW115125   3.498   9.286   4.331  1.2727 -0.2369  0.0679
 1482SOL    HW215126   3.418   9.203   4.447 -1.7443  1.6491 -0.6079
 1483SOL     OW15127   2.209   1.845   0.790 -0.2356 -0.6960  0.3915
 1483SOL    HW115128   2.151   1.864   0.711  0.7646  0.5154 -0.0923
 1483SOL    HW215129   2.273   1.772   0.767 -1.2276 -1.6893  0.7571
 1484SOL     OW15130   1.199   6.710   1.881  0.1505  0.4622  0.5555
 1484SOL    HW115131   1.244   6.717   1.971  0.8859  0.3411  0.1973
 1484SOL    HW215132   1.183   6.614   1.859  0.0753  0.4873  0.5004
 1485SOL     OW15133   3.146   0.653   0.312  0.1171  0.1738 -0.4849
 1485SOL    HW115134   3.120   0.617   0.222 -0.2882  1.2821 -0.8183
 1485SOL    HW215135   3.109   0.593   0.383  0.7155 -0.8882 -1.0570
 1486SOL     OW15136   2.311   6.235   1.073  0.4450 -0.0273  0.2704
 1486SOL    HW115137   2.295   6.277   0.984  3.5468  0.0511 -0.2914
 1486SOL    HW215138   2.233   6.254   1.133 -1.5685  0.1186 -2.3192
 1487SOL     OW15139   1.786   7.520   3.551 -0.2106 -0.0570 -0.2103
 1487SOL    HW115140   1.765   7.476   3.638 -0.4469  0.8609  0.1966
 1487SOL    HW215141   1.706   7.516   3.491 -0.7845  1.3014  0.4492
 1488SOL     OW15142   5.445   7.698   2.916  0.5925 -0.2544 -0.1032
 1488SOL    HW115143   5.532   7.684   2.870  0.4642  0.5417 -0.6092
 1488SOL    HW215144   5.404   7.784   2.884 -0.3877 -0.6371  0.1012
 1489SOL     OW15145   0.504   4.524   1.694  0.1817 -0.2197 -0.2763
 1489SOL    HW115146   0.545   4.468   1.622 -0.0406  0.2599 -0.7807
 1489SOL    HW215147   0.554   4.610   1.701  0.5709 -0.5053  0.5494
 1490SOL     OW15148   7.238   7.271   2.639  0.1510 -0.4549 -0.1059
 1490SOL    HW115149   7.330   7.310   2.640  0.4322 -1.1293  0.8206
 1490SOL    HW215150   7.241   7.180   2.598 -0.0794 -0.5560  0.1057
 1491SOL     OW15151   1.755   0.349   0.171 -0.1724  0.0542  0.0920
 1491SOL    HW115152   1.664   0.313   0.152 -0.5325  1.4329 -0.8304
 1491SOL    HW215153   1.799   0.293   0.242 -0.9095 -1.8937 -0.9527
 1492SOL     OW15154   9.675   4.290   0.799  0.4249 -0.2665 -0.2387
 1492SOL    HW115155   9.615   4.370   0.793 -0.8768 -1.3357 -1.8685
 1492SOL    HW215156   9.620   4.207   0.806  1.7329 -1.1698 -0.4449
 1493SOL     OW15157   7.950   7.366   1.697 -0.5336 -0.4763 -0.1951
 1493SOL    HW115158   7.958   7.291   1.631  0.4215 -0.5405 -0.0141
 1493SOL    HW215159   8.037   7.416   1.700 -1.1002  0.5042 -0.1570
 1494SOL     OW15160   4.046   3.147   2.612 -0.6145 -0.0800 -0.4825
 1494SOL    HW115161   4.118   3.090   2.652 -0.8113 -0.1155 -0.1721
 1494SOL    HW215162   3.961   3.133   2.663 -0.8210  0.0208 -0.7989
 1495SOL     OW15163   4.200   2.882   2.579 -0.7652  0.3854 -0.2637
 1495SOL    HW115164   4.260   2.829   2.639 -2.3727 -1.2534 -0.0569
 1495SOL    HW215165   4.254   2.947   2.526  0.9034  0.5061  1.5599
 1496SOL     OW15166   1.434   6.983   1.438  0.4757  0.7583 -0.1444
 1496SOL    HW115167   1.399   7.076   1.441 -0.9273  0.3300 -2.0943
 1496SOL    HW215168   1.380   6.925   1.499 -0.1968  0.7431 -0.7503
 1497SOL     OW15169   4.113   9.714   4.313  0.4620 -0.3858  0.3479
 1497SOL    HW115170   4.079   9.674   4.228 -0.0159 -1.6501  1.1266
 1497SOL    HW215171   4.060   9.796   4.334 -0.5513 -1.0324  0.3237
 1498SOL     OW15172   3.621   6.033   2.539  0.1029  0.4625  0.2439
 1498SOL    HW115173   3.573   5.957   2.497 -1.6721  1.0064  1.2422
 1498SOL    HW215174   3.606   6.116   2.485  0.8201  0.4264 -0.0248
 1499SOL     OW15175   3.280   1.409   0.044 -0.7848  0.4869 -0.3504
 1499SOL    HW115176   3.355   1.457   0.090 -1.7363  2.0958 -0.4409
 1499SOL    HW215177   3.196   1.420   0.097 -0.8829 -1.6072 -0.0664
 1500SOL     OW15178   9.407   1.361   0.069 -0.0964 -0.4432  0.0009
 1500SOL    HW115179   9.384   1.377   0.165 -0.0828  0.1748 -0.1000
 1500SOL    HW215180   9.500   1.393   0.050 -0.7635  1.1469 -0.6569
 1501SOL     OW15181   1.034   5.701   2.881  0.8316  0.2159  0.2143
 1501SOL    HW115182   1.059   5.659   2.968  1.1228 -0.0628 -0.0010
 1501SOL    HW215183   1.102   5.771   2.857  0.1006  1.1373  0.7964
 1502SOL     OW15184   7.487   1.513   2.782  0.8041  0.1866 -0.1767
 1502SOL    HW115185   7.514   1.602   2.746 -1.5428  0.4011 -1.5359
 1502SOL    HW215186   7.436   1.525   2.867 -1.2446  0.3162 -1.3960
 1503SOL     OW15187   8.455   3.186   2.399 -0.8417  0.4412  0.5212
 1503SOL    HW115188   8.522   3.116   2.423  0.1756  1.6204  1.1707
 1503SOL    HW215189   8.452   3.197   2.299  0.6868  1.0903  0.5275
 1504SOL     OW15190   7.718   7.481   2.365  0.8112  0.1956 -0.0319
 1504SOL    HW115191   7.671   7.519   2.285 -1.6771 -0.9111  0.8735
 1504SOL    HW215192   7.662   7.493   2.446  0.7782 -3.6426  0.6046
 1505SOL     OW15193   2.426   8.998   0.546 -0.0255  0.1050 -0.0555
 1505SOL    HW115194   2.524   9.010   0.531 -0.5143  2.2424 -1.7970
 1505SOL    HW215195   2.403   8.901   0.540  1.6421 -0.2140 -1.7581
 1506SOL     OW15196   2.297   2.241   2.713  0.2167  0.0737  0.3627
 1506SOL    HW115197   2.284   2.142   2.703  1.7050  0.0605 -1.8476
 1506SOL    HW215198   2.379   2.259   2.767  0.2296  0.1047  0.3327
 1507SOL     OW15199   0.230   6.424   0.489  0.5542  0.4843 -0.1656
 1507SOL    HW115200   0.306   6.486   0.471  0.1191  0.5347 -1.9612
 1507SOL    HW215201   0.164   6.469   0.550  0.6177  1.5054 -0.8286
 1508SOL     OW15202   7.699   1.978   3.519  0.0653 -0.0578  0.1533
 1508SOL    HW115203   7.760   1.966   3.441  1.0500  0.5585  0.8201
 1508SOL    HW215204   7.691   2.076   3.541  0.2265 -0.2629  1.1599
 1509SOL     OW15205   2.976   7.024   2.123 -0.1025  0.0270  0.5279
 1509SOL    HW115206   2.929   7.047   2.208  0.6987  2.9699  0.2403
 1509SOL    HW215207   3.068   6.991   2.143 -0.2254 -0.1214  0.8422
 1510SOL     OW15208   0.127   5.503   3.897  0.2629 -0.1100 -0.3477
 1510SOL    HW115209   0.113   5.408   3.868  0.1246 -0.2030  0.0154
 1510SOL    HW215210   0.225   5.520   3.908  0.4379  0.4597 -2.6215
 1511SOL     OW15211   7.454   0.151   1.964 -0.2087 -0.1912 -0.0809
 1511SOL    HW115212   7.466   0.163   2.063  0.0722 -0.7566 -0.0418
 1511SOL    HW215213   7.492   0.062   1.937 -0.2418 -0.0137 -0.7068
 1512SOL     OW15214   0.605   5.929   2.895  0.6043  0.0110 -0.5444
 1512SOL    HW115215   0.692   5.977   2.908  0.9808 -0.8773  0.2425
 1512SOL    HW215216   0.546   5.983   2.834  1.4831  0.8879 -0.6299
 1513SOL     OW15217   2.791   0.789   2.322 -0.0264  0.7680 -0.4480
 1513SOL    HW115218   2.786   0.696   2.286  0.5988  0.6645 -0.2665
 1513SOL    HW215219   2.803   0.854   2.247  1.4083  0.5435 -0.4302
 1514SOL     OW15220   6.613   0.254   3.303 -0.0097 -0.0700 -0.6452
 1514SOL    HW115221   6.662   0.255   3.389 -0.3199  0.1120 -0.4699
 1514SOL    HW215222   6.518   0.227   3.318  0.4950 -2.2755 -1.2374
 1515SOL     OW15223   9.363   2.504   2.887  0.1175  0.0481 -0.1371
 1515SOL    HW115224   9.431   2.435   2.909 -0.2958 -0.0242  0.9549
 1515SOL    HW215225   9.386   2.548   2.800  1.5293 -0.0048  0.2056
 1516SOL     OW15226   3.599   2.969   4.405 -0.1674  0.2214 -0.0798
 1516SOL    HW115227   3.509   2.991   4.368 -0.8801  1.5499  2.3462
 1516SOL    HW215228   3.645   3.053   4.434  0.6921 -0.6963  1.2957
 1517SOL     OW15229   8.051   5.548   0.049  0.3316 -0.0158  0.8323
 1517SOL    HW115230   8.136   5.598   0.063  0.2377  0.2077  0.5995
 1517SOL    HW215231   7.986   5.573   0.122 -0.1381  1.1162  0.0373
 1518SOL     OW15232   2.355   2.488   0.109  0.2412 -0.4649  0.4333
 1518SOL    HW115233   2.300   2.517   0.031  1.3030 -0.2237 -0.2312
 1518SOL    HW215234   2.325   2.538   0.191 -0.2332 -0.0167 -0.0057
 1519SOL     OW15235   2.679   2.615   1.547  0.4415  0.1499 -0.3899
 1519SOL    HW115236   2.770   2.576   1.563  0.6420  0.0987 -1.6199
 1519SOL    HW215237   2.669   2.698   1.602  0.7493 -0.5283  0.7218
 1520SOL     OW15238   0.047   3.782   4.020  0.5722 -0.1967 -0.0974
 1520SOL    HW115239   0.019   3.877   4.029 -0.9923 -0.5882 -0.6100
 1520SOL    HW215240   0.110   3.758   4.094  0.0615  0.9050  0.7082
 1521SOL     OW15241   4.757   1.149   2.481 -0.3450  0.0689  0.3358
 1521SOL    HW115242   4.725   1.062   2.443  2.9943 -0.4462 -1.4751
 1521SOL    HW215243   4.807   1.131   2.566  1.3214  0.0362 -0.6221
 1522SOL     OW15244   3.566   2.871   2.830  0.4568 -0.2808 -0.7830
 1522SOL    HW115245   3.600   2.866   2.924  0.7780 -1.1436 -0.9418
 1522SOL    HW215246   3.545   2.966   2.807  0.8933  0.0031 -0.0179
 1523SOL     OW15247   1.798   0.221   2.323  0.4380 -0.0358  0.0516
 1523SOL    HW115248   1.733   0.160   2.277 -0.6279  1.7427 -0.8833
 1523SOL    HW215249   1.749   0.277   2.390  0.8165  1.8105 -1.1394
 1524SOL     OW15250   9.253   5.226   0.447  0.3909  0.5247 -0.1417
 1524SOL    HW115251   9.245   5.144   0.392  1.7990  0.8218 -0.8202
 1524SOL    HW215252   9.165   5.247   0.490 -0.7237  0.2929 -2.2677
 1525SOL     OW15253   8.191   7.304   3.309  0.3224 -0.4999 -0.3095
 1525SOL    HW115254   8.254   7.382   3.307  0.9475 -0.9427  1.0763
 1525SOL    HW215255   8.143   7.302   3.397 -1.1002 -0.5914 -1.0701
 1526SOL     OW15256   8.203   7.961   4.287 -0.4225  0.1551  0.2066
 1526SOL    HW115257   8.163   8.017   4.215  1.2850  0.2732 -0.6662
 1526SOL    HW215258   8.175   7.866   4.274  0.7480 -0.0062 -1.2627
 1527SOL     OW15259   8.795   1.146   1.096 -0.1979  0.1933  0.1067
 1527SOL    HW115260   8.789   1.140   0.996 -0.9737  0.4249  0.1376
 1527SOL    HW215261   8.731   1.215   1.129  1.3300  1.3817  0.6183
 1528SOL     OW15262   7.523   1.809   2.177  0.2011 -0.2025  0.5498
 1528SOL    HW115263   7.425   1.798   2.195  0.2701 -2.0387 -0.0482
 1528SOL    HW215264   7.536   1.869   2.098 -0.4924 -0.5774  0.1445
 1529SOL     OW15265   4.113   1.231   4.377  0.1114 -0.8650  0.2387
 1529SOL    HW115266   4.041   1.220   4.446  0.0103 -0.6490  0.1695
 1529SOL    HW215267   4.072   1.231   4.286  0.1679 -0.4947  0.2099
 1530SOL     OW15268   2.068   9.920   0.988  0.5642  0.6131  0.6726
 1530SOL    HW115269   1.978   9.876   0.987  0.5560  0.6394  0.2723
 1530SOL    HW215270   2.129   9.870   1.050  0.9799 -0.8089 -0.8637
 1531SOL     OW15271   2.035   7.887   0.970  0.2190 -0.1710 -0.3864
 1531SOL    HW115272   1.964   7.938   0.923 -0.7190 -0.6827  0.4500
 1531SOL    HW215273   2.035   7.792   0.937  1.9103  0.3338 -1.8903
 1532SOL     OW15274   1.488   2.126   4.084 -0.0212  0.6425  0.1246
 1532SOL    HW115275   1.413   2.112   4.019 -1.2288  2.9143  0.9768
 1532SOL    HW215276   1.457   2.103   4.176 -0.1407  2.8780  0.6723
 1533SOL     OW15277   7.567   9.854   0.267 -0.0460  0.0420  0.0908
 1533SOL    HW115278   7.613   9.871   0.354 -1.3600 -1.7014  1.1607
 1533SOL    HW215279   7.635   9.851   0.194  1.0514  1.6625  1.0164
 1534SOL     OW15280   8.431   2.022   2.293  0.1198 -0.0151 -0.2711
 1534SOL    HW115281   8.487   1.979   2.223  1.1607  1.3390 -0.2956
 1534SOL    HW215282   8.472   2.109   2.321 -0.8006 -0.0468  1.3060
 1535SOL     OW15283   2.792   3.401   0.950 -0.1728  0.6019 -0.2139
 1535SOL    HW115284   2.860   3.400   0.876 -0.1437  2.8332 -0.2590
 1535SOL    HW215285   2.714   3.457   0.923 -1.1045 -0.2594  0.6543
 1536SOL     OW15286   1.943   7.809   0.096 -0.3186  0.6444 -0.6697
 1536SOL    HW115287   1.922   7.715   0.070 -1.3790  0.3784  1.1148
 1536SOL    HW215288   1.906   7.872   0.028  0.0828 -0.2026 -1.6772
 1537SOL     OW15289   1.333   7.021   2.078  0.1182  0.1028 -0.2409
 1537SOL    HW115290   1.419   6.978   2.051  0.3736  0.2158  0.3697
 1537SOL    HW215291   1.269   7.021   2.001 -0.0971 -1.9039 -0.0915
 1538SOL     OW15292   7.645   1.472   2.536 -0.6620  0.3557 -0.4687
 1538SOL    HW115293   7.655   1.516   2.446  2.3332  0.4054 -0.1401
 1538SOL    HW215294   7.598   1.535   2.597 -0.5343  1.2956 -1.3163
 1539SOL     OW15295   3.755   8.732   1.781  0.0610  0.0250  0.4469
 1539SOL    HW115296   3.751   8.677   1.697 -0.0748  0.0123  0.4617
 1539SOL    HW215297   3.738   8.672   1.860 -0.1482  0.0994  0.4583
 1540SOL     OW15298   0.002   4.195   2.647  0.4847 -0.1030 -0.4121
 1540SOL    HW115299  -0.067   4.138   2.603 -0.2747  0.9824 -0.6559
 1540SOL    HW215300   0.050   4.249   2.578 -1.6138  2.5941  0.1260
 1541SOL     OW15301   5.337   0.063   4.110  0.1499 -0.2551 -0.0298
 1541SOL    HW115302   5.393  -0.008   4.068  2.6994  1.0831  0.9849
 1541SOL    HW215303   5.311   0.131   4.041  0.7740 -0.2580 -0.2649
 1542SOL     OW15304   0.509   9.799   2.378  0.2150 -0.3271  0.2701
 1542SOL    HW115305   0.454   9.718   2.398  0.5318 -0.0097  2.5812
 1542SOL    HW215306   0.501   9.864   2.453  4.5281 -0.6924  1.1868
 1543SOL     OW15307   1.959   8.667   1.163 -0.1003  0.1892 -0.2993
 1543SOL    HW115308   1.994   8.625   1.247 -1.9854 -0.1495  0.3290
 1543SOL    HW215309   1.957   8.599   1.090 -1.2091 -0.2905  0.1703
 1544SOL     OW15310   7.731   2.211   0.633  0.1706  0.1356 -1.3073
 1544SOL    HW115311   7.757   2.139   0.698  0.2725  0.6111 -0.8095
 1544SOL    HW215312   7.640   2.193   0.598 -1.0001  1.2396  0.9987
 1545SOL     OW15313   4.757   7.057   2.972  0.3673  0.2494  0.4154
 1545SOL    HW115314   4.763   6.983   2.906 -2.3595 -1.0035  1.4989
 1545SOL    HW215315   4.837   7.117   2.962  1.6563 -1.7320 -1.7462
 1546SOL     OW15316   9.757   7.361   3.679  0.0923  0.3946 -0.0527
 1546SOL    HW115317   9.800   7.430   3.621  0.4544  0.8074  0.6964
 1546SOL    HW215318   9.674   7.327   3.634 -0.7087  2.1273  0.0557
 1547SOL     OW15319   2.921   8.417   4.762 -0.3695  0.0562  0.3260
 1547SOL    HW115320   2.901   8.330   4.718 -0.4849  0.1116  0.2646
 1547SOL    HW215321   2.987   8.404   4.836 -0.5466 -0.1148  0.4531
 1548SOL     OW15322   8.536   5.375   3.794  0.3770 -0.4164 -0.7397
 1548SOL    HW115323   8.533   5.344   3.699  1.2751 -0.7978 -0.6509
 1548SOL    HW215324   8.581   5.464   3.799 -0.5241  0.0517 -0.7732
 1549SOL     OW15325   1.747   6.216   1.173 -0.5681  0.3209 -0.4500
 1549SOL    HW115326   1.660   6.172   1.195  0.9990 -2.5145  0.3246
 1549SOL    HW215327   1.799   6.232   1.257  0.9251 -0.7900 -1.1348
 1550SOL     OW15328   4.204   3.321   1.815 -0.3142 -0.3251  0.6928
 1550SOL    HW115329   4.248   3.255   1.876 -0.9505 -0.6007  0.8580
 1550SOL    HW215330   4.105   3.313   1.822 -0.4167 -1.3460 -1.4253
 1551SOL     OW15331   1.241   5.310   0.419 -0.1996  1.0887 -0.0133
 1551SOL    HW115332   1.286   5.243   0.360 -0.0222  1.0892  0.1183
 1551SOL    HW215333   1.272   5.296   0.513 -1.3294  0.3651  0.2593
 1552SOL     OW15334   5.202   1.643   3.067 -0.2051  0.0759  0.4268
 1552SOL    HW115335   5.112   1.654   3.110 -0.7343 -0.9902 -0.3931
 1552SOL    HW215336   5.195   1.663   2.970  0.3425 -0.4946  0.2671
 1553SOL     OW15337   4.460   2.810   0.500 -0.0600 -0.0822 -0.1324
 1553SOL    HW115338   4.424   2.717   0.501 -0.2361 -0.0261 -0.6697
 1553SOL    HW215339   4.448   2.849   0.408 -0.1152  0.5145  0.1242
 1554SOL     OW15340   9.186   7.505   3.705  0.3403  0.1906  0.4125
 1554SOL    HW115341   9.225   7.488   3.615 -0.6154 -0.6157  0.1368
 1554SOL    HW215342   9.109   7.569   3.697  0.3913  0.2882  0.6821
 1555SOL     OW15343   9.528   4.031   4.284 -0.0333 -0.5421  0.3331
 1555SOL    HW115344   9.457   4.073   4.228  1.0665 -1.6016 -1.8873
 1555SOL    HW215345   9.595   4.100   4.311 -0.4113 -0.0914  0.1226
 1556SOL     OW15346   8.854   0.537   1.855  0.0302  0.2860 -0.7905
 1556SOL    HW115347   8.878   0.501   1.946 -0.3227 -0.1020 -0.8456
 1556SOL    HW215348   8.881   0.633   1.849 -0.5783  0.5111 -0.0246
 1557SOL     OW15349   3.612   8.629   0.603 -0.1667 -0.0553  0.5129
 1557SOL    HW115350   3.535   8.612   0.665 -1.8199  0.5091 -1.3497
 1557SOL    HW215351   3.588   8.703   0.540  2.1162  0.4907  0.2661
 1558SOL     OW15352   0.305   5.618   0.889  0.3486  0.1082  0.3619
 1558SOL    HW115353   0.306   5.710   0.849  1.4024  0.4537  1.1543
 1558SOL    HW215354   0.359   5.617   0.973 -0.9407 -0.8741  1.2147
 1559SOL     OW15355   8.258   1.091   4.555  0.1281  0.0881  0.0520
 1559SOL    HW115356   8.216   1.150   4.486 -1.8369 -0.1839  0.9881
 1559SOL    HW215357   8.285   1.146   4.634  1.0710  0.1881 -0.3413
 1560SOL     OW15358   2.520   4.493   1.478  0.0858  0.6750 -0.1904
 1560SOL    HW115359   2.614   4.494   1.511  0.7676  2.5939 -2.0252
 1560SOL    HW215360   2.518   4.459   1.384 -1.4412 -1.9782  0.7501
 1561SOL     OW15361   8.870   4.402   2.287  0.3562  0.0695 -0.0342
 1561SOL    HW115362   8.892   4.357   2.201 -1.2538  0.6111 -0.7542
 1561SOL    HW215363   8.780   4.445   2.280  0.3568  0.4192  1.8018
 1562SOL     OW15364   0.977   2.015   4.109 -0.3617  0.4990 -0.4184
 1562SOL    HW115365   0.946   2.071   4.186  1.7164  1.7955 -0.4772
 1562SOL    HW215366   1.035   1.941   4.142 -1.9432 -0.7680 -0.4712
 1563SOL     OW15367   2.836   0.200   1.724  0.0702 -0.1853  0.6656
 1563SOL    HW115368   2.929   0.164   1.732  0.5692  0.9207 -0.0731
 1563SOL    HW215369   2.823   0.239   1.633 -1.4002 -1.1089  0.4652
 1564SOL     OW15370   0.551   4.996   1.151  0.3609 -0.2828 -0.4909
 1564SOL    HW115371   0.515   5.088   1.141  0.2261 -0.1491  1.0723
 1564SOL    HW215372   0.484   4.939   1.200  0.0992 -1.4361 -2.1275
 1565SOL     OW15373   4.853   3.660   0.841 -0.1755 -0.1069 -0.1482
 1565SOL    HW115374   4.919   3.586   0.827 -0.2118  0.2063 -2.1237
 1565SOL    HW215375   4.856   3.723   0.763 -3.5222 -0.6518 -0.8213
 1566SOL     OW15376   5.012   1.651   2.244 -0.3100 -0.1183 -0.2001
 1566SOL    HW115377   4.952   1.588   2.196  0.1132 -1.7644  1.3871
 1566SOL    HW215378   4.958   1.710   2.303 -0.5466 -0.2086 -0.3249
 1567SOL     OW15379   3.465   7.540   0.616  0.1583 -0.2580 -0.3298
 1567SOL    HW115380   3.480   7.442   0.605  0.6530  0.0746 -3.0025
 1567SOL    HW215381   3.383   7.567   0.565 -0.8291  0.4933  1.5960
 1568SOL     OW15382   3.887   1.921   4.650 -1.0757  0.4273 -0.1320
 1568SOL    HW115383   3.969   1.976   4.667  0.0255 -2.1451  3.4293
 1568SOL    HW215384   3.912   1.825   4.640 -3.6381 -0.3993  0.9413
 1569SOL     OW15385   8.994   8.235   1.121  0.3841 -0.1937  0.4552
 1569SOL    HW115386   8.897   8.226   1.142  0.4431  0.8405  1.2231
 1569SOL    HW215387   9.012   8.200   1.030 -0.6187 -0.9055  0.5265
 1570SOL     OW15388   2.546   8.145   1.233 -0.2814 -0.1191  0.1903
 1570SOL    HW115389   2.590   8.103   1.312  0.0464  1.3370  0.7979
 1570SOL    HW215390   2.591   8.232   1.212 -0.6676 -0.2712 -1.3078
 1571SOL     OW15391   3.675   7.606   3.512 -0.2753 -0.0971  1.2045
 1571SOL    HW115392   3.727   7.629   3.430 -0.7761  1.9127  1.4371
 1571SOL    HW215393   3.719   7.529   3.558  1.1102  0.0081  0.0868
 1572SOL     OW15394   1.339   7.092   0.155 -0.1780 -0.2618 -0.9363
 1572SOL    HW115395   1.425   7.129   0.119  0.1071 -0.1346 -0.1166
 1572SOL    HW215396   1.271   7.090   0.082 -0.2435  1.9855 -0.9522
 1573SOL     OW15397   3.069   6.510   3.528  0.1960  0.0044 -0.0310
 1573SOL    HW115398   3.005   6.442   3.491 -2.1636  2.1881 -0.0341
 1573SOL    HW215399   3.162   6.484   3.502 -0.9016 -1.5962 -2.6403
 1574SOL     OW15400   3.243   8.567   3.918  0.0566 -0.1146  0.4858
 1574SOL    HW115401   3.303   8.606   3.988 -1.5266  0.0583  1.7782
 1574SOL    HW215402   3.249   8.621   3.834  0.4731  0.8694  1.1457
 1575SOL     OW15403   5.253   9.552   2.515  0.0429 -0.0946  0.1913
 1575SOL    HW115404   5.312   9.540   2.595  0.4753  0.8414  0.0195
 1575SOL    HW215405   5.266   9.643   2.477  0.5946 -0.8893 -1.5679
 1576SOL     OW15406   8.407   1.786   0.326  0.6077  0.3597 -0.4421
 1576SOL    HW115407   8.492   1.835   0.344  1.1605 -1.1566  1.1350
 1576SOL    HW215408   8.394   1.714   0.394 -1.4258 -0.1008 -1.2742
 1577SOL     OW15409   4.276   8.095   4.197  0.4921  0.7055 -0.4495
 1577SOL    HW115410   4.185   8.132   4.215  0.2442 -1.2130  2.6528
 1577SOL    HW215411   4.346   8.161   4.225  0.0425  0.1317  2.1206
 1578SOL     OW15412   4.161   2.243   2.271  0.2530 -0.5380 -0.5362
 1578SOL    HW115413   4.172   2.254   2.370  0.1398  0.3129 -0.6171
 1578SOL    HW215414   4.216   2.165   2.240  3.1687  1.3739 -0.3707
 1579SOL     OW15415   3.178   1.666   2.299 -0.0965  0.1845  0.3257
 1579SOL    HW115416   3.100   1.607   2.322  0.2580 -0.2914  0.3103
 1579SOL    HW215417   3.263   1.620   2.323  0.2080  0.4251 -0.2823
 1580SOL     OW15418   9.494   6.475   4.756  0.1585 -0.2253 -0.3178
 1580SOL    HW115419   9.400   6.471   4.724 -0.9551 -0.1896  2.7447
 1580SOL    HW215420   9.549   6.531   4.694 -3.0421  4.1296  0.5935
 1581SOL     OW15421   9.971   1.766   4.221 -0.4740  0.9803 -0.1366
 1581SOL    HW115422   9.935   1.834   4.285  0.6913  1.2973  0.1880
 1581SOL    HW215423  10.017   1.813   4.145 -0.0259  0.5654 -0.1235
 1582SOL     OW15424   4.444   7.954   3.521 -0.0983  0.5412 -0.0783
 1582SOL    HW115425   4.512   8.000   3.464 -0.4869  1.1574 -0.0558
 1582SOL    HW215426   4.354   7.995   3.504 -0.2968  0.3875  0.6054
 1583SOL     OW15427   5.153   1.003   2.581 -0.4540  0.0564 -0.0732
 1583SOL    HW115428   5.096   1.021   2.661 -0.2594 -0.3791  0.1637
 1583SOL    HW215429   5.095   0.978   2.504 -0.7656  2.0623 -0.5199
 1584SOL     OW15430   7.093   9.019   2.190  0.2074  0.2631 -0.2577
 1584SOL    HW115431   7.086   9.113   2.224 -2.9184  0.1187 -0.3814
 1584SOL    HW215432   7.169   8.973   2.235  0.9803  2.4524  0.7452
 1585SOL     OW15433   3.392   1.124   0.367 -0.0742 -0.3811  0.2881
 1585SOL    HW115434   3.395   1.034   0.410 -0.7611 -0.8497 -0.6188
 1585SOL    HW215435   3.316   1.128   0.302  1.2876  0.0897 -1.3347
 1586SOL     OW15436   2.264   5.690   0.146 -0.4997 -0.1779  0.3507
 1586SOL    HW115437   2.314   5.751   0.085 -1.3951 -0.8633 -1.1112
 1586SOL    HW215438   2.187   5.739   0.187  0.0282  0.2523  0.8217
 1587SOL     OW15439   0.786   2.413   3.209  0.1236  0.0892  0.2452
 1587SOL    HW115440   0.819   2.339   3.150  1.3582  1.5690 -0.9272
 1587SOL    HW215441   0.845   2.421   3.289  1.1025  1.0264 -0.5604
 1588SOL     OW15442   0.068   6.492   1.822  0.7487  0.4404  0.2291
 1588SOL    HW115443   0.164   6.473   1.805  0.2353 -0.6919 -1.5428
 1588SOL    HW215444   0.048   6.480   1.919  2.2090 -0.1906  0.4577
 1589SOL     OW15445   3.781   0.954   3.984  0.1254 -0.4062 -0.7867
 1589SOL    HW115446   3.722   0.912   4.053 -1.0090  0.3160 -1.2873
 1589SOL    HW215447   3.729   1.026   3.936  2.1121  1.8368  0.3358
 1590SOL     OW15448   8.517   9.388   3.303 -0.1545 -0.7338  0.0369
 1590SOL    HW115449   8.514   9.295   3.340 -0.5142 -0.3938  0.8742
 1590SOL    HW215450   8.424   9.426   3.301 -0.2573 -1.0353 -1.9759
 1591SOL     OW15451   2.613   1.613   1.984  0.1385 -0.0964 -0.0468
 1591SOL    HW115452   2.668   1.531   1.994  1.8816  1.1766  1.0978
 1591SOL    HW215453   2.592   1.629   1.888  2.9491  0.1315 -0.6506
 1592SOL     OW15454   5.537   9.843   4.342 -0.0081 -0.2105 -0.4295
 1592SOL    HW115455   5.605   9.912   4.319  1.2273 -0.9537  0.9843
 1592SOL    HW215456   5.449   9.888   4.361  0.6329  0.9125 -0.1198
 1593SOL     OW15457   3.041   3.772   0.364  0.0422  0.3591  0.4414
 1593SOL    HW115458   3.138   3.779   0.387  0.3678  0.5092 -0.9459
 1593SOL    HW215459   2.992   3.850   0.403  0.6920  0.9523  0.0865
 1594SOL     OW15460   3.862   2.860   3.487  0.2189  0.6670 -0.3411
 1594SOL    HW115461   3.934   2.824   3.547  0.0612  0.1753 -0.4448
 1594SOL    HW215462   3.867   2.813   3.399 -2.1746 -1.5557  0.6623
 1595SOL     OW15463   1.383   3.416   3.099 -0.0805  0.3059  0.0466
 1595SOL    HW115464   1.437   3.487   3.053 -0.0500  0.3860  0.2060
 1595SOL    HW215465   1.431   3.328   3.091 -0.5763  0.1188 -0.9695
 1596SOL     OW15466   8.465   2.222   3.780 -0.0694 -0.4987  0.2782
 1596SOL    HW115467   8.484   2.163   3.858 -0.1788 -0.3934  0.3828
 1596SOL    HW215468   8.507   2.183   3.698 -1.0695 -1.2960  0.1396
 1597SOL     OW15469   0.227   3.292   4.213  0.0510  0.1353 -0.4169
 1597SOL    HW115470   0.262   3.206   4.175 -1.0273 -0.5335  0.0832
 1597SOL    HW215471   0.153   3.326   4.156 -0.5418 -0.0656  0.2281
 1598SOL     OW15472   2.537   5.189   2.003 -0.0675  0.2449 -0.0252
 1598SOL    HW115473   2.591   5.218   1.924 -1.2394  0.6723 -0.6726
 1598SOL    HW215474   2.559   5.246   2.082  1.8847 -0.8555  0.2560
 1599SOL     OW15475   2.499   0.639   2.985  0.9355 -0.3502  0.1017
 1599SOL    HW115476   2.580   0.681   2.946  0.0145  2.0657  0.6932
 1599SOL    HW215477   2.525   0.569   3.051  2.5684  1.4884  1.4496
 1600SOL     OW15478   7.868   3.206   1.018 -0.1640 -0.0591  0.1051
 1600SOL    HW115479   7.829   3.168   0.934  0.9635 -0.7190 -0.1253
 1600SOL    HW215480   7.865   3.137   1.090  1.0286 -0.2969 -0.0572
 1601SOL     OW15481   0.022   8.656   1.740 -0.4076 -0.0379 -0.1971
 1601SOL    HW115482  -0.051   8.643   1.807  0.0544 -0.6319  0.1922
 1601SOL    HW215483  -0.015   8.648   1.648 -0.9843  0.4521 -0.0106
 1602SOL     OW15484   5.344   8.112   3.548 -0.0352 -0.0298  0.3715
 1602SOL    HW115485   5.288   8.038   3.585 -0.1513  0.3301  0.9328
 1602SOL    HW215486   5.357   8.182   3.619  2.1932 -0.7021  0.6773
 1603SOL     OW15487   6.127   8.297   3.197  0.2449  0.3711  0.7448
 1603SOL    HW115488   6.123   8.205   3.236  0.4724  0.2845  0.5613
 1603SOL    HW215489   6.215   8.309   3.150 -0.3371  0.2268 -0.3803
 1604SOL     OW15490   3.805   9.892   2.067 -0.8872 -0.1419 -0.3130
 1604SOL    HW115491   3.804   9.991   2.052 -1.1621 -0.1062 -0.0669
 1604SOL    HW215492   3.711   9.859   2.075 -0.8000 -0.4418 -0.5218
 1605SOL     OW15493   0.355   4.547   0.529  0.9755  0.4581 -0.3044
 1605SOL    HW115494   0.265   4.561   0.571  0.8293 -0.3936 -0.3302
 1605SOL    HW215495   0.419   4.514   0.598  0.3845 -2.3057 -0.9978
 1606SOL     OW15496   9.824   7.309   4.651  0.1317 -0.5251  0.1911
 1606SOL    HW115497   9.872   7.295   4.564 -1.2506  0.3573 -0.7352
 1606SOL    HW215498   9.891   7.326   4.724  1.2296  0.9636 -1.1318
 1607SOL     OW15499   6.519   7.962   1.753  0.2467 -0.7403  0.5171
 1607SOL    HW115500   6.614   7.954   1.785  1.0172 -0.5697 -1.6321
 1607SOL    HW215501   6.466   7.885   1.787  1.2447 -1.0418  1.4346
 1608SOL     OW15502   0.179   3.440   0.162 -0.2324  0.0671 -0.1516
 1608SOL    HW115503   0.217   3.524   0.123 -0.2052  0.3624  0.5044
 1608SOL    HW215504   0.115   3.463   0.235 -0.6606 -0.4676 -0.3587
 1609SOL     OW15505   0.619   5.297   1.931  0.8154 -0.1741 -0.4875
 1609SOL    HW115506   0.612   5.386   1.887  0.0714  0.4926  0.9471
 1609SOL    HW215507   0.609   5.225   1.862 -3.3153  0.8080 -1.0597
 1610SOL     OW15508   4.883   3.644   3.609 -0.6736 -0.4511 -0.1098
 1610SOL    HW115509   4.888   3.637   3.709 -0.0322  0.6987 -0.0503
 1610SOL    HW215510   4.861   3.555   3.570  0.2226 -1.1649  0.9936
 1611SOL     OW15511   9.790   8.683   3.601 -0.1546 -0.4283  0.3148
 1611SOL    HW115512   9.832   8.651   3.685  0.9491  1.1998  0.3982
 1611SOL    HW215513   9.713   8.743   3.622  0.6862  0.7102  0.1785
 1612SOL     OW15514   4.239   0.961   1.055 -0.1069  0.1967 -0.3241
 1612SOL    HW115515   4.307   0.889   1.043 -0.0909 -0.0490  1.1425
 1612SOL    HW215516   4.217   0.971   1.152 -1.6301  0.7677 -0.7061
 1613SOL     OW15517   9.839   3.509   3.726  0.1323  0.1068  0.3693
 1613SOL    HW115518   9.863   3.594   3.773  2.3762 -1.3901  2.0164
 1613SOL    HW215519   9.768   3.462   3.777 -0.4274  0.5265 -0.0209
 1614SOL     OW15520   3.575   4.680   3.475  0.1629  0.0302  0.4329
 1614SOL    HW115521   3.622   4.596   3.504 -2.0855 -1.0935  0.9402
 1614SOL    HW215522   3.606   4.757   3.530  2.2762 -0.4497 -0.0586
 1615SOL     OW15523   4.617   7.187   1.808  0.4369 -0.2622  0.2126
 1615SOL    HW115524   4.635   7.285   1.812  0.2605 -0.2100 -0.2392
 1615SOL    HW215525   4.610   7.158   1.712 -0.2666 -0.5733  0.3560
 1616SOL     OW15526   0.563   3.324   1.909  0.0127 -0.3617  0.2056
 1616SOL    HW115527   0.649   3.290   1.870  1.4931  2.7648  0.5217
 1616SOL    HW215528   0.542   3.413   1.868 -0.6620  1.0028  3.3779
 1617SOL     OW15529   1.061   0.809   3.944 -0.4048 -0.1441  0.3217
 1617SOL    HW115530   1.052   0.861   3.859 -2.0879  0.0891  0.6361
 1617SOL    HW215531   1.046   0.711   3.925 -0.7925 -0.0908  0.3483
 1618SOL     OW15532   3.603   2.752   4.585 -0.1562  0.0154  0.2043
 1618SOL    HW115533   3.701   2.762   4.600 -0.0833  0.8928 -0.8047
 1618SOL    HW215534   3.572   2.820   4.518 -0.8916 -2.0959 -1.6803
 1619SOL     OW15535   4.344   0.276   3.894  0.4242 -0.1789 -0.4099
 1619SOL    HW115536   4.330   0.360   3.945 -0.2848 -0.1189 -0.6923
 1619SOL    HW215537   4.296   0.201   3.939  0.9814 -0.4149 -0.2075
 1620SOL     OW15538   2.421   0.694   3.413  0.0540 -0.1023  0.4016
 1620SOL    HW115539   2.417   0.737   3.323 -1.1073 -0.5162  0.2535
 1620SOL    HW215540   2.348   0.627   3.422 -0.8021  1.0259  2.2198
 1621SOL     OW15541   9.034   3.804   0.025  0.2589 -0.2750  0.4929
 1621SOL    HW115542   9.120   3.837   0.063 -0.1829 -0.8189  1.9686
 1621SOL    HW215543   9.043   3.708  -0.001  0.9052  0.3892 -1.8835
 1622SOL     OW15544   2.355   7.703   1.429 -0.0782 -0.3525 -0.0626
 1622SOL    HW115545   2.380   7.770   1.359 -0.2594 -0.7654 -0.5313
 1622SOL    HW215546   2.274   7.735   1.478 -1.3208 -1.0868 -1.5629
 1623SOL     OW15547   3.451   3.692   4.246 -0.3738  0.5171  0.5629
 1623SOL    HW115548   3.356   3.665   4.264  0.1801 -0.2734  2.4073
 1623SOL    HW215549   3.461   3.716   4.149 -2.0497 -1.0931 -0.0359
 1624SOL     OW15550   9.294   1.564   1.780 -0.2158  0.2279 -0.3582
 1624SOL    HW115551   9.301   1.465   1.770 -0.4388  0.0226  1.4084
 1624SOL    HW215552   9.381   1.600   1.815  0.2895  0.8221 -2.1898
 1625SOL     OW15553   4.019   2.664   3.621 -0.2064 -0.2530  0.6636
 1625SOL    HW115554   4.067   2.642   3.536 -1.7488  0.7768 -0.4871
 1625SOL    HW215555   4.087   2.677   3.694  1.1151 -1.4004 -0.3278
 1626SOL     OW15556   1.222   2.566   0.623  0.5138 -0.1071 -0.2486
 1626SOL    HW115557   1.189   2.565   0.717  0.1683 -0.2248 -0.3707
 1626SOL    HW215558   1.161   2.511   0.565 -1.2941  2.7961 -1.2112
 1627SOL     OW15559   1.969   1.424   0.601  0.1833  0.2103  0.5331
 1627SOL    HW115560   1.927   1.480   0.673  0.0820  1.8794 -0.7924
 1627SOL    HW215561   1.944   1.461   0.512  1.7290 -0.7864 -0.3349
 1628SOL     OW15562   3.870   7.952   1.718 -0.3540  0.0212  0.2243
 1628SOL    HW115563   3.868   7.934   1.816 -1.8390 -1.8956 -0.1285
 1628SOL    HW215564   3.952   7.913   1.678 -0.5213 -0.5834  0.4627
 1629SOL     OW15565   6.715   7.040   3.008 -0.1141  0.0278 -0.5078
 1629SOL    HW115566   6.663   6.982   3.071 -0.5431 -0.1182 -0.9960
 1629SOL    HW215567   6.734   6.988   2.924  1.6026 -0.2434  0.0257
 1630SOL     OW15568   3.726   9.318   1.714 -0.7181  0.2841  0.0976
 1630SOL    HW115569   3.697   9.224   1.696  0.7068 -0.4233  1.3457
 1630SOL    HW215570   3.806   9.340   1.658 -2.0107  1.3367 -1.3959
 1631SOL     OW15571   4.638   9.993   2.189  0.1830 -0.0973  0.2324
 1631SOL    HW115572   4.649   9.997   2.288  0.8594 -0.0425  0.1601
 1631SOL    HW215573   4.662  10.081   2.149 -0.1396 -0.1026  0.0220
 1632SOL     OW15574   1.588   8.025   1.726  0.8548  0.2184  0.1626
 1632SOL    HW115575   1.556   8.117   1.748 -1.8792 -0.5719 -0.2955
 1632SOL    HW215576   1.674   8.007   1.774  0.4545  2.3371  1.7297
 1633SOL     OW15577   7.050   8.476   3.259  0.1221 -0.1821  0.0205
 1633SOL    HW115578   7.137   8.525   3.266 -0.1419  0.3073 -0.1043
 1633SOL    HW215579   7.025   8.441   3.350 -0.1896  0.7912  0.3187
 1634SOL     OW15580   1.023   4.019   3.281  0.0028 -0.5152  0.3162
 1634SOL    HW115581   1.000   4.106   3.238  1.2745  0.1087  0.8675
 1634SOL    HW215582   0.951   3.994   3.346 -0.4769  0.0012 -0.0118
 1635SOL     OW15583   9.773   4.535   2.183 -0.0665 -0.1591  0.1566
 1635SOL    HW115584   9.825   4.607   2.229 -1.8466  0.9048  0.5562
 1635SOL    HW215585   9.690   4.515   2.236  0.3145 -2.4162 -0.0182
 1636SOL     OW15586   9.960   6.719   0.443  0.1288 -0.0288  0.1513
 1636SOL    HW115587  10.052   6.758   0.436 -0.0373  0.3345 -0.0135
 1636SOL    HW215588   9.897   6.771   0.385 -0.0891 -0.5574 -0.0817
 1637SOL     OW15589   3.278   9.257   3.095 -0.1145 -0.1236  0.1365
 1637SOL    HW115590   3.315   9.210   3.015  0.7078 -0.9432  0.9760
 1637SOL    HW215591   3.300   9.204   3.177  1.3985  2.0266  1.1816
 1638SOL     OW15592   2.994   4.001   4.221 -0.1696  0.1617 -0.3120
 1638SOL    HW115593   3.090   3.989   4.196  0.0619 -1.3524  1.2059
 1638SOL    HW215594   2.984   4.087   4.273  0.7739 -0.7504  1.4324
 1639SOL     OW15595   3.990   2.355   3.317  0.9507 -0.1594 -0.3622
 1639SOL    HW115596   3.911   2.416   3.306  0.1561 -1.6115 -3.3246
 1639SOL    HW215597   4.037   2.347   3.229  1.0681 -3.7551 -0.0147
 1640SOL     OW15598   9.899   1.074   0.345  0.0726 -0.1978  0.1761
 1640SOL    HW115599   9.922   1.024   0.429 -0.1246  0.5783  0.6952
 1640SOL    HW215600   9.926   1.170   0.355 -1.1109  0.1819 -0.1499
 1641SOL     OW15601   5.036   9.881   3.948 -0.7070 -0.4113 -0.1172
 1641SOL    HW115602   5.095   9.838   4.017 -0.2162  2.3649  1.2758
 1641SOL    HW215603   4.943   9.890   3.985 -1.2527 -1.8828 -1.0952
 1642SOL     OW15604   0.551   1.119   1.671  0.5681  0.0163 -0.2773
 1642SOL    HW115605   0.583   1.033   1.709  2.1210  0.4337 -0.6169
 1642SOL    HW215606   0.545   1.112   1.571  1.7405  0.6400 -0.3956
 1643SOL     OW15607   1.973   6.850   2.984  0.4497  0.0983 -0.0933
 1643SOL    HW115608   1.937   6.785   2.917  0.3884  0.7399 -0.6864
 1643SOL    HW215609   1.960   6.813   3.076  0.8252 -0.9239 -0.4521
 1644SOL     OW15610   1.283   2.085   3.302 -0.3529  0.7203  0.0393
 1644SOL    HW115611   1.197   2.036   3.313  0.5426 -0.5151  1.7657
 1644SOL    HW215612   1.347   2.029   3.249  0.1960  0.6222  0.8058
 1645SOL     OW15613   8.777   7.787   2.155 -0.6152  0.2687 -0.1953
 1645SOL    HW115614   8.775   7.749   2.063  0.8971 -1.1153  0.3270
 1645SOL    HW215615   8.710   7.740   2.213 -2.8341  2.3298 -1.0042
 1646SOL     OW15616   0.867   2.404   0.930 -0.2277  0.0238 -0.4235
 1646SOL    HW115617   0.824   2.422   0.841 -0.2174  2.5263  0.0365
 1646SOL    HW215618   0.823   2.461   1.000  0.2840 -1.3537  1.0565
 1647SOL     OW15619   0.477   5.223   1.387 -0.1565 -0.5000  0.1850
 1647SOL    HW115620   0.495   5.218   1.289 -0.7771 -1.2887  0.1084
 1647SOL    HW215621   0.527   5.300   1.427  1.6643 -1.3762 -0.3994
 1648SOL     OW15622   0.544   3.608   3.240  0.0481 -0.0632 -0.5771
 1648SOL    HW115623   0.584   3.526   3.279  0.2886 -0.5967 -1.9222
 1648SOL    HW215624   0.615   3.676   3.222  0.0227 -0.0713 -0.7085
 1649SOL     OW15625   9.666   5.022   0.603 -0.0093 -0.2697  0.4309
 1649SOL    HW115626   9.632   4.952   0.666  1.9185  0.3130  2.1877
 1649SOL    HW215627   9.745   5.068   0.644 -0.6237  2.2645 -1.1021
 1650SOL     OW15628   5.952   8.007   2.698 -0.2412  0.4929 -0.2873
 1650SOL    HW115629   6.009   7.997   2.616 -0.5966 -3.1604 -0.1603
 1650SOL    HW215630   5.860   7.973   2.680 -0.1207 -1.0709  1.8104
 1651SOL     OW15631   9.805   1.588   3.355  0.3781 -0.2799  0.2051
 1651SOL    HW115632   9.823   1.540   3.269  0.7416 -0.9097  0.6281
 1651SOL    HW215633   9.855   1.544   3.429 -0.8281 -0.4420  0.9409
 1652SOL     OW15634   8.977   4.858   4.037  0.3115  0.8040 -0.0594
 1652SOL    HW115635   8.954   4.943   3.990  1.3948  1.7468  1.0549
 1652SOL    HW215636   9.072   4.862   4.068 -0.2647  0.0879  1.8975
 1653SOL     OW15637   4.183   3.795   0.115 -0.3527 -0.3898  0.3557
 1653SOL    HW115638   4.093   3.753   0.123 -0.8191  0.7512  1.1202
 1653SOL    HW215639   4.252   3.723   0.100 -1.2921 -1.3141  0.4256
 1654SOL     OW15640   7.742   1.971   0.799  0.5375 -0.0449  0.4144
 1654SOL    HW115641   7.741   1.973   0.899 -2.2987  0.0553  0.4384
 1654SOL    HW215642   7.730   1.877   0.768 -0.1421  0.1019  0.2110
 1655SOL     OW15643   8.804   2.505   1.221  0.6004 -0.0773 -0.3990
 1655SOL    HW115644   8.736   2.516   1.149  0.4930 -0.4050 -0.3528
 1655SOL    HW215645   8.858   2.588   1.230  1.1428 -0.3136 -1.4070
 1656SOL     OW15646   3.051   4.910   3.085 -0.0741  0.1797  0.0566
 1656SOL    HW115647   2.982   4.891   3.015  0.4922  0.8473 -0.6988
 1656SOL    HW215648   3.136   4.941   3.040  0.0797  1.2680  1.0664
 1657SOL     OW15649   8.495   1.815   4.122 -0.2563  0.1831  0.1022
 1657SOL    HW115650   8.414   1.815   4.063  0.0742 -1.0746 -0.3638
 1657SOL    HW215651   8.469   1.786   4.214  0.1584 -3.2242 -0.7912
 1658SOL     OW15652   0.471   9.448   4.135 -0.4246 -0.6063 -0.4135
 1658SOL    HW115653   0.519   9.518   4.187  1.1143 -1.0245 -1.2499
 1658SOL    HW215654   0.375   9.445   4.163 -0.1077  0.6660  0.8214
 1659SOL     OW15655   0.403   4.815   3.563 -0.0572 -0.5461  0.4682
 1659SOL    HW115656   0.444   4.811   3.654  0.1644  0.4227  0.4157
 1659SOL    HW215657   0.422   4.730   3.514 -0.7326 -1.3432  1.5558
 1660SOL     OW15658   8.385   7.365   2.566 -0.5574  0.1521  0.1522
 1660SOL    HW115659   8.303   7.342   2.514  0.5397  1.1954 -2.0860
 1660SOL    HW215660   8.359   7.392   2.659 -2.6147 -0.7935 -0.1263
 1661SOL     OW15661   8.489   9.950   2.319 -0.1794 -0.0017 -0.0651
 1661SOL    HW115662   8.434   9.868   2.310  1.2425 -0.9248 -0.5751
 1661SOL    HW215663   8.445  10.014   2.382 -0.1512 -2.1510  2.2163
 1662SOL     OW15664   3.394   3.415   4.178  0.4726  0.3698 -0.1033
 1662SOL    HW115665   3.411   3.369   4.266 -0.2108 -1.4424 -0.9006
 1662SOL    HW215666   3.432   3.507   4.181 -0.4249  0.6994  2.4674
 1663SOL     OW15667   8.888   0.347   1.021  0.7416  0.0681  0.0409
 1663SOL    HW115668   8.836   0.393   0.949 -1.1914 -1.2233  0.5543
 1663SOL    HW215669   8.827   0.285   1.071  1.9717  1.1139  2.9482
 1664SOL     OW15670   9.153   3.874   4.120  0.1217  0.0680 -0.1420
 1664SOL    HW115671   9.220   3.945   4.100 -2.2549  3.3928  3.0805
 1664SOL    HW215672   9.145   3.862   4.219 -2.3789 -1.9311 -0.5324
 1665SOL     OW15673   1.743   3.357   1.666  0.2911 -0.3313  0.0234
 1665SOL    HW115674   1.651   3.377   1.701 -0.1963 -0.0434 -1.4111
 1665SOL    HW215675   1.753   3.258   1.654 -0.7260 -0.1869 -2.2143
 1666SOL     OW15676   4.533   3.698   0.049 -0.0351  0.5268 -0.5771
 1666SOL    HW115677   4.450   3.644   0.050  0.2234  0.1380  0.1913
 1666SOL    HW215678   4.570   3.701  -0.044  0.6683 -1.7158 -0.3841
 1667SOL     OW15679   2.352   3.891   0.061  0.4188  0.1421  0.2539
 1667SOL    HW115680   2.299   3.810   0.084  1.6287 -0.6343  0.3029
 1667SOL    HW215681   2.301   3.946  -0.006  0.1384 -1.2643 -0.6971
 1668SOL     OW15682   2.619   6.616   3.434  0.6321  0.5229  0.3238
 1668SOL    HW115683   2.570   6.606   3.520  0.1599  0.4339  0.0434
 1668SOL    HW215684   2.621   6.712   3.407  1.7252  0.6956  0.9880
 1669SOL     OW15685   4.288   0.584   2.706  0.1825  0.0673 -0.8211
 1669SOL    HW115686   4.230   0.641   2.765 -0.3491  0.5825 -1.8295
 1669SOL    HW215687   4.267   0.488   2.722  4.2598 -0.2466  4.2952
 1670SOL     OW15688   1.173   9.917   1.592 -0.6023  0.3050 -0.0610
 1670SOL    HW115689   1.098   9.858   1.562 -0.5133  0.8727 -1.4258
 1670SOL    HW215690   1.260   9.871   1.577 -0.6946 -0.8016  2.5373
 1671SOL     OW15691   3.047   5.414   2.822 -0.9140 -0.3406 -0.4149
 1671SOL    HW115692   3.011   5.383   2.910 -3.8406  1.5611 -0.8891
 1671SOL    HW215693   3.105   5.494   2.836 -3.3362  1.4723 -0.3774
 1672SOL     OW15694   7.024   1.365   2.945 -0.4216  0.4873 -0.0229
 1672SOL    HW115695   7.044   1.407   2.857 -1.4680  1.0344 -0.0061
 1672SOL    HW215696   7.096   1.299   2.968  0.5572  1.3331 -0.6436
 1673SOL     OW15697   9.530   0.040   1.430  0.7016  0.2542  0.4515
 1673SOL    HW115698   9.548  -0.024   1.355  1.6252 -0.4291  1.2602
 1673SOL    HW215699   9.454   0.007   1.485  0.4240  0.4492  0.1906
 1674SOL     OW15700   1.507   2.231   0.754  0.4317 -0.3866 -0.1658
 1674SOL    HW115701   1.421   2.199   0.794 -0.4126  0.3872 -1.3461
 1674SOL    HW215702   1.549   2.299   0.815 -0.9557  0.9541 -0.7013
 1675SOL     OW15703   3.257   4.448   2.680  0.1891  0.3831 -0.2483
 1675SOL    HW115704   3.231   4.379   2.747  0.7892  1.1466  0.7975
 1675SOL    HW215705   3.182   4.513   2.669  0.5651  0.9798  0.6491
 1676SOL     OW15706   0.964   2.021   3.042 -0.4163 -0.1318 -0.1620
 1676SOL    HW115707   0.915   1.997   3.126  2.2955  0.4488  1.6634
 1676SOL    HW215708   0.927   2.106   3.005 -0.2066  0.8080  1.7242
 1677SOL     OW15709   8.855   9.353   3.997  0.1395 -0.2973 -0.1146
 1677SOL    HW115710   8.859   9.259   4.031  0.4691 -0.1633  0.2144
 1677SOL    HW215711   8.760   9.378   3.978 -0.2898  0.3704  2.7493
 1678SOL     OW15712   5.762   9.346   1.732  0.1677  0.0954 -0.5801
 1678SOL    HW115713   5.687   9.397   1.773 -0.1907 -0.1464 -0.9278
 1678SOL    HW215714   5.805   9.401   1.661 -0.2618 -0.1115 -1.0015
 1679SOL     OW15715   1.355   4.424   0.362  0.1629  0.5271  0.0249
 1679SOL    HW115716   1.348   4.388   0.455  0.8019  0.3019 -0.0078
 1679SOL    HW215717   1.276   4.397   0.309 -0.2083  0.6559  0.5048
 1680SOL     OW15718   1.888   8.472   1.577  0.1936  0.7133  0.0617
 1680SOL    HW115719   1.983   8.487   1.549  1.0485 -0.4395  2.2377
 1680SOL    HW215720   1.870   8.519   1.663 -0.8252 -0.1357  0.3285
 1681SOL     OW15721   2.298   6.808   0.924  0.4640 -0.3666  0.0746
 1681SOL    HW115722   2.257   6.758   0.847  0.9129  0.0006 -0.4029
 1681SOL    HW215723   2.282   6.906   0.914  2.7091 -0.0632 -0.8945
 1682SOL     OW15724   9.274   0.187   2.642 -0.1993 -0.2553 -0.1103
 1682SOL    HW115725   9.217   0.167   2.563  0.5570 -2.1018 -0.2010
 1682SOL    HW215726   9.273   0.110   2.705  0.9648  0.3094  0.6261
 1683SOL     OW15727   1.049   8.743   2.521 -0.0345  1.0166  0.5025
 1683SOL    HW115728   1.016   8.697   2.603 -1.1165  1.6911  0.4645
 1683SOL    HW215729   1.135   8.789   2.540  0.2937  0.2193  0.9442
 1684SOL     OW15730   0.293   0.352   0.166  0.2443  0.1826 -0.3847
 1684SOL    HW115731   0.319   0.439   0.126 -1.4291  0.3505 -1.1361
 1684SOL    HW215732   0.228   0.367   0.240 -0.4816 -0.4610 -0.8834
 1685SOL     OW15733   1.814   7.729   1.111  0.0749  0.4111  0.1651
 1685SOL    HW115734   1.846   7.813   1.068  0.5696 -1.0447 -2.3850
 1685SOL    HW215735   1.715   7.719   1.096 -0.0282  0.6435  0.6731
 1686SOL     OW15736   2.527   8.702   3.345  0.6445  0.5794 -0.1861
 1686SOL    HW115737   2.443   8.648   3.333  1.0939 -0.3820  0.9563
 1686SOL    HW215738   2.518   8.787   3.293 -0.4322 -0.1793 -1.2958
 1687SOL     OW15739   2.721   8.172   3.880 -0.1279 -0.2739 -0.3414
 1687SOL    HW115740   2.715   8.083   3.836  2.5034 -0.5295 -0.2643
 1687SOL    HW215741   2.802   8.220   3.847  0.3655  0.6864  2.1369
 1688SOL     OW15742   5.779   0.565   3.589 -0.3282 -0.2843 -0.3169
 1688SOL    HW115743   5.731   0.515   3.661 -0.8234 -0.2521 -0.6241
 1688SOL    HW215744   5.874   0.580   3.616 -0.1498 -1.4665 -0.2525
 1689SOL     OW15745   9.179   7.655   1.534  0.0639 -0.2888 -0.0779
 1689SOL    HW115746   9.128   7.738   1.512  1.9012  0.4445 -1.6409
 1689SOL    HW215747   9.182   7.595   1.454  0.4751 -0.9535  0.4305
 1690SOL     OW15748   8.355   3.058   1.255 -0.2910 -0.1707  0.5502
 1690SOL    HW115749   8.414   3.077   1.177 -0.2460 -1.4351  0.2691
 1690SOL    HW215750   8.305   3.141   1.281  0.5573  0.5388 -0.0908
 1691SOL     OW15751   2.967   0.275   2.441  0.3994  0.1481  0.0379
 1691SOL    HW115752   2.907   0.334   2.495 -0.4666 -0.5269 -0.1688
 1691SOL    HW215753   2.971   0.308   2.347  0.6253  0.3922  0.1337
 1692SOL     OW15754   3.900   1.137   3.084 -0.3916 -0.3944  0.4566
 1692SOL    HW115755   3.971   1.097   3.142 -0.0067 -0.0936  0.1948
 1692SOL    HW215756   3.818   1.080   3.088 -0.8566  0.4001  2.4061
 1693SOL     OW15757   9.399   6.297   1.954 -0.0450 -0.6235  0.1625
 1693SOL    HW115758   9.451   6.288   2.039  0.4765  0.0727 -0.0661
 1693SOL    HW215759   9.444   6.365   1.896 -2.0593  1.1506  0.5988
 1694SOL     OW15760   8.939   3.350   1.603 -0.1774 -0.7061  0.0811
 1694SOL    HW115761   8.976   3.354   1.696  1.0681  1.8381 -0.4651
 1694SOL    HW215762   9.006   3.387   1.539 -2.5281  1.3367 -1.3100
 1695SOL     OW15763   9.897   0.259   1.110 -0.2672  0.1558 -0.4762
 1695SOL    HW115764   9.874   0.216   1.023 -1.2690 -0.2005 -0.0383
 1695SOL    HW215765   9.827   0.326   1.134 -1.0490 -1.1700  1.0257
 1696SOL     OW15766   6.483   9.347   3.336 -0.1030  0.5907 -0.1332
 1696SOL    HW115767   6.419   9.423   3.323 -0.1813  0.6792  0.7258
 1696SOL    HW215768   6.556   9.375   3.398 -0.1945 -0.0684  0.2768
 1697SOL     OW15769   0.121   5.178   2.288  0.4429  0.4645  0.4933
 1697SOL    HW115770   0.121   5.082   2.258 -0.0358  0.9497 -1.0749
 1697SOL    HW215771   0.205   5.222   2.258 -0.9528  1.5041 -1.9532
 1698SOL     OW15772   1.249   9.275   0.807  0.4367  0.0723  0.4438
 1698SOL    HW115773   1.162   9.280   0.758  0.4157 -0.9944  0.3591
 1698SOL    HW215774   1.324   9.291   0.743  0.3035  1.2120  0.5582
 1699SOL     OW15775   8.557   1.020   0.268  0.3739 -0.2792  0.0358
 1699SOL    HW115776   8.643   1.033   0.219 -1.7419  1.3714 -3.3507
 1699SOL    HW215777   8.548   0.923   0.294  1.5340 -1.2584 -2.9764
 1700SOL     OW15778   9.453   9.049   2.928  0.3804 -0.0111  0.2477
 1700SOL    HW115779   9.500   9.000   3.001  0.8285  2.9959  2.0804
 1700SOL    HW215780   9.518   9.074   2.857  0.5023 -0.5609  0.1682
 1701SOL     OW15781   1.529   1.178   2.924  0.3409  0.3436  0.8623
 1701SOL    HW115782   1.626   1.169   2.946 -0.2407 -1.2150  2.8934
 1701SOL    HW215783   1.493   1.262   2.963  0.6929  0.5805  0.6867
 1702SOL     OW15784   3.495   2.965   0.243 -0.1982  0.0188  0.5510
 1702SOL    HW115785   3.540   2.880   0.215  1.4318  0.6890  1.0852
 1702SOL    HW215786   3.517   3.038   0.179  3.2348  1.4610  3.1985
 1703SOL     OW15787   1.164   4.397   3.918 -0.2806 -0.2632 -0.0816
 1703SOL    HW115788   1.221   4.411   3.837 -0.4398  2.3270  0.2305
 1703SOL    HW215789   1.222   4.366   3.994  0.3024 -0.0304 -0.4260
 1704SOL     OW15790   0.294   7.291   2.196 -0.4841 -0.4598  0.0778
 1704SOL    HW115791   0.254   7.205   2.229 -1.3743 -0.0776  0.0188
 1704SOL    HW215792   0.268   7.365   2.258 -2.0703  0.2542 -1.4010
 1705SOL     OW15793   4.140   8.289   2.651 -0.2292 -0.0151 -0.5080
 1705SOL    HW115794   4.115   8.246   2.738 -0.1049 -0.7796 -0.8451
 1705SOL    HW215795   4.181   8.221   2.591 -0.6753  0.4197 -1.3161
 1706SOL     OW15796   3.134   7.779   0.844 -0.6651  0.6240 -0.2303
 1706SOL    HW115797   3.183   7.820   0.767 -0.1972 -0.4594 -0.5073
 1706SOL    HW215798   3.200   7.737   0.907 -1.1655  0.0973 -0.0586
 1707SOL     OW15799   4.840   0.476   3.199  0.1455 -0.1315 -0.5689
 1707SOL    HW115800   4.926   0.515   3.165  2.0813 -0.8062  3.2089
 1707SOL    HW215801   4.825   0.387   3.157  3.6304 -1.9615  1.7763
 1708SOL     OW15802   3.299   7.291   4.581  0.2658 -0.3517  0.2929
 1708SOL    HW115803   3.240   7.253   4.653 -0.0689  1.1532  0.8211
 1708SOL    HW215804   3.252   7.285   4.493 -0.4121  0.2376  0.6133
 1709SOL     OW15805   3.087   2.978   3.899 -0.2035  0.1328  0.0571
 1709SOL    HW115806   3.049   3.012   3.985 -0.9448 -0.7686  0.1001
 1709SOL    HW215807   3.180   2.945   3.914 -1.0163 -1.8310  0.9559
 1710SOL     OW15808   3.192   4.877   1.240  0.6259 -0.0069  0.6474
 1710SOL    HW115809   3.160   4.783   1.254  0.6203  0.2089  2.1497
 1710SOL    HW215810   3.292   4.878   1.237  0.5913 -0.3934 -1.9500
 1711SOL     OW15811   8.086   6.227   0.844 -0.2664  0.2580  0.8534
 1711SOL    HW115812   8.075   6.185   0.934  0.6666 -0.1783  0.7690
 1711SOL    HW215813   8.047   6.319   0.845 -1.1997 -0.1298  1.3969
 1712SOL     OW15814   5.383   9.139   1.468 -0.3179 -0.4807 -0.3799
 1712SOL    HW115815   5.451   9.097   1.528  0.2450  2.0047  0.7744
 1712SOL    HW215816   5.428   9.175   1.387 -0.6459 -1.0953 -0.8424
 1713SOL     OW15817   8.873   4.168   3.907 -0.8394  0.2820  0.2349
 1713SOL    HW115818   8.931   4.191   3.829 -0.7749  1.3984  0.6089
 1713SOL    HW215819   8.781   4.147   3.874 -1.1246  1.9193 -0.0395
 1714SOL     OW15820   8.136   8.667   3.460  0.0692  0.2428  0.0739
 1714SOL    HW115821   8.092   8.757   3.457  2.0106  1.2947  1.4592
 1714SOL    HW215822   8.134   8.626   3.369  1.5920  2.9363 -1.2324
 1715SOL     OW15823   8.838   1.166   4.296  0.5349 -0.3425  0.0728
 1715SOL    HW115824   8.919   1.190   4.243 -0.6260  0.5395 -1.3703
 1715SOL    HW215825   8.799   1.249   4.337 -0.5132 -0.5093 -0.5578
 1716SOL     OW15826   3.137   6.735   3.673 -0.1171 -0.4558  0.6856
 1716SOL    HW115827   3.118   6.656   3.615  1.0159 -1.0347  1.0795
 1716SOL    HW215828   3.068   6.739   3.746 -1.0934 -0.1637 -0.2362
 1717SOL     OW15829   8.532   0.291   3.102  1.0612  0.0884  0.2613
 1717SOL    HW115830   8.508   0.250   3.190  2.2862  1.1571  1.1089
 1717SOL    HW215831   8.624   0.263   3.076  0.3162 -1.0749 -1.2158
 1718SOL     OW15832   4.641   0.595   1.155 -0.2920  0.2664 -0.2909
 1718SOL    HW115833   4.679   0.645   1.233 -1.4234 -0.5064  0.7591
 1718SOL    HW215834   4.654   0.649   1.072  1.9258  0.6063  0.2329
 1719SOL     OW15835   4.713   3.435   0.133  0.7572 -0.3235 -0.3557
 1719SOL    HW115836   4.711   3.340   0.101 -0.7044 -0.8493  1.1803
 1719SOL    HW215837   4.689   3.496   0.058 -2.8542 -1.5391 -0.2984
 1720SOL     OW15838   2.983   7.807   3.818 -0.0745 -0.5557 -0.0481
 1720SOL    HW115839   2.895   7.805   3.866  0.1175 -1.5363  0.2608
 1720SOL    HW215840   3.058   7.803   3.884  0.2521  1.9737 -0.1929
 1721SOL     OW15841   1.795   9.974   1.972  0.2194  0.3938 -0.3977
 1721SOL    HW115842   1.886  10.009   1.949  0.1776  1.0881  0.4545
 1721SOL    HW215843   1.732   9.993   1.897  0.9444 -0.7995 -1.3375
 1722SOL     OW15844   9.627   4.766   0.019 -0.2918  0.1750 -0.1433
 1722SOL    HW115845   9.652   4.740   0.112 -0.2117 -0.9380 -0.4613
 1722SOL    HW215846   9.528   4.775   0.013 -0.1653  2.3209  0.5519
 1723SOL     OW15847   8.549   3.193   0.231  0.0345 -0.1425  0.0972
 1723SOL    HW115848   8.471   3.149   0.187 -1.3336  3.3182 -1.1370
 1723SOL    HW215849   8.521   3.227   0.321  0.5816 -0.2396  0.3070
 1724SOL     OW15850   8.787   0.400   3.355  0.1525  0.1475  0.1800
 1724SOL    HW115851   8.784   0.334   3.431 -1.1920 -1.0898 -0.9153
 1724SOL    HW215852   8.790   0.351   3.268 -0.3884  1.5530 -0.6479
 1725SOL     OW15853   5.540   3.862   0.236 -1.1122  0.0581 -0.1853
 1725SOL    HW115854   5.535   3.955   0.273 -1.1326  0.5986 -1.5206
 1725SOL    HW215855   5.469   3.851   0.166 -2.2562 -1.5341  1.1803
 1726SOL     OW15856   8.774   6.424   0.173 -0.2327  0.0096 -0.1006
 1726SOL    HW115857   8.856   6.368   0.166  0.0943  0.3533  1.0098
 1726SOL    HW215858   8.786   6.508   0.120 -0.1761 -0.2989 -0.5808
 1727SOL     OW15859   8.901   0.652   3.370  0.0483  0.4703 -0.3857
 1727SOL    HW115860   8.935   0.699   3.289  1.7448 -1.0759 -0.5958
 1727SOL    HW215861   8.869   0.561   3.345 -0.5309  0.4220  0.4961
 1728SOL     OW15862   9.589   1.961   0.231  0.2008 -0.2398  0.4794
 1728SOL    HW115863   9.667   1.981   0.172 -0.9545 -0.5994 -1.1965
 1728SOL    HW215864   9.529   2.041   0.236 -0.8052 -0.9092 -0.5883
 1729SOL     OW15865   3.661   4.057   0.834  0.1443  0.4208  0.1368
 1729SOL    HW115866   3.727   4.108   0.890 -0.8657 -1.0028  2.6904
 1729SOL    HW215867   3.709   3.989   0.779  1.1681  1.9792 -0.9700
 1730SOL     OW15868   6.769   8.874   1.475 -0.3735 -0.0696  0.9343
 1730SOL    HW115869   6.696   8.931   1.514 -0.7259 -0.6280  1.1058
 1730SOL    HW215870   6.857   8.920   1.484 -1.0256  1.7874 -1.5917
 1731SOL     OW15871   9.692   3.048   1.831  0.0669  0.2647 -0.3017
 1731SOL    HW115872   9.700   3.143   1.802  1.4922  0.0816 -0.5368
 1731SOL    HW215873   9.626   3.042   1.907  0.8541  1.6111  0.5100
 1732SOL     OW15874   8.329   9.265   3.712  0.0777  0.1429 -0.2077
 1732SOL    HW115875   8.428   9.261   3.719 -0.0092 -1.8751  0.0771
 1732SOL    HW215876   8.299   9.220   3.628 -0.6354 -0.0461  0.1403
 1733SOL     OW15877   0.155   9.282   0.912  0.1716 -0.0846 -0.4559
 1733SOL    HW115878   0.182   9.354   0.848 -0.0704  0.2591 -0.1735
 1733SOL    HW215879   0.237   9.236   0.947  0.4278  1.1208  0.5911
 1734SOL     OW15880   7.859   1.662   4.574  0.0602 -0.6844  0.1705
 1734SOL    HW115881   7.862   1.607   4.491 -0.5641 -0.2781 -0.1220
 1734SOL    HW215882   7.774   1.644   4.624 -0.6049  0.7292 -0.4309
 1735SOL     OW15883   8.855   5.861   3.513  0.1024 -0.1672 -0.8440
 1735SOL    HW115884   8.917   5.935   3.486  0.3353  0.2849  0.8543
 1735SOL    HW215885   8.830   5.873   3.609 -0.3328 -1.9666 -0.7197
 1736SOL     OW15886   1.794   1.634   1.699  0.2023 -0.2308 -0.2991
 1736SOL    HW115887   1.836   1.562   1.644 -0.2277 -0.4876 -0.2929
 1736SOL    HW215888   1.858   1.710   1.709  1.5200 -1.5481  1.5831
 1737SOL     OW15889   5.127   1.413   2.301  0.4948 -0.3059 -0.5263
 1737SOL    HW115890   5.033   1.396   2.329  1.6804 -0.1908  3.8821
 1737SOL    HW215891   5.136   1.509   2.273 -0.4464 -0.0219  0.1151
 1738SOL     OW15892   0.513   6.539   0.954 -0.1067 -0.0930 -0.2450
 1738SOL    HW115893   0.503   6.490   0.868 -0.3164  1.1849 -0.9671
 1738SOL    HW215894   0.456   6.496   1.024 -0.4927 -0.7043 -0.9339
 1739SOL     OW15895   0.030   4.289   0.705  0.4722 -0.6461  0.1405
 1739SOL    HW115896   0.083   4.229   0.764  0.5095  1.7546  2.6255
 1739SOL    HW215897   0.085   4.368   0.679 -0.3032 -0.5358 -1.2588
 1740SOL     OW15898   5.329   9.172   2.933 -0.0209  0.5317 -0.4722
 1740SOL    HW115899   5.321   9.075   2.909  0.0500  0.4677 -0.2345
 1740SOL    HW215900   5.252   9.198   2.992  0.3635  0.4393  0.0686
 1741SOL     OW15901   2.626   8.728   2.554  0.5515 -0.4355 -0.0566
 1741SOL    HW115902   2.624   8.800   2.485 -0.7200  0.0178  0.4452
 1741SOL    HW215903   2.701   8.744   2.617 -0.5208  1.1981  0.8337
 1742SOL     OW15904   0.500   9.135   1.907 -0.1333  0.1986 -0.5344
 1742SOL    HW115905   0.405   9.107   1.901 -0.2554  0.4434  0.2615
 1742SOL    HW215906   0.556   9.057   1.935 -0.1330  0.1190 -0.7553
 1743SOL     OW15907   9.243   9.422   2.632 -0.1890 -0.3764 -0.1496
 1743SOL    HW115908   9.292   9.419   2.719 -0.5503 -0.2242  0.0567
 1743SOL    HW215909   9.255   9.512   2.590 -0.1460 -0.3989 -0.1842
 1744SOL     OW15910   3.755   9.671   4.695  0.0153 -0.1961 -0.9021
 1744SOL    HW115911   3.697   9.709   4.767  2.5496  0.1564  1.0527
 1744SOL    HW215912   3.791   9.583   4.725  0.9080 -0.1545 -1.8359
 1745SOL     OW15913   1.488   8.565   0.639  0.6428 -0.4246 -0.3117
 1745SOL    HW115914   1.454   8.562   0.733 -1.2958  2.9870 -0.8223
 1745SOL    HW215915   1.588   8.569   0.638  0.6071  1.5110  1.6986
 1746SOL     OW15916   3.629   8.492   0.922  0.2948 -0.2537 -0.0668
 1746SOL    HW115917   3.665   8.557   0.856 -0.0904 -0.4280 -0.4528
 1746SOL    HW215918   3.581   8.419   0.873  0.3414 -0.5872  0.3854
 1747SOL     OW15919   7.286   9.622   2.323 -0.0088  0.0265 -0.3795
 1747SOL    HW115920   7.345   9.597   2.399  0.1706  0.4809 -0.3681
 1747SOL    HW215921   7.196   9.580   2.335  0.0434  0.0370  0.0463
 1748SOL     OW15922   1.541   5.644   4.532 -0.2303 -0.1182  0.0257
 1748SOL    HW115923   1.451   5.686   4.522 -0.8986 -1.5182  0.0084
 1748SOL    HW215924   1.542   5.584   4.612  0.7927  0.1640  0.2308
 1749SOL     OW15925   2.326   5.134   4.366 -0.1319 -0.2836  0.0725
 1749SOL    HW115926   2.262   5.070   4.408 -0.5612  0.3711  0.4220
 1749SOL    HW215927   2.398   5.083   4.319 -0.9189 -1.0280 -0.3440
 1750SOL     OW15928   1.216   9.208   3.029 -0.8426  0.0705 -0.1666
 1750SOL    HW115929   1.236   9.285   2.969 -2.2538 -0.0815 -0.8473
 1750SOL    HW215930   1.118   9.200   3.043 -0.7172 -1.5451 -0.0232
 1751SOL     OW15931   9.329   0.897   3.907  1.3400 -0.0592 -1.0560
 1751SOL    HW115932   9.254   0.962   3.920  2.2372  0.8868 -0.4757
 1751SOL    HW215933   9.320   0.822   3.972 -0.4039 -1.2000 -2.5644
 1752SOL     OW15934   2.171   7.217   3.705  0.8087  0.5794  0.2027
 1752SOL    HW115935   2.079   7.191   3.678  0.7840 -0.1465  0.9705
 1752SOL    HW215936   2.173   7.315   3.727  0.0134  0.4078  1.0534
 1753SOL     OW15937   3.021   3.751   2.833  0.6158 -0.1399  0.0376
 1753SOL    HW115938   3.089   3.823   2.820  0.9267 -0.4388 -0.0019
 1753SOL    HW215939   2.937   3.774   2.783  0.3555  0.6724  0.8245
 1754SOL     OW15940   6.928   9.382   0.735  0.6110 -1.0748  0.4676
 1754SOL    HW115941   6.968   9.445   0.668 -2.1473  0.3025  0.0272
 1754SOL    HW215942   6.831   9.368   0.713  0.3124 -2.6724  2.6671
 1755SOL     OW15943   3.585   7.044   0.954  0.2213  0.1910  0.3672
 1755SOL    HW115944   3.498   7.061   0.907  0.8137  3.9591  0.5516
 1755SOL    HW215945   3.660   7.045   0.888  0.5300  0.6197  0.7241
 1756SOL     OW15946   0.642   0.129   0.327  0.3953 -0.0310 -0.3383
 1756SOL    HW115947   0.642   0.090   0.419 -0.6874  1.2236  0.2135
 1756SOL    HW215948   0.730   0.113   0.283  0.6998 -1.1744  0.6887
 1757SOL     OW15949   7.197   9.276   3.874  0.4238 -0.3551  0.3566
 1757SOL    HW115950   7.261   9.311   3.943 -0.3996 -0.3004  1.1043
 1757SOL    HW215951   7.136   9.209   3.916  0.2525 -0.7071 -0.4468
 1758SOL     OW15952   7.918   8.294   3.011  0.3712  0.0390  0.1763
 1758SOL    HW115953   7.937   8.367   2.946 -0.1869 -1.7879 -2.1124
 1758SOL    HW215954   7.840   8.319   3.068  1.4325  2.0449  0.8102
 1759SOL     OW15955   1.074   1.034   0.079 -0.6169 -0.0175  0.6059
 1759SOL    HW115956   1.004   1.039   0.007  0.0476  0.4641 -0.0041
 1759SOL    HW215957   1.059   1.107   0.145 -1.3998 -0.6315  1.1233
 1760SOL     OW15958   1.128   8.297   2.118  0.5053  0.5203  0.0627
 1760SOL    HW115959   1.061   8.311   2.191 -0.0366  1.4449 -0.5991
 1760SOL    HW215960   1.144   8.383   2.070  2.0338  0.2576  0.0856
 1761SOL     OW15961   7.241   8.170   3.421  0.3623 -0.6079  0.3694
 1761SOL    HW115962   7.305   8.247   3.426 -1.7323  1.1669  0.6993
 1761SOL    HW215963   7.149   8.202   3.443 -0.7131 -3.0420 -0.4358
 1762SOL     OW15964   0.766   2.259   1.307  0.6482  1.1339  0.0272
 1762SOL    HW115965   0.725   2.202   1.378 -1.8877  0.7396 -1.6973
 1762SOL    HW215966   0.785   2.350   1.343 -0.5270  0.9049  1.2385
 1763SOL     OW15967   3.569   7.228   4.644  0.2277 -0.0717  0.0779
 1763SOL    HW115968   3.472   7.226   4.621 -0.4477 -0.1667  2.8032
 1763SOL    HW215969   3.608   7.137   4.631 -1.1300 -1.1739  3.2304
 1764SOL     OW15970   3.182   6.419   2.637  0.3518  0.7655  0.5489
 1764SOL    HW115971   3.117   6.393   2.709  0.7906  0.5458  0.8675
 1764SOL    HW215972   3.274   6.393   2.664  0.5803  1.1037  0.1060
 1765SOL     OW15973   2.529   3.394   4.192  0.0629 -0.1414  0.4410
 1765SOL    HW115974   2.482   3.352   4.270  0.2101 -0.1658  0.5169
 1765SOL    HW215975   2.507   3.344   4.109 -1.3817  0.8548  0.2109
 1766SOL     OW15976   1.144   6.625   0.037 -0.1491  0.0802 -0.0556
 1766SOL    HW115977   1.143   6.666   0.128 -0.3482 -0.9000  0.3870
 1766SOL    HW215978   1.234   6.585   0.020 -0.4525 -0.7006  0.1503
 1767SOL     OW15979   8.851   1.844   4.552 -0.2460 -0.1363  0.2054
 1767SOL    HW115980   8.824   1.909   4.623 -0.1371 -0.5099  0.6003
 1767SOL    HW215981   8.776   1.830   4.488 -0.2796  0.3462  0.1470
 1768SOL     OW15982   2.853   1.194   3.132  0.0855 -0.4846  0.2730
 1768SOL    HW115983   2.773   1.151   3.091 -1.1551 -0.5886  2.7696
 1768SOL    HW215984   2.922   1.125   3.152 -0.0845 -0.6923  0.1454
 1769SOL     OW15985   9.734   3.753   2.863 -0.2540 -0.1109  0.1522
 1769SOL    HW115986   9.776   3.663   2.875 -0.3895 -0.1285  0.4990
 1769SOL    HW215987   9.657   3.745   2.799 -1.3974 -0.5966  1.5522
 1770SOL     OW15988   2.952   4.514   3.716  0.4484 -0.1900  0.5171
 1770SOL    HW115989   2.874   4.564   3.678  0.2705 -0.9055 -0.0778
 1770SOL    HW215990   3.025   4.578   3.738  0.1500  0.3512 -0.0504
 1771SOL     OW15991   4.058   8.545   2.563 -0.4220  0.2263  0.1773
 1771SOL    HW115992   4.065   8.458   2.612 -1.6765 -1.3909 -2.3837
 1771SOL    HW215993   3.998   8.607   2.614 -0.3667 -0.7995  1.5215
 1772SOL     OW15994   3.128   2.638   4.005  0.3720  0.4725  0.6449
 1772SOL    HW115995   3.144   2.698   4.083  2.8200 -1.7549  1.9441
 1772SOL    HW215996   3.102   2.547   4.038  1.0053 -0.3805 -1.1282
 1773SOL     OW15997   5.190   7.741   3.558 -0.8003 -0.2197  0.3789
 1773SOL    HW115998   5.190   7.800   3.639  0.2559 -0.7394  0.7833
 1773SOL    HW215999   5.275   7.754   3.507 -2.9712  2.7516 -2.6835
 1774SOL     OW16000   4.996   8.814   2.958  0.2375 -0.1669 -0.2849
 1774SOL    HW116001   4.944   8.893   2.993 -0.6450 -0.5597 -0.7010
 1774SOL    HW216002   4.960   8.787   2.869  0.2366 -1.3416  0.0688
 1775SOL     OW16003   7.710   9.556   4.060  0.2132 -0.0709  0.3951
 1775SOL    HW116004   7.626   9.506   4.039  1.1398 -0.2785 -3.1606
 1775SOL    HW216005   7.687   9.647   4.094 -1.4489 -0.9014  1.5574
 1776SOL     OW16006   4.316   3.992   3.634  0.0770 -0.2397 -0.3828
 1776SOL    HW116007   4.397   4.045   3.658 -1.1088  0.8734  1.2474
 1776SOL    HW216008   4.272   4.033   3.554  1.1270 -0.8660 -1.2896
 1777SOL     OW16009   9.667   6.601   2.894  0.0341 -0.0584  1.0565
 1777SOL    HW116010   9.592   6.556   2.844 -0.8247  0.6174  1.7395
 1777SOL    HW216011   9.632   6.680   2.943  1.6443  1.7667 -0.6349
 1778SOL     OW16012   2.035   2.536   1.695 -0.3193 -0.3514 -0.5855
 1778SOL    HW116013   1.949   2.577   1.724  0.1619  0.3117 -0.0856
 1778SOL    HW216014   2.105   2.553   1.764  0.5359  0.1843 -1.5761
 1779SOL     OW16015   3.446   7.604   4.104  0.0749 -1.1317 -0.4511
 1779SOL    HW116016   3.508   7.638   4.174 -1.7012 -0.1379  0.6758
 1779SOL    HW216017   3.477   7.633   4.013  0.0940  1.1731  0.2684
 1780SOL     OW16018   0.201   2.330   0.055 -0.0717 -0.6076 -0.3204
 1780SOL    HW116019   0.240   2.413   0.017 -0.5450 -0.5337 -0.6479
 1780SOL    HW216020   0.120   2.353   0.109 -0.8482 -0.9642 -1.3189
 1781SOL     OW16021   1.380   2.010   3.838 -0.0662  0.3512  0.0081
 1781SOL    HW116022   1.283   1.993   3.821 -0.5180  0.8263  1.9298
 1781SOL    HW216023   1.425   1.924   3.861 -0.0929  0.1723 -0.6041
 1782SOL     OW16024   3.821   3.015   4.708  0.3253  0.4144 -0.2364
 1782SOL    HW116025   3.826   2.948   4.634  1.4754  0.7772 -0.5028
 1782SOL    HW216026   3.774   3.097   4.675  1.1736  0.7261 -0.7009
 1783SOL     OW16027   2.767   3.814   2.430 -0.4090 -0.0490  0.0297
 1783SOL    HW116028   2.697   3.772   2.372  1.2564 -1.5124 -0.9575
 1783SOL    HW216029   2.854   3.766   2.418  0.2320  0.2890  2.9790
 1784SOL     OW16030   8.725   4.186   4.751  0.5581  0.2216 -0.0985
 1784SOL    HW116031   8.640   4.218   4.793  0.1629  0.3305 -0.9905
 1784SOL    HW216032   8.707   4.107   4.693  1.2572 -0.5042  0.6558
 1785SOL     OW16033   3.622   8.020   0.262 -0.0181  0.2684  0.5454
 1785SOL    HW116034   3.635   8.080   0.182  0.4564 -1.6859 -0.8779
 1785SOL    HW216035   3.526   8.018   0.287 -0.5254 -0.8237 -1.3872
 1786SOL     OW16036   6.176   0.699   3.251 -0.3014 -0.2177  1.2895
 1786SOL    HW116037   6.197   0.795   3.233  0.8351 -0.4202  1.4831
 1786SOL    HW216038   6.088   0.676   3.210 -1.1383  1.2069  2.2164
 1787SOL     OW16039   2.861   9.671   4.039 -0.3929 -0.2433  0.1940
 1787SOL    HW116040   2.818   9.589   4.076 -0.1584 -1.3230 -1.8663
 1787SOL    HW216041   2.793   9.728   3.993 -0.3257  0.0672  0.4746
 1788SOL     OW16042   1.223   0.701   3.573 -0.2370  0.4000  0.5265
 1788SOL    HW116043   1.133   0.733   3.543 -0.1860  0.0461  0.0098
 1788SOL    HW216044   1.271   0.777   3.618 -0.0936  1.0749 -0.7502
 1789SOL     OW16045   2.705   3.801   3.043 -0.0505  0.8258  0.6540
 1789SOL    HW116046   2.715   3.706   3.015  1.4867  1.1187  0.1354
 1789SOL    HW216047   2.688   3.805   3.141 -0.5222  0.0030  0.6098
 1790SOL     OW16048   9.617   1.783   1.188 -0.5498 -0.3836  0.0983
 1790SOL    HW116049   9.632   1.769   1.286 -0.7097  0.4948  0.2542
 1790SOL    HW216050   9.698   1.825   1.147 -0.8440  0.1426  0.0461
 1791SOL     OW16051   4.539   9.279   4.423 -0.0989 -0.0939  0.0929
 1791SOL    HW116052   4.463   9.292   4.487  0.2359  1.9059  0.1225
 1791SOL    HW216053   4.576   9.186   4.434 -1.7423 -0.6832  0.9231
 1792SOL     OW16054   9.603   4.734   3.955  0.0403 -0.5613  0.4800
 1792SOL    HW116055   9.673   4.806   3.959 -0.8236  0.2609  0.9823
 1792SOL    HW216056   9.615   4.682   3.870  1.0845 -0.2533  0.4213
 1793SOL     OW16057   2.864   1.703   4.233 -0.2472  0.6772 -0.2149
 1793SOL    HW116058   2.846   1.761   4.153 -1.0339  1.6283  0.6335
 1793SOL    HW216059   2.895   1.761   4.308 -0.4225 -0.1027  0.4533
 1794SOL     OW16060   7.848   2.775   1.605  0.0766  0.0174 -0.2492
 1794SOL    HW116061   7.866   2.812   1.696 -1.2581  0.2994 -0.0909
 1794SOL    HW216062   7.797   2.689   1.614  2.0003 -1.2159 -0.6589
 1795SOL     OW16063   9.453   4.262   0.090 -0.0381  0.0017 -0.0748
 1795SOL    HW116064   9.387   4.336   0.099 -0.0323 -0.1929  1.7196
 1795SOL    HW216065   9.414   4.178   0.129  0.7676 -0.4381 -0.2026
 1796SOL     OW16066   0.442   6.236   0.149 -0.5129  0.8241  0.8683
 1796SOL    HW116067   0.512   6.193   0.208 -0.9487 -1.6171 -0.3380
 1796SOL    HW216068   0.351   6.211   0.183 -0.7933  1.9539  0.9575
 1797SOL     OW16069   6.509   9.837   2.049  0.2314 -0.1779  0.0641
 1797SOL    HW116070   6.419   9.839   2.092 -0.2710 -0.8258 -0.9667
 1797SOL    HW216071   6.579   9.826   2.120 -0.5512 -0.6104  0.7763
 1798SOL     OW16072   5.093   2.046   2.722  0.0880  0.6639 -0.7339
 1798SOL    HW116073   5.062   2.128   2.769  3.9812  1.8140  0.0084
 1798SOL    HW216074   5.131   2.071   2.633 -0.2321 -0.5551 -1.2191
 1799SOL     OW16075   0.251   8.959   0.025  0.5390 -0.9791  0.0875
 1799SOL    HW116076   0.157   8.988   0.011  1.1378  0.5670 -0.8322
 1799SOL    HW216077   0.264   8.929   0.120 -0.6122 -0.2250  0.4804
 1800SOL     OW16078   9.502   6.855   3.902  0.1359 -0.6441  0.0971
 1800SOL    HW116079   9.452   6.768   3.903 -0.3766 -0.3559 -0.0492
 1800SOL    HW216080   9.437   6.930   3.884  1.0138 -0.5433 -2.9659
 1801SOL     OW16081   3.041   4.548   3.166  0.3336  0.6530 -0.2240
 1801SOL    HW116082   3.013   4.550   3.069 -0.6581 -0.7173  0.0154
 1801SOL    HW216083   2.960   4.536   3.223  1.0941 -0.1364  0.6913
 1802SOL     OW16084   0.031   1.851   2.370  0.0532 -0.1553  0.3544
 1802SOL    HW116085  -0.018   1.918   2.427  0.0731  0.0330  0.1495
 1802SOL    HW216086  -0.034   1.781   2.339 -0.5739  1.3168 -1.7695
 1803SOL     OW16087   7.879   7.134   2.775  0.3015 -0.2462 -0.0527
 1803SOL    HW116088   7.875   7.061   2.706  0.1266 -0.3135  0.0300
 1803SOL    HW216089   7.934   7.103   2.853 -1.2036 -0.9264  0.7484
 1804SOL     OW16090   3.864   2.764   3.228  0.0503  0.1682  0.2330
 1804SOL    HW116091   3.830   2.674   3.199 -0.7394  0.7207 -0.5843
 1804SOL    HW216092   3.848   2.830   3.155  1.8093  0.7065  0.3040
 1805SOL     OW16093   4.091   1.197   1.518  0.3118 -0.0229  0.4989
 1805SOL    HW116094   4.129   1.203   1.425 -0.9943 -0.5232 -0.0716
 1805SOL    HW216095   4.111   1.107   1.556  0.4980  0.0421  0.5573
 1806SOL     OW16096   2.500   3.956   1.502  0.5320  0.4428  0.3908
 1806SOL    HW116097   2.578   4.013   1.528  0.7805  0.6051 -0.6778
 1806SOL    HW216098   2.507   3.933   1.405 -0.7831  0.5126  0.2709
 1807SOL     OW16099   9.525   2.005   3.412  0.2836 -0.5400 -0.1981
 1807SOL    HW116100   9.482   1.923   3.448  0.5530 -0.3738  0.4968
 1807SOL    HW216101   9.587   2.044   3.480  0.1683  0.2294 -0.5231
 1808SOL     OW16102   1.706   7.807   4.079 -0.1655  0.0367 -0.2508
 1808SOL    HW116103   1.789   7.857   4.057  0.5441 -1.3224 -0.7238
 1808SOL    HW216104   1.633   7.831   4.014  0.0733  0.6722 -0.2833
 1809SOL     OW16105   8.722   5.949   1.510  0.2793 -0.9027 -0.2861
 1809SOL    HW116106   8.697   5.994   1.596 -1.0258  0.0097 -1.1240
 1809SOL    HW216107   8.766   6.015   1.450  1.9106 -1.7355 -0.0262
 1810SOL     OW16108   4.772   9.639   3.874  0.5716  0.0504 -0.6206
 1810SOL    HW116109   4.827   9.620   3.793 -0.0261 -0.6024 -0.8830
 1810SOL    HW216110   4.693   9.695   3.849 -0.2621 -1.1479 -0.7190
 1811SOL     OW16111   0.158   7.850   1.353 -0.0520 -0.5422  0.0748
 1811SOL    HW116112   0.191   7.799   1.274 -0.5958 -1.2146  0.2781
 1811SOL    HW216113   0.133   7.787   1.427 -0.1065  0.0438  0.5700
 1812SOL     OW16114   8.501   4.950   0.849 -0.4242  0.3325 -0.5306
 1812SOL    HW116115   8.488   5.044   0.817 -2.1707  0.2525 -0.0974
 1812SOL    HW216116   8.415   4.901   0.842  0.3108 -1.0402 -0.0714
 1813SOL     OW16117   9.943   8.623   1.104  0.4944  0.0398 -0.2018
 1813SOL    HW116118   9.930   8.645   1.008  1.6739  0.0392 -0.3655
 1813SOL    HW216119  10.031   8.577   1.116  0.0825 -0.5030  0.7855
 1814SOL     OW16120   4.424   8.854   2.076 -0.6009  0.6595 -0.0094
 1814SOL    HW116121   4.326   8.859   2.092 -0.5883  0.1103  0.2432
 1814SOL    HW216122   4.469   8.937   2.110 -1.5007  2.9168 -3.9318
 1815SOL     OW16123   1.965   7.618   3.352 -0.2078 -0.0884 -0.5537
 1815SOL    HW116124   1.928   7.574   3.434  0.9346  0.7847  0.4625
 1815SOL    HW216125   1.979   7.550   3.280  1.8172 -1.4617  1.0729
 1816SOL     OW16126   3.584   9.352   4.650 -0.1310 -0.4178 -0.5767
 1816SOL    HW116127   3.501   9.397   4.684  0.1623 -1.5859  1.8056
 1816SOL    HW216128   3.561   9.297   4.569 -1.2840  0.7997 -1.1005
 1817SOL     OW16129   2.354   3.750   3.369  0.0667 -0.4331  0.2022
 1817SOL    HW116130   2.406   3.810   3.430  2.1804 -0.9467 -1.0498
 1817SOL    HW216131   2.277   3.710   3.419  0.8732  0.3460  2.1055
 1818SOL     OW16132   3.353   1.608   0.588  0.0614  0.2099 -0.1140
 1818SOL    HW116133   3.285   1.545   0.626  2.0442 -0.8446  1.8050
 1818SOL    HW216134   3.434   1.557   0.560  0.5622  1.5975 -1.2315
 1819SOL     OW16135   2.884   0.584   3.874  0.0072 -0.2905  0.3615
 1819SOL    HW116136   2.808   0.642   3.844 -0.0356  0.2417  1.4930
 1819SOL    HW216137   2.863   0.489   3.850 -0.9727 -0.1344  0.5784
 1820SOL     OW16138   9.878   4.251   0.978 -0.7489 -0.0808 -0.0268
 1820SOL    HW116139   9.823   4.302   0.912 -1.1574 -0.9139 -0.3426
 1820SOL    HW216140   9.969   4.235   0.940 -0.9847 -0.5632 -0.3911
 1821SOL     OW16141   7.697   2.384   3.412  0.2463  0.4212  0.0844
 1821SOL    HW116142   7.677   2.361   3.507  0.0941 -0.8724 -0.2527
 1821SOL    HW216143   7.678   2.481   3.397 -0.3143  0.5014  1.2140
 1822SOL     OW16144   3.674   3.509   0.752 -0.1253 -0.4300 -0.4721
 1822SOL    HW116145   3.617   3.436   0.713 -1.7450  1.2294 -1.2603
 1822SOL    HW216146   3.770   3.478   0.755 -0.8272 -2.7113 -0.4592
 1823SOL     OW16147   2.851   5.568   3.655  0.1982 -0.4061  0.3740
 1823SOL    HW116148   2.852   5.605   3.748  0.5139 -1.9612  1.0123
 1823SOL    HW216149   2.923   5.498   3.646  0.7806  0.3829 -1.3140
 1824SOL     OW16150   0.074   5.532   3.335 -0.8429 -0.5143 -0.3494
 1824SOL    HW116151   0.006   5.506   3.266  0.1263  1.2452 -2.0112
 1824SOL    HW216152   0.134   5.454   3.353  0.9286 -0.0411 -3.9351
 1825SOL     OW16153   0.698   2.790   2.263 -0.3265  0.2397  0.1218
 1825SOL    HW116154   0.725   2.884   2.281 -0.8999  0.6525 -1.0804
 1825SOL    HW216155   0.775   2.739   2.224 -0.3304  0.4971 -0.2166
 1826SOL     OW16156   4.543   7.959   2.469 -0.4255 -0.7087 -0.0110
 1826SOL    HW116157   4.610   7.884   2.470 -0.6586 -0.9066  0.7744
 1826SOL    HW216158   4.464   7.932   2.413 -0.4033 -0.9513  0.0744
 1827SOL     OW16159   8.858   3.611   0.415  0.1236  0.6653  0.1004
 1827SOL    HW116160   8.847   3.615   0.316  0.1064  1.5479  0.1305
 1827SOL    HW216161   8.779   3.652   0.460  1.5203  3.1896  0.3920
 1828SOL     OW16162   9.477   8.190   0.928 -0.1121  0.2581  0.3971
 1828SOL    HW116163   9.427   8.117   0.974  1.5767  0.2067  2.2068
 1828SOL    HW216164   9.485   8.269   0.990 -3.1821  2.5861 -2.0270
 1829SOL     OW16165   2.172   4.660   3.910  0.0239  0.0448 -0.2270
 1829SOL    HW116166   2.131   4.688   3.823 -1.8147 -1.5590  0.0834
 1829SOL    HW216167   2.167   4.735   3.975  0.1978  0.8147 -1.0924
 1830SOL     OW16168   3.466   9.359   0.798  0.0578  0.4456  0.1720
 1830SOL    HW116169   3.481   9.451   0.836  3.3787  0.3930 -0.8731
 1830SOL    HW216170   3.509   9.353   0.708  0.2682 -2.3072  0.4323
 1831SOL     OW16171   3.669   6.933   2.466 -0.8456  0.3665 -0.1133
 1831SOL    HW116172   3.657   6.985   2.551 -1.8016  0.5334 -0.3384
 1831SOL    HW216173   3.643   6.991   2.389 -1.2190 -0.2074 -0.4183
 1832SOL     OW16174   0.727   2.013   1.476  0.4476 -0.0136 -0.4177
 1832SOL    HW116175   0.656   1.971   1.533  2.3951 -1.3609  1.1022
 1832SOL    HW216176   0.751   1.950   1.402  0.5116  0.1709 -0.5535
 1833SOL     OW16177   2.176   1.962   1.067  0.0954  0.3039  0.2587
 1833SOL    HW116178   2.212   1.890   1.126  0.3584  1.5823  1.6910
 1833SOL    HW216179   2.189   1.937   0.971  2.1997 -0.5380  0.7430
 1834SOL     OW16180   0.549   1.203   2.350 -0.4061 -0.5550  0.4451
 1834SOL    HW116181   0.478   1.273   2.350 -1.6484 -1.7867 -0.7440
 1834SOL    HW216182   0.537   1.144   2.430 -0.4926 -0.5222  0.4569
 1835SOL     OW16183   3.492   3.943   3.234 -0.1782 -0.5281 -0.1721
 1835SOL    HW116184   3.400   3.919   3.267  0.5991 -2.1829  0.8330
 1835SOL    HW216185   3.501   4.043   3.231 -1.7879 -0.3477  0.3256
 1836SOL     OW16186   6.199   7.182   2.266 -0.4515 -0.5103  0.4671
 1836SOL    HW116187   6.176   7.140   2.354  1.0519 -1.2490  0.5169
 1836SOL    HW216188   6.286   7.147   2.234 -0.9547 -0.1881 -1.3043
 1837SOL     OW16189   0.943   3.792   2.342 -0.0819  0.2329 -0.0268
 1837SOL    HW116190   0.888   3.854   2.399 -0.0673  0.6210 -0.4338
 1837SOL    HW216191   0.934   3.817   2.246  0.7078  0.2240 -0.1122
 1838SOL     OW16192   1.218   1.186   3.766 -0.3674 -0.1365  0.0136
 1838SOL    HW116193   1.317   1.200   3.775 -0.4285  2.1417 -2.2957
 1838SOL    HW216194   1.170   1.256   3.819 -0.7463 -0.8349  0.5961
 1839SOL     OW16195   3.379   4.026   3.503 -0.0117  0.1915 -0.1977
 1839SOL    HW116196   3.300   4.068   3.546  0.2441 -0.3466  0.8213
 1839SOL    HW216197   3.436   4.096   3.460 -2.2283  0.3633 -2.9772
 1840SOL     OW16198   2.420   3.629   1.082 -0.6302 -0.0483  0.3064
 1840SOL    HW116199   2.410   3.707   1.144 -1.4690 -0.5606  0.8253
 1840SOL    HW216200   2.398   3.544   1.131  0.4079 -0.6310 -0.2112
 1841SOL     OW16201   1.020   7.051   1.264 -0.5160  0.3307 -0.2557
 1841SOL    HW116202   1.117   7.028   1.250 -0.1846  1.4751  0.0841
 1841SOL    HW216203   0.993   7.120   1.196 -0.9832  0.3077 -0.0880
 1842SOL     OW16204   0.104   4.806   2.481  0.1060 -0.0398 -0.2297
 1842SOL    HW116205   0.093   4.871   2.556 -0.7308  0.8091 -1.0683
 1842SOL    HW216206   0.087   4.852   2.394 -1.3362 -1.5482 -0.7893
 1843SOL     OW16207   0.572   7.744   2.477 -0.1938 -0.2784 -0.0562
 1843SOL    HW116208   0.497   7.701   2.427 -1.2750  1.8243 -0.2970
 1843SOL    HW216209   0.621   7.675   2.531 -1.4769 -1.8830 -0.9192
 1844SOL     OW16210   8.419   6.520   0.772  0.1343  0.1772 -0.3428
 1844SOL    HW116211   8.372   6.499   0.858 -1.1738  1.3396 -0.7475
 1844SOL    HW216212   8.440   6.435   0.724  0.9848 -0.4797  1.1727
 1845SOL     OW16213   9.847   3.746   3.868 -0.0032  0.0768  0.0672
 1845SOL    HW116214   9.767   3.747   3.928  0.2349  2.2458  0.3753
 1845SOL    HW216215   9.930   3.738   3.924  0.0444 -1.7833 -0.2293
 1846SOL     OW16216   0.166   8.551   3.324 -0.1376 -0.4073  0.0488
 1846SOL    HW116217   0.084   8.607   3.322  0.3614  0.3041 -1.3280
 1846SOL    HW216218   0.141   8.455   3.314 -0.8634 -0.2710  0.5670
 1847SOL     OW16219   7.021   9.574   2.364  0.6051 -0.0710 -0.0292
 1847SOL    HW116220   6.938   9.576   2.308  0.3134 -0.4510  0.3805
 1847SOL    HW216221   6.996   9.572   2.460  1.0616 -1.3232  0.0789
 1848SOL     OW16222   2.664   6.392   1.583  0.0154  0.5618  0.2447
 1848SOL    HW116223   2.604   6.313   1.577 -0.4864  1.0136 -0.7675
 1848SOL    HW216224   2.757   6.366   1.556 -0.2979  0.4742 -0.7659
 1849SOL     OW16225   1.843   5.798   1.444 -0.2846 -0.4510  0.4224
 1849SOL    HW116226   1.792   5.822   1.360  0.5334  1.0344  0.3364
 1849SOL    HW216227   1.939   5.783   1.421  0.0391  0.4583  1.1681
 1850SOL     OW16228   4.365   7.539   4.503 -0.1151  0.0507  0.5412
 1850SOL    HW116229   4.436   7.518   4.570 -1.1427 -0.3153  1.5203
 1850SOL    HW216230   4.396   7.614   4.445  1.7230 -1.1089 -0.0501
 1851SOL     OW16231   3.001   5.987   0.139  0.3220 -0.9173 -0.4050
 1851SOL    HW116232   3.031   5.930   0.062 -0.3634  0.0907 -1.4320
 1851SOL    HW216233   3.000   6.083   0.111  0.6344 -0.4781  1.0533
 1852SOL     OW16234   0.568   4.792   3.097  0.1136 -0.3126 -0.2192
 1852SOL    HW116235   0.585   4.814   3.193  0.3029 -0.1863 -0.2809
 1852SOL    HW216236   0.652   4.805   3.044  0.0596 -0.5589 -0.3701
 1853SOL     OW16237   3.498   1.243   0.007 -0.3039  0.1079  0.4579
 1853SOL    HW116238   3.428   1.312  -0.010 -1.2733 -1.1024 -0.4780
 1853SOL    HW216239   3.540   1.260   0.097 -0.7086  1.7490  0.3454
 1854SOL     OW16240   5.107   9.367   3.264  0.6838 -0.2617  0.3568
 1854SOL    HW116241   5.029   9.345   3.323  0.2051  1.5002  0.4007
 1854SOL    HW216242   5.183   9.400   3.319 -0.2330  2.7157 -0.0838
 1855SOL     OW16243   6.874   0.100   2.273  0.2382  0.5900  0.2390
 1855SOL    HW116244   6.944   0.162   2.238  1.0651  1.1026  2.7391
 1855SOL    HW216245   6.800   0.154   2.313 -0.9161  0.0131 -1.0641
 1856SOL     OW16246   2.667   5.837   4.105 -0.1841 -0.1167 -0.4141
 1856SOL    HW116247   2.609   5.897   4.049 -0.1402 -2.1372 -2.7292
 1856SOL    HW216248   2.749   5.887   4.132 -0.2783  0.9814 -2.0428
 1857SOL     OW16249   1.336   4.067   3.113 -0.2218  0.0208  0.2544
 1857SOL    HW116250   1.300   4.127   3.185 -0.1280 -1.3119  1.4377
 1857SOL    HW216251   1.289   4.086   3.027  0.3347  2.2914  0.4354
 1858SOL     OW16252   1.593   5.552   2.874  0.6476 -0.3170 -0.2420
 1858SOL    HW116253   1.515   5.579   2.930 -0.0123 -0.6566 -0.9830
 1858SOL    HW216254   1.615   5.456   2.892  1.0044 -0.1720  0.0947
 1859SOL     OW16255   4.922   8.353   2.115 -0.2213  0.0335  0.5851
 1859SOL    HW116256   4.880   8.300   2.189  0.2836 -0.2274  0.6911
 1859SOL    HW216257   5.001   8.403   2.151  1.3421 -1.7784 -0.2231
 1860SOL     OW16258   7.322   7.593   2.771  0.0890  0.3140  0.0553
 1860SOL    HW116259   7.315   7.503   2.814 -1.0136 -0.2096 -1.1901
 1860SOL    HW216260   7.238   7.645   2.787  0.3438  0.7655 -0.0407
 1861SOL     OW16261   0.671   2.634   0.474 -0.1200 -0.3983  0.4845
 1861SOL    HW116262   0.579   2.671   0.471  0.3879  0.8323 -0.4333
 1861SOL    HW216263   0.693   2.592   0.386  0.5339  0.1695  0.3726
 1862SOL     OW16264   2.848   6.841   3.286 -0.1266  0.0427 -0.5318
 1862SOL    HW116265   2.785   6.827   3.362 -2.1247 -1.7833 -2.4585
 1862SOL    HW216266   2.941   6.846   3.320 -1.1167  0.8390  2.1826
 1863SOL     OW16267   3.900   6.189   3.073 -0.0011 -0.1894 -0.1049
 1863SOL    HW116268   3.879   6.187   2.975 -0.4066  1.0614 -0.0488
 1863SOL    HW216269   3.913   6.096   3.106 -0.9574 -0.6896 -1.1183
 1864SOL     OW16270   8.653   7.560   3.702 -0.2319 -0.1295 -0.2635
 1864SOL    HW116271   8.661   7.465   3.673 -1.0267  0.3925 -2.2552
 1864SOL    HW216272   8.583   7.606   3.648  0.2849  1.6598  0.5395
 1865SOL     OW16273   3.495   0.279   1.923 -0.1768 -0.1743  0.2759
 1865SOL    HW116274   3.567   0.335   1.882 -1.1254  1.4533  0.7795
 1865SOL    HW216275   3.435   0.337   1.979 -2.3483 -1.3506 -0.7501
 1866SOL     OW16276   3.431   6.451   2.772  0.1316  0.4869 -0.6293
 1866SOL    HW116277   3.423   6.550   2.760 -1.4004  0.3938 -0.4912
 1866SOL    HW216278   3.519   6.430   2.815  1.5235  1.5680 -2.8666
 1867SOL     OW16279   9.693   2.329   2.265 -0.4487  0.1024 -0.1631
 1867SOL    HW116280   9.749   2.393   2.212 -1.0293  0.1426 -0.7371
 1867SOL    HW216281   9.600   2.365   2.272 -0.1924  0.4632  1.5436
 1868SOL     OW16282   7.680   1.126   0.905  0.8008 -0.2877 -0.0075
 1868SOL    HW116283   7.702   1.080   0.819  0.4835  0.2762 -0.3988
 1868SOL    HW216284   7.699   1.065   0.982 -1.8957 -1.9871 -0.6105
 1869SOL     OW16285   0.991   5.091   3.399 -0.1308 -0.4910 -0.1578
 1869SOL    HW116286   0.975   4.994   3.415  1.6273 -0.9987 -1.3905
 1869SOL    HW216287   1.006   5.137   3.487 -2.8384 -0.9648  0.5741
 1870SOL     OW16288   8.767   3.476   3.627  0.0134 -0.3306  0.4723
 1870SOL    HW116289   8.706   3.438   3.558  0.5667  1.4177 -1.0155
 1870SOL    HW216290   8.848   3.513   3.583  1.5475 -1.3784  2.2988
 1871SOL     OW16291   1.825   0.557   3.115 -0.0896 -0.1463 -0.7498
 1871SOL    HW116292   1.749   0.495   3.133  1.4231 -1.3724  1.7798
 1871SOL    HW216293   1.806   0.646   3.157 -0.6655 -0.0385 -1.2308
 1872SOL     OW16294   0.467   0.828   1.326 -0.1785  0.5656  0.0004
 1872SOL    HW116295   0.427   0.813   1.416 -0.5635  0.5480 -0.1704
 1872SOL    HW216296   0.551   0.775   1.317 -0.4325  0.1305  0.1530
 1873SOL     OW16297   8.927   0.368   1.394  0.4167  0.4147 -0.2535
 1873SOL    HW116298   8.917   0.365   1.494  2.1149  1.5276 -0.0263
 1873SOL    HW216299   8.965   0.282   1.361 -1.8693 -0.6533 -0.1680
 1874SOL     OW16300   9.011   2.114   1.015  0.0499 -0.3509  0.6725
 1874SOL    HW116301   9.046   2.208   1.007  0.6024 -0.5624  0.5530
 1874SOL    HW216302   8.912   2.114   1.004  0.2668 -0.0354 -1.4015
 1875SOL     OW16303   1.352   2.347   3.568  0.3697 -0.1579 -0.5710
 1875SOL    HW116304   1.279   2.281   3.587  0.9860 -1.1401 -1.5606
 1875SOL    HW216305   1.389   2.330   3.477  0.0246  2.0455 -1.1539
 1876SOL     OW16306   8.161   5.129   3.062  0.0811 -0.4276  0.4634
 1876SOL    HW116307   8.172   5.157   2.966 -1.4159  0.7932  0.6296
 1876SOL    HW216308   8.166   5.029   3.068  1.6174 -0.4333 -0.6863
 1877SOL     OW16309   3.833   2.533   1.648  0.0483  0.4628 -0.4336
 1877SOL    HW116310   3.785   2.619   1.630 -0.2451  0.3154 -0.3556
 1877SOL    HW216311   3.827   2.511   1.745 -1.7090 -0.7370 -0.7930
 1878SOL     OW16312   8.831   6.648   3.699  0.2950  0.4756  0.2304
 1878SOL    HW116313   8.910   6.588   3.704 -0.5238 -0.5023  2.2286
 1878SOL    HW216314   8.851   6.733   3.748 -0.7708 -0.8816  3.1520
 1879SOL     OW16315   0.575   4.820   4.301 -0.2036  0.0523 -0.5314
 1879SOL    HW116316   0.526   4.756   4.241  3.2971 -1.5622 -1.7676
 1879SOL    HW216317   0.599   4.775   4.387 -0.5769  0.7373 -0.0605
 1880SOL     OW16318   1.619   3.605   1.826 -0.3043 -0.2685 -0.7564
 1880SOL    HW116319   1.603   3.605   1.925  0.4460 -0.3868 -0.6299
 1880SOL    HW216320   1.716   3.617   1.808 -0.8255  3.3583 -1.5547
 1881SOL     OW16321   9.787   8.406   3.746  0.4463  0.1328  0.4252
 1881SOL    HW116322   9.722   8.428   3.673  1.1694  1.0166  0.0472
 1881SOL    HW216323   9.739   8.360   3.820 -0.3532 -0.5218 -0.4847
 1882SOL     OW16324   0.908   4.810   1.457 -0.5077 -0.1631 -0.0817
 1882SOL    HW116325   0.912   4.717   1.492  0.1298  0.5135  1.7404
 1882SOL    HW216326   1.001   4.845   1.444 -0.7062  0.8300  1.0070
 1883SOL     OW16327   2.772   7.130   1.590  0.0638 -0.1680 -0.5828
 1883SOL    HW116328   2.747   7.163   1.499 -2.0781 -0.0795  0.0165
 1883SOL    HW216329   2.721   7.046   1.609  1.0354 -0.5642  0.2582
 1884SOL     OW16330   9.208   0.447   1.293 -0.1050 -0.2567  0.2254
 1884SOL    HW116331   9.168   0.466   1.204  0.1637 -0.3581  0.0851
 1884SOL    HW216332   9.153   0.491   1.364 -2.1378 -2.7776  0.2774
 1885SOL     OW16333   2.579   1.598   4.157  0.0240  0.5706  0.3152
 1885SOL    HW116334   2.540   1.690   4.150 -0.8449  0.3348  1.7583
 1885SOL    HW216335   2.579   1.555   4.067 -1.6546  1.1512  0.0174
 1886SOL     OW16336   8.783   3.291   0.571  0.0096 -0.0686  0.2511
 1886SOL    HW116337   8.856   3.295   0.638  0.8263  0.3924 -0.6591
 1886SOL    HW216338   8.795   3.363   0.503  0.2136 -1.6408 -1.4240
 1887SOL     OW16339   2.944   9.732   1.617  0.3687 -0.0771 -0.6303
 1887SOL    HW116340   2.896   9.662   1.670 -1.4576  1.4026 -0.2953
 1887SOL    HW216341   2.882   9.773   1.550  1.5365  0.9307 -1.1287
 1888SOL     OW16342   3.247   8.591   3.077  0.2611  0.1109 -0.1571
 1888SOL    HW116343   3.230   8.687   3.058 -1.0140  0.4011  2.2892
 1888SOL    HW216344   3.165   8.549   3.116  0.2748 -2.3958 -2.6080
 1889SOL     OW16345   4.660   9.844   3.299  0.2672  0.2352 -0.4769
 1889SOL    HW116346   4.582   9.782   3.286  0.5067 -0.0660 -0.5104
 1889SOL    HW216347   4.628   9.932   3.332 -0.2142  0.5100 -1.6525
 1890SOL     OW16348   6.486   0.199   3.658 -0.1125  0.2696 -0.0193
 1890SOL    HW116349   6.420   0.254   3.607  0.5311  0.4775 -0.6212
 1890SOL    HW216350   6.476   0.218   3.756 -0.4288  0.8596 -0.1662
 1891SOL     OW16351   5.562   9.867   1.580 -0.0734  0.3613  0.0044
 1891SOL    HW116352   5.621   9.800   1.626 -1.2310  0.3309  1.4778
 1891SOL    HW216353   5.466   9.847   1.601 -0.4588  2.1176 -0.0102
 1892SOL     OW16354   1.547   2.429   0.204 -0.1424 -0.1951 -0.2091
 1892SOL    HW116355   1.459   2.425   0.249 -0.0536 -1.5590 -0.1568
 1892SOL    HW216356   1.558   2.519   0.161 -1.7576 -0.1802 -0.6302
 1893SOL     OW16357   2.571   9.110   3.442  0.2869 -0.4632  0.0466
 1893SOL    HW116358   2.489   9.144   3.488 -0.3499 -2.3539  0.3403
 1893SOL    HW216359   2.644   9.098   3.510  0.2322 -0.5492  0.0899
 1894SOL     OW16360   1.336   0.215   1.979 -0.6825  0.0548  0.2781
 1894SOL    HW116361   1.255   0.167   1.947 -0.2367 -1.0137  0.7174
 1894SOL    HW216362   1.312   0.309   2.004 -1.4638  0.2180 -1.0598
 1895SOL     OW16363   2.825   6.022   3.526 -0.0017 -0.0416 -0.1216
 1895SOL    HW116364   2.866   6.066   3.446 -0.4339  1.4861  0.4803
 1895SOL    HW216365   2.820   6.088   3.601 -1.1687 -0.9681  0.6302
 1896SOL     OW16366   7.462   9.457   4.266 -0.0792  0.2260 -0.4442
 1896SOL    HW116367   7.383   9.512   4.293 -0.3704 -0.1107 -0.6065
 1896SOL    HW216368   7.528   9.455   4.341 -0.6541 -0.2797  0.0551
 1897SOL     OW16369   4.054   3.390   3.616  0.4598 -0.0690  0.2923
 1897SOL    HW116370   4.017   3.481   3.597 -0.5349 -0.7064 -0.9261
 1897SOL    HW216371   4.036   3.366   3.711 -1.2021  0.1307  0.0467
 1898SOL     OW16372   0.656   7.729   2.979 -0.3021  0.3405  0.1312
 1898SOL    HW116373   0.693   7.686   3.061  1.2249 -0.6678 -1.0623
 1898SOL    HW216374   0.568   7.773   3.001  0.7882  1.3488  2.6215
 1899SOL     OW16375   9.719   4.645   0.246 -0.4550 -0.1883 -0.5387
 1899SOL    HW116376   9.803   4.591   0.247 -0.3599 -0.0522 -1.1877
 1899SOL    HW216377   9.642   4.587   0.273 -0.3053 -0.5681 -0.9186
 1900SOL     OW16378   1.781   4.337   4.420 -0.0532  0.2669 -0.1608
 1900SOL    HW116379   1.878   4.352   4.403  0.1968 -1.6668 -0.5734
 1900SOL    HW216380   1.748   4.263   4.362 -1.6879  0.6494  0.2538
 1901SOL     OW16381   8.561   1.620   2.146 -0.3455 -0.3203  0.0931
 1901SOL    HW116382   8.467   1.589   2.162 -0.2871 -0.7361 -0.3608
 1901SOL    HW216383   8.607   1.557   2.084  0.9246 -1.3085  1.9963
 1902SOL     OW16384   9.187   5.724   1.265  0.3805 -0.1539  0.3773
 1902SOL    HW116385   9.121   5.657   1.298  0.5780  0.8263  2.9152
 1902SOL    HW216386   9.270   5.678   1.234 -0.5713 -1.2326 -0.6104
 1903SOL     OW16387   8.959   4.756   3.621  0.0119  0.8603  0.2892
 1903SOL    HW116388   8.868   4.740   3.582 -0.4283  1.5789  0.9994
 1903SOL    HW216389   8.960   4.723   3.716  0.5319  0.7327  0.2378
 1904SOL     OW16390   9.793   6.606   3.168 -0.1712  0.4828  0.4804
 1904SOL    HW116391   9.740   6.565   3.094  1.4308 -1.3360  0.3340
 1904SOL    HW216392   9.733   6.620   3.247 -1.1568 -0.4437 -0.0923
 1905SOL     OW16393   2.435   5.510   2.062  0.3388  0.3145 -0.1735
 1905SOL    HW116394   2.434   5.573   2.139  0.3824  1.1863 -0.8750
 1905SOL    HW216395   2.362   5.442   2.072  0.0200  0.7395  0.3638
 1906SOL     OW16396   8.988   1.600   2.298 -0.3402  0.1847 -0.5796
 1906SOL    HW116397   8.947   1.641   2.379  1.0332 -0.2112  0.3362
 1906SOL    HW216398   9.071   1.550   2.324  1.6285  2.2982 -2.5763
 1907SOL     OW16399   2.527   1.562   4.756 -0.1611  0.1264 -0.0428
 1907SOL    HW116400   2.618   1.581   4.719 -0.2806  1.8461  0.4779
 1907SOL    HW216401   2.514   1.615   4.840 -1.6004 -0.1906 -0.0494
 1908SOL     OW16402   4.023   2.282   2.685  0.2802 -0.0514 -0.5081
 1908SOL    HW116403   3.947   2.244   2.632 -0.3822 -0.4638  0.7268
 1908SOL    HW216404   4.028   2.381   2.669 -1.5926  0.2623  0.7233
 1909SOL     OW16405   8.480   8.770   1.608  0.4394 -0.6257 -0.2612
 1909SOL    HW116406   8.569   8.777   1.652  0.7979 -2.0747 -0.7349
 1909SOL    HW216407   8.424   8.702   1.656 -0.4034  0.2642  0.0271
 1910SOL     OW16408   4.976   2.316   2.764  0.0642  0.3295  0.3156
 1910SOL    HW116409   4.895   2.265   2.791  1.0133 -1.6424 -0.4381
 1910SOL    HW216410   4.971   2.338   2.666  1.3260 -1.5613 -0.2015
 1911SOL     OW16411   8.292   8.471   0.430  0.4439 -0.2132  0.0984
 1911SOL    HW116412   8.222   8.410   0.465 -1.8348  0.4299 -3.1135
 1911SOL    HW216413   8.302   8.549   0.492 -1.3454 -0.5601  0.8541
 1912SOL     OW16414   5.932   0.701   2.441 -0.1527 -0.0110 -0.9710
 1912SOL    HW116415   6.013   0.756   2.422  0.2509 -0.4802 -0.6335
 1912SOL    HW216416   5.852   0.741   2.396  0.1541  0.7946 -0.7938
 1913SOL     OW16417   7.290   8.799   4.363 -0.2995  0.3180 -0.0776
 1913SOL    HW116418   7.325   8.771   4.273 -0.5985  2.0095 -0.7499
 1913SOL    HW216419   7.355   8.863   4.405  0.0531 -0.8313  1.1135
 1914SOL     OW16420   2.319   4.777   4.729 -0.2351  0.4529 -0.1989
 1914SOL    HW116421   2.337   4.707   4.660  1.0263 -0.2295  0.8096
 1914SOL    HW216422   2.221   4.799   4.729 -0.5918 -1.0703 -0.7367
 1915SOL     OW16423   9.393   9.436   0.012 -0.5262 -0.2484  0.0003
 1915SOL    HW116424   9.398   9.479   0.103 -1.1293  0.7660 -0.4378
 1915SOL    HW216425   9.476   9.458  -0.039 -0.7713  0.2921 -0.1722
 1916SOL     OW16426   3.381   4.440   3.870  0.2287 -0.6081 -0.1822
 1916SOL    HW116427   3.404   4.343   3.871 -1.6972 -1.0768  1.2084
 1916SOL    HW216428   3.295   4.455   3.919  1.1611  1.9660  0.7599
 1917SOL     OW16429   1.355   5.112   0.283 -0.2703 -0.0037 -0.1036
 1917SOL    HW116430   1.324   5.017   0.277  0.1067 -0.0877 -0.7395
 1917SOL    HW216431   1.445   5.120   0.240 -1.1552  1.0247 -1.7599
 1918SOL     OW16432   9.674   5.388   3.005  0.4605  0.5783 -0.2384
 1918SOL    HW116433   9.677   5.312   3.069  0.0179  1.4355  0.8224
 1918SOL    HW216434   9.722   5.363   2.920  0.1247 -0.9371  0.0082
 1919SOL     OW16435   1.912   6.450   2.381 -0.0247  0.7453  0.2301
 1919SOL    HW116436   1.929   6.450   2.283  2.6368  1.3823  0.6407
 1919SOL    HW216437   1.991   6.411   2.429 -1.9137 -0.9560  2.0441
 1920SOL     OW16438   1.032   0.569   2.123  0.0818  0.3510 -0.0382
 1920SOL    HW116439   0.939   0.550   2.090  0.2069 -0.8880  0.2995
 1920SOL    HW216440   1.028   0.594   2.220 -0.0921  2.2381 -0.5015
 1921SOL     OW16441   9.787   0.545   2.805  0.2923  0.0873  0.2028
 1921SOL    HW116442   9.760   0.457   2.843  0.6393  0.6427  1.7949
 1921SOL    HW216443   9.771   0.546   2.706  0.2324 -1.7246  0.1880
 1922SOL     OW16444   8.855   9.351   1.137  0.0271  0.4583  0.1600
 1922SOL    HW116445   8.890   9.265   1.173 -1.5893 -0.0842  0.4704
 1922SOL    HW216446   8.915   9.384   1.064  1.4385 -0.1873  1.0052
 1923SOL     OW16447   0.931   5.978   1.642 -0.1442  0.2540  0.5563
 1923SOL    HW116448   0.900   5.911   1.710  0.9161 -0.6676  0.1544
 1923SOL    HW216449   0.852   6.021   1.599 -0.9058 -2.2555 -0.6679
 1924SOL     OW16450   8.088   3.492   0.833 -0.2548  0.1254  0.4399
 1924SOL    HW116451   7.999   3.524   0.865  0.3627 -0.8456  3.2228
 1924SOL    HW216452   8.076   3.423   0.762 -1.6961  0.4529  0.3583
 1925SOL     OW16453   1.279   9.795   1.242 -0.2730 -0.0597 -0.2915
 1925SOL    HW116454   1.329   9.808   1.327  2.0439 -1.1329 -1.4408
 1925SOL    HW216455   1.182   9.813   1.257  0.2091  0.5013  2.3716
 1926SOL     OW16456   8.868   8.210   2.705 -0.2714 -0.0818  0.5479
 1926SOL    HW116457   8.833   8.286   2.650  0.6859 -1.2302 -1.7235
 1926SOL    HW216458   8.814   8.128   2.686  0.7028 -0.7320  0.5850
 1927SOL     OW16459   9.484   3.250   3.090 -0.5160  0.1103  0.0924
 1927SOL    HW116460   9.566   3.203   3.058  1.0224  2.3899  0.5553
 1927SOL    HW216461   9.422   3.266   3.013 -0.0066 -0.5746 -0.4688
 1928SOL     OW16462   1.092   8.540   2.336 -0.4078  0.4532 -0.4065
 1928SOL    HW116463   1.090   8.591   2.422  0.5321 -0.6379  0.2774
 1928SOL    HW216464   1.011   8.481   2.330 -0.8918  1.1432 -0.6514
 1929SOL     OW16465   8.693   3.626   1.660 -0.2866  0.7614 -0.0001
 1929SOL    HW116466   8.654   3.557   1.722 -0.4620  1.5150  0.7550
 1929SOL    HW216467   8.759   3.583   1.599 -2.2402 -0.5453 -1.2614
 1930SOL     OW16468   8.014   2.353   1.807 -0.4557 -0.1403  0.1453
 1930SOL    HW116469   7.925   2.370   1.851 -0.4006 -1.5884  0.8250
 1930SOL    HW216470   8.087   2.374   1.871 -0.2215  2.5252 -0.9015
 1931SOL     OW16471   1.628   5.710   0.687  0.7117 -0.0813 -0.3425
 1931SOL    HW116472   1.713   5.762   0.694  1.1345 -0.5561 -1.8492
 1931SOL    HW216473   1.552   5.767   0.720  1.4461  0.7686 -0.0937
 1932SOL     OW16474   4.596   3.321   4.446  0.1795 -0.2622  0.3494
 1932SOL    HW116475   4.600   3.283   4.538 -0.7732  0.6771  0.7891
 1932SOL    HW216476   4.501   3.329   4.417  0.4740 -0.5743 -0.7329
 1933SOL     OW16477   2.375   0.260   0.220 -0.3433 -0.2801 -0.5630
 1933SOL    HW116478   2.366   0.160   0.222 -2.2177 -0.1286 -0.7578
 1933SOL    HW216479   2.376   0.295   0.314 -0.3938 -0.4112 -0.5132
 1934SOL     OW16480   3.514   8.148   4.068 -0.0143 -0.3674  0.0798
 1934SOL    HW116481   3.580   8.195   4.127 -0.3280  0.8281 -0.5110
 1934SOL    HW216482   3.558   8.069   4.025  0.7102 -0.2338  0.5711
 1935SOL     OW16483   2.403   1.710   1.459  0.1557 -0.0386  0.2783
 1935SOL    HW116484   2.437   1.796   1.498 -0.0507  1.6530 -3.0143
 1935SOL    HW216485   2.473   1.671   1.399 -1.6563  0.7012 -2.4102
 1936SOL     OW16486   3.876   5.983   2.343 -0.2843  0.5998 -0.1534
 1936SOL    HW116487   3.870   5.917   2.268  1.9467  1.2971 -0.9935
 1936SOL    HW216488   3.799   6.046   2.339 -2.0284 -1.4591  0.1948
 1937SOL     OW16489   5.670   0.693   2.907  0.5658 -0.7685 -0.0162
 1937SOL    HW116490   5.587   0.639   2.924  1.2240 -1.8672 -0.2664
 1937SOL    HW216491   5.689   0.749   2.988 -0.6000 -0.2459 -0.0792
 1938SOL     OW16492   2.108   1.515   3.666  0.2325  0.1277 -0.0786
 1938SOL    HW116493   2.133   1.591   3.606 -0.0020  1.0365  0.9503
 1938SOL    HW216494   2.188   1.457   3.682  0.6426  0.6849 -0.1215
 1939SOL     OW16495   5.828   0.350   2.143 -0.2323 -0.0635 -0.4462
 1939SOL    HW116496   5.767   0.333   2.220 -0.7760  1.0865 -0.6082
 1939SOL    HW216497   5.900   0.281   2.141 -0.9950 -0.8847  0.2958
 1940SOL     OW16498   8.065   0.717   3.242 -0.1369  0.3185 -0.3869
 1940SOL    HW116499   7.993   0.704   3.309 -0.1074 -1.3736 -0.6505
 1940SOL    HW216500   8.152   0.735   3.289  0.2380 -2.5839  0.1456
 1941SOL     OW16501   8.448   8.970   2.627  0.0494  0.1323 -0.2213
 1941SOL    HW116502   8.395   9.053   2.609  1.5328  1.0671 -0.3555
 1941SOL    HW216503   8.389   8.902   2.671 -1.3433  1.0172 -0.6733
 1942SOL     OW16504   8.231   5.063   4.387  0.0469  0.2986 -0.2861
 1942SOL    HW116505   8.331   5.062   4.393  0.1265  1.7014 -1.0466
 1942SOL    HW216506   8.193   5.108   4.468 -0.0442 -1.2891  0.5751
 1943SOL     OW16507   3.065   5.892   0.565  0.1004 -0.2373  0.2606
 1943SOL    HW116508   3.089   5.972   0.619  0.5080  0.2725 -0.6500
 1943SOL    HW216509   3.041   5.816   0.625  1.7774 -0.0755  1.1737
 1944SOL     OW16510   0.717   7.092   3.629  0.5306 -0.6656  0.0550
 1944SOL    HW116511   0.671   7.114   3.543  1.7767 -0.6072 -0.6075
 1944SOL    HW216512   0.673   7.012   3.671 -1.1104  0.2752  0.1953
 1945SOL     OW16513   0.630   1.378   0.754 -0.5815 -0.7958  0.0068
 1945SOL    HW116514   0.542   1.413   0.787 -0.4846  0.9868 -1.5342
 1945SOL    HW216515   0.703   1.441   0.783  0.0483 -1.6360  0.2578
 1946SOL     OW16516   1.225   1.062   4.096  0.3413  0.6566 -0.3896
 1946SOL    HW116517   1.143   1.014   4.125  0.6786  0.3883  0.1329
 1946SOL    HW216518   1.220   1.083   3.999  0.8616 -1.7891 -0.9635
 1947SOL     OW16519   8.527   7.717   0.275  0.1909 -0.2145  0.6554
 1947SOL    HW116520   8.535   7.742   0.179 -0.0284  0.4824  0.8194
 1947SOL    HW216521   8.578   7.782   0.331 -0.3350 -0.1632  1.0770
 1948SOL     OW16522   1.155   2.157   3.610  0.5462 -0.2354  0.5379
 1948SOL    HW116523   1.151   2.101   3.527 -0.9833  0.5460  0.0691
 1948SOL    HW216524   1.090   2.123   3.677 -0.7696  1.2555  0.0544
 1949SOL     OW16525   2.827   4.318   2.908 -0.6423  0.1261  0.5599
 1949SOL    HW116526   2.791   4.241   2.962 -1.1653  1.0721  1.5870
 1949SOL    HW216527   2.778   4.401   2.933 -0.7006  0.6303 -1.2147
 1950SOL     OW16528   2.231   4.236   2.276 -0.1323  0.1576 -0.2939
 1950SOL    HW116529   2.294   4.208   2.204 -1.2487 -1.5452 -0.6534
 1950SOL    HW216530   2.143   4.191   2.262 -0.6664  0.5697  1.5977
 1951SOL     OW16531   6.439   8.668   1.741 -0.1871  0.0843 -0.1843
 1951SOL    HW116532   6.401   8.667   1.648  0.7398 -2.0566 -0.5725
 1951SOL    HW216533   6.537   8.691   1.736  0.6429 -3.1706 -0.1054
 1952SOL     OW16534   4.085   3.497   3.321  0.1848 -0.0052 -0.2341
 1952SOL    HW116535   3.988   3.508   3.342  0.0208  0.6910 -1.3314
 1952SOL    HW216536   4.130   3.586   3.322  0.4943 -0.1454 -1.2473
 1953SOL     OW16537   8.851   9.272   0.193  0.0142 -0.3371  0.4263
 1953SOL    HW116538   8.829   9.369   0.189  2.4220  0.1873 -0.9529
 1953SOL    HW216539   8.782   9.220   0.143  0.0645  0.9333 -0.9941
 1954SOL     OW16540   9.059   1.704   4.675  0.2085 -0.3242 -0.0135
 1954SOL    HW116541   9.109   1.784   4.706  0.2250 -0.4519  0.2873
 1954SOL    HW216542   8.980   1.733   4.620  0.8253 -0.1327 -0.8197
 1955SOL     OW16543   4.101   0.603   0.122  0.3538 -0.1198 -0.2825
 1955SOL    HW116544   4.200   0.616   0.132  0.1614  0.7516  0.5664
 1955SOL    HW216545   4.065   0.557   0.203 -0.0108 -0.0064 -0.3792
 1956SOL     OW16546   5.337   8.115   2.875 -0.3020 -0.3895 -0.1059
 1956SOL    HW116547   5.422   8.144   2.919  0.8556 -1.8466 -1.3193
 1956SOL    HW216548   5.260   8.134   2.936  0.7418  2.1132  0.4738
 1957SOL     OW16549   2.073   2.625   0.272 -0.2193 -0.6295 -0.1691
 1957SOL    HW116550   2.056   2.547   0.212  0.0641  0.3780 -1.5727
 1957SOL    HW216551   2.069   2.595   0.368  0.7011 -2.5306 -0.7075
 1958SOL     OW16552   9.337   4.894   1.252  0.4712 -0.4031  0.2594
 1958SOL    HW116553   9.343   4.802   1.292  0.7329  0.1658  1.5703
 1958SOL    HW216554   9.259   4.943   1.291  0.7856  0.1970  0.1546
 1959SOL     OW16555   3.326   9.196   1.079 -0.1333  0.3332 -0.2479
 1959SOL    HW116556   3.379   9.136   1.019 -0.4021  0.6812 -0.8408
 1959SOL    HW216557   3.248   9.234   1.027 -0.7882  0.0591  0.5253
 1960SOL     OW16558   4.150   0.973   1.665  0.0602  0.1492  0.2968
 1960SOL    HW116559   4.079   0.903   1.671  0.7775 -0.5241  1.0056
 1960SOL    HW216560   4.182   0.995   1.757  0.6377  0.5903 -0.0097
 1961SOL     OW16561   9.112   4.807   0.175  0.4861 -0.0865  0.4967
 1961SOL    HW116562   9.026   4.847   0.145  0.8170  1.0954  1.0651
 1961SOL    HW216563   9.099   4.758   0.261  0.4880  0.5790  0.8802
 1962SOL     OW16564   2.934   6.570   1.109 -0.0750  0.1094 -0.0200
 1962SOL    HW116565   2.836   6.580   1.125  0.1023 -1.2466  2.1678
 1962SOL    HW216566   2.953   6.574   1.010 -2.6456 -2.1150 -0.6620
 1963SOL     OW16567   8.294   9.725   0.518 -0.1920  0.0496 -0.2483
 1963SOL    HW116568   8.372   9.767   0.565 -1.5456 -0.5944  2.6646
 1963SOL    HW216569   8.218   9.790   0.517 -0.4869 -0.3032 -0.6662
 1964SOL     OW16570   3.180   1.267   2.990  0.1877 -0.0163 -0.2589
 1964SOL    HW116571   3.183   1.354   3.039  1.7762  1.7342 -3.2411
 1964SOL    HW216572   3.254   1.208   3.022  0.7172  0.7895  0.0204
 1965SOL     OW16573   1.721   1.813   1.302 -0.4936 -0.6763 -0.1840
 1965SOL    HW116574   1.663   1.732   1.310 -1.0182 -0.4059 -1.2586
 1965SOL    HW216575   1.695   1.865   1.222  0.0310  0.4208  0.3503
 1966SOL     OW16576   4.892   9.396   2.280  0.3869 -0.0026 -0.5759
 1966SOL    HW116577   4.916   9.299   2.285 -1.2870 -0.2979  2.5925
 1966SOL    HW216578   4.794   9.408   2.296  0.6470  2.2608 -0.4468
 1967SOL     OW16579   2.651   9.203   1.193 -0.6212 -0.2892 -0.0168
 1967SOL    HW116580   2.672   9.134   1.123 -0.1811  1.8626 -2.0818
 1967SOL    HW216581   2.552   9.208   1.206 -0.6240 -1.6336  0.4908
 1968SOL     OW16582   7.439   9.108   3.889 -0.6201 -0.3162  0.3077
 1968SOL    HW116583   7.530   9.101   3.847 -0.8670 -0.4704 -0.2068
 1968SOL    HW216584   7.428   9.199   3.929 -0.9552  0.3642 -1.3179
 1969SOL     OW16585   4.548   2.109   0.271  0.2833  0.0298 -0.2523
 1969SOL    HW116586   4.575   2.059   0.189 -1.8445 -1.3943 -0.1304
 1969SOL    HW216587   4.553   2.048   0.351 -0.8569  0.4125  0.1378
 1970SOL     OW16588   7.161   1.101   2.280  0.3007  0.3689  1.0148
 1970SOL    HW116589   7.173   1.200   2.283  1.5822  0.3012 -1.2577
 1970SOL    HW216590   7.065   1.079   2.265  0.2877  1.3066 -0.3282
 1971SOL     OW16591   1.052   5.305   2.394  0.0607  0.0374  0.5447
 1971SOL    HW116592   1.029   5.333   2.301 -1.8175 -1.8116  0.4236
 1971SOL    HW216593   0.971   5.313   2.452  0.4842 -1.5212  1.3607
 1972SOL     OW16594   0.086   1.137   4.517 -0.2169  0.0836 -0.4498
 1972SOL    HW116595   0.110   1.192   4.597  1.0600 -0.3474 -0.5353
 1972SOL    HW216596   0.008   1.078   4.540 -1.0731  1.3088 -0.1086
 1973SOL     OW16597   7.405   0.024   0.487  0.2150  0.1104 -0.5079
 1973SOL    HW116598   7.391   0.121   0.471  1.2895  0.1326 -1.3434
 1973SOL    HW216599   7.349  -0.029   0.423  0.9276  0.1878 -1.1992
 1974SOL     OW16600   1.764   3.558   3.751  0.1746  0.0235 -0.7153
 1974SOL    HW116601   1.758   3.644   3.701  3.4801  1.1735  0.7333
 1974SOL    HW216602   1.784   3.484   3.687  1.1164  0.9746 -1.5471
 1975SOL     OW16603   6.766   9.483   1.739  0.0492  0.1580 -0.2929
 1975SOL    HW116604   6.770   9.466   1.837 -1.1178  1.2682 -0.0385
 1975SOL    HW216605   6.844   9.539   1.711 -0.1856  0.7128  0.1766
 1976SOL     OW16606   0.394   4.561   3.909  0.2411  0.1565 -0.1076
 1976SOL    HW116607   0.473   4.501   3.905  0.0496 -0.1104  0.1107
 1976SOL    HW216608   0.311   4.506   3.915 -0.0300  0.4015 -1.3829
 1977SOL     OW16609   4.126   9.156   4.677 -0.4573  0.3060 -0.3444
 1977SOL    HW116610   4.117   9.148   4.776 -0.1313 -0.5443 -0.3768
 1977SOL    HW216611   4.042   9.123   4.633 -0.6776  0.8652 -0.3430
 1978SOL     OW16612   3.343   3.945   1.802  0.2007  0.0982  0.3216
 1978SOL    HW116613   3.351   4.021   1.866 -3.2331  1.6209 -0.9204
 1978SOL    HW216614   3.249   3.911   1.803  0.4963 -0.9559 -2.6669
 1979SOL     OW16615   3.150   4.160   2.311  0.1399  0.4484 -0.1488
 1979SOL    HW116616   3.052   4.177   2.306  0.0053  0.0110  0.8643
 1979SOL    HW216617   3.194   4.237   2.358  0.6539  1.9317 -2.9827
 1980SOL     OW16618   9.538   8.498   0.079 -0.1323 -0.2484 -0.0277
 1980SOL    HW116619   9.626   8.541   0.101 -0.2093 -0.7282  1.3077
 1980SOL    HW216620   9.549   8.399   0.077 -1.1031 -0.4413  2.4810
 1981SOL     OW16621   1.406   7.370   4.087  0.6744 -0.4681 -0.7044
 1981SOL    HW116622   1.430   7.458   4.047  3.4316 -1.2862 -0.9303
 1981SOL    HW216623   1.311   7.373   4.119  0.6651  2.4944 -0.8747
 1982SOL     OW16624   8.878   5.659   4.163 -0.0293 -1.0042 -0.1302
 1982SOL    HW116625   8.871   5.756   4.141  0.7210 -0.5655  1.4720
 1982SOL    HW216626   8.918   5.610   4.086  0.1019  0.0363 -0.7356
 1983SOL     OW16627   1.043   4.409   4.647  0.0837  0.4119 -0.2885
 1983SOL    HW116628   0.951   4.421   4.684  0.8641  0.3686  1.7396
 1983SOL    HW216629   1.101   4.365   4.716  1.1835 -1.1158 -2.1591
 1984SOL     OW16630   1.154   6.439   1.938  0.0145 -0.1333 -0.2970
 1984SOL    HW116631   1.233   6.379   1.953  1.1879  1.2769 -0.7034
 1984SOL    HW216632   1.084   6.389   1.887  1.0381 -1.1049 -0.7730
 1985SOL     OW16633   0.753   4.439   3.686  0.0930 -0.2818  0.1161
 1985SOL    HW116634   0.785   4.511   3.748 -0.6154  0.3958 -0.3027
 1985SOL    HW216635   0.826   4.371   3.675 -0.2895 -1.2215  2.8878
 1986SOL     OW16636   9.986   5.634   2.892  0.4514  0.0385 -0.2165
 1986SOL    HW116637  10.085   5.635   2.908  0.2819  1.5859  0.8625
 1986SOL    HW216638   9.967   5.674   2.803  0.7080  1.2051  0.2376
 1987SOL     OW16639   6.582   8.225   3.357 -0.1411 -0.6441  1.3641
 1987SOL    HW116640   6.558   8.166   3.280  2.5519  1.4006 -1.1651
 1987SOL    HW216641   6.679   8.214   3.379 -0.2140  0.9167  2.5820
 1988SOL     OW16642   5.499   2.968   0.377 -0.4739  0.2167 -0.1937
 1988SOL    HW116643   5.428   2.899   0.394  1.0660 -1.4063 -0.2660
 1988SOL    HW216644   5.587   2.923   0.363  0.8561  2.2753  1.2193
 1989SOL     OW16645   9.094   0.649   3.936  0.3713 -0.0948 -0.3104
 1989SOL    HW116646   9.056   0.741   3.943  0.3580 -0.2203  1.3855
 1989SOL    HW216647   9.025   0.587   3.898 -0.5198  0.0481  1.0601
 1990SOL     OW16648   6.368   8.325   3.086 -0.2871 -0.0098 -0.1564
 1990SOL    HW116649   6.349   8.280   2.999 -0.7909 -1.9860  0.9325
 1990SOL    HW216650   6.461   8.302   3.116 -0.7659 -0.8283  0.7056
 1991SOL     OW16651   4.225   9.389   4.146 -0.9527  0.1918  0.6887
 1991SOL    HW116652   4.318   9.415   4.172 -0.9765 -1.0633  2.1334
 1991SOL    HW216653   4.163   9.465   4.162 -0.1482  1.1570 -0.6046
 1992SOL     OW16654   9.866   4.939   1.775 -0.1212 -0.1537 -0.2286
 1992SOL    HW116655   9.881   4.887   1.859  0.5557  0.9446  0.3503
 1992SOL    HW216656   9.868   4.877   1.696  0.6823 -0.9908  0.4426
 1993SOL     OW16657   1.689   5.212   0.683  0.0771  0.3935  0.0666
 1993SOL    HW116658   1.763   5.159   0.724 -1.1388 -0.9555  0.5966
 1993SOL    HW216659   1.695   5.208   0.583 -0.3758 -1.3654  0.0794
 1994SOL     OW16660   2.788   9.561   0.313  0.3219 -0.5620  0.4412
 1994SOL    HW116661   2.818   9.656   0.304 -0.7620 -0.2519  0.0046
 1994SOL    HW216662   2.693   9.560   0.344 -0.1333 -1.4970 -0.9622
 1995SOL     OW16663   3.531   7.026   4.422  0.0769  0.3426 -0.0309
 1995SOL    HW116664   3.484   7.022   4.333 -1.5719 -1.6672  0.8884
 1995SOL    HW216665   3.468   6.998   4.494  1.5946  1.3350  1.7242
 1996SOL     OW16666   0.046   5.579   1.502  0.2482  0.2221 -0.0509
 1996SOL    HW116667   0.049   5.638   1.421  2.0093 -1.3115 -1.1434
 1996SOL    HW216668   0.080   5.488   1.479 -0.3918 -0.6078  2.1280
 1997SOL     OW16669   2.095   7.844   2.428 -0.0386  0.4907  1.0081
 1997SOL    HW116670   2.046   7.931   2.417 -1.3131 -0.2678  0.5929
 1997SOL    HW216671   2.029   7.769   2.432  1.0979 -0.5773  0.2251
 1998SOL     OW16672   3.064   2.791   0.888  0.1161  0.1482 -0.5766
 1998SOL    HW116673   3.033   2.847   0.965  1.0966  0.0358 -0.0925
 1998SOL    HW216674   3.131   2.843   0.834  0.6685 -0.3704 -0.3973
 1999SOL     OW16675   1.696   2.223   3.378 -0.5434 -0.0141  0.2497
 1999SOL    HW116676   1.606   2.267   3.375 -0.3989  0.2348 -1.3499
 1999SOL    HW216677   1.686   2.125   3.361 -0.5911 -0.1037  0.8138
 2000SOL     OW16678   9.732   9.899   0.772 -0.6095 -0.5882 -0.3734
 2000SOL    HW116679   9.829   9.894   0.747  0.1400  2.8454  1.5109
 2000SOL    HW216680   9.677   9.909   0.690  1.0393  1.7851 -1.2435
 2001SOL     OW16681   3.971   9.077   1.179 -0.1132 -0.0924  0.4196
 2001SOL    HW116682   4.036   9.082   1.104  0.4716 -1.3311  0.8211
 2001SOL    HW216683   3.956   9.168   1.217  0.5513  0.3566 -0.3837
 2002SOL     OW16684   8.534   5.802   2.299 -0.3600 -0.0983  0.7497
 2002SOL    HW116685   8.523   5.900   2.313 -2.1457 -0.0722 -0.6744
 2002SOL    HW216686   8.628   5.775   2.321 -0.1394  1.7336  2.1441
 2003SOL     OW16687   9.129   2.770   0.533  0.8473  0.2962 -0.7487
 2003SOL    HW116688   9.145   2.810   0.443  1.5159  0.0620 -0.7353
 2003SOL    HW216689   9.214   2.773   0.587  0.4953  0.2878 -0.1856
 2004SOL     OW16690   1.904   5.166   4.551 -0.0916  0.4948  0.5511
 2004SOL    HW116691   1.942   5.157   4.643 -0.6929  0.9092  0.8452
 2004SOL    HW216692   1.851   5.250   4.545 -1.9915 -0.6787  0.5209
 2005SOL     OW16693   2.019   3.121   3.114 -0.0030 -0.0526  0.0755
 2005SOL    HW116694   2.117   3.141   3.108  0.8024 -4.0874 -1.8244
 2005SOL    HW216695   1.999   3.077   3.201  0.0126  0.1566  0.1836
 2006SOL     OW16696   7.143   7.495   2.465  0.0013  0.2104 -0.3580
 2006SOL    HW116697   7.154   7.420   2.531  1.9770  2.5607  2.1059
 2006SOL    HW216698   7.218   7.493   2.399 -0.6537 -0.7166 -1.0856
 2007SOL     OW16699   8.132   2.851   3.485  0.4439  0.3783  0.4882
 2007SOL    HW116700   8.039   2.885   3.476  0.0157 -0.7314  0.6863
 2007SOL    HW216701   8.136   2.781   3.557  1.4012  0.3230  0.3968
 2008SOL     OW16702   0.757   3.767   3.148  1.0317  0.2172  0.2944
 2008SOL    HW116703   0.759   3.837   3.220  0.4497 -1.0809  1.6139
 2008SOL    HW216704   0.850   3.734   3.131  0.9879 -0.6612  1.6723
 2009SOL     OW16705   8.709   6.929   0.793 -0.2140 -0.2075  0.1297
 2009SOL    HW116706   8.712   6.830   0.806 -0.2471 -0.2355 -0.0795
 2009SOL    HW216707   8.615   6.958   0.780 -0.1519 -0.2172 -0.3518
 2010SOL     OW16708   4.046   0.989   2.737  0.1366  0.5800  0.1108
 2010SOL    HW116709   4.034   1.004   2.639  0.6949 -0.9526 -0.2113
 2010SOL    HW216710   4.125   1.040   2.769  0.0289  0.9887 -0.2672
 2011SOL     OW16711   9.682   2.453   1.974 -0.1942  0.2187  0.2327
 2011SOL    HW116712   9.767   2.432   2.023 -1.2404  0.0407  1.9963
 2011SOL    HW216713   9.671   2.552   1.966  0.9820  0.2400 -1.4668
 2012SOL     OW16714   2.691   6.620   3.893 -0.1308 -0.0340 -0.2171
 2012SOL    HW116715   2.623   6.686   3.927 -0.5729 -1.3418  1.4640
 2012SOL    HW216716   2.645   6.535   3.868  0.7189 -0.4592 -0.3433
 2013SOL     OW16717   9.354   3.318   1.702  0.1943 -0.6766  0.0066
 2013SOL    HW116718   9.346   3.241   1.766  0.0126  0.1740  1.0196
 2013SOL    HW216719   9.318   3.291   1.613 -4.5447 -0.2256  1.6679
 2014SOL     OW16720   3.534   7.840   2.686 -0.5035  0.2856 -0.9831
 2014SOL    HW116721   3.444   7.799   2.672 -0.4233  0.4314 -1.9855
 2014SOL    HW216722   3.604   7.769   2.683 -0.6197  0.0965  0.3464
 2015SOL     OW16723   3.818   0.231   0.192 -0.9169  0.5123  0.2182
 2015SOL    HW116724   3.848   0.150   0.141  0.4585  1.2230 -0.1230
 2015SOL    HW216725   3.794   0.204   0.286 -0.4250 -0.2840  0.1199
 2016SOL     OW16726   2.140   9.542   4.525  0.3645  0.2981  0.0623
 2016SOL    HW116727   2.217   9.581   4.474  0.0466  1.5708  0.5389
 2016SOL    HW216728   2.151   9.443   4.531  2.0815  0.4932  0.3170
 2017SOL     OW16729   3.130   5.113   1.394 -0.2376  0.3371  0.3018
 2017SOL    HW116730   3.147   5.033   1.336 -1.5662  1.3617 -1.5768
 2017SOL    HW216731   3.038   5.107   1.433  1.7572 -1.9333  5.0352
 2018SOL     OW16732   4.697   6.733   3.251 -0.3292  0.0130  0.1085
 2018SOL    HW116733   4.773   6.791   3.223 -1.0504  0.9140 -0.0087
 2018SOL    HW216734   4.729   6.639   3.264  0.8057  0.4002  0.1174
 2019SOL     OW16735   1.940   1.113   1.895 -0.0195 -0.1734  0.1247
 2019SOL    HW116736   1.965   1.185   1.829  0.1124  1.6659  2.1373
 2019SOL    HW216737   1.850   1.076   1.870  0.4483 -0.1992 -1.6477
 2020SOL     OW16738   1.659   6.881   2.162 -0.3898 -0.1957 -0.5071
 2020SOL    HW116739   1.596   6.805   2.173  1.2493 -1.4054  0.7688
 2020SOL    HW216740   1.752   6.847   2.150 -0.0732  1.5220 -3.5806
 2021SOL     OW16741   2.142   0.627   3.714  0.0674  0.0734 -0.3362
 2021SOL    HW116742   2.070   0.654   3.650  0.0874 -1.0662 -0.8548
 2021SOL    HW216743   2.214   0.697   3.713 -0.0145  0.1605 -1.4320
 2022SOL     OW16744   3.301   5.307   1.276 -0.8568 -0.5154  0.1573
 2022SOL    HW116745   3.331   5.395   1.312  0.3797 -1.6377  1.9870
 2022SOL    HW216746   3.206   5.291   1.304 -0.6052 -0.4064  1.1019
 2023SOL     OW16747   3.704   9.704   4.443 -0.5952 -0.2075 -0.2145
 2023SOL    HW116748   3.776   9.768   4.415 -1.4471  0.5373 -0.7113
 2023SOL    HW216749   3.713   9.684   4.540  0.0923  0.1224 -0.2063
 2024SOL     OW16750   3.058   2.959   0.014 -0.2106  0.4657  0.0907
 2024SOL    HW116751   3.068   2.879  -0.045  0.3570 -0.5026  1.4664
 2024SOL    HW216752   3.016   3.034  -0.038 -0.4252 -0.5994 -1.3087
 2025SOL     OW16753   7.167   6.432   2.800  0.0683 -0.7972  0.0532
 2025SOL    HW116754   7.205   6.343   2.775 -1.4234 -0.9985 -1.5996
 2025SOL    HW216755   7.067   6.429   2.791  0.1353  1.6287 -1.9664
 2026SOL     OW16756   8.414   7.484   0.194 -0.4772  0.3805 -0.0551
 2026SOL    HW116757   8.355   7.459   0.271  0.2272  1.1296  0.7310
 2026SOL    HW216758   8.472   7.561   0.219  0.0868  0.3406 -1.1851
 2027SOL     OW16759   4.289   8.937   1.585  0.1361 -0.6620 -0.2572
 2027SOL    HW116760   4.374   8.960   1.536 -0.5780  1.3541 -0.6012
 2027SOL    HW216761   4.211   8.964   1.530 -0.7111 -0.2263  1.1395
 2028SOL     OW16762   3.191   5.584   3.385  0.2182  0.2064 -0.0222
 2028SOL    HW116763   3.268   5.648   3.384  0.8254 -0.4807  1.1160
 2028SOL    HW216764   3.114   5.624   3.337  1.8266  0.2177 -2.6658
 2029SOL     OW16765   3.010   4.648   4.177  0.3387  0.1670 -0.1024
 2029SOL    HW116766   2.966   4.709   4.111  1.4403  1.1598  0.0564
 2029SOL    HW216767   3.063   4.703   4.243  0.7213 -0.9155  0.5037
 2030SOL     OW16768   9.685   5.328   1.641 -0.3349 -0.2115 -0.1319
 2030SOL    HW116769   9.751   5.396   1.671 -0.2255 -0.2875 -0.2007
 2030SOL    HW216770   9.709   5.295   1.550 -0.6724  0.0251 -0.3065
 2031SOL     OW16771   2.148   8.012   3.062  0.5759  0.1586 -0.6578
 2031SOL    HW116772   2.126   7.936   3.123 -0.2804  0.1857 -0.9323
 2031SOL    HW216773   2.179   8.091   3.117 -0.6636  0.3521 -0.2167
 2032SOL     OW16774   4.781   3.533   2.495  0.1705 -0.0044 -0.2306
 2032SOL    HW116775   4.791   3.513   2.593 -1.1921 -0.2625 -0.1286
 2032SOL    HW216776   4.866   3.572   2.460  0.7747 -0.1921  0.9884
 2033SOL     OW16777   3.501   5.793   4.065 -0.2845  0.4507  0.5972
 2033SOL    HW116778   3.524   5.890   4.073 -2.9083  1.0317  1.7347
 2033SOL    HW216779   3.499   5.752   4.156 -1.8654 -0.0034  0.3657
 2034SOL     OW16780   3.634   4.170   3.789  0.0998  0.2091  0.6524
 2034SOL    HW116781   3.640   4.220   3.703  0.0896 -0.4833  0.2507
 2034SOL    HW216782   3.630   4.072   3.771 -0.8829  0.1026  1.4015
 2035SOL     OW16783   1.671   3.962   1.056 -0.1510 -0.4341  0.5922
 2035SOL    HW116784   1.726   3.928   1.133  0.6013 -0.1512  0.1947
 2035SOL    HW216785   1.725   3.954   0.972 -0.6019  0.1710  0.2479
 2036SOL     OW16786   8.596   9.154   2.807 -1.0696  0.0999 -0.0350
 2036SOL    HW116787   8.573   9.073   2.752 -0.3966  0.3315 -0.6679
 2036SOL    HW216788   8.620   9.229   2.746  0.4115  0.1480  0.5870
 2037SOL     OW16789   0.067   2.984   1.873  0.2517  0.1023  0.1200
 2037SOL    HW116790   0.096   2.909   1.814 -0.1378 -0.5468  0.7535
 2037SOL    HW216791   0.055   3.067   1.818  2.2581  0.1165 -0.3296
 2038SOL     OW16792   3.083   6.022   2.220 -0.2956  0.0012  0.2070
 2038SOL    HW116793   3.081   5.925   2.195  0.0101 -0.6754  2.6509
 2038SOL    HW216794   3.145   6.035   2.298  0.0760  2.2574 -0.4260
 2039SOL     OW16795   0.111   2.916   2.569 -0.2368  0.0107  0.2932
 2039SOL    HW116796   0.034   2.854   2.554 -1.0338  1.3436 -1.3115
 2039SOL    HW216797   0.077   3.004   2.602  0.7330  0.1332  0.9807
 2040SOL     OW16798   8.119   7.635   3.597 -0.2543  0.0397 -0.9757
 2040SOL    HW116799   8.035   7.648   3.650  0.9963  1.2054  0.7550
 2040SOL    HW216800   8.123   7.540   3.565 -1.2486 -0.5761  0.6345
 2041SOL     OW16801   0.580   3.336   2.804  0.7858 -0.8141  0.3099
 2041SOL    HW116802   0.499   3.378   2.765  0.2483 -0.5783  1.6486
 2041SOL    HW216803   0.661   3.392   2.782  0.3715 -0.2300  0.2565
 2042SOL     OW16804   2.603   0.279   1.439 -0.2559  0.7217 -0.4570
 2042SOL    HW116805   2.524   0.233   1.480 -1.4012  1.3176 -1.9642
 2042SOL    HW216806   2.579   0.374   1.419  0.7756  0.8451 -1.1361
 2043SOL     OW16807   0.836   1.497   2.977  0.6326  0.7991  0.2556
 2043SOL    HW116808   0.828   1.581   3.030 -2.0591 -1.5010  3.7372
 2043SOL    HW216809   0.746   1.453   2.971  1.4341 -0.5079 -3.8336
 2044SOL     OW16810   7.802   4.090   4.481  1.2765  0.7930 -0.0850
 2044SOL    HW116811   7.829   4.152   4.407 -2.1437 -2.6900 -4.5214
 2044SOL    HW216812   7.716   4.123   4.521  0.8566  0.3853 -0.6397
 2045SOL     OW16813   9.810   2.737   0.473  0.1354 -0.2131 -0.0976
 2045SOL    HW116814   9.868   2.813   0.446 -1.0592  0.7672  0.0588
 2045SOL    HW216815   9.795   2.740   0.572 -0.4252 -0.2931 -0.1794
 2046SOL     OW16816   8.494   1.034   4.042  0.1096 -0.4330 -0.1224
 2046SOL    HW116817   8.423   1.103   4.055  0.7974 -0.2816  3.2476
 2046SOL    HW216818   8.569   1.073   3.987 -1.1650  0.2557 -1.4085
 2047SOL     OW16819   1.396   3.904   1.045 -0.2546  0.6436 -0.4440
 2047SOL    HW116820   1.492   3.932   1.045 -0.4331  1.2548 -0.9183
 2047SOL    HW216821   1.354   3.929   1.132  0.2925 -0.6088  0.2044
 2048SOL     OW16822   9.764   5.110   4.580  0.1789  0.0402  0.0676
 2048SOL    HW116823   9.802   5.063   4.660  0.2741 -0.1558 -0.0917
 2048SOL    HW216824   9.667   5.129   4.595  0.7776  2.2316  1.2494
 2049SOL     OW16825   2.559   0.119   1.019  0.5518 -0.5755 -0.1850
 2049SOL    HW116826   2.631   0.095   1.084  0.6229  0.6891  0.2101
 2049SOL    HW216827   2.567   0.215   0.994 -1.4158 -0.2463  0.3872
 2050SOL     OW16828   8.941   1.009   1.260 -0.5888 -0.2740 -0.2680
 2050SOL    HW116829   8.891   0.960   1.332 -0.0810 -1.1109 -0.4727
 2050SOL    HW216830   8.876   1.049   1.196 -1.0089 -2.6522 -1.3915
 2051SOL     OW16831   1.154   2.355   2.870  0.3549 -0.3878 -0.6313
 2051SOL    HW116832   1.135   2.433   2.929  3.2177 -0.1662  0.0825
 2051SOL    HW216833   1.076   2.292   2.871 -0.1713  0.2452  2.3878
 2052SOL     OW16834   9.118   5.020   4.346 -0.2429  0.2280 -0.0143
 2052SOL    HW116835   9.129   5.030   4.445 -0.3261 -1.1024  0.1391
 2052SOL    HW216836   9.026   5.048   4.320 -1.5183 -2.9540  0.8358
 2053SOL     OW16837   0.680   1.701   1.407 -0.4334 -0.0003  0.2636
 2053SOL    HW116838   0.613   1.680   1.479 -0.1954  0.1186  0.5222
 2053SOL    HW216839   0.632   1.716   1.321 -0.7140 -0.2554  0.3719
 2054SOL     OW16840   0.953   6.271   3.544 -0.3873  0.3751 -0.4224
 2054SOL    HW116841   1.025   6.249   3.479  0.4863  1.2200  0.2487
 2054SOL    HW216842   0.923   6.365   3.530 -0.5019  0.4195  0.1177
 2055SOL     OW16843   1.688   0.973   1.857 -0.3866  0.1611  0.0598
 2055SOL    HW116844   1.678   0.883   1.899  2.7192 -0.5858 -0.6643
 2055SOL    HW216845   1.672   0.965   1.758 -0.3269  0.4450  0.0272
 2056SOL     OW16846   4.972   8.206   1.608  0.0710  0.1707 -0.3793
 2056SOL    HW116847   4.977   8.234   1.703 -1.2320  0.2480 -0.3250
 2056SOL    HW216848   5.014   8.276   1.550  0.6729  0.2238  0.1175
 2057SOL     OW16849   8.516   9.626   2.740 -0.8392 -0.0042 -0.0581
 2057SOL    HW116850   8.468   9.614   2.826 -0.9889  1.0887  0.0199
 2057SOL    HW216851   8.550   9.720   2.733  0.6358 -0.5386 -0.4429
 2058SOL     OW16852   7.341   0.812   3.393 -0.0368 -0.4371  0.4517
 2058SOL    HW116853   7.433   0.776   3.375  0.0152  0.5175 -1.3436
 2058SOL    HW216854   7.338   0.909   3.367 -1.1999 -0.1340  1.6877
 2059SOL     OW16855   0.076   2.520   0.768 -0.0773 -0.2486  0.0127
 2059SOL    HW116856   0.054   2.608   0.727  0.5776  0.1542  0.5248
 2059SOL    HW216857   0.033   2.514   0.858  0.2493 -0.2687  0.1686
 2060SOL     OW16858   6.185   7.079   2.552 -0.1291  0.5587  0.8396
 2060SOL    HW116859   6.106   7.019   2.538  1.8664 -2.2273  0.9458
 2060SOL    HW216860   6.177   7.125   2.641  0.0327 -2.4606  2.4889
 2061SOL     OW16861   1.378   0.080   2.384  0.0446 -0.1599 -0.3519
 2061SOL    HW116862   1.383  -0.020   2.380 -0.1530 -0.1383 -1.3291
 2061SOL    HW216863   1.448   0.119   2.323  0.3691  0.3042  0.3062
 2062SOL     OW16864   3.033   4.602   2.609  0.0734 -0.0909 -0.2842
 2062SOL    HW116865   3.051   4.691   2.567  1.3256 -0.5283 -0.7029
 2062SOL    HW216866   2.939   4.573   2.586 -0.7394  1.6154  0.7964
 2063SOL     OW16867   1.654   3.325   3.864 -0.1710  0.8293 -0.0225
 2063SOL    HW116868   1.734   3.294   3.813  0.3411  0.8507  0.7604
 2063SOL    HW216869   1.675   3.413   3.908 -0.5257  0.7062  0.3981
 2064SOL     OW16870   9.920   1.353   0.494  0.0657  0.7010  0.3506
 2064SOL    HW116871   9.856   1.390   0.560 -1.2322  1.0491 -1.0779
 2064SOL    HW216872  10.009   1.338   0.538 -0.7319  1.0694  2.1042
 2065SOL     OW16873   0.701   8.037   2.811 -0.4691  0.7364  0.5972
 2065SOL    HW116874   0.714   8.031   2.910 -1.3138 -1.2616  0.6210
 2065SOL    HW216875   0.606   8.012   2.789  0.0127  0.1079 -0.8006
 2066SOL     OW16876   3.390   5.814   2.290  0.2523  0.6703 -0.6708
 2066SOL    HW116877   3.448   5.847   2.215  1.8717  0.2948  0.3860
 2066SOL    HW216878   3.380   5.887   2.357  1.5573 -0.0573  0.3372
 2067SOL     OW16879   1.997   8.919   3.445  0.5212  0.0310 -0.0081
 2067SOL    HW116880   1.901   8.901   3.423 -0.2107  1.2816  2.0384
 2067SOL    HW216881   2.009   8.916   3.544  3.3668 -3.7738 -0.3672
 2068SOL     OW16882   3.659   3.929   2.092  0.3788  0.5177  0.3430
 2068SOL    HW116883   3.719   4.009   2.082  0.3852  0.7420  2.0206
 2068SOL    HW216884   3.671   3.868   2.014  1.7439  1.2558 -0.0400
 2069SOL     OW16885   4.395   7.541   2.109  0.8157 -0.1566 -0.2591
 2069SOL    HW116886   4.332   7.619   2.107  0.3329 -0.5613 -0.8939
 2069SOL    HW216887   4.396   7.502   2.201  0.9011  0.4692  0.0124
 2070SOL     OW16888   8.259   4.823   1.708 -0.1311 -0.3631  0.8271
 2070SOL    HW116889   8.187   4.845   1.773  0.0712  0.6817  0.7027
 2070SOL    HW216890   8.346   4.857   1.742  0.2288 -1.1543  0.7243
 2071SOL     OW16891   1.802   5.164   2.706 -0.0920 -0.1103 -0.4062
 2071SOL    HW116892   1.890   5.119   2.699  0.7040  1.2168  0.6695
 2071SOL    HW216893   1.731   5.097   2.726  1.2048 -0.7974  2.0704
 2072SOL     OW16894   9.822   6.620   3.845  0.2705 -0.0233 -0.1272
 2072SOL    HW116895   9.910   6.666   3.852  0.3728  0.0035 -1.5315
 2072SOL    HW216896   9.756   6.665   3.906  1.1450  0.1142  0.7331
 2073SOL     OW16897   1.945   9.069   2.268 -0.5423  0.1454 -0.6229
 2073SOL    HW116898   1.921   9.066   2.171 -1.6436 -3.5147 -0.3065
 2073SOL    HW216899   2.039   9.039   2.280 -0.3792  0.6779 -0.5440
 2074SOL     OW16900   0.635   9.455   3.858  1.0574  0.3996  0.1068
 2074SOL    HW116901   0.584   9.430   3.940 -0.6455  0.5793 -0.8751
 2074SOL    HW216902   0.667   9.372   3.811 -0.0653  0.2183 -0.3452
 2075SOL     OW16903   1.670   5.677   3.615 -0.7652  0.0692  0.3569
 2075SOL    HW116904   1.659   5.761   3.669 -0.5925  1.2220 -1.3704
 2075SOL    HW216905   1.603   5.609   3.646 -2.5660  1.6991  0.1611
 2076SOL     OW16906   1.177   8.746   4.293 -0.3406 -0.1518  0.6127
 2076SOL    HW116907   1.162   8.844   4.310 -0.5851  0.1322 -1.1015
 2076SOL    HW216908   1.101   8.710   4.239 -0.4639 -1.3984  1.6000
 2077SOL     OW16909   9.484   2.213   0.181  0.8839 -0.1013  0.2399
 2077SOL    HW116910   9.416   2.201   0.109  0.3144  2.5033  0.2674
 2077SOL    HW216911   9.565   2.259   0.142  0.1415  2.3122  1.4103
 2078SOL     OW16912   8.411   5.849   2.955  0.5360 -0.1814  0.1377
 2078SOL    HW116913   8.401   5.749   2.961  1.5421 -0.3599 -0.9678
 2078SOL    HW216914   8.335   5.893   3.003  0.2531 -1.4779  0.9073
 2079SOL     OW16915   3.640   3.739   1.422 -0.4772  0.0318 -0.2761
 2079SOL    HW116916   3.597   3.770   1.337  0.0907 -0.3698 -0.7147
 2079SOL    HW216917   3.677   3.647   1.409 -1.9532 -0.7604  0.9472
 2080SOL     OW16918   0.446   5.596   1.118 -0.0599  0.2783 -0.3952
 2080SOL    HW116919   0.398   5.563   1.200 -0.2761  0.3611 -0.4894
 2080SOL    HW216920   0.539   5.560   1.118  0.1665  0.8645  0.2584
 2081SOL     OW16921   8.923   9.028   3.165  0.9174 -0.0473 -0.5987
 2081SOL    HW116922   8.971   8.947   3.130 -1.4095 -0.9145 -1.9279
 2081SOL    HW216923   8.890   9.008   3.257  3.0790  0.5629  0.3321
 2082SOL     OW16924   8.338   9.560   4.139 -0.2942 -0.3272 -0.2218
 2082SOL    HW116925   8.357   9.477   4.087 -0.9190  0.2331 -1.3568
 2082SOL    HW216926   8.402   9.566   4.216 -0.7485 -2.2344  0.3278
 2083SOL     OW16927   2.399   8.811   4.037  0.0872 -0.0074 -0.3470
 2083SOL    HW116928   2.386   8.713   4.052  1.6739 -0.0851  0.6115
 2083SOL    HW216929   2.479   8.824   3.978  1.2513  0.7989  1.3959
 2084SOL     OW16930   4.138   4.243   0.812 -0.1336  0.0518  0.1571
 2084SOL    HW116931   4.193   4.313   0.858  1.2546 -0.1604 -1.1453
 2084SOL    HW216932   4.198   4.183   0.760 -1.6379  0.0341 -1.5774
 2085SOL     OW16933   9.517   7.779   1.417 -0.5565 -0.2783 -0.0404
 2085SOL    HW116934   9.503   7.840   1.495 -0.4679 -0.5347  0.1787
 2085SOL    HW216935   9.518   7.684   1.449  0.4337 -0.3340 -0.2222
 2086SOL     OW16936   1.260   6.833   1.563  0.0078  0.4456  0.5934
 2086SOL    HW116937   1.165   6.804   1.559 -0.1481  0.8648  1.1970
 2086SOL    HW216938   1.317   6.756   1.591  0.1838 -0.5006 -2.1833
 2087SOL     OW16939   3.598   5.950   3.727  0.0408 -0.5062  0.2469
 2087SOL    HW116940   3.582   6.049   3.734 -1.0068 -0.5588 -1.1703
 2087SOL    HW216941   3.561   5.905   3.807  0.3261  0.2315  0.8025
 2088SOL     OW16942   9.639   0.231   1.587 -0.6094  0.7084  0.2507
 2088SOL    HW116943   9.591   0.313   1.555 -0.1334 -0.0187 -2.3836
 2088SOL    HW216944   9.602   0.150   1.541  1.4852 -0.1226 -0.0192
 2089SOL     OW16945   8.790   4.118   3.293 -0.1217  0.2689 -0.5434
 2089SOL    HW116946   8.864   4.167   3.339 -0.3756  0.4871 -0.3686
 2089SOL    HW216947   8.750   4.052   3.356  2.2163 -2.3462 -1.6579
 2090SOL     OW16948   2.566   4.562   1.818  0.0878 -0.3081 -0.0712
 2090SOL    HW116949   2.574   4.475   1.867 -0.5365 -0.1384  0.3359
 2090SOL    HW216950   2.477   4.568   1.774  0.2786 -0.0397 -0.4261
 2091SOL     OW16951   8.749   6.739   1.582  0.0699 -0.6223 -0.1480
 2091SOL    HW116952   8.833   6.788   1.607  0.2992 -1.5034  0.8209
 2091SOL    HW216953   8.720   6.769   1.491  1.6538 -0.5898 -0.6713
 2092SOL     OW16954   0.160   7.602   3.754 -0.2327  0.1150  0.3052
 2092SOL    HW116955   0.249   7.643   3.732  0.7689 -1.7416  0.7664
 2092SOL    HW216956   0.129   7.546   3.677  0.2462 -1.3022  1.1259
 2093SOL     OW16957   9.811   6.781   1.613  0.3591  0.3153  0.1039
 2093SOL    HW116958   9.871   6.822   1.543  0.6987  1.7721  1.2236
 2093SOL    HW216959   9.865   6.763   1.695 -0.4927  0.5462  0.7121
 2094SOL     OW16960   8.935   7.860   4.229 -0.1022 -1.0291  0.3728
 2094SOL    HW116961   9.034   7.864   4.216 -0.0528 -1.2565  0.6589
 2094SOL    HW216962   8.913   7.883   4.324 -0.4392  0.4886 -0.0633
 2095SOL     OW16963   1.351   2.498   1.048 -0.1712 -0.0343 -0.0458
 2095SOL    HW116964   1.298   2.569   1.002 -0.1006 -0.1496 -0.3067
 2095SOL    HW216965   1.302   2.411   1.043 -0.5534  0.1323  0.8301
 2096SOL     OW16966   8.687   7.075   4.182 -0.1848 -0.2937 -0.3447
 2096SOL    HW116967   8.646   7.112   4.266  1.4702 -0.4387  0.5581
 2096SOL    HW216968   8.723   6.984   4.201  1.0503  0.0600 -0.9505
 2097SOL     OW16969   0.309   0.107   3.155  0.1983  0.3964  0.2709
 2097SOL    HW116970   0.340   0.090   3.249 -0.2486  0.6030  0.4584
 2097SOL    HW216971   0.370   0.174   3.111 -1.6530  3.0895  1.6269
 2098SOL     OW16972   8.680   9.909   4.396  0.4565 -0.4708 -0.4742
 2098SOL    HW116973   8.695   9.812   4.418  1.0546 -0.3477 -0.3236
 2098SOL    HW216974   8.672   9.919   4.297  1.1873 -0.5749 -0.5492
 2099SOL     OW16975   3.105   4.267   2.838 -0.1429  0.2915 -0.4016
 2099SOL    HW116976   3.155   4.311   2.913 -2.1840 -0.5851  1.5355
 2099SOL    HW216977   3.007   4.270   2.857 -0.7398  0.5112 -3.3341
 2100SOL     OW16978   0.727   9.211   2.979 -0.1193  0.5885  0.5286
 2100SOL    HW116979   0.639   9.230   3.023 -0.9328 -2.8400  0.5280
 2100SOL    HW216980   0.718   9.221   2.880 -0.3901  0.6922  0.5641
 2101SOL     OW16981   7.259   0.640   2.223  0.3137  0.4289 -0.1986
 2101SOL    HW116982   7.322   0.717   2.232 -1.0631  1.5439  0.0447
 2101SOL    HW216983   7.305   0.557   2.255  1.4296  1.3340  0.6369
 2102SOL     OW16984   0.158   3.175   0.786 -0.1425  0.2405 -0.5879
 2102SOL    HW116985   0.103   3.214   0.859 -1.1788 -1.6637 -0.2996
 2102SOL    HW216986   0.160   3.075   0.796 -0.3916 -0.0682 -3.1840
 2103SOL     OW16987   8.653   1.335   1.434  0.2890 -0.4770 -0.5399
 2103SOL    HW116988   8.671   1.406   1.367 -1.7558  0.7867  0.1889
 2103SOL    HW216989   8.565   1.353   1.478  0.4486 -2.6377  0.7245
 2104SOL     OW16990   1.929   6.940   1.264  0.5498  0.7104  0.0093
 2104SOL    HW116991   1.837   6.977   1.275 -0.6163 -2.0803  0.0137
 2104SOL    HW216992   1.941   6.908   1.170  0.5312 -1.3716  0.6829
 2105SOL     OW16993   5.039   9.889   1.221  0.2869  0.4318 -0.1684
 2105SOL    HW116994   4.947   9.904   1.185  0.6639 -0.7781 -1.7214
 2105SOL    HW216995   5.048   9.794   1.251  0.6183  0.9003  1.2448
 2106SOL     OW16996   9.382   5.234   3.954  0.0809 -0.1914 -1.0660
 2106SOL    HW116997   9.470   5.221   3.909  0.4674  1.2435 -0.7443
 2106SOL    HW216998   9.396   5.247   4.052 -0.4306  0.6571 -1.1005
 2107SOL     OW16999   9.021   6.286   3.253  0.1206 -0.3583 -0.4709
 2107SOL    HW117000   8.977   6.340   3.325  1.5888  0.1848  0.0257
 2107SOL    HW217001   8.971   6.297   3.167 -1.0015 -0.1408  0.2076
 2108SOL     OW17002   9.784   7.151   2.485  0.6387 -0.3048 -0.0515
 2108SOL    HW117003   9.714   7.175   2.553  0.2844  0.4030 -0.6679
 2108SOL    HW217004   9.796   7.052   2.484  0.1381 -0.3754  0.5475
 2109SOL     OW17005   2.619   4.446   3.976  0.3935  0.1897 -0.1690
 2109SOL    HW117006   2.591   4.447   4.071 -2.1034  1.2339 -0.8873
 2109SOL    HW217007   2.698   4.507   3.964  0.5510  0.2544  1.1661
 2110SOL     OW17008   9.648   8.748   1.808 -0.0953 -0.1378  0.4652
 2110SOL    HW117009   9.636   8.666   1.864  1.7282 -1.0526 -0.4241
 2110SOL    HW217010   9.674   8.721   1.715 -1.0224  1.4227 -0.2679
 2111SOL     OW17011   4.049   4.429   3.771  0.3817  0.0724  0.1072
 2111SOL    HW117012   4.122   4.476   3.722  0.4195  0.1902  0.2754
 2111SOL    HW217013   4.074   4.420   3.868  0.4233 -0.3886  0.0576
 2112SOL     OW17014   2.170   3.164   2.303  0.0725  0.4942 -0.5268
 2112SOL    HW117015   2.112   3.232   2.256  0.6431  0.8114 -0.7739
 2112SOL    HW217016   2.263   3.200   2.312 -0.4819  1.2658  2.6418
 2113SOL     OW17017   1.816   6.607   4.309  0.0220 -0.6545 -0.0223
 2113SOL    HW117018   1.738   6.664   4.336 -0.5621 -1.6773  0.4804
 2113SOL    HW217019   1.893   6.666   4.284 -0.7109  0.3582  0.0710
 2114SOL     OW17020   4.395   3.023   2.441  0.5280 -0.7685  0.1262
 2114SOL    HW117021   4.426   3.102   2.494  1.5268 -0.0357 -1.5026
 2114SOL    HW217022   4.475   2.975   2.403 -0.2068 -0.7353 -1.4683
 2115SOL     OW17023   7.097   4.603   4.235 -0.0375  0.0862 -0.2969
 2115SOL    HW117024   7.139   4.589   4.324  0.2881 -0.1957 -0.4939
 2115SOL    HW217025   7.105   4.519   4.180  2.7850  1.2977 -1.8357
 2116SOL     OW17026   0.978   1.933   2.362  0.2007  0.5295 -0.4706
 2116SOL    HW117027   0.990   1.903   2.267 -2.0845 -0.0578 -0.6155
 2116SOL    HW217028   0.944   1.856   2.417 -0.4283  1.3981  0.3776
 2117SOL     OW17029   0.143   5.889   3.751  0.7041  0.0413  0.1127
 2117SOL    HW117030   0.127   5.937   3.665  1.7777 -0.8342 -0.5925
 2117SOL    HW217031   0.081   5.811   3.758  0.6549  0.0798  0.1103
 2118SOL     OW17032   8.479   3.458   0.795  0.1321  0.5245  0.5337
 2118SOL    HW117033   8.497   3.438   0.891 -0.8096 -0.9428  0.4244
 2118SOL    HW217034   8.426   3.383   0.754 -1.1862  2.0338 -0.6175
 2119SOL     OW17035   2.759   9.760   1.852  0.3537 -0.3471  0.0923
 2119SOL    HW117036   2.848   9.804   1.863 -0.3176  0.9235  0.4158
 2119SOL    HW217037   2.773   9.661   1.840  1.6388 -0.6017  3.2229
 2120SOL     OW17038   1.667   9.720   2.614 -0.6295 -0.4855  0.3026
 2120SOL    HW117039   1.692   9.795   2.553 -2.2034 -0.9982 -1.0110
 2120SOL    HW217040   1.718   9.728   2.700 -0.8271  2.1059  0.2030
 2121SOL     OW17041   1.573   1.589   0.183  0.0132  0.0653  0.9482
 2121SOL    HW117042   1.521   1.606   0.266  0.0298 -0.7190  1.1223
 2121SOL    HW217043   1.670   1.597   0.202  0.2823 -4.2362  2.0573
 2122SOL     OW17044   4.198   7.204   1.884 -0.8345  0.7262  0.6815
 2122SOL    HW117045   4.154   7.172   1.800 -0.7449  0.4702  0.7332
 2122SOL    HW217046   4.252   7.130   1.924  2.2804  1.8651 -1.1302
 2123SOL     OW17047   2.092   8.437   3.678 -0.5139 -0.4464 -0.4141
 2123SOL    HW117048   2.036   8.418   3.597  0.2055  0.9583 -1.2729
 2123SOL    HW217049   2.187   8.412   3.658 -0.4672 -0.8089  0.2725
 2124SOL     OW17050   9.020   1.728   1.341  0.7649 -0.3097  0.3171
 2124SOL    HW117051   8.944   1.734   1.276  1.8401  1.8258 -0.7669
 2124SOL    HW217052   9.055   1.634   1.343 -0.0607 -0.6579 -1.2829
 2125SOL     OW17053   3.734   5.102   3.376 -0.1630 -0.3450  0.1818
 2125SOL    HW117054   3.780   5.183   3.415  0.9995 -0.4576 -0.9201
 2125SOL    HW217055   3.695   5.125   3.287  0.3140 -1.0245 -0.2117
 2126SOL     OW17056   7.703   9.518   1.793 -0.0660 -0.0385  0.1518
 2126SOL    HW117057   7.696   9.419   1.800 -0.3378 -0.3009 -2.8792
 2126SOL    HW217058   7.798   9.544   1.773  0.2496  0.4206  2.2105
 2127SOL     OW17059   9.475   5.450   1.000  0.9256  0.2563  0.4874
 2127SOL    HW117060   9.550   5.456   0.935  0.3025 -1.0525 -0.3768
 2127SOL    HW217061   9.453   5.354   1.017 -0.3015  0.6190  1.0296
 2128SOL     OW17062   9.447   3.620   1.013  0.4074 -0.0178 -0.8431
 2128SOL    HW117063   9.395   3.581   0.937 -0.1001 -0.6900 -0.1587
 2128SOL    HW217064   9.389   3.682   1.065  0.1078 -1.1960  0.2511
 2129SOL     OW17065   4.397   2.546   0.441  0.2867  0.1037  0.5881
 2129SOL    HW117066   4.420   2.478   0.372 -0.6060  0.1804  0.1940
 2129SOL    HW217067   4.301   2.535   0.467 -0.0272  1.5553  0.1044
 2130SOL     OW17068   0.435   6.157   0.672  0.5853  0.2999 -0.2397
 2130SOL    HW117069   0.475   6.241   0.636 -1.5293  1.0147 -1.0529
 2130SOL    HW217070   0.337   6.155   0.650  0.0664 -1.1812  1.9635
 2131SOL     OW17071   3.404   1.668   2.061  0.7796  0.0945  0.1979
 2131SOL    HW117072   3.449   1.742   2.012  0.5536 -0.1024 -0.3218
 2131SOL    HW217073   3.347   1.616   1.997 -0.9014  0.8893  1.0210
 2132SOL     OW17074   0.708   4.946   0.734 -0.0260  0.1870 -0.1077
 2132SOL    HW117075   0.736   4.927   0.828 -0.5998  0.0221  0.0331
 2132SOL    HW217076   0.726   4.865   0.677 -0.9430 -0.2093  0.1493
 2133SOL     OW17077   8.933   7.611   3.690 -0.5605 -0.4624  0.4837
 2133SOL    HW117078   8.915   7.664   3.774  0.2476  0.4066  0.1197
 2133SOL    HW217079   8.846   7.579   3.652 -1.2097  1.7679 -0.0164
 2134SOL     OW17080   5.185   6.649   3.011 -0.2160 -0.1122 -0.4332
 2134SOL    HW117081   5.134   6.696   3.082 -0.2579 -1.8173  0.6850
 2134SOL    HW217082   5.123   6.593   2.956  0.2855 -1.3995  0.2927
 2135SOL     OW17083   7.598   5.045   0.177  0.2372  0.0121 -0.2092
 2135SOL    HW117084   7.622   5.000   0.263 -3.0079  2.0127  1.8622
 2135SOL    HW217085   7.585   4.976   0.105 -0.5190 -2.0144  1.8285
 2136SOL     OW17086   4.654   2.069   1.989 -0.6302 -0.3068  0.4380
 2136SOL    HW117087   4.638   2.009   2.067  0.0506 -0.5418  0.4015
 2136SOL    HW217088   4.599   2.152   1.998  0.0909  0.0539  1.5954
 2137SOL     OW17089   0.512   3.977   2.579 -0.1363 -0.1692  0.2784
 2137SOL    HW117090   0.455   3.923   2.640  0.1219 -1.9281 -0.9935
 2137SOL    HW217091   0.575   3.917   2.530  1.1734  1.4591 -0.1076
 2138SOL     OW17092   4.268   2.915   0.718  0.2625  0.5179 -0.4417
 2138SOL    HW117093   4.338   2.890   0.651  0.1025  0.4274 -0.5744
 2138SOL    HW217094   4.309   2.973   0.788  1.1285 -1.6187  0.9059
 2139SOL     OW17095   8.711   3.267   2.173 -0.0712 -0.1898  0.7832
 2139SOL    HW117096   8.741   3.215   2.253  2.6519  0.7066  0.3671
 2139SOL    HW217097   8.644   3.212   2.122  1.3680 -2.5632  1.3435
 2140SOL     OW17098   1.033   9.999   3.558  0.4778  0.4273 -0.0656
 2140SOL    HW117099   1.077   9.914   3.531  0.0215  0.1567  0.0386
 2140SOL    HW217100   0.945   9.979   3.601  0.9579  0.8770  1.1438
 2141SOL     OW17101   3.722   2.830   0.717  0.1153  0.3163  0.0999
 2141SOL    HW117102   3.641   2.774   0.700  0.2507 -0.0113  0.5378
 2141SOL    HW217103   3.797   2.773   0.750  0.7404  0.5128 -0.9495
 2142SOL     OW17104   2.425   8.009   0.165  0.2834 -0.5413  0.6580
 2142SOL    HW117105   2.445   8.054   0.078 -1.3011  2.7325  1.8804
 2142SOL    HW217106   2.359   7.935   0.150 -0.6927  0.5893 -0.8122
 2143SOL     OW17107   8.612   2.567   1.032  0.0472  0.1575  0.0123
 2143SOL    HW117108   8.583   2.639   1.095  0.3064 -0.4995  0.9092
 2143SOL    HW217109   8.617   2.603   0.939  0.7952  1.4677  0.5442
 2144SOL     OW17110   2.194   0.320   2.889 -0.1078 -0.7728  0.7145
 2144SOL    HW117111   2.153   0.388   2.949  0.2439  1.2013 -1.2208
 2144SOL    HW217112   2.173   0.228   2.922 -0.5032  0.2695  3.4180
 2145SOL     OW17113   3.320   2.061   2.063 -0.2834  0.0334 -0.3976
 2145SOL    HW117114   3.315   2.026   2.157 -0.3589 -0.5846 -0.6316
 2145SOL    HW217115   3.268   2.146   2.056 -1.0611 -0.4154 -0.1053
 2146SOL     OW17116   5.426   6.664   2.664  0.5907  0.1546 -0.0469
 2146SOL    HW117117   5.352   6.665   2.597  0.1956 -0.7566  0.3742
 2146SOL    HW217118   5.410   6.736   2.732  0.5200  0.4933 -0.4222
 2147SOL     OW17119   4.385   9.375   3.005 -0.1642 -0.2640 -0.3729
 2147SOL    HW117120   4.416   9.357   3.099  1.7404 -0.9026 -1.0907
 2147SOL    HW217121   4.422   9.462   2.974  0.9689 -1.0444 -1.2528
 2148SOL     OW17122   4.504   6.768   2.700 -0.0717  0.1426 -0.4378
 2148SOL    HW117123   4.600   6.791   2.689  0.4856 -1.6512  0.3787
 2148SOL    HW217124   4.457   6.841   2.749  1.5083 -0.2128  1.6759
 2149SOL     OW17125   1.566   8.804   4.730 -0.0939  0.2649  0.0701
 2149SOL    HW117126   1.577   8.717   4.777 -0.9728  0.1500  0.0776
 2149SOL    HW217127   1.654   8.849   4.722 -0.0826  0.8073  2.8130
 2150SOL     OW17128   5.901   9.860   2.452  0.1885 -0.0410 -0.0239
 2150SOL    HW117129   5.881   9.957   2.465 -0.9484 -0.3315  0.4189
 2150SOL    HW217130   5.891   9.812   2.539  0.5368 -0.5963 -0.2854
 2151SOL     OW17131   3.961   9.656   2.076 -0.0876  0.7115 -0.1576
 2151SOL    HW117132   3.925   9.586   2.014 -0.6364  1.2428 -0.4504
 2151SOL    HW217133   3.912   9.742   2.060  0.5597  1.1523  0.2155
 2152SOL     OW17134   0.663   5.424   1.011  0.0561  0.8550  0.2287
 2152SOL    HW117135   0.714   5.339   1.023 -0.3191  0.6533  0.3942
 2152SOL    HW217136   0.652   5.444   0.914  0.3427  0.8362  0.1916
 2153SOL     OW17137   5.219   0.528   2.361  0.1311  0.2624  0.1572
 2153SOL    HW117138   5.303   0.536   2.414  0.6298  0.3491 -0.6456
 2153SOL    HW217139   5.208   0.609   2.303 -0.9758  0.6770  0.9398
 2154SOL     OW17140   4.102   9.554   4.557  0.0260  0.2593 -0.1264
 2154SOL    HW117141   4.099   9.621   4.482 -1.4304  0.7955  0.3859
 2154SOL    HW217142   4.191   9.557   4.601 -0.2327  2.3572  0.3123
 2155SOL     OW17143   8.257   5.851   2.669 -0.0131 -0.7144  0.3705
 2155SOL    HW117144   8.173   5.797   2.663 -0.8209  0.7652 -2.1205
 2155SOL    HW217145   8.242   5.931   2.728 -0.2968 -0.5229  0.0340
 2156SOL     OW17146   7.843   6.663   4.000  0.1023 -0.4265 -0.1098
 2156SOL    HW117147   7.932   6.620   4.013  0.8949  1.8135  2.3944
 2156SOL    HW217148   7.782   6.638   4.076 -0.5611  0.0905 -0.4665
 2157SOL     OW17149   0.627   6.139   1.436 -0.5294  0.0399  0.3357
 2157SOL    HW117150   0.629   6.047   1.397  2.0539  0.6960 -1.2428
 2157SOL    HW217151   0.601   6.205   1.365  3.0718  1.1079 -0.1263
 2158SOL     OW17152   8.710   9.286   0.684  0.6287  0.1554  0.3352
 2158SOL    HW117153   8.633   9.284   0.620  0.3446  1.9871  0.5933
 2158SOL    HW217154   8.675   9.296   0.777  1.1430 -0.2435  0.5776
 2159SOL     OW17155   1.772   3.380   0.453  0.2430 -0.3595  0.0940
 2159SOL    HW117156   1.680   3.356   0.482  1.5818 -3.2284  2.2615
 2159SOL    HW217157   1.814   3.301   0.406  2.1145  0.3553  0.5186
 2160SOL     OW17158   0.095   3.621   3.119  0.2892  0.4727  0.1280
 2160SOL    HW117159   0.071   3.559   3.193 -0.8246  4.1308  3.0016
 2160SOL    HW217160   0.186   3.659   3.137  0.5768  0.3871 -1.1147
 2161SOL     OW17161   1.366   8.026   4.688 -0.2329  0.0503  0.7274
 2161SOL    HW117162   1.336   8.121   4.676 -1.2579 -0.6307 -2.4352
 2161SOL    HW217163   1.438   8.005   4.622 -2.0554 -2.2273 -0.5700
 2162SOL     OW17164   0.124   7.177   0.784  0.1648 -0.2553  0.4529
 2162SOL    HW117165   0.056   7.113   0.821 -0.1237  0.6539  1.4837
 2162SOL    HW217166   0.140   7.251   0.848  2.0114 -0.3468  0.1429
 2163SOL     OW17167   2.714   3.587   3.724  0.4114  0.0535 -0.0799
 2163SOL    HW117168   2.623   3.587   3.682  0.5026 -0.2590 -0.2777
 2163SOL    HW217169   2.782   3.561   3.655  0.2734 -2.9224  0.8749
 2164SOL     OW17170   4.534   3.608   3.357 -0.3148 -0.1692  0.2541
 2164SOL    HW117171   4.496   3.582   3.269  1.7753  0.8113 -0.9756
 2164SOL    HW217172   4.505   3.543   3.427  0.7864 -2.9338 -1.8105
 2165SOL     OW17173   9.621   4.790   2.082  0.1749  0.1294  0.3353
 2165SOL    HW117174   9.677   4.857   2.131 -0.7951  1.3826 -0.2282
 2165SOL    HW217175   9.586   4.722   2.146 -0.7839  1.5451  1.3579
 2166SOL     OW17176   7.316   0.693   3.075 -0.3533  0.4223 -0.6647
 2166SOL    HW117177   7.220   0.679   3.100 -0.3798  1.6394 -0.0806
 2166SOL    HW217178   7.373   0.690   3.158 -0.2543  2.8227 -0.6178
 2167SOL     OW17179   0.695   8.515   0.929 -0.1083 -0.5950  0.4393
 2167SOL    HW117180   0.624   8.502   0.998 -0.6195 -0.4003 -0.0415
 2167SOL    HW217181   0.754   8.434   0.926 -0.7947 -1.1024  0.2922
 2168SOL     OW17182   7.373   0.278   0.957  0.8515 -0.3179 -0.5666
 2168SOL    HW117183   7.452   0.336   0.938  1.1885 -1.0021 -1.2951
 2168SOL    HW217184   7.394   0.214   1.031  0.9729 -0.4847 -0.7453
 2169SOL     OW17185   8.386   8.645   0.631  0.7646 -0.7968  0.7454
 2169SOL    HW117186   8.464   8.583   0.644  1.6365 -0.1390 -1.1142
 2169SOL    HW217187   8.419   8.739   0.625  0.1801 -0.7336 -2.7195
 2170SOL     OW17188   3.324   4.934   2.726 -0.0635  0.0046  0.5785
 2170SOL    HW117189   3.407   4.895   2.685 -1.9108 -1.6941 -1.6586
 2170SOL    HW217190   3.349   5.017   2.777  2.9597 -0.2749 -0.3072
 2171SOL     OW17191   3.845   4.779   2.227 -0.3919  0.4327  0.1516
 2171SOL    HW117192   3.907   4.824   2.162 -0.9327  2.6777  1.1227
 2171SOL    HW217193   3.869   4.682   2.235 -0.2087  0.1254 -3.2499
 2172SOL     OW17194   0.437   4.933   2.483 -0.0169 -0.0910  0.3694
 2172SOL    HW117195   0.518   4.953   2.538 -1.0031 -1.2588  2.3153
 2172SOL    HW217196   0.355   4.960   2.533 -0.9188 -0.6766 -0.7637
 2173SOL     OW17197   1.217   8.510   1.937 -0.8594 -0.2773  0.1981
 2173SOL    HW117198   1.305   8.525   1.981 -1.2606 -0.1022  0.9354
 2173SOL    HW217199   1.222   8.541   1.842 -0.0405 -0.5355  0.1542
 2174SOL     OW17200   0.049   3.339   3.681 -0.4849 -0.4709  0.1261
 2174SOL    HW117201   0.030   3.253   3.728 -0.3180 -0.0919  0.8877
 2174SOL    HW217202  -0.027   3.402   3.693 -0.4211 -0.3531 -0.0698
 2175SOL     OW17203   9.243   1.336   1.593 -0.2255  0.4699 -0.8370
 2175SOL    HW117204   9.342   1.341   1.579  0.0594 -2.5282 -0.0221
 2175SOL    HW217205   9.222   1.266   1.660 -3.0397 -0.2624 -2.4167
 2176SOL     OW17206   2.260   3.137   0.195 -0.3453  0.2128  0.2890
 2176SOL    HW117207   2.192   3.205   0.169 -0.3615  0.4257  0.9001
 2176SOL    HW217208   2.352   3.171   0.174 -0.2998  0.7880  1.4380
 2177SOL     OW17209   7.896   9.063   1.449 -0.4709 -0.1046 -0.5360
 2177SOL    HW117210   7.978   9.119   1.460  0.4320 -1.2253 -1.4497
 2177SOL    HW217211   7.891   9.030   1.354 -2.8975  1.3951 -0.9696
 2178SOL     OW17212   9.937   4.092   4.333  0.3878 -0.3632 -0.1114
 2178SOL    HW117213   9.921   3.995   4.351  0.6135 -0.6124 -1.2121
 2178SOL    HW217214   9.859   4.145   4.365 -0.7346 -1.1375 -1.5534
 2179SOL     OW17215   1.305   5.521   2.422 -0.0306  0.1939 -0.6794
 2179SOL    HW117216   1.310   5.560   2.330  0.9299  0.4300 -0.5341
 2179SOL    HW217217   1.245   5.441   2.421 -2.2141  1.7819 -0.9334
 2180SOL     OW17218   6.899   8.357   2.457  0.2590  0.8467  0.7966
 2180SOL    HW117219   6.941   8.267   2.468  1.8861  1.2735 -1.4425
 2180SOL    HW217220   6.851   8.361   2.369 -0.8202  1.7729  1.4160
 2181SOL     OW17221   9.652   1.886   0.685 -0.1169  0.8480  0.8355
 2181SOL    HW117222   9.724   1.923   0.744  0.2341 -0.6461  1.3527
 2181SOL    HW217223   9.614   1.803   0.725  1.2767 -1.1746 -1.8084
 2182SOL     OW17224   2.832   3.148   1.074 -0.6673 -0.2428  0.4795
 2182SOL    HW117225   2.830   3.241   1.039 -2.2599 -0.7363 -0.7964
 2182SOL    HW217226   2.762   3.137   1.146 -0.4146 -0.4245  0.7009
 2183SOL     OW17227   1.247   3.063   2.378 -0.5627 -0.1427 -0.0181
 2183SOL    HW117228   1.178   3.112   2.431 -0.7491  0.8078 -1.1286
 2183SOL    HW217229   1.321   3.125   2.354  2.5845 -1.9926  4.3209
 2184SOL     OW17230   7.880   6.926   3.980  0.5017  0.3146 -0.6019
 2184SOL    HW117231   7.876   6.828   4.001  0.8426  0.4727  0.2434
 2184SOL    HW217232   7.974   6.951   3.955  0.4391  0.4402 -0.7102
 2185SOL     OW17233   3.227   8.950   2.405 -0.3348  0.6129 -0.6970
 2185SOL    HW117234   3.299   8.966   2.337 -0.1318  1.1377 -0.3696
 2185SOL    HW217235   3.198   8.855   2.402  0.8318  0.2397 -0.3972
 2186SOL     OW17236   0.739   6.132   3.652 -0.0805 -0.4724 -0.2584
 2186SOL    HW117237   0.712   6.205   3.716 -2.5714  0.0315 -1.8016
 2186SOL    HW217238   0.806   6.168   3.587  0.2333 -0.1348  0.2484
 2187SOL     OW17239   7.071   9.482   3.208 -0.6882 -0.4494 -0.6488
 2187SOL    HW117240   7.104   9.491   3.114  0.3619  0.8247 -0.1789
 2187SOL    HW217241   7.144   9.446   3.266 -0.6275  0.8566  0.0987
 2188SOL     OW17242   3.891   9.911   0.829 -0.3544 -0.0210  0.4973
 2188SOL    HW117243   3.956   9.835   0.841 -0.7993 -0.4312  0.3388
 2188SOL    HW217244   3.938   9.998   0.843 -0.2773 -0.3816  2.6567
 2189SOL     OW17245   0.704   2.720   1.267  0.2052 -0.0747  0.4901
 2189SOL    HW117246   0.745   2.811   1.275 -1.0848  0.6754 -1.1882
 2189SOL    HW217247   0.695   2.695   1.171 -1.1193 -1.1978  0.8849
 2190SOL     OW17248   9.825   7.003   1.989 -0.2096 -0.5549 -0.5764
 2190SOL    HW117249   9.751   6.942   1.961 -1.1452  0.9966 -1.5634
 2190SOL    HW217250   9.787   7.093   2.012  1.3170  0.1282 -0.6722
 2191SOL     OW17251   9.163   8.158   4.186 -0.0877 -0.4462 -0.0804
 2191SOL    HW117252   9.162   8.146   4.086  1.1354 -1.1986 -0.0117
 2191SOL    HW217253   9.079   8.203   4.215 -1.0079 -1.3249 -1.3235
 2192SOL     OW17254   0.010   1.903   3.234  0.1504 -0.5363  0.7999
 2192SOL    HW117255  -0.014   1.938   3.324 -0.3975 -0.8154  0.7600
 2192SOL    HW217256   0.064   1.819   3.244  0.3092 -0.4247  0.8730
 2193SOL     OW17257   0.862   3.360   4.573 -0.3491 -0.6054 -0.3477
 2193SOL    HW117258   0.821   3.443   4.535 -0.8863 -0.5349  0.3869
 2193SOL    HW217259   0.926   3.321   4.507  1.2433  1.3779 -0.0391
 2194SOL     OW17260   0.868   0.857   3.122  0.2011 -0.0740  0.2664
 2194SOL    HW117261   0.886   0.905   3.208  0.9207 -0.1958  0.1879
 2194SOL    HW217262   0.923   0.898   3.050  1.4426 -1.5219  0.3597
 2195SOL     OW17263   0.040   1.524   4.313 -0.1247 -0.2428 -0.1628
 2195SOL    HW117264  -0.005   1.607   4.279 -1.3054 -0.5505  0.6283
 2195SOL    HW217265   0.063   1.535   4.410  1.6847 -0.0241 -0.5914
 2196SOL     OW17266   6.821   0.619   3.022  0.1342 -0.0557  0.1773
 2196SOL    HW117267   6.800   0.568   2.938  1.8617 -1.1849  0.4019
 2196SOL    HW217268   6.766   0.582   3.097 -1.5537  1.0813 -0.4764
 2197SOL     OW17269   0.638   4.198   2.707  0.0721 -0.2901 -0.0691
 2197SOL    HW117270   0.619   4.217   2.803 -2.0832  1.5981 -0.8293
 2197SOL    HW217271   0.579   4.124   2.675  0.9188 -1.0454  0.0704
 2198SOL     OW17272   1.355   7.372   3.125 -0.1477 -0.8180  0.5290
 2198SOL    HW117273   1.361   7.315   3.043  1.6008  0.4551 -0.2811
 2198SOL    HW217274   1.444   7.416   3.141 -1.3506  1.4077  1.2855
 2199SOL     OW17275   2.593   3.414   0.673 -0.8991  0.4800  0.6774
 2199SOL    HW117276   2.592   3.319   0.705 -0.7082  0.6383  1.1563
 2199SOL    HW217277   2.613   3.416   0.575  1.9487  0.1702  1.2002
 2200SOL     OW17278   4.696   3.300   2.624 -0.2430 -0.2296 -0.2249
 2200SOL    HW117279   4.716   3.366   2.552 -2.7505 -0.1926 -0.9496
 2200SOL    HW217280   4.770   3.233   2.630 -0.0812 -0.3431 -2.9807
 2201SOL     OW17281   3.513   8.718   4.359  0.7045 -0.0475 -0.5848
 2201SOL    HW117282   3.598   8.758   4.324  1.2416 -1.8133 -1.3660
 2201SOL    HW217283   3.533   8.632   4.404 -0.6087 -0.1709 -0.2225
 2202SOL     OW17284   1.748   0.305   0.869 -0.2307 -0.2462 -0.6657
 2202SOL    HW117285   1.686   0.344   0.801  1.7838  3.3676 -0.5470
 2202SOL    HW217286   1.695   0.262   0.942 -2.4892  0.3260 -1.9300
 2203SOL     OW17287   1.576   2.044   2.152  0.6070  0.8967  0.0813
 2203SOL    HW117288   1.635   2.124   2.148  3.0821 -0.8076  1.0614
 2203SOL    HW217289   1.633   1.961   2.154 -1.7990 -0.7667  1.9443
 2204SOL     OW17290   1.078   7.465   2.906  0.7275  0.0202  0.4425
 2204SOL    HW117291   1.118   7.392   2.961  2.1045  0.9252  0.6734
 2204SOL    HW217292   1.126   7.551   2.925  1.3312  0.3111 -2.3099
 2205SOL     OW17293   3.167   0.169   0.478  0.2399 -0.2936 -0.5481
 2205SOL    HW117294   3.114   0.253   0.473 -0.2934 -0.4258  2.1672
 2205SOL    HW217295   3.263   0.189   0.455  0.5876  1.5527  2.2488
 2206SOL     OW17296   0.902   2.545   0.263  0.3154  0.3029  0.2991
 2206SOL    HW117297   0.926   2.448   0.262  2.0141  0.6959  1.1382
 2206SOL    HW217298   0.982   2.599   0.291 -0.6399  1.9360 -0.0523
 2207SOL     OW17299   1.976   9.344   4.156  0.6839 -0.3194 -0.0649
 2207SOL    HW117300   1.879   9.367   4.168  1.0594  0.7178  1.0961
 2207SOL    HW217301   2.030   9.428   4.150  1.4643 -0.8891 -1.1502
 2208SOL     OW17302   3.488   9.029   0.870  0.7189  0.0980  0.6011
 2208SOL    HW117303   3.547   9.102   0.836  1.6797 -0.8794  0.1398
 2208SOL    HW217304   3.463   8.969   0.794 -1.1167  0.6597  0.7308
 2209SOL     OW17305   8.081   8.367   2.017 -0.5822  0.1560  1.0321
 2209SOL    HW117306   8.077   8.288   1.956  0.7714  2.1103 -1.7208
 2209SOL    HW217307   8.014   8.356   2.091  0.3832 -4.0264  1.3682
 2210SOL     OW17308   2.604   1.229   4.516 -0.0570 -0.8347 -0.1763
 2210SOL    HW117309   2.624   1.316   4.473 -1.4093 -0.3182  0.2174
 2210SOL    HW217310   2.682   1.201   4.573 -0.0765  0.7041  0.6415
 2211SOL     OW17311   5.720   7.221   2.488 -0.6958 -0.1166  0.9170
 2211SOL    HW117312   5.674   7.186   2.407 -1.2984 -1.1696  1.6840
 2211SOL    HW217313   5.810   7.178   2.497 -0.7088 -0.1454  0.9077
 2212SOL     OW17314   9.338   8.246   1.776 -0.3444 -0.0711  0.2232
 2212SOL    HW117315   9.282   8.287   1.703  0.6052 -0.7898 -0.9325
 2212SOL    HW217316   9.303   8.275   1.865 -0.9212  1.6111 -0.5329
 2213SOL     OW17317   1.161   4.865   1.434  0.6072 -0.2618  0.1423
 2213SOL    HW117318   1.182   4.902   1.344 -2.5557 -1.1154 -1.0314
 2213SOL    HW217319   1.238   4.880   1.495  2.1979  1.7824 -2.2472
 2214SOL     OW17320   0.968   7.572   2.565  0.6047 -0.5508  0.3257
 2214SOL    HW117321   0.955   7.594   2.662  1.1655  1.1935  0.0170
 2214SOL    HW217322   0.974   7.656   2.512  0.2147 -1.5029 -1.2521
 2215SOL     OW17323   9.379   1.073   2.739  0.2906  0.2770  0.3756
 2215SOL    HW117324   9.386   1.167   2.706 -0.9389  0.7136  1.3040
 2215SOL    HW217325   9.448   1.016   2.694  1.1779  1.6600 -0.0444
 2216SOL     OW17326   8.469   6.392   1.192  0.0861  0.5939 -0.1464
 2216SOL    HW117327   8.567   6.414   1.191  0.1569  0.3638  0.8804
 2216SOL    HW217328   8.419   6.461   1.139  0.7110  1.2110  0.0491
 2217SOL     OW17329   7.657   0.413   0.352  0.0534 -0.3614 -0.2905
 2217SOL    HW117330   7.666   0.413   0.452 -1.4490  0.5569 -0.1408
 2217SOL    HW217331   7.660   0.507   0.318  1.4111 -0.7338 -1.1932
 2218SOL     OW17332   1.453   2.807   4.355  0.5365  0.4040  0.0084
 2218SOL    HW117333   1.362   2.827   4.392  0.0144  2.0084 -2.0535
 2218SOL    HW217334   1.459   2.709   4.335 -0.5802  0.2001  0.5927
 2219SOL     OW17335   8.510   5.207   0.758  0.4235  0.6209 -0.1467
 2219SOL    HW117336   8.502   5.235   0.662 -1.5309  2.2315  0.4699
 2219SOL    HW217337   8.519   5.288   0.816 -0.0848 -0.2657  1.1901
 2220SOL     OW17338   1.200   5.223   4.354 -0.0589 -0.1927 -0.4152
 2220SOL    HW117339   1.212   5.322   4.360  0.6246 -0.0801 -2.8798
 2220SOL    HW217340   1.103   5.202   4.339 -0.2219  0.1025  0.2388
 2221SOL     OW17341   4.595   1.192   0.616  0.2372 -0.0070  0.3982
 2221SOL    HW117342   4.547   1.124   0.672  2.3799  0.3591  2.7695
 2221SOL    HW217343   4.566   1.284   0.641  1.2169  0.1622  0.9440
 2222SOL     OW17344   1.107   2.755   1.582 -0.2706 -0.0185 -0.0350
 2222SOL    HW117345   1.122   2.697   1.502 -1.2069  0.0961 -0.2960
 2222SOL    HW217346   1.034   2.716   1.638 -0.9543  0.9424 -0.2519
 2223SOL     OW17347   0.270   7.007   4.454 -0.1280  0.3805 -0.3421
 2223SOL    HW117348   0.319   6.941   4.511 -1.6111  0.4814  1.1052
 2223SOL    HW217349   0.199   6.959   4.402 -1.5489  0.8726  1.1037
 2224SOL     OW17350   3.205   7.384   2.366 -0.3466 -0.0706 -1.2128
 2224SOL    HW117351   3.155   7.297   2.368 -1.0700  0.3469  0.2004
 2224SOL    HW217352   3.149   7.455   2.409  1.2779  0.5162 -0.0037
 2225SOL     OW17353   8.787   0.833   0.880  0.0049  0.4510  0.1030
 2225SOL    HW117354   8.731   0.788   0.810 -1.4571  1.7906  0.3720
 2225SOL    HW217355   8.783   0.932   0.867  0.4296  0.6719  1.5430
 2226SOL     OW17356   3.898   3.815   1.327 -0.4718 -0.1283  0.1010
 2226SOL    HW117357   3.964   3.865   1.382  0.1889 -2.5146  1.5652
 2226SOL    HW217358   3.807   3.824   1.368 -0.4456  0.2692  0.0739
 2227SOL     OW17359   3.495   3.068   0.826  0.0641  0.2312  0.3633
 2227SOL    HW117360   3.570   3.060   0.891 -0.2548  1.9724  0.9581
 2227SOL    HW217361   3.510   3.146   0.766  0.3234 -1.3188 -1.6581
 2228SOL     OW17362   2.580   2.666   1.269  0.1310  0.2858 -0.6068
 2228SOL    HW117363   2.598   2.664   1.367  0.1819  1.7009 -0.5753
 2228SOL    HW217364   2.624   2.746   1.229  0.1696 -0.3236 -1.7980
 2229SOL     OW17365   3.169   5.796   0.333 -0.3615 -0.0776 -0.2435
 2229SOL    HW117366   3.125   5.829   0.250  2.0555  0.5893 -1.2815
 2229SOL    HW217367   3.126   5.838   0.413 -1.2512  0.9495 -1.2570
 2230SOL     OW17368   0.148   9.466   4.405 -0.2074  0.2011 -0.5794
 2230SOL    HW117369   0.074   9.533   4.413 -0.0167  0.4358 -0.7681
 2230SOL    HW217370   0.144   9.425   4.314 -0.4690 -0.2149 -0.3802
 2231SOL     OW17371   0.625   6.566   1.970  0.1690  0.0918 -0.2834
 2231SOL    HW117372   0.719   6.581   2.003  0.1813 -0.2275 -0.1794
 2231SOL    HW217373   0.601   6.470   1.979 -0.5111  0.3366  0.5748
 2232SOL     OW17374   1.573   5.002   1.209  0.0110 -0.0371 -0.6186
 2232SOL    HW117375   1.645   4.938   1.183  0.9884  0.9894 -0.4774
 2232SOL    HW217376   1.580   5.085   1.154  0.7566  1.2603  1.3621
 2233SOL     OW17377   1.946   3.360   2.254 -0.1978  0.1686 -0.2417
 2233SOL    HW117378   1.972   3.433   2.317  1.1871 -1.8831  1.6473
 2233SOL    HW217379   1.957   3.391   2.160 -1.7636  3.1006  0.4954
 2234SOL     OW17380   0.617   6.767   1.170  0.4896 -0.2694 -1.1016
 2234SOL    HW117381   0.678   6.758   1.249 -0.6338  0.6129 -0.1032
 2234SOL    HW217382   0.641   6.699   1.101  0.1984 -2.4531  0.8763
 2235SOL     OW17383   1.506   6.535   2.493  0.2266  0.3698 -0.0750
 2235SOL    HW117384   1.474   6.443   2.513  2.2711 -1.0439 -2.9508
 2235SOL    HW217385   1.572   6.564   2.563 -0.3372 -0.3590  0.7653
 2236SOL     OW17386   4.201   1.529   4.441  0.0432 -0.6336  0.6899
 2236SOL    HW117387   4.127   1.593   4.463 -0.2124 -0.8902  0.5768
 2236SOL    HW217388   4.162   1.441   4.413  0.3816 -0.5328 -0.1058
 2237SOL     OW17389   8.489   8.305   4.041 -0.2834  0.1429  0.0408
 2237SOL    HW117390   8.496   8.235   4.113 -3.0298  0.7366  0.9756
 2237SOL    HW217391   8.494   8.261   3.952 -1.3288 -1.1958  0.6144
 2238SOL     OW17392   8.271   4.291   3.866  0.1293  0.2901  0.0635
 2238SOL    HW117393   8.351   4.321   3.814  0.2178 -2.1372 -1.2684
 2238SOL    HW217394   8.188   4.313   3.816  0.0295  1.3463  0.6828
 2239SOL     OW17395   0.041   7.574   1.144 -0.3355  0.3296  0.2053
 2239SOL    HW117396  -0.018   7.567   1.225 -1.1644 -1.6103 -0.5517
 2239SOL    HW217397  -0.006   7.630   1.075 -0.0452  1.1716  0.6779
 2240SOL     OW17398   0.249   0.613   4.059 -0.1977 -0.4271 -0.1412
 2240SOL    HW117399   0.155   0.594   4.029 -0.3101 -0.2092  0.0664
 2240SOL    HW217400   0.248   0.637   4.156 -0.4609  3.4435 -1.0167
 2241SOL     OW17401   8.631   4.249   3.105  0.2849  0.5594  0.2104
 2241SOL    HW117402   8.702   4.203   3.157  0.1394  0.8896  0.7160
 2241SOL    HW217403   8.549   4.259   3.163 -0.6770 -1.0954 -0.8308
 2242SOL     OW17404   2.751   2.304   0.701  0.5120 -0.0672 -0.0129
 2242SOL    HW117405   2.847   2.277   0.693  0.5054 -0.3576  0.8179
 2242SOL    HW217406   2.707   2.298   0.611  1.1549 -0.3732 -0.3113
 2243SOL     OW17407   1.736   1.995   4.068 -0.8280 -0.1749 -0.2931
 2243SOL    HW117408   1.742   1.940   3.985 -1.8184  1.8951 -1.7892
 2243SOL    HW217409   1.644   2.034   4.076 -0.2585  0.9960  0.8653
 2244SOL     OW17410   6.720   8.733   1.742  0.9233 -0.6233 -0.0875
 2244SOL    HW117411   6.742   8.801   1.813 -0.3130  0.3485 -0.6210
 2244SOL    HW217412   6.755   8.765   1.654 -1.2540  0.2435 -0.6807
 2245SOL     OW17413   2.208   2.538   4.673  0.4455 -0.2152  0.2160
 2245SOL    HW117414   2.156   2.590   4.742  1.8894  1.9315 -0.2448
 2245SOL    HW217415   2.148   2.474   4.627 -1.2951  0.6586  1.2107
 2246SOL     OW17416   1.940   0.243   4.775  0.3852  0.2728  0.3072
 2246SOL    HW117417   1.857   0.298   4.779  1.5658  2.3170 -2.0618
 2246SOL    HW217418   2.014   0.291   4.821  1.2835  0.4391 -1.2744
 2247SOL     OW17419   7.439   9.591   0.203 -0.1245 -0.2532 -0.4917
 2247SOL    HW117420   7.467   9.668   0.259 -1.0192  0.3326 -0.8328
 2247SOL    HW217421   7.463   9.608   0.107 -3.2501  1.1114 -1.0931
 2248SOL     OW17422   0.390   1.762   0.587  0.4900 -0.2347 -0.7384
 2248SOL    HW117423   0.368   1.679   0.535 -0.3733 -0.4727 -0.0149
 2248SOL    HW217424   0.305   1.812   0.607  1.0016  0.7744 -1.0946
 2249SOL     OW17425   5.957   8.548   2.053 -0.6373  0.2851  0.3030
 2249SOL    HW117426   5.969   8.631   1.998 -0.6767 -1.5401 -2.5482
 2249SOL    HW217427   5.860   8.524   2.057 -0.5167 -0.2077  0.2639
 2250SOL     OW17428   9.412   1.084   4.760 -0.3588  0.2423  0.4758
 2250SOL    HW117429   9.321   1.047   4.779 -0.4139  0.5269  0.7707
 2250SOL    HW217430   9.412   1.182   4.779 -0.4091  0.5247 -0.9843
 2251SOL     OW17431   0.508   4.090   4.719  0.4581 -0.2628  0.0087
 2251SOL    HW117432   0.418   4.132   4.710  0.4926  0.2073  1.6074
 2251SOL    HW217433   0.530   4.040   4.636 -0.5099  1.0950 -1.0944
 2252SOL     OW17434   4.229   6.177   3.016  0.2233 -0.3594 -0.6596
 2252SOL    HW117435   4.296   6.103   3.024  1.1803  0.4313 -1.2778
 2252SOL    HW217436   4.240   6.240   3.093 -0.8702 -1.0740  0.0944
 2253SOL     OW17437   2.255   7.576   4.048 -0.7631 -0.2329  0.1781
 2253SOL    HW117438   2.293   7.487   4.024 -0.4352 -0.0505  0.0236
 2253SOL    HW217439   2.248   7.632   3.965 -1.5477 -0.3326  0.1696
 2254SOL     OW17440   1.649   9.936   4.260  0.3743 -0.3884  0.3155
 2254SOL    HW117441   1.553   9.964   4.260  0.3881 -0.3401  0.2381
 2254SOL    HW217442   1.690   9.959   4.172  0.2253 -1.2225  0.0347
 2255SOL     OW17443   1.110   3.677   3.825 -0.1332  0.4547 -0.1518
 2255SOL    HW117444   1.113   3.774   3.798 -1.3531  0.5052 -0.1176
 2255SOL    HW217445   1.198   3.635   3.803  0.4543  1.5986 -0.0574
 2256SOL     OW17446   0.083   7.336   0.409  0.0443 -0.0957 -0.2058
 2256SOL    HW117447   0.148   7.282   0.355 -0.1047 -0.9260  0.4294
 2256SOL    HW217448   0.019   7.274   0.454 -0.8881  0.6853 -0.4398
 2257SOL     OW17449   9.918   7.773   2.355 -0.6258 -0.2421  0.0178
 2257SOL    HW117450   9.870   7.792   2.441  0.5427 -0.5270  0.7565
 2257SOL    HW217451   9.985   7.846   2.339 -1.1633  0.0462 -0.8869
 2258SOL     OW17452   1.440   6.965   3.200  0.0339  0.4468 -0.1291
 2258SOL    HW117453   1.505   7.026   3.155  0.1755 -0.3928 -1.0826
 2258SOL    HW217454   1.488   6.886   3.238 -0.4059 -0.1480 -0.7843
 2259SOL     OW17455   2.339   1.580   4.362 -0.2106  0.3520 -0.5946
 2259SOL    HW117456   2.394   1.526   4.298 -0.0319  1.7320 -1.6126
 2259SOL    HW217457   2.249   1.538   4.371  0.4948 -1.0969 -0.0343
 2260SOL     OW17458   8.532   2.228   2.437  0.0502  0.3766  0.1592
 2260SOL    HW117459   8.433   2.218   2.444  0.0386  0.7121  0.5190
 2260SOL    HW217460   8.555   2.325   2.439  0.4750  0.2550  1.3787
 2261SOL     OW17461   4.789   0.994   1.964  0.3586  0.1043  0.3568
 2261SOL    HW117462   4.822   1.056   2.035  1.3011 -0.5579  0.5033
 2261SOL    HW217463   4.703   0.952   1.993 -0.6552  1.8405 -0.0283
 2262SOL     OW17464   0.615   8.457   3.350 -0.6753  0.3275 -0.1178
 2262SOL    HW117465   0.646   8.413   3.265 -0.9370  0.2359 -0.1659
 2262SOL    HW217466   0.693   8.501   3.395 -0.5574  0.4934 -0.4765
 2263SOL     OW17467   3.759   3.588   4.445 -0.4916 -0.2328 -0.2462
 2263SOL    HW117468   3.666   3.623   4.435 -0.2773  0.4753  0.2133
 2263SOL    HW217469   3.822   3.645   4.391 -0.1612  0.0107  0.3899
 2264SOL     OW17470   2.750   9.185   2.247 -0.0707 -0.4345  0.3304
 2264SOL    HW117471   2.725   9.280   2.230 -1.6765 -0.7702  0.7390
 2264SOL    HW217472   2.759   9.170   2.345  0.7877 -0.5643  0.2375
 2265SOL     OW17473   1.826   2.919   0.834 -0.0612 -0.0086 -0.4897
 2265SOL    HW117474   1.735   2.889   0.862  0.3037 -0.1931  0.4872
 2265SOL    HW217475   1.896   2.864   0.879  0.5319 -0.8244 -2.3318
 2266SOL     OW17476   9.108   1.211   2.582  0.3158 -0.1280 -0.4466
 2266SOL    HW117477   9.075   1.235   2.673 -1.4206 -2.1942 -0.4740
 2266SOL    HW217478   9.033   1.222   2.516  0.0766 -3.3652 -0.7852
 2267SOL     OW17479   4.394   9.997   1.716 -0.5290  0.2912  0.1600
 2267SOL    HW117480   4.296  10.015   1.722 -0.4458  0.9075 -0.2867
 2267SOL    HW217481   4.423   9.944   1.796 -1.4761 -1.0865 -0.3902
 2268SOL     OW17482   2.862   8.144   2.425  0.2673  0.2700  0.1643
 2268SOL    HW117483   2.866   8.203   2.505  0.5856  0.0280  0.3233
 2268SOL    HW217484   2.872   8.049   2.452 -0.1962  0.1413 -0.0998
 2269SOL     OW17485   2.291   9.165   3.518  0.3823 -0.2911  0.0245
 2269SOL    HW117486   2.256   9.104   3.447 -0.6773  1.1400 -0.7007
 2269SOL    HW217487   2.216   9.192   3.579  0.5484  1.4821 -0.5562
 2270SOL     OW17488   0.402   3.694   4.116 -0.0906 -0.8257 -0.1619
 2270SOL    HW117489   0.481   3.756   4.115 -2.2916  2.0775  0.0299
 2270SOL    HW217490   0.370   3.679   4.022 -0.7041 -0.1197 -0.0724
 2271SOL     OW17491   9.850   9.024   4.275  0.4194 -0.9695  0.5514
 2271SOL    HW117492   9.772   8.962   4.270  0.4797 -1.0225  0.2719
 2271SOL    HW217493   9.884   9.028   4.369 -2.0139  1.6190  1.3749
 2272SOL     OW17494   8.362   3.195   1.858  0.4776  0.1120 -0.7557
 2272SOL    HW117495   8.348   3.294   1.862  2.2598  0.3653 -0.2000
 2272SOL    HW217496   8.392   3.170   1.766  2.3572  0.4439 -0.2560
 2273SOL     OW17497   6.755   6.765   2.924 -0.2354 -0.1305  0.0661
 2273SOL    HW117498   6.785   6.719   3.008  0.1555  1.6474  0.9340
 2273SOL    HW217499   6.656   6.755   2.915 -0.0836 -1.6508 -0.0965
 2274SOL     OW17500   2.038   1.199   4.702  0.1943  0.2704  0.2107
 2274SOL    HW117501   2.112   1.173   4.765  2.0032 -0.4762 -2.1422
 2274SOL    HW217502   2.003   1.117   4.656 -0.4842  0.9022 -0.4056
 2275SOL     OW17503   0.878   5.897   3.143 -0.0560  0.3813 -0.3602
 2275SOL    HW117504   0.969   5.858   3.128  0.8316  1.6825  1.4425
 2275SOL    HW217505   0.813   5.824   3.165  1.2212 -0.2789  1.3557
 2276SOL     OW17506   3.362   7.990   0.202  0.0526  0.1013  0.2196
 2276SOL    HW117507   3.358   7.921   0.130  0.0310 -0.2658  0.5727
 2276SOL    HW217508   3.301   8.066   0.178  0.1347  0.0386 -0.2050
 2277SOL     OW17509   3.765   6.393   3.555  0.0128  0.1300  0.0486
 2277SOL    HW117510   3.799   6.479   3.593  0.3756 -0.4186  0.9912
 2277SOL    HW217511   3.840   6.327   3.552 -0.8098 -0.8996  1.5616
 2278SOL     OW17512   4.802   2.419   1.095 -0.3233  0.1663 -0.7686
 2278SOL    HW117513   4.792   2.479   1.016  0.3843  1.3907  0.0651
 2278SOL    HW217514   4.772   2.467   1.178 -3.9528 -2.0980 -0.6385
 2279SOL     OW17515   8.389   6.500   4.533 -0.1987 -0.3520  0.2899
 2279SOL    HW117516   8.353   6.526   4.622 -2.0529  0.2037 -0.6053
 2279SOL    HW217517   8.483   6.467   4.543  0.3580  1.7119  2.1611
 2280SOL     OW17518   4.444   1.827   0.699  0.3395  0.2643  0.2491
 2280SOL    HW117519   4.408   1.744   0.743  0.2133 -1.2712 -2.6029
 2280SOL    HW217520   4.372   1.897   0.697 -0.0855 -0.1284  1.2211
 2281SOL     OW17521   7.961   2.230   0.470  0.1924 -0.2146 -0.0152
 2281SOL    HW117522   7.915   2.149   0.431  1.1531 -1.0294  0.5309
 2281SOL    HW217523   7.901   2.272   0.537 -0.3227 -0.4666 -0.3096
 2282SOL     OW17524   9.650   5.335   4.297 -0.0551 -0.1542  0.0802
 2282SOL    HW117525   9.674   5.384   4.381 -2.0738  1.3513 -0.1872
 2282SOL    HW217526   9.552   5.314   4.298  0.0246 -0.6570 -1.6355
 2283SOL     OW17527   4.157   9.085   0.975 -0.0173  0.2712 -0.1857
 2283SOL    HW117528   4.132   9.066   0.880 -1.5142 -0.6221  0.3698
 2283SOL    HW217529   4.207   9.171   0.980 -0.2399  0.5039 -1.7349
 2284SOL     OW17530   8.493   1.559   3.671  0.1933  0.0982 -0.1383
 2284SOL    HW117531   8.412   1.615   3.655  0.5928 -0.0109 -2.6698
 2284SOL    HW217532   8.465   1.463   3.680  0.0502  0.0393 -1.1670
 2285SOL     OW17533   3.130   1.939   0.236  0.6051 -0.1380  0.4861
 2285SOL    HW117534   3.161   1.847   0.260  0.6651 -0.1033  0.5399
 2285SOL    HW217535   3.048   1.933   0.179  0.5187 -0.2204  0.6205
 2286SOL     OW17536   9.105   0.940   2.540 -0.4162 -0.4147 -0.1598
 2286SOL    HW117537   9.122   1.038   2.542  2.1495 -0.7863 -1.2492
 2286SOL    HW217538   9.103   0.905   2.634 -3.4286  0.9584  0.3323
 2287SOL     OW17539   8.265   9.794   2.748 -1.1048 -0.2845 -0.2103
 2287SOL    HW117540   8.308   9.709   2.717  1.2901  1.1294 -0.8769
 2287SOL    HW217541   8.325   9.840   2.813 -2.1873  1.1211 -0.1856
 2288SOL     OW17542   8.003   2.095   1.446  0.0832  0.2980 -0.0587
 2288SOL    HW117543   8.073   2.163   1.424 -0.3099  0.3710 -1.1109
 2288SOL    HW217544   7.932   2.097   1.376 -0.4214 -0.5298  0.4263
 2289SOL     OW17545   8.762   3.867   1.897  0.1537 -0.5520 -0.3387
 2289SOL    HW117546   8.741   3.944   1.957 -1.4784 -1.7539  0.6886
 2289SOL    HW217547   8.734   3.890   1.803  0.4810  0.4204 -0.2063
 2290SOL     OW17548   3.983   8.985   0.371 -0.1119 -0.4093  0.6299
 2290SOL    HW117549   3.918   8.935   0.428 -1.9368  0.3057 -0.7793
 2290SOL    HW217550   4.076   8.963   0.401 -0.7890 -4.7866 -0.0344
 2291SOL     OW17551   1.091   5.262   2.088  0.1509  0.3298 -0.1732
 2291SOL    HW117552   1.069   5.182   2.144  0.8056  0.2365 -0.0460
 2291SOL    HW217553   1.011   5.288   2.034 -0.1430 -0.2504 -0.0189
 2292SOL     OW17554   8.609   8.472   0.670  0.6801 -0.3604 -0.1532
 2292SOL    HW117555   8.561   8.450   0.755 -0.0221 -3.3671 -1.2704
 2292SOL    HW217556   8.707   8.477   0.689  0.3466  1.3994  1.2777
 2293SOL     OW17557   7.720   9.288   3.811  0.2827  0.5171 -0.3397
 2293SOL    HW117558   7.784   9.249   3.745  2.5603  2.5589  0.5740
 2293SOL    HW217559   7.675   9.368   3.772 -1.4862 -0.6790 -0.8373
 2294SOL     OW17560   4.115   2.569   1.717  0.1323  0.0412 -0.0771
 2294SOL    HW117561   4.028   2.574   1.668 -0.8650  1.0931  1.7405
 2294SOL    HW217562   4.176   2.506   1.669 -1.0361  0.5102 -2.2647
 2295SOL     OW17563   0.511   1.801   4.092 -0.1206 -0.3664  0.2287
 2295SOL    HW117564   0.505   1.716   4.041  0.2074  0.6920 -1.5979
 2295SOL    HW217565   0.602   1.841   4.080 -0.1454  0.0701  1.3924
 2296SOL     OW17566   3.587   6.528   3.350  0.7301 -0.6563 -0.6631
 2296SOL    HW117567   3.575   6.529   3.250  1.3443  0.1704 -0.7348
 2296SOL    HW217568   3.666   6.472   3.373  0.5503 -0.8981 -0.6380
 2297SOL     OW17569   9.297   0.645   0.509 -0.8529  0.2487 -1.0890
 2297SOL    HW117570   9.358   0.601   0.442 -0.4730  0.6156 -0.9883
 2297SOL    HW217571   9.323   0.742   0.518 -1.0412  0.2478 -0.5664
 2298SOL     OW17572   1.374   5.232   0.691  0.2114 -0.2761 -0.0074
 2298SOL    HW117573   1.445   5.299   0.713  0.0630 -0.6170  1.5678
 2298SOL    HW217574   1.295   5.247   0.750 -0.5112 -0.7426 -0.8419
 2299SOL     OW17575   3.099   6.252   1.871  0.1724  0.2244  0.6756
 2299SOL    HW117576   3.078   6.170   1.818  3.2624 -0.3874  0.2957
 2299SOL    HW217577   3.055   6.246   1.960 -0.8007 -1.1763  0.1153
 2300SOL     OW17578   8.944   3.123   0.409  0.4784  0.1354 -0.0481
 2300SOL    HW117579   8.884   3.096   0.334  0.0912  1.4029 -0.2216
 2300SOL    HW217580   8.895   3.188   0.468  1.2460  0.1937  0.5281
 2301SOL     OW17581   3.526   8.492   2.700 -0.2894  0.1781  0.2044
 2301SOL    HW117582   3.608   8.446   2.734 -0.2999 -0.5334 -0.7021
 2301SOL    HW217583   3.450   8.426   2.697 -0.2170  0.1391 -1.4448
 2302SOL     OW17584   1.619   5.436   3.223  0.3187  0.0729  0.0279
 2302SOL    HW117585   1.573   5.515   3.184  0.2159 -0.7408 -1.5357
 2302SOL    HW217586   1.713   5.460   3.246 -0.1786  1.0817  1.0462
 2303SOL     OW17587   3.270   3.189   0.191  0.5196  0.6638  0.8036
 2303SOL    HW117588   3.354   3.167   0.141 -0.0406 -0.9647  0.5326
 2303SOL    HW217589   3.234   3.105   0.233 -1.4932  1.1481  0.0930
 2304SOL     OW17590   3.562   5.677   1.842 -0.1440 -0.3475 -0.0040
 2304SOL    HW117591   3.584   5.597   1.898 -0.7541  0.1729  0.9946
 2304SOL    HW217592   3.497   5.650   1.771  0.0472 -0.8539  0.0096
 2305SOL     OW17593   8.659   5.281   4.011  0.0131  0.1710  0.0175
 2305SOL    HW117594   8.701   5.345   4.075  1.2473 -0.8906  0.2994
 2305SOL    HW217595   8.621   5.331   3.933  1.1541  1.2328  0.1205
 2306SOL     OW17596   8.021   8.715   1.764  0.2864  0.0852  0.5476
 2306SOL    HW117597   8.065   8.696   1.676  1.6343  1.5744  0.8807
 2306SOL    HW217598   7.952   8.786   1.752  0.1776 -0.0095  0.6124
 2307SOL     OW17599   0.470   0.571   0.101 -0.3432 -0.0949  0.1709
 2307SOL    HW117600   0.537   0.509   0.141  0.8231 -0.0868 -1.7143
 2307SOL    HW217601   0.510   0.662   0.091 -0.5872 -0.1160 -1.0679
 2308SOL     OW17602   4.508   4.739   1.961 -0.2404 -0.3468 -0.2708
 2308SOL    HW117603   4.457   4.759   1.877 -0.6070 -2.4152 -0.5652
 2308SOL    HW217604   4.486   4.647   1.992  2.8272 -1.0452 -0.0338
 2309SOL     OW17605   0.760   1.370   2.317  0.0164 -0.1110 -0.7387
 2309SOL    HW117606   0.724   1.459   2.347 -1.7382 -0.9761 -0.1820
 2309SOL    HW217607   0.686   1.303   2.316  1.0602 -1.2868 -2.3604
 2310SOL     OW17608   2.943   2.719   0.591  0.0440 -0.3637 -0.0777
 2310SOL    HW117609   2.869   2.786   0.600  1.2085  1.1883 -1.6579
 2310SOL    HW217610   2.973   2.691   0.682 -3.2047 -1.8773  0.5932
 2311SOL     OW17611   2.061   7.647   0.840 -0.2145 -0.5725 -0.7309
 2311SOL    HW117612   2.011   7.561   0.837  0.5062 -1.1054  1.6164
 2311SOL    HW217613   2.158   7.630   0.822 -0.0578 -0.2525 -0.1872
 2312SOL     OW17614   1.244   3.777   2.827 -0.2128  0.4455 -0.5656
 2312SOL    HW117615   1.150   3.805   2.811  0.1848  1.7444 -0.7005
 2312SOL    HW217616   1.300   3.858   2.846  0.6046 -0.4325  0.8766
 2313SOL     OW17617   8.714   6.145   2.124  0.0975  0.4001  0.5220
 2313SOL    HW117618   8.657   6.126   2.203  0.7512  2.1821  1.4409
 2313SOL    HW217619   8.672   6.218   2.069 -0.7835 -1.3828 -1.2556
 2314SOL     OW17620   9.401   2.406   2.246 -0.7798 -0.1456 -0.2899
 2314SOL    HW117621   9.417   2.365   2.336 -0.6742 -0.6636 -0.5444
 2314SOL    HW217622   9.307   2.387   2.218 -0.7078 -0.2810 -0.4406
 2315SOL     OW17623   3.311   4.174   0.056 -0.9417 -0.1406 -0.0150
 2315SOL    HW117624   3.273   4.198   0.146 -1.1667 -1.7888  0.3454
 2315SOL    HW217625   3.350   4.082   0.060 -0.7335 -0.1274 -1.5447
 2316SOL     OW17626   1.572   1.548   3.204 -0.1961  0.4695  0.5688
 2316SOL    HW117627   1.547   1.482   3.133  0.1810 -1.0011  1.7786
 2316SOL    HW217628   1.669   1.540   3.225 -0.0577  1.6883  0.4697
 2317SOL     OW17629   9.708   5.269   0.289 -0.0001 -0.1648  0.0883
 2317SOL    HW117630   9.654   5.208   0.347 -0.1156  0.9214  1.1739
 2317SOL    HW217631   9.734   5.350   0.343  0.4193  0.5780 -1.2134
 2318SOL     OW17632   3.199   4.430   1.253  0.0742 -0.2678  0.0687
 2318SOL    HW117633   3.147   4.345   1.243 -0.4308 -0.4030  3.1634
 2318SOL    HW217634   3.293   4.408   1.281  0.8486  0.1080 -2.1404
 2319SOL     OW17635   0.313   0.180   1.224 -0.2239 -0.3362 -0.4191
 2319SOL    HW117636   0.244   0.238   1.180 -1.8324 -1.3663  0.6892
 2319SOL    HW217637   0.283   0.157   1.317  2.6335  0.9750  0.8964
 2320SOL     OW17638   9.934   6.694   1.281 -0.0059  0.1169  0.0012
 2320SOL    HW117639   9.964   6.741   1.364 -3.6300 -0.7408  1.8664
 2320SOL    HW217640   9.945   6.596   1.293 -1.3122 -0.0611 -0.1623
 2321SOL     OW17641   0.682   4.084   0.925  0.0762 -0.1888 -0.1947
 2321SOL    HW117642   0.698   4.161   0.987  0.3299  0.5166 -1.1226
 2321SOL    HW217643   0.644   4.118   0.839 -0.3958 -1.1745 -0.3774
 2322SOL     OW17644   2.084   4.271   3.173 -0.4844 -0.2469  0.9969
 2322SOL    HW117645   2.104   4.173   3.172  0.1394 -0.1164 -0.7124
 2322SOL    HW217646   2.107   4.311   3.084 -2.0380  1.1864  1.2072
 2323SOL     OW17647   0.162   7.944   2.380 -0.0268 -0.4538 -0.2582
 2323SOL    HW117648   0.081   7.991   2.415 -0.5403  0.4601 -2.5928
 2323SOL    HW217649   0.233   8.012   2.359  0.8501 -1.1287  0.4442
 2324SOL     OW17650   2.707   3.072   2.033  0.6936 -0.0260 -0.0984
 2324SOL    HW117651   2.713   3.146   2.100  1.4713  0.1830 -0.3976
 2324SOL    HW217652   2.613   3.065   2.001  0.6335  0.9062 -0.1458
 2325SOL     OW17653   1.033   1.243   3.553 -0.0207 -0.3145  0.4227
 2325SOL    HW117654   0.940   1.256   3.586  0.3272  0.6906  1.0117
 2325SOL    HW217655   1.098   1.253   3.628  0.6050 -0.5490 -0.0700
 2326SOL     OW17656   9.546   0.095   4.199 -0.0271  0.3511  0.2195
 2326SOL    HW117657   9.477   0.079   4.130  0.9217  0.9791 -0.9012
 2326SOL    HW217658   9.503   0.124   4.284 -1.2539 -1.2346  0.1564
 2327SOL     OW17659   9.411   2.433   1.921  0.4236 -0.0740  0.0576
 2327SOL    HW117660   9.423   2.426   1.822 -0.9510 -1.5273 -0.0202
 2327SOL    HW217661   9.500   2.424   1.965  0.6960 -2.4321 -0.9117
 2328SOL     OW17662   1.966   3.747   0.614  0.2816 -0.2617  0.0435
 2328SOL    HW117663   2.017   3.726   0.697  0.6434  0.7223  0.0749
 2328SOL    HW217664   2.030   3.776   0.542 -0.2471  1.2814  0.1751
 2329SOL     OW17665   1.333   6.233   2.791 -0.2607  0.1604  0.1582
 2329SOL    HW117666   1.424   6.208   2.824 -1.0175 -1.9050  0.7921
 2329SOL    HW217667   1.333   6.233   2.691  0.1701 -0.9604  0.1444
 2330SOL     OW17668   8.193   8.667   4.093  0.3564  0.2920 -0.6787
 2330SOL    HW117669   8.198   8.738   4.163 -2.0878  0.6464 -0.8452
 2330SOL    HW217670   8.277   8.613   4.095  1.2749  1.7376  0.9755
 2331SOL     OW17671   9.145   7.270   3.489 -0.4236 -0.4109  0.3783
 2331SOL    HW117672   9.078   7.199   3.508 -0.5344 -0.0752  1.2565
 2331SOL    HW217673   9.208   7.237   3.418  0.5316 -2.0443  1.9232
 2332SOL     OW17674   3.467   7.613   2.352 -0.0243 -0.1915  0.0549
 2332SOL    HW117675   3.422   7.544   2.296  0.5732 -1.9861  1.7351
 2332SOL    HW217676   3.466   7.701   2.304  0.0600 -1.5581 -2.5173
 2333SOL     OW17677   9.061   6.705   0.563  0.3965  0.4303  0.5882
 2333SOL    HW117678   9.018   6.616   0.576  0.3300  0.7783  3.0947
 2333SOL    HW217679   8.992   6.777   0.574  0.7036  0.8397 -0.1245
 2334SOL     OW17680   2.880   7.800   0.747  0.1829  0.8053  0.6032
 2334SOL    HW117681   2.809   7.742   0.786 -0.0623  0.4149 -0.4182
 2334SOL    HW217682   2.969   7.774   0.784 -0.1939  1.3262  1.9215
 2335SOL     OW17683   0.372   6.859   2.991  0.1928  0.4440  0.6255
 2335SOL    HW117684   0.409   6.951   2.979 -0.2830  0.3698 -1.6573
 2335SOL    HW217685   0.440   6.801   3.037  1.5492  1.2098 -0.4006
 2336SOL     OW17686   6.476   0.536   2.744  0.2677  0.8788 -0.2377
 2336SOL    HW117687   6.477   0.532   2.844 -0.7465  1.5819 -0.1818
 2336SOL    HW217688   6.382   0.525   2.712  0.4787  1.4816 -1.0709
 2337SOL     OW17689   3.654   9.008   4.017  0.0510  0.0627  0.0358
 2337SOL    HW117690   3.556   9.030   4.011  0.0135 -0.4572 -1.4286
 2337SOL    HW217691   3.673   8.926   3.963  1.2921  0.1230  0.3717
 2338SOL     OW17692   9.523   0.337   3.147  0.3033 -0.3110  0.3595
 2338SOL    HW117693   9.438   0.287   3.158  0.2435  0.0251  1.5115
 2338SOL    HW217694   9.579   0.328   3.230  0.0897  1.8724  0.7892
 2339SOL     OW17695   9.391   9.862   3.284  0.6662 -0.6855 -0.0013
 2339SOL    HW117696   9.438   9.830   3.202  0.7382  0.0642 -0.2564
 2339SOL    HW217697   9.448   9.929   3.331  0.5169 -0.9239  0.5268
 2340SOL     OW17698   4.571   1.261   4.236 -0.1595  0.4788  0.3739
 2340SOL    HW117699   4.656   1.271   4.288  0.3792  0.4595 -0.5044
 2340SOL    HW217700   4.592   1.233   4.143 -1.2233 -1.3576  0.6508
 2341SOL     OW17701   5.426   4.685   1.069  0.2529  0.0258 -0.0339
 2341SOL    HW117702   5.488   4.608   1.060 -0.7465 -0.9634  1.3847
 2341SOL    HW217703   5.332   4.654   1.050 -0.1010  0.9662  0.1612
 2342SOL     OW17704   3.830   8.917   0.888 -0.5179  0.7040 -0.4207
 2342SOL    HW117705   3.929   8.904   0.894 -0.5926 -0.2768 -1.2363
 2342SOL    HW217706   3.787   8.832   0.859 -1.4369  1.6149 -1.7749
 2343SOL     OW17707   3.222   1.237   1.294  0.2210 -0.1019 -0.3331
 2343SOL    HW117708   3.307   1.187   1.281  0.8541 -0.0558  3.1964
 2343SOL    HW217709   3.160   1.218   1.217  2.9971 -0.8758 -2.4612
 2344SOL     OW17710   7.641   9.711   4.384 -0.2615  0.2579 -0.4071
 2344SOL    HW117711   7.605   9.754   4.467 -0.9423  0.3969 -0.7766
 2344SOL    HW217712   7.740   9.696   4.395 -0.2716  0.6538  0.2614
 2345SOL     OW17713   1.978   1.851   1.679 -0.0332 -0.1387 -0.2125
 2345SOL    HW117714   2.039   1.885   1.607 -1.0338  1.6022 -0.2760
 2345SOL    HW217715   1.902   1.915   1.691  0.2930 -0.2022  2.6397
 2346SOL     OW17716   3.640   7.979   0.611 -0.2460 -0.1031 -0.0924
 2346SOL    HW117717   3.725   8.033   0.610  0.0350 -0.5610 -1.3157
 2346SOL    HW217718   3.576   8.016   0.544 -1.3317  0.7330  1.3963
 2347SOL     OW17719   8.031   9.526   2.453  0.2112  0.1800  0.0030
 2347SOL    HW117720   8.087   9.535   2.371 -0.2532  1.1631 -0.2109
 2347SOL    HW217721   7.943   9.571   2.439  0.2093  0.5287  1.1071
 2348SOL     OW17722   9.556   6.946   4.705  0.0466 -0.2172 -0.1826
 2348SOL    HW117723   9.493   6.897   4.645 -0.5161 -0.9025  0.9613
 2348SOL    HW217724   9.520   7.038   4.722 -0.0794 -0.2192 -0.4283
 2349SOL     OW17725   7.748   2.340   3.006 -0.6966 -0.2554  0.2431
 2349SOL    HW117726   7.807   2.275   2.958 -0.5795  0.3265 -0.4109
 2349SOL    HW217727   7.663   2.353   2.955 -0.9463 -0.2930  0.6438
 2350SOL     OW17728   2.395   3.776   0.692 -0.1826  0.4442 -0.0919
 2350SOL    HW117729   2.467   3.845   0.706 -1.6439  2.1721 -0.9120
 2350SOL    HW217730   2.399   3.743   0.598 -0.8649  1.0249 -0.3283
 2351SOL     OW17731   6.845   9.938   1.722 -0.2511  0.3175 -0.1474
 2351SOL    HW117732   6.756   9.974   1.697 -2.0013 -3.7395 -0.0420
 2351SOL    HW217733   6.861   9.953   1.820 -0.7253  1.2020 -0.2047
 2352SOL     OW17734   0.119   8.128   0.004 -0.5038  0.0823  0.8471
 2352SOL    HW117735   0.058   8.146  -0.073 -1.4660 -0.1845  1.5480
 2352SOL    HW217736   0.205   8.178  -0.011 -0.7456  0.1858 -0.3044
 2353SOL     OW17737   1.194   4.750   4.532  0.8647 -0.8156 -0.0506
 2353SOL    HW117738   1.155   4.714   4.447 -0.3989  0.5230 -0.0545
 2353SOL    HW217739   1.238   4.839   4.513  1.2363 -0.8696  0.5556
 2354SOL     OW17740   9.951   3.472   1.597  0.1999  0.2345 -0.2067
 2354SOL    HW117741   9.957   3.501   1.693  2.0402 -2.4957  0.5502
 2354SOL    HW217742   9.919   3.378   1.593  0.3322  0.2662 -2.3037
 2355SOL     OW17743   4.311   2.779   3.901 -0.2517 -0.4440 -0.1791
 2355SOL    HW117744   4.406   2.798   3.876 -0.6562  0.4290 -1.0840
 2355SOL    HW217745   4.292   2.815   3.992 -0.0018  0.2902 -0.4181
 2356SOL     OW17746   1.220   5.367   2.880 -0.1864 -0.2454 -0.1924
 2356SOL    HW117747   1.197   5.289   2.821  1.2508 -1.2548  0.5576
 2356SOL    HW217748   1.250   5.444   2.823 -0.5477 -0.6049 -0.8749
 2357SOL     OW17749   1.200   6.076   2.087 -0.0128 -0.5859 -0.0102
 2357SOL    HW117750   1.235   6.003   2.145  0.9691  0.2445  0.4554
 2357SOL    HW217751   1.150   6.036   2.010  3.7153 -1.9600 -1.8769
 2358SOL     OW17752   1.834   5.547   0.997  0.2675  0.2906 -0.5601
 2358SOL    HW117753   1.760   5.510   0.941  0.7060  0.1615 -1.0639
 2358SOL    HW217754   1.870   5.630   0.955  0.9029 -0.0578 -0.7278
 2359SOL     OW17755   4.315   2.205   3.265 -0.8825  0.0422 -0.0549
 2359SOL    HW117756   4.368   2.232   3.185  0.4136  0.2863  0.8575
 2359SOL    HW217757   4.243   2.272   3.283 -0.7266  0.3545 -0.5933
 2360SOL     OW17758   0.785   8.055   4.055 -0.2158  0.8526  0.3691
 2360SOL    HW117759   0.750   8.149   4.065 -1.0338  0.4890  1.0202
 2360SOL    HW217760   0.884   8.056   4.062 -0.3133  1.4916  1.9893
 2361SOL     OW17761   2.352   7.704   3.815  0.7667  0.1496  0.2748
 2361SOL    HW117762   2.444   7.689   3.852  0.6389  0.4928  0.7451
 2361SOL    HW217763   2.351   7.789   3.762  1.3847 -1.2335 -2.0224
 2362SOL     OW17764   4.493   4.450   4.545 -0.1060  0.0451  0.4135
 2362SOL    HW117765   4.497   4.357   4.509  1.1834  0.0337  0.5596
 2362SOL    HW217766   4.548   4.511   4.487 -0.7484  0.6710  0.4505
 2363SOL     OW17767   1.081   3.365   2.345 -0.5581 -0.0410  0.2909
 2363SOL    HW117768   1.058   3.403   2.434  0.4397 -1.7430  1.3154
 2363SOL    HW217769   1.127   3.434   2.289  0.8531  0.4056  1.9529
 2364SOL     OW17770   0.007   7.675   2.958  0.0825  0.2717 -0.4636
 2364SOL    HW117771  -0.072   7.711   3.009  0.6444 -0.2010  0.7564
 2364SOL    HW217772  -0.024   7.638   2.871 -1.1002 -0.2391  0.1636
 2365SOL     OW17773   0.880   9.727   3.472 -0.4842  0.0540 -0.3330
 2365SOL    HW117774   0.846   9.754   3.562  0.1878  0.1987 -0.1261
 2365SOL    HW217775   0.818   9.763   3.402 -0.6873  0.4389  0.0403
 2366SOL     OW17776   4.877   8.963   2.139 -0.0373  0.4949  0.1274
 2366SOL    HW117777   4.812   9.033   2.169 -1.9447 -1.2095  0.0336
 2366SOL    HW217778   4.914   8.916   2.219  0.0727  0.5561  0.1125
 2367SOL     OW17779   2.228   1.773   1.265  0.0048  0.2315 -0.1467
 2367SOL    HW117780   2.285   1.770   1.347 -0.2447  0.5243  0.0407
 2367SOL    HW217781   2.150   1.711   1.276 -0.2517  0.5770  0.0099
 2368SOL     OW17782   2.254   6.299   3.337 -0.3946  0.2938 -0.1295
 2368SOL    HW117783   2.286   6.315   3.430 -0.3852 -2.9722  0.4779
 2368SOL    HW217784   2.155   6.316   3.332 -0.3464  0.7328  0.4139
 2369SOL     OW17785   3.148   8.317   1.145  0.4055 -0.0688 -0.1129
 2369SOL    HW117786   3.082   8.253   1.183 -1.3812  1.0365 -1.2664
 2369SOL    HW217787   3.104   8.373   1.075  2.0972  1.9229  0.3482
 2370SOL     OW17788   9.459   2.718   3.817  0.0013  0.1295  1.3528
 2370SOL    HW117789   9.449   2.769   3.902 -0.7519  0.2499  1.1938
 2370SOL    HW217790   9.397   2.755   3.748  0.2476 -0.2895  0.9005
 2371SOL     OW17791   0.718   7.410   1.477  0.2630  0.1858 -0.6731
 2371SOL    HW117792   0.706   7.362   1.390  1.0232 -1.4037  0.0823
 2371SOL    HW217793   0.682   7.355   1.552  1.7138  0.4807  0.2772
 2372SOL     OW17794   5.432   9.983   1.266 -0.2679 -0.8131 -0.6461
 2372SOL    HW117795   5.359   9.980   1.334 -1.5637  0.0276 -1.9719
 2372SOL    HW217796   5.511  10.030   1.304 -1.2032  0.1725  0.0939
 2373SOL     OW17797   8.247   6.894   2.021  0.0451 -0.3008  0.2147
 2373SOL    HW117798   8.292   6.812   1.985  0.3321  0.6071 -1.5131
 2373SOL    HW217799   8.225   6.956   1.946  0.8398  1.7213  1.6198
 2374SOL     OW17800   3.923   2.303   2.213 -0.1741  0.1471 -0.2619
 2374SOL    HW117801   4.020   2.288   2.232  0.1105  2.9606  0.7177
 2374SOL    HW217802   3.891   2.234   2.148  2.5656 -0.6094 -0.8730
 2375SOL     OW17803   7.837   2.599   2.060 -0.2963 -0.1025 -0.6507
 2375SOL    HW117804   7.829   2.655   1.978 -0.5125  1.3415  0.3379
 2375SOL    HW217805   7.933   2.590   2.085 -0.3485  1.0212 -0.0152
 2376SOL     OW17806   8.705   7.783   3.123 -0.3491  0.3715  0.3858
 2376SOL    HW117807   8.624   7.798   3.067 -0.7101  0.5915  0.9627
 2376SOL    HW217808   8.684   7.716   3.195 -0.1472  0.7420  0.7970
 2377SOL     OW17809   9.963   1.260   1.463  0.4423 -0.7975 -0.1886
 2377SOL    HW117810  10.017   1.292   1.541 -1.7297 -1.2799  1.5722
 2377SOL    HW217811   9.897   1.330   1.437  1.0780 -0.6840 -1.5586
 2378SOL     OW17812   8.162   0.634   4.519 -0.5575  0.2098 -0.1061
 2378SOL    HW117813   8.094   0.573   4.479 -0.2035  0.5577 -1.2697
 2378SOL    HW217814   8.209   0.683   4.446  1.1919 -0.2791  0.6735
 2379SOL     OW17815   3.531   9.794   2.074  0.5197  0.0407  0.2518
 2379SOL    HW117816   3.532   9.848   2.158  0.0364  1.0354 -0.3721
 2379SOL    HW217817   3.445   9.810   2.025  0.2441 -1.5274  0.2055
 2380SOL     OW17818   8.102   2.709   4.762 -0.3484  0.0480  0.0873
 2380SOL    HW117819   8.167   2.641   4.729 -0.4355 -0.1231  0.2718
 2380SOL    HW217820   8.148   2.798   4.770 -0.4822  0.2379 -1.1292
 2381SOL     OW17821   7.229   0.154   2.311 -0.0979 -0.1969 -0.6895
 2381SOL    HW117822   7.175   0.147   2.227 -0.1429 -1.5013 -0.5484
 2381SOL    HW217823   7.294   0.079   2.316 -0.6529 -0.5906  0.8391
 2382SOL     OW17824   2.029   6.340   4.218 -0.3229 -0.0813 -0.4437
 2382SOL    HW117825   2.032   6.241   4.227  0.9225 -0.0236 -0.1349
 2382SOL    HW217826   1.936   6.369   4.194 -0.6837 -1.3153 -0.5473
 2383SOL     OW17827   0.887   2.955   0.737 -0.1930 -0.0712 -0.0819
 2383SOL    HW117828   0.966   2.998   0.781 -0.0058 -0.5158  0.0245
 2383SOL    HW217829   0.884   2.981   0.641  1.1851 -1.5628 -0.5535
 2384SOL     OW17830   3.591   0.566   2.486  0.1554  0.1001 -0.8712
 2384SOL    HW117831   3.681   0.541   2.452  0.1633  0.7773 -1.3645
 2384SOL    HW217832   3.601   0.636   2.557 -0.0164  0.7522 -1.4780
 2385SOL     OW17833   7.412   0.754   2.528  0.2375 -0.3123  0.0086
 2385SOL    HW117834   7.460   0.787   2.610 -0.7653  1.1306  0.0392
 2385SOL    HW217835   7.326   0.803   2.519  0.4165 -0.3493 -2.0258
 2386SOL     OW17836   8.596   1.232   4.659 -0.2583 -0.0321 -1.0498
 2386SOL    HW117837   8.660   1.302   4.628 -0.6019 -0.9256 -3.8456
 2386SOL    HW217838   8.592   1.157   4.593 -1.9813 -1.4073  0.5326
 2387SOL     OW17839   2.082   1.473   4.416  0.2287  0.3460 -0.0871
 2387SOL    HW117840   2.020   1.451   4.490 -1.3938  0.7025 -1.3111
 2387SOL    HW217841   2.070   1.408   4.341 -0.4935  1.9167 -1.3578
 2388SOL     OW17842   1.995   0.683   1.379  0.8177  0.2255  0.0380
 2388SOL    HW117843   1.964   0.730   1.462 -0.7732  1.5156 -1.2309
 2388SOL    HW217844   1.923   0.621   1.347  1.3103 -0.0580 -0.5317
 2389SOL     OW17845   5.246   7.400   1.786 -0.8052  0.1386  0.0851
 2389SOL    HW117846   5.286   7.319   1.829 -1.9709 -0.1710  0.6126
 2389SOL    HW217847   5.222   7.380   1.691  1.1887  0.6312 -0.5485
 2390SOL     OW17848   4.269   8.156   2.998  0.0544 -0.1785  0.1661
 2390SOL    HW117849   4.327   8.237   2.986  1.1615 -1.2806 -2.3270
 2390SOL    HW217850   4.174   8.179   2.978  0.3358  0.5682 -0.3172
 2391SOL     OW17851   2.982   5.484   2.570  0.0228 -0.0753  0.1995
 2391SOL    HW117852   2.926   5.567   2.565 -0.0657 -0.1567 -0.1622
 2391SOL    HW217853   2.990   5.455   2.666  0.6701  0.7681  0.4116
 2392SOL     OW17854   2.798   7.509   3.906  0.1385 -0.0933  0.2683
 2392SOL    HW117855   2.814   7.411   3.915  0.8721  0.2031  2.2466
 2392SOL    HW217856   2.850   7.559   3.975  0.8338  1.8062 -1.5524
 2393SOL     OW17857   8.379   3.187   3.173  0.1105  0.5105 -1.1098
 2393SOL    HW117858   8.393   3.140   3.260  1.9208 -0.4848 -1.9057
 2393SOL    HW217859   8.300   3.248   3.180 -1.1556 -1.2732  0.5032
 2394SOL     OW17860   3.420   3.324   4.522 -0.1780  0.4582 -0.4202
 2394SOL    HW117861   3.366   3.243   4.546 -1.0284  1.3215  0.6304
 2394SOL    HW217862   3.374   3.406   4.557  0.4261  1.4426 -1.8690
 2395SOL     OW17863   8.583   3.808   4.027  0.1248  0.0508 -0.4022
 2395SOL    HW117864   8.612   3.744   3.956  0.2840  0.0722 -0.3569
 2395SOL    HW217865   8.485   3.824   4.019  0.1160 -0.0618 -0.5249
 2396SOL     OW17866   8.722   6.572   1.225  0.6320  0.4140  0.0243
 2396SOL    HW117867   8.657   6.630   1.274  0.8136  0.3608  0.3309
 2396SOL    HW217868   8.814   6.611   1.234  0.6713  0.3777 -0.2324
 2397SOL     OW17869   8.291   1.366   3.102 -0.9969 -0.4889  0.2695
 2397SOL    HW117870   8.325   1.454   3.070 -1.6409 -0.0993  0.6602
 2397SOL    HW217871   8.333   1.293   3.048 -0.5872  0.0612 -0.1632
 2398SOL     OW17872   0.280   7.160   3.979 -0.3133 -0.7221  0.1347
 2398SOL    HW117873   0.379   7.162   3.995 -0.6278 -0.7872  2.1819
 2398SOL    HW217874   0.243   7.252   3.993 -0.4939 -0.6024 -1.0681
 2399SOL     OW17875   7.071   9.802   3.520 -0.2984 -0.2878 -0.4310
 2399SOL    HW117876   7.014   9.777   3.442 -0.5973 -0.2950 -0.2156
 2399SOL    HW217877   7.111   9.893   3.505  0.4260 -0.6992 -1.0151
 2400SOL     OW17878   0.206   6.427   4.404  0.3380 -0.1398 -0.2666
 2400SOL    HW117879   0.146   6.400   4.480  1.4716 -1.5272  0.1608
 2400SOL    HW217880   0.183   6.373   4.323 -0.4896  0.9345 -0.7473
 2401SOL     OW17881   9.453   5.988   0.993  0.1111  0.2378  0.0239
 2401SOL    HW117882   9.459   6.080   1.032 -0.9042  0.1515  0.3812
 2401SOL    HW217883   9.526   5.931   1.032 -1.4124 -0.0896  2.4622
 2402SOL     OW17884   2.448   5.814   1.783  0.3477 -0.3547  0.3948
 2402SOL    HW117885   2.527   5.787   1.838  0.9466  1.9276  0.7097
 2402SOL    HW217886   2.477   5.830   1.689  0.3971  1.0313  0.6316
 2403SOL     OW17887   0.307   1.138   3.787 -0.2357  0.3872 -0.4162
 2403SOL    HW117888   0.228   1.188   3.823 -1.2825 -1.3720 -0.1987
 2403SOL    HW217889   0.277   1.048   3.756  1.9370 -0.8238  0.9215
 2404SOL     OW17890   8.962   8.391   2.123  0.2872  0.4931  0.3540
 2404SOL    HW117891   8.917   8.470   2.166 -0.7484 -0.1712  0.4984
 2404SOL    HW217892   8.961   8.404   2.024  0.8109  1.0281  0.4134
 2405SOL     OW17893   8.224   8.390   2.589 -0.5661  0.0849  0.3011
 2405SOL    HW117894   8.316   8.428   2.593 -0.2226 -0.9386  2.8243
 2405SOL    HW217895   8.157   8.462   2.608 -0.1892  0.3932  0.4538
 2406SOL     OW17896   2.010   9.746   1.283  0.2103 -0.2463 -0.3154
 2406SOL    HW117897   2.030   9.810   1.358 -0.6855  0.0001 -0.2793
 2406SOL    HW217898   2.094   9.727   1.233  0.9283 -0.8492  1.0885
 2407SOL     OW17899   0.740   2.105   2.389  0.0877 -0.5167 -0.4058
 2407SOL    HW117900   0.835   2.073   2.395  0.9165  1.9341  0.4352
 2407SOL    HW217901   0.712   2.109   2.293  0.8589 -1.1677 -0.6651
 2408SOL     OW17902   8.123   6.711   2.207  0.0926 -0.7374  0.1582
 2408SOL    HW117903   8.147   6.767   2.127 -0.5012 -0.2137  0.3399
 2408SOL    HW217904   8.034   6.741   2.243  1.4364  0.6835  2.4727
 2409SOL     OW17905   0.978   2.946   2.967 -0.0319 -0.0666 -0.1712
 2409SOL    HW117906   1.047   2.973   2.899  0.9052 -0.1242  0.7444
 2409SOL    HW217907   0.967   3.019   3.034  0.0665 -0.5874  0.4116
 2410SOL     OW17908   9.611   4.972   2.928  0.2727  0.4452 -0.3567
 2410SOL    HW117909   9.529   4.919   2.908  1.5242 -1.1705 -1.3420
 2410SOL    HW217910   9.619   5.047   2.862  0.7339 -0.7427 -1.7026
 2411SOL     OW17911   3.846   7.688   3.244 -0.1850  0.4914 -0.3028
 2411SOL    HW117912   3.792   7.772   3.257 -1.2271 -0.0212 -1.2834
 2411SOL    HW217913   3.888   7.690   3.153  1.9681  1.1611  0.6689
 2412SOL     OW17914   7.874   2.752   4.234 -0.3914  0.3604  0.0263
 2412SOL    HW117915   7.824   2.802   4.305  0.9361  1.7938 -0.0208
 2412SOL    HW217916   7.839   2.777   4.144  0.1569  1.0812  0.0124
 2413SOL     OW17917   2.904   5.102   3.279 -0.1389 -0.2596  0.6943
 2413SOL    HW117918   2.990   5.088   3.328  0.2880 -4.0330 -0.9079
 2413SOL    HW217919   2.918   5.083   3.181 -2.5858 -0.1162  0.2845
 2414SOL     OW17920   0.401   5.016   2.091  0.1593  0.5958  0.1470
 2414SOL    HW117921   0.357   5.106   2.089  1.4477  1.2315  0.1427
 2414SOL    HW217922   0.442   5.001   2.181 -0.0625 -0.0062  0.1535
 2415SOL     OW17923   5.502   8.560   2.404 -0.1717  0.4274  0.2547
 2415SOL    HW117924   5.487   8.622   2.327 -1.7726 -0.3599 -0.0638
 2415SOL    HW217925   5.511   8.466   2.371  1.0920  0.3157  0.8594
 2416SOL     OW17926   9.461   8.588   0.372  0.7549 -0.0626  0.6682
 2416SOL    HW117927   9.455   8.681   0.336  0.0301  0.2708  1.6237
 2416SOL    HW217928   9.369   8.552   0.388  1.0281  0.2645  3.3061
 2417SOL     OW17929   2.655   5.170   4.673 -0.6956 -0.0290 -0.3277
 2417SOL    HW117930   2.581   5.132   4.728 -1.4327  2.1249  0.2320
 2417SOL    HW217931   2.683   5.258   4.711 -0.1289  0.7493 -2.4560
 2418SOL     OW17932   2.317   1.132   0.664 -0.1641 -0.1282 -0.0078
 2418SOL    HW117933   2.224   1.099   0.680 -0.1700 -0.3792 -0.5309
 2418SOL    HW217934   2.345   1.191   0.739 -1.5559  1.7207 -0.9157
 2419SOL     OW17935   3.165   2.028   0.534  0.3028 -0.1186  0.4285
 2419SOL    HW117936   3.209   2.116   0.551 -1.4857  0.6347  1.2567
 2419SOL    HW217937   3.142   2.020   0.437 -0.1199  0.5961  0.4702
 2420SOL     OW17938   8.856   1.148   1.515  0.5527 -0.5054 -0.3727
 2420SOL    HW117939   8.786   1.212   1.484  0.6481  0.8756  2.1149
 2420SOL    HW217940   8.942   1.197   1.532  0.4959 -1.1457  1.9904
 2421SOL     OW17941   4.192   0.365   1.217 -0.3315  0.3030 -0.3874
 2421SOL    HW117942   4.281   0.409   1.225 -0.7458  1.2557 -0.8137
 2421SOL    HW217943   4.167   0.321   1.303  0.2101  0.6870 -0.0368
 2422SOL     OW17944   2.654   7.936   3.697  0.3271 -0.2981 -0.1136
 2422SOL    HW117945   2.706   7.866   3.648  1.3137  1.2492 -1.3379
 2422SOL    HW217946   2.557   7.925   3.677  0.4537 -1.3868 -0.1817
 2423SOL     OW17947   2.783   6.164   1.125 -0.3525 -0.1560 -0.0806
 2423SOL    HW117948   2.856   6.200   1.183  0.0513 -1.1926  0.0753
 2423SOL    HW217949   2.711   6.232   1.116  0.3598  0.6568  0.2535
 2424SOL     OW17950   1.079   5.046   0.457 -0.0372 -0.5612  0.4865
 2424SOL    HW117951   1.173   5.017   0.475 -0.4521 -1.6646  0.9288
 2424SOL    HW217952   1.067   5.065   0.359  0.3461 -1.5093  0.2563
 2425SOL     OW17953   8.022   7.905   2.045 -0.0634 -0.0777 -0.2617
 2425SOL    HW117954   8.058   7.915   1.953 -1.0828 -0.1824 -0.6835
 2425SOL    HW217955   8.052   7.982   2.101  0.7102 -0.1083 -0.6261
 2426SOL     OW17956   2.106   1.118   2.143  0.0907  0.9455 -0.0653
 2426SOL    HW117957   2.033   1.112   2.075 -1.7936  0.7909  1.9099
 2426SOL    HW217958   2.134   1.026   2.170 -1.3578  0.9893  1.6329
 2427SOL     OW17959   8.014   5.967   0.695  0.2452 -0.3245 -0.1661
 2427SOL    HW117960   8.096   5.911   0.710  0.4260 -0.3296 -1.1307
 2427SOL    HW217961   8.008   6.037   0.766  1.5120  0.1630 -0.5316
 2428SOL     OW17962   4.063   2.098   1.520 -0.1670  0.4913  0.0506
 2428SOL    HW117963   4.013   2.171   1.566  1.1121  1.5748 -0.2531
 2428SOL    HW217964   4.033   2.010   1.557 -0.3081  1.2622  1.8470
 2429SOL     OW17965   2.067   6.368   1.669  0.0030 -0.2451 -0.1485
 2429SOL    HW117966   1.973   6.378   1.701  0.5602 -1.6232  1.9988
 2429SOL    HW217967   2.099   6.456   1.632 -1.6494  0.6090  0.4087
 2430SOL     OW17968   2.963   0.270   3.626  0.2333  0.6022  0.0923
 2430SOL    HW117969   2.890   0.282   3.694  0.1473 -0.3340  0.1755
 2430SOL    HW217970   3.024   0.349   3.628 -0.9900  1.5702 -0.2380
 2431SOL     OW17971   8.444   8.767   2.901  0.0505 -0.2058  0.6778
 2431SOL    HW117972   8.522   8.794   2.957  1.0293  0.4663 -0.9656
 2431SOL    HW217973   8.466   8.681   2.854  0.2034  0.4642 -0.5130
 2432SOL     OW17974   8.288   4.926   2.844  0.2540  0.2700 -0.1368
 2432SOL    HW117975   8.329   4.835   2.857 -1.0190 -0.0728  1.6586
 2432SOL    HW217976   8.359   4.995   2.845  1.1038 -0.5873 -0.1788
 2433SOL     OW17977   9.639   3.140   2.768  0.0167  0.2541 -0.5020
 2433SOL    HW117978   9.702   3.096   2.833 -0.0502 -0.7586 -1.1100
 2433SOL    HW217979   9.681   3.223   2.733  1.6032 -1.1023 -1.9049
 2434SOL     OW17980   8.730   8.676   1.698 -1.0603 -0.3106 -0.3958
 2434SOL    HW117981   8.720   8.676   1.798 -0.1086 -1.5449 -0.2943
 2434SOL    HW217982   8.712   8.584   1.663  0.9791 -0.4520 -1.1175
 2435SOL     OW17983   3.281   9.126   3.710 -0.3445 -0.3742 -0.1940
 2435SOL    HW117984   3.247   9.178   3.632 -0.0251  1.1252  0.6583
 2435SOL    HW217985   3.204   9.082   3.757 -0.7671  0.4235 -0.1297
 2436SOL     OW17986   3.434   1.187   3.044 -0.2762 -0.0115  0.1865
 2436SOL    HW117987   3.510   1.230   3.093 -1.4763  1.3154  0.9150
 2436SOL    HW217988   3.452   1.089   3.034  2.1642  0.5008 -0.8617
 2437SOL     OW17989   1.046   0.962   1.768  0.1493  0.0092  0.6570
 2437SOL    HW117990   1.093   0.895   1.711  0.1422  0.4833  0.0827
 2437SOL    HW217991   1.102   0.983   1.848 -0.1658 -1.2068  1.2149
 2438SOL     OW17992   8.085   2.661   4.075 -0.1652 -0.1830 -0.3430
 2438SOL    HW117993   8.008   2.701   4.124 -0.1191  1.1515 -1.3384
 2438SOL    HW217994   8.060   2.569   4.044 -0.9362 -0.2176  0.3607
 2439SOL     OW17995   0.044   4.384   4.256  0.2461  0.0437  0.0494
 2439SOL    HW117996  -0.028   4.342   4.201 -1.2476  3.5572 -0.7814
 2439SOL    HW217997   0.133   4.348   4.227 -1.0077 -3.1681  0.0095
 2440SOL     OW17998   3.309   8.862   3.018 -0.1569 -0.5309  0.0590
 2440SOL    HW117999   3.307   8.951   2.974 -1.8714 -0.0456  1.0645
 2440SOL    HW218000   3.309   8.874   3.117 -0.7917 -1.6347  0.2039
 2441SOL     OW18001   0.308   3.189   0.149 -0.5678  0.0831  0.3052
 2441SOL    HW118002   0.259   3.277   0.154 -1.6108 -0.5324  1.0862
 2441SOL    HW218003   0.242   3.114   0.149  0.3650 -0.7594  1.0700
 2442SOL     OW18004   3.214   7.856   1.714 -0.3052  0.1347 -0.0103
 2442SOL    HW118005   3.222   7.877   1.616  1.4947 -1.0927 -0.1419
 2442SOL    HW218006   3.221   7.940   1.767  0.5965  0.5880 -0.8401
 2443SOL     OW18007   8.475   0.864   1.485 -0.3262 -0.2989 -0.0113
 2443SOL    HW118008   8.454   0.849   1.582  0.8276  1.0104  0.4586
 2443SOL    HW218009   8.445   0.955   1.458  0.3126 -0.2639 -0.6119
 2444SOL     OW18010   0.506   0.642   3.656  0.3723 -0.2006 -0.0205
 2444SOL    HW118011   0.599   0.606   3.662  0.9576  1.6218  2.3264
 2444SOL    HW218012   0.448   0.596   3.723  0.4770  1.2038  1.0620
 2445SOL     OW18013   9.296   1.750   4.352 -0.3256  0.3925  0.3031
 2445SOL    HW118014   9.197   1.763   4.338 -0.2463  0.7134  0.0328
 2445SOL    HW218015   9.331   1.688   4.282 -0.1483  1.0712 -0.2139
 2446SOL     OW18016   9.641   6.194   3.684 -0.1989 -0.6113 -0.0903
 2446SOL    HW118017   9.688   6.119   3.731 -0.5798 -0.5821  0.3404
 2446SOL    HW218018   9.561   6.159   3.637  0.1614 -0.6332 -0.6887
 2447SOL     OW18019   7.939   3.520   1.236 -0.1105  0.8227  0.3551
 2447SOL    HW118020   7.978   3.506   1.145 -0.0655  0.0800  0.4861
 2447SOL    HW218021   7.948   3.436   1.290  0.2811  1.3974  1.2008
 2448SOL     OW18022   2.089   3.437   1.444 -0.2884 -0.0720 -0.8627
 2448SOL    HW118023   2.129   3.351   1.411  0.0124 -0.1401 -0.3350
 2448SOL    HW218024   2.030   3.418   1.522 -0.8211  0.1124 -1.2231
 2449SOL     OW18025   9.205   8.613   1.780  0.1085  0.0628  0.1722
 2449SOL    HW118026   9.167   8.693   1.826 -0.2407  0.3225 -0.5659
 2449SOL    HW218027   9.296   8.593   1.817 -0.2425  0.1625  1.1007
 2450SOL     OW18028   2.598   7.833   3.297  0.3673 -0.6863 -0.4988
 2450SOL    HW118029   2.535   7.910   3.289 -1.3126 -2.0834 -1.2846
 2450SOL    HW218030   2.602   7.785   3.209  3.3492 -0.0387 -0.7656
 2451SOL     OW18031   1.271   5.356   4.771 -0.4671  0.0610  0.3687
 2451SOL    HW118032   1.269   5.456   4.776 -0.7365  0.0753  0.0020
 2451SOL    HW218033   1.350   5.327   4.716 -1.4412  0.1386 -1.0968
 2452SOL     OW18034   1.265   5.028   3.993 -0.4252 -0.7158 -0.5480
 2452SOL    HW118035   1.335   5.050   3.926 -0.0800  0.1418  0.0896
 2452SOL    HW218036   1.308   5.010   4.081 -0.9611 -0.7138 -0.2846
 2453SOL     OW18037   2.537   4.023   0.717  0.0156  0.1913 -0.2260
 2453SOL    HW118038   2.627   4.045   0.680  0.0178  0.6439  0.0505
 2453SOL    HW218039   2.492   4.106   0.749  0.0880 -0.2203  0.9592
 2454SOL     OW18040   4.293   7.447   3.837 -0.2769 -0.2266  0.6300
 2454SOL    HW118041   4.321   7.363   3.884  0.0801 -0.9078 -0.7685
 2454SOL    HW218042   4.338   7.525   3.879  1.8510 -1.0572 -0.0119
 2455SOL     OW18043   6.519   9.747   0.909  0.3381  0.1115 -0.0403
 2455SOL    HW118044   6.529   9.761   1.008 -1.7862 -3.4180  0.7655
 2455SOL    HW218045   6.607   9.718   0.870  0.2858 -2.4641  1.6249
 2456SOL     OW18046   3.400   1.305   0.934  0.0298  0.0209 -0.1663
 2456SOL    HW118047   3.305   1.310   0.903  0.4137 -0.7245 -1.4519
 2456SOL    HW218048   3.405   1.247   1.016 -0.3250 -1.5756 -1.2584
 2457SOL     OW18049   4.376   1.694   2.454  0.2970  0.1546  0.2017
 2457SOL    HW118050   4.354   1.598   2.435  2.3539 -0.3866  0.4158
 2457SOL    HW218051   4.334   1.722   2.540  0.7914 -0.9584  0.8121
 2458SOL     OW18052   2.081   5.885   3.844  0.1422  0.3351  0.2113
 2458SOL    HW118053   2.126   5.869   3.756  0.0802 -0.6176  0.3434
 2458SOL    HW218054   2.147   5.874   3.918 -0.4958 -2.1201  0.4742
 2459SOL     OW18055   2.765   8.351   1.139  0.1414  0.2604  0.1737
 2459SOL    HW118056   2.778   8.377   1.235 -2.5359 -0.3479  0.7180
 2459SOL    HW218057   2.811   8.264   1.122 -0.7608 -0.4461  1.3148
 2460SOL     OW18058   3.886   5.733   2.911 -0.3861  0.1847  0.3182
 2460SOL    HW118059   3.825   5.812   2.900 -0.7119  0.0540  1.1803
 2460SOL    HW218060   3.972   5.752   2.863 -0.8288  0.6601 -0.3081
 2461SOL     OW18061   4.156   1.737   0.215 -0.2094 -0.0609  0.5566
 2461SOL    HW118062   4.143   1.835   0.201 -1.4424 -0.1470  0.9943
 2461SOL    HW218063   4.252   1.718   0.236  0.1117  1.0020  0.0989
 2462SOL     OW18064   2.016   5.084   0.034  0.1042 -0.1436 -0.6169
 2462SOL    HW118065   2.048   4.993   0.010 -1.0328 -0.9097  0.6976
 2462SOL    HW218066   1.987   5.085   0.130 -0.4706  1.4316 -0.7888
 2463SOL     OW18067   2.979   8.442   3.146 -0.0420  0.2146 -0.0182
 2463SOL    HW118068   2.936   8.353   3.163  1.2716 -0.5912 -0.8195
 2463SOL    HW218069   2.915   8.501   3.097 -0.7022 -0.5142 -0.0416
 2464SOL     OW18070   0.855   6.364   2.237  0.1141  0.2661  0.3552
 2464SOL    HW118071   0.928   6.432   2.242 -1.5391  2.0383  0.6726
 2464SOL    HW218072   0.784   6.386   2.304 -0.7887 -1.3619 -0.0461
 2465SOL     OW18073   8.475   9.209   0.528 -0.1639 -0.7750 -0.1164
 2465SOL    HW118074   8.467   9.215   0.429  2.5176  0.0429 -0.3273
 2465SOL    HW218075   8.384   9.215   0.570 -1.2225 -0.1136 -2.4456
 2466SOL     OW18076   2.470   5.537   0.239  0.0776 -0.1718  0.2357
 2466SOL    HW118077   2.385   5.584   0.214  1.3070  2.3314  0.5843
 2466SOL    HW218078   2.454   5.438   0.241 -3.0856  0.2894  1.3036
 2467SOL     OW18079   8.164   7.024   2.274  0.0812  0.1941  0.4973
 2467SOL    HW118080   8.080   7.022   2.328 -0.3360  1.7779 -0.0502
 2467SOL    HW218081   8.153   6.969   2.192 -0.3171  0.1403  0.5854
 2468SOL     OW18082   2.726   8.986   1.382  0.3004  0.2364  0.1365
 2468SOL    HW118083   2.655   9.044   1.342  1.3007  2.2986  1.2815
 2468SOL    HW218084   2.725   8.897   1.337  0.2601  1.8748 -3.2804
 2469SOL     OW18085   0.546   6.962   1.345  0.0452  0.0024 -0.6600
 2469SOL    HW118086   0.510   6.910   1.422 -0.1125 -0.9571 -1.3618
 2469SOL    HW218087   0.552   6.902   1.265  3.6854 -0.0118 -0.4567
 2470SOL     OW18088   9.214   1.661   0.189  0.7606 -0.5260  0.3324
 2470SOL    HW118089   9.213   1.569   0.229 -1.2192 -1.6240 -2.1197
 2470SOL    HW218090   9.299   1.674   0.138  0.9924 -1.0520  0.5834
 2471SOL     OW18091   5.427   0.588   2.915 -0.1056 -0.0901  0.5373
 2471SOL    HW118092   5.376   0.542   2.842  2.2204 -0.7297 -0.7443
 2471SOL    HW218093   5.367   0.652   2.962 -1.7700  0.0419 -1.6862
 2472SOL     OW18094   9.369   1.440   0.337 -1.2032 -0.2517 -0.0661
 2472SOL    HW118095   9.281   1.423   0.382 -2.2068 -0.6836 -2.1551
 2472SOL    HW218096   9.431   1.484   0.403 -2.8455 -0.2403  1.5387
 2473SOL     OW18097   8.795   9.165   1.785  0.3820  0.1666  0.8320
 2473SOL    HW118098   8.697   9.156   1.804  0.7154 -0.5761  2.2532
 2473SOL    HW218099   8.845   9.174   1.871  1.6559 -0.4319  0.1686
 2474SOL     OW18100   5.454   8.861   2.455  0.2871 -0.0354  0.2745
 2474SOL    HW118101   5.416   8.803   2.383 -0.4397 -1.5663  1.8594
 2474SOL    HW218102   5.541   8.823   2.485  0.5243  0.5337  0.3147
 2475SOL     OW18103   1.481   4.591   3.075  0.5148 -0.1597 -0.1279
 2475SOL    HW118104   1.426   4.583   3.158  1.2744 -0.9694  0.2966
 2475SOL    HW218105   1.420   4.590   2.995 -0.0064 -2.5237  0.2694
 2476SOL     OW18106   8.947   0.990   1.761  0.1405  0.3210 -0.0690
 2476SOL    HW118107   8.891   1.009   1.680  0.4228 -0.7460 -0.5397
 2476SOL    HW218108   8.889   0.955   1.834 -0.0796  1.0392  0.1000
 2477SOL     OW18109   4.566   3.086   0.315 -0.6978  0.1144  0.6061
 2477SOL    HW118110   4.614   3.061   0.399 -0.8183 -2.3115 -0.0018
 2477SOL    HW218111   4.626   3.072   0.237 -1.7219 -1.0264  0.0036
 2478SOL     OW18112   2.785   4.227   1.305  0.1211  0.3980  0.2430
 2478SOL    HW118113   2.791   4.134   1.342 -0.2025  0.2363 -0.1110
 2478SOL    HW218114   2.863   4.244   1.245  0.1405  0.3284  0.2482
 2479SOL     OW18115   0.806   2.841   0.241  0.0705  0.4022  0.2529
 2479SOL    HW118116   0.837   2.751   0.270 -0.8166  1.1607  3.8702
 2479SOL    HW218117   0.881   2.907   0.252 -0.5059  0.8424  1.6721
 2480SOL     OW18118   8.704   8.230   1.149  0.2620 -0.1631  0.3541
 2480SOL    HW118119   8.625   8.275   1.190 -1.0978 -2.5737  0.4350
 2480SOL    HW218120   8.681   8.136   1.125  2.2952 -0.1008 -2.1017
 2481SOL     OW18121   1.848   8.231   3.908  0.1839  0.4930 -0.5677
 2481SOL    HW118122   1.887   8.288   3.835 -2.0393  0.8345 -1.5355
 2481SOL    HW218123   1.803   8.290   3.975 -0.7932 -0.0203 -0.7614
 2482SOL     OW18124   4.841   8.801   0.431 -0.1175  0.2213  0.1250
 2482SOL    HW118125   4.774   8.788   0.505  0.4921  1.0632  0.8292
 2482SOL    HW218126   4.836   8.723   0.369 -1.7208  0.2349  0.1987
 2483SOL     OW18127   1.845   8.649   3.558  0.1537  0.4254  0.4882
 2483SOL    HW118128   1.812   8.575   3.616  1.1339  0.0299  0.5466
 2483SOL    HW218129   1.789   8.731   3.573 -0.9438 -0.2987  0.4070
 2484SOL     OW18130   3.932   1.610   3.489  0.3401  0.1884 -0.2452
 2484SOL    HW118131   3.842   1.602   3.446 -0.3950 -0.5197  1.4005
 2484SOL    HW218132   3.957   1.524   3.531  1.5754  0.5399 -0.2289
 2485SOL     OW18133   0.456   0.435   1.233 -0.0168  0.1381  0.0759
 2485SOL    HW118134   0.363   0.400   1.221 -0.0093  0.1922 -0.1437
 2485SOL    HW218135   0.485   0.422   1.328 -0.2529  0.1309  0.1466
 2486SOL     OW18136   3.356   9.839   1.171  0.3306  0.2461 -0.1269
 2486SOL    HW118137   3.264   9.862   1.140  0.5218  1.6903  0.3361
 2486SOL    HW218138   3.377   9.744   1.147 -0.9059  0.2124 -1.0976
 2487SOL     OW18139   8.634   3.670   0.888 -0.5989 -0.0479  0.0590
 2487SOL    HW118140   8.587   3.596   0.840  0.4123 -0.5794 -0.1263
 2487SOL    HW218141   8.719   3.635   0.928  0.3998  1.2448 -0.8974
 2488SOL     OW18142   0.373   2.937   2.593 -0.9249  0.2361  0.1148
 2488SOL    HW118143   0.273   2.934   2.585 -0.8758 -1.0134 -0.2417
 2488SOL    HW218144   0.408   2.843   2.598  0.3222  0.6328 -0.9209
 2489SOL     OW18145   2.020   7.599   1.239 -0.6167  0.0323 -0.2618
 2489SOL    HW118146   1.937   7.646   1.209 -0.4646  0.4717  0.0015
 2489SOL    HW218147   2.058   7.645   1.319 -1.2217 -1.3331  0.8368
 2490SOL     OW18148   3.577   8.517   0.081 -0.1770  0.1180 -0.5524
 2490SOL    HW118149   3.559   8.509   0.179 -0.8545 -1.6288 -0.8068
 2490SOL    HW218150   3.612   8.609   0.061 -1.2172  0.9135  1.1411
 2491SOL     OW18151   8.929   3.130   4.196 -0.3066  0.3779  0.0701
 2491SOL    HW118152   8.990   3.077   4.255 -2.0078 -1.5120  0.1752
 2491SOL    HW218153   8.942   3.228   4.215  1.6781 -0.0366  1.0550
 2492SOL     OW18154   4.358   3.384   4.277 -0.1088  0.0011 -0.5336
 2492SOL    HW118155   4.392   3.413   4.187 -0.6362  0.1000 -0.7051
 2492SOL    HW218156   4.351   3.463   4.337  0.2830 -0.0718 -0.3962
 2493SOL     OW18157   2.010   3.568   0.348 -0.1110 -0.0777  0.1265
 2493SOL    HW118158   1.918   3.569   0.310 -0.3877 -1.0247  0.7742
 2493SOL    HW218159   2.010   3.522   0.437  0.9705 -0.0085  0.1752
 2494SOL     OW18160   8.063   2.833   4.479  0.1250 -0.3582 -0.4004
 2494SOL    HW118161   8.074   2.792   4.570 -3.1554  2.4232  1.3655
 2494SOL    HW218162   7.981   2.795   4.436 -0.2941  0.8840 -0.7073
 2495SOL     OW18163   2.853   5.736   4.736 -0.5147 -0.6962 -0.7704
 2495SOL    HW118164   2.828   5.639   4.733  1.5693 -1.4054  2.2383
 2495SOL    HW218165   2.943   5.748   4.695 -0.8619  0.0142 -1.3302
 2496SOL     OW18166   0.772   4.541   1.843  0.2185 -0.5222  0.4655
 2496SOL    HW118167   0.749   4.523   1.939  1.2104  1.8147  1.1814
 2496SOL    HW218168   0.872   4.543   1.833  0.1602  1.9296 -0.0221
 2497SOL     OW18169   6.241   7.862   2.744  0.6908  0.6612 -0.1788
 2497SOL    HW118170   6.243   7.935   2.813  0.9233  0.3768  0.1194
 2497SOL    HW218171   6.223   7.902   2.654  0.0240  0.9950  0.0977
 2498SOL     OW18172   0.384   5.534   2.696  0.3570  0.0788 -0.0100
 2498SOL    HW118173   0.396   5.554   2.599  0.8427 -2.1581 -0.4342
 2498SOL    HW218174   0.474   5.521   2.739  0.1082  0.0153  0.5002
 2499SOL     OW18175   7.378   6.565   2.718  0.1167  0.0648  0.9278
 2499SOL    HW118176   7.354   6.657   2.689  0.6720 -0.4194 -1.1278
 2499SOL    HW218177   7.296   6.519   2.754 -0.5242  0.7808  0.3813
 2500SOL     OW18178   1.375   2.405   1.577  0.3045 -0.5615  0.0624
 2500SOL    HW118179   1.398   2.463   1.499  0.7668 -0.7764  0.0375
 2500SOL    HW218180   1.276   2.404   1.589  0.3367  0.9969  0.6381
 2501SOL     OW18181   1.369   8.362   4.183 -0.2468  0.0508 -0.0474
 2501SOL    HW118182   1.442   8.304   4.219  0.0967 -0.4758 -1.5560
 2501SOL    HW218183   1.385   8.457   4.212  0.5885 -0.1958  0.3239
 2502SOL     OW18184   7.302   4.805   4.727  0.3257  0.6191 -0.5696
 2502SOL    HW118185   7.226   4.844   4.780  1.7337  0.9632  1.2758
 2502SOL    HW218186   7.279   4.713   4.697 -0.1870  0.0369  1.4940
 2503SOL     OW18187   1.331   1.498   3.418  0.1126 -0.1016 -0.2812
 2503SOL    HW118188   1.378   1.500   3.329 -0.1659 -2.3985 -0.5112
 2503SOL    HW218189   1.397   1.474   3.490 -0.5248 -2.7539 -0.5262
 2504SOL     OW18190   7.389   9.786   2.127  0.1520 -0.0159  0.7880
 2504SOL    HW118191   7.361   9.720   2.197 -0.3740 -0.0513  0.5508
 2504SOL    HW218192   7.328   9.778   2.048 -0.9109  1.8078  1.3807
 2505SOL     OW18193   9.176   0.058   3.756  0.1725 -0.2823  0.5915
 2505SOL    HW118194   9.154  -0.026   3.706  0.2997 -0.4521  0.8183
 2505SOL    HW218195   9.122   0.133   3.720  0.8210 -0.2434 -0.2980
 2506SOL     OW18196   3.566   2.848   4.181 -0.3405  0.0117  0.0447
 2506SOL    HW118197   3.602   2.866   4.272 -0.0499 -0.1122 -0.0474
 2506SOL    HW218198   3.604   2.763   4.145 -0.8926 -0.2381  0.0379
 2507SOL     OW18199   1.412   1.467   2.306  1.2028 -0.2895 -0.0686
 2507SOL    HW118200   1.423   1.464   2.405 -0.8585 -0.7340  0.1594
 2507SOL    HW218201   1.403   1.374   2.271 -2.2711  0.0130 -0.1507
 2508SOL     OW18202   7.843   2.212   2.527  1.1539 -0.0471 -0.0307
 2508SOL    HW118203   7.775   2.145   2.559  1.4039  0.1167  0.8736
 2508SOL    HW218204   7.811   2.255   2.443  0.2887 -0.2135  0.2079
 2509SOL     OW18205   4.797   0.908   4.294  0.2787 -0.4650 -0.3618
 2509SOL    HW118206   4.848   0.993   4.307  0.4327 -0.4552 -1.0409
 2509SOL    HW218207   4.715   0.925   4.240 -0.4860 -0.4722  0.7716
 2510SOL     OW18208   3.238   0.307   2.323  0.4707 -0.1295  0.0775
 2510SOL    HW118209   3.279   0.219   2.302 -0.2173 -0.4745  0.1839
 2510SOL    HW218210   3.160   0.294   2.385  0.9614  0.6354  0.8730
 2511SOL     OW18211   9.075   8.279   2.366 -0.8226 -0.3997  0.3515
 2511SOL    HW118212   9.042   8.302   2.274  0.9933 -0.1771 -0.2649
 2511SOL    HW218213   9.020   8.205   2.404 -1.5887 -0.4949 -0.9226
 2512SOL     OW18214   1.711   2.286   2.038 -0.5565 -0.2405 -0.0921
 2512SOL    HW118215   1.760   2.219   1.982 -0.3112  1.0569 -1.4485
 2512SOL    HW218216   1.630   2.318   1.989 -2.3168 -1.6940  1.7561
 2513SOL     OW18217   4.537   8.761   1.539  0.8188 -0.2391 -0.2044
 2513SOL    HW118218   4.601   8.720   1.474  0.3377 -1.9489  0.3684
 2513SOL    HW218219   4.498   8.690   1.597 -0.2138  1.0173  0.6860
 2514SOL     OW18220   8.380   1.787   4.709  0.3745  0.0210  0.8916
 2514SOL    HW118221   8.331   1.849   4.648  0.5835  0.6068  1.3035
 2514SOL    HW218222   8.445   1.840   4.764  0.6702 -0.5912  1.1349
 2515SOL     OW18223   4.307   3.448   0.519 -0.0508 -0.2696 -0.2124
 2515SOL    HW118224   4.336   3.355   0.539  1.6577  0.0575 -1.1025
 2515SOL    HW218225   4.243   3.447   0.442  1.0316 -0.5842 -1.1167
 2516SOL     OW18226   3.367   4.913   4.559 -0.5022  0.0664 -0.1635
 2516SOL    HW118227   3.466   4.904   4.543 -0.7273 -2.6886 -0.2520
 2516SOL    HW218228   3.348   4.897   4.656 -0.8509  0.9463 -0.0786
 2517SOL     OW18229   4.839   1.386   1.782 -0.2481 -0.2603  0.0024
 2517SOL    HW118230   4.929   1.412   1.747  0.0925  0.4920  1.4110
 2517SOL    HW218231   4.770   1.448   1.743  0.4490  2.2791  2.6298
 2518SOL     OW18232   1.082   8.871   0.680  0.2094  0.2194 -0.0723
 2518SOL    HW118233   1.047   8.911   0.765  0.0108 -1.1725  0.5210
 2518SOL    HW218234   1.105   8.775   0.696  1.5937  0.3478 -1.2099
 2519SOL     OW18235   5.461   3.721   0.452  0.3974 -0.5251  0.4376
 2519SOL    HW118236   5.389   3.662   0.416  2.9890 -2.7127 -1.3450
 2519SOL    HW218237   5.508   3.767   0.377  1.2324  0.4780  1.5449
 2520SOL     OW18238   2.594   6.106   2.834 -0.3322  0.3070  0.6303
 2520SOL    HW118239   2.676   6.138   2.881  0.5403  0.8978 -1.2547
 2520SOL    HW218240   2.528   6.072   2.901  0.9287  1.0176  2.2555
 2521SOL     OW18241   8.867   9.838   4.737  0.2477  1.0722  0.1554
 2521SOL    HW118242   8.881   9.935   4.756  0.9891  0.4184  3.3636
 2521SOL    HW218243   8.771   9.814   4.753 -0.0500  1.3796 -1.1616
 2522SOL     OW18244   4.456   9.643   1.224  0.2277 -0.5337  0.1869
 2522SOL    HW118245   4.372   9.697   1.220 -0.4267 -1.5588 -0.4024
 2522SOL    HW218246   4.516   9.668   1.148  0.9081  0.9088  1.1854
 2523SOL     OW18247   9.974   0.252   2.077  0.1897 -0.0078  0.3206
 2523SOL    HW118248  10.060   0.234   2.124  0.0479 -0.9921  0.2152
 2523SOL    HW218249   9.992   0.272   1.980  0.4961  2.1846  0.8033
 2524SOL     OW18250   2.577   6.458   3.149 -0.5655 -0.1930 -0.0936
 2524SOL    HW118251   2.632   6.465   3.066 -0.4916  3.8213  0.1766
 2524SOL    HW218252   2.638   6.453   3.228 -0.5102  2.1776  0.0633
 2525SOL     OW18253   3.012   5.268   4.348 -0.1408 -0.7117  0.2612
 2525SOL    HW118254   3.006   5.344   4.413  1.2213  0.8283 -1.3725
 2525SOL    HW218255   3.056   5.190   4.392 -0.2426 -0.0652  1.5275
 2526SOL     OW18256   9.844   6.199   2.152  0.3561  0.3111 -0.8290
 2526SOL    HW118257   9.848   6.100   2.168 -0.8904  0.5006  0.8445
 2526SOL    HW218258   9.843   6.217   2.054 -2.2988 -1.5050 -1.1913
 2527SOL     OW18259   3.937   0.732   1.631 -0.3137 -0.2842 -0.3720
 2527SOL    HW118260   3.984   0.671   1.695  0.8792  0.5823 -0.4042
 2527SOL    HW218261   3.925   0.686   1.543 -0.2971 -0.8134 -0.0994
 2528SOL     OW18262   1.218   2.212   4.693 -0.2500  0.1882  0.1113
 2528SOL    HW118263   1.265   2.300   4.699 -4.1617  2.2796  1.6015
 2528SOL    HW218264   1.203   2.189   4.597 -1.2444  2.3012 -0.2601
 2529SOL     OW18265   4.637   9.040   4.006  0.0316  0.3405 -0.2521
 2529SOL    HW118266   4.628   9.031   3.907  0.3897 -2.3676 -0.0881
 2529SOL    HW218267   4.547   9.029   4.049 -0.0842  1.2544 -0.2546
 2530SOL     OW18268   2.477   4.810   3.839 -0.2381  0.3895  0.3230
 2530SOL    HW118269   2.400   4.870   3.820 -0.2667  0.3681  0.3720
 2530SOL    HW218270   2.543   4.858   3.897  1.1334  1.4286 -2.0180
 2531SOL     OW18271   1.448   2.822   1.381 -0.5199  0.5625  0.5171
 2531SOL    HW118272   1.409   2.861   1.297  0.6023  2.8765  1.0076
 2531SOL    HW218273   1.432   2.885   1.457  0.6436 -0.3342  1.5190
 2532SOL     OW18274   4.754   6.686   2.043  0.2006  0.1277  0.1417
 2532SOL    HW118275   4.693   6.609   2.061  0.5037 -0.1950 -0.2242
 2532SOL    HW218276   4.709   6.751   1.982 -0.4128  0.6930  1.1844
 2533SOL     OW18277   3.153   9.566   1.469  0.0186 -0.3524 -0.2543
 2533SOL    HW118278   3.067   9.604   1.503  0.2843 -0.2255  0.2740
 2533SOL    HW218279   3.154   9.572   1.369  0.4254  1.8069 -0.1223
 2534SOL     OW18280   0.820   4.208   3.489 -0.8384  0.9128  0.2947
 2534SOL    HW118281   0.773   4.184   3.574  2.7145 -0.1505  2.0676
 2534SOL    HW218282   0.794   4.143   3.417 -1.6681  0.0471  1.3562
 2535SOL     OW18283   0.368   0.931   0.164 -0.2235 -0.3916  0.3436
 2535SOL    HW118284   0.285   0.891   0.204 -0.1937  0.0983  0.9028
 2535SOL    HW218285   0.376   0.903   0.069 -0.8703 -0.6956  0.3773
 2536SOL     OW18286   0.754   2.001   4.511 -0.2461 -0.2661 -0.3297
 2536SOL    HW118287   0.841   2.049   4.516 -1.3533  1.7964 -0.2207
 2536SOL    HW218288   0.727   1.972   4.603  0.5766 -1.4048 -0.4378
 2537SOL     OW18289   3.393   2.539   3.949 -0.0094  0.6016 -0.3164
 2537SOL    HW118290   3.342   2.491   3.877 -1.0948  0.2009  0.7013
 2537SOL    HW218291   3.341   2.619   3.978  0.0069  0.2641  0.6422
 2538SOL     OW18292   2.252   7.604   4.325 -0.2111 -0.3255  0.2229
 2538SOL    HW118293   2.268   7.608   4.226 -1.6105  0.5164  0.0086
 2538SOL    HW218294   2.237   7.509   4.353 -4.8911 -0.1647 -1.2839
 2539SOL     OW18295   1.508   9.734   3.440  0.4219 -0.1377 -0.2285
 2539SOL    HW118296   1.502   9.730   3.540 -0.7940 -0.6219 -0.3108
 2539SOL    HW218297   1.581   9.674   3.409 -0.5001 -1.5187  0.2447
 2540SOL     OW18298   3.905   7.429   3.261  0.2139  0.5517  0.1771
 2540SOL    HW118299   3.809   7.403   3.252  0.3158  0.8953 -2.1823
 2540SOL    HW218300   3.912   7.529   3.267  0.4324  0.5435  0.0683
 2541SOL     OW18301   3.586   3.803   0.424 -0.0671  0.0646 -0.2304
 2541SOL    HW118302   3.653   3.735   0.394  0.8971  0.3708  1.2057
 2541SOL    HW218303   3.611   3.837   0.514 -2.1678  0.1923  0.3159
 2542SOL     OW18304   3.873   5.912   3.179  0.4522 -0.4064 -0.4830
 2542SOL    HW118305   3.890   5.829   3.127 -0.1138 -0.1088 -1.1569
 2542SOL    HW218306   3.838   5.889   3.270 -0.3868 -0.9014 -0.9206
 2543SOL     OW18307   2.842   0.246   3.082 -0.3110  0.2748  0.7122
 2543SOL    HW118308   2.910   0.271   3.151  1.4330  0.5470 -1.0774
 2543SOL    HW218309   2.813   0.151   3.097 -1.6863  1.0289  3.1853
 2544SOL     OW18310   3.115   7.136   1.170 -0.0154  0.4888  0.1532
 2544SOL    HW118311   3.173   7.215   1.193 -1.5910  2.0296 -1.0591
 2544SOL    HW218312   3.021   7.154   1.200 -0.6592 -0.3620 -1.3059
 2545SOL     OW18313   3.445   8.591   1.520  0.3925  0.1216 -0.0798
 2545SOL    HW118314   3.411   8.553   1.606  0.1750 -0.1963 -0.3044
 2545SOL    HW218315   3.391   8.554   1.444 -0.2508  1.3626 -0.2458
 2546SOL     OW18316   3.578   1.521   0.151 -0.5412 -0.3140  0.7010
 2546SOL    HW118317   3.649   1.542   0.083 -0.9720  2.3162  1.0270
 2546SOL    HW218318   3.604   1.437   0.200  1.7011 -0.1183 -0.0652
 2547SOL     OW18319   8.699   0.532   0.333  0.1256  0.5396  0.2919
 2547SOL    HW118320   8.709   0.468   0.409 -0.4608  0.6330  0.4449
 2547SOL    HW218321   8.612   0.581   0.340  0.9385  1.9804  0.6500
 2548SOL     OW18322   2.988   0.298   2.150 -0.6279  0.1947 -0.6410
 2548SOL    HW118323   3.043   0.216   2.144  1.2930  1.4293 -0.2760
 2548SOL    HW218324   2.943   0.315   2.062 -1.1532 -1.2823 -0.6754
 2549SOL     OW18325   4.867   3.820   0.586  0.4153  0.2253 -0.4354
 2549SOL    HW118326   4.943   3.816   0.522 -0.4206  1.5576 -1.5461
 2549SOL    HW218327   4.789   3.769   0.550  0.0061  0.8190 -0.4106
 2550SOL     OW18328   9.691   1.992   4.191 -0.5037 -0.3064 -0.6004
 2550SOL    HW118329   9.658   1.917   4.134 -1.7143  0.9080 -1.5312
 2550SOL    HW218330   9.659   2.079   4.154 -0.8534  0.5511  1.6355
 2551SOL     OW18331   8.067   1.711   1.534  0.6443 -0.2202  0.1498
 2551SOL    HW118332   8.149   1.720   1.478 -0.0135 -0.7976 -0.9192
 2551SOL    HW218333   7.999   1.778   1.504  0.4590 -0.2123  0.5772
 2552SOL     OW18334   0.334   3.558   2.361 -0.0834  0.6678 -1.0684
 2552SOL    HW118335   0.386   3.473   2.360 -0.1957  0.5810 -0.3241
 2552SOL    HW218336   0.368   3.620   2.290  1.3407  0.7910 -0.2870
 2553SOL     OW18337   1.127   7.200   2.683 -0.0479  0.3441 -0.3467
 2553SOL    HW118338   1.087   7.228   2.770 -1.6203 -0.3770 -0.8310
 2553SOL    HW218339   1.208   7.256   2.665 -0.0193  0.8697  1.3101
 2554SOL     OW18340   0.876   8.205   1.968 -0.2196  0.2129 -0.1382
 2554SOL    HW118341   0.972   8.217   1.993  0.1389 -1.7653 -0.4701
 2554SOL    HW218342   0.871   8.165   1.876 -1.3144 -1.0763  0.4670
 2555SOL     OW18343   0.672   3.823   2.386  0.4086  0.4616 -0.2152
 2555SOL    HW118344   0.647   3.868   2.300  1.4857  1.4356 -0.0330
 2555SOL    HW218345   0.667   3.724   2.375 -2.7989  0.6122 -0.3820
 2556SOL     OW18346   9.679   0.890   4.188 -0.7453  0.1717  0.2091
 2556SOL    HW118347   9.627   0.842   4.116 -0.3743 -0.1085  0.1277
 2556SOL    HW218348   9.631   0.881   4.275 -0.2292 -1.1079  0.3712
 2557SOL     OW18349   0.527   3.153   2.558  0.8064 -0.8223  0.1512
 2557SOL    HW118350   0.465   3.076   2.571  0.1312 -0.1848  0.7487
 2557SOL    HW218351   0.558   3.187   2.647  0.0401  0.4421 -0.0466
 2558SOL     OW18352   9.758   0.935   2.226 -0.4193  0.1493  0.2610
 2558SOL    HW118353   9.857   0.937   2.214 -0.5227 -0.1184 -0.6805
 2558SOL    HW218354   9.723   0.844   2.205 -1.0386  0.6348 -0.9137
 2559SOL     OW18355   0.648   9.915   1.229  0.1536 -0.1489 -0.1562
 2559SOL    HW118356   0.703   9.842   1.189  0.2689 -0.1187 -0.0500
 2559SOL    HW218357   0.616   9.977   1.157  2.1459  1.1325  0.0199
 2560SOL     OW18358   9.186   7.321   1.121  0.0468 -0.2130 -0.3829
 2560SOL    HW118359   9.173   7.222   1.134  0.9150 -0.3504 -0.5607
 2560SOL    HW218360   9.181   7.343   1.024 -0.8301  0.0220 -0.2912
 2561SOL     OW18361   0.115   6.029   2.363  0.3585 -0.1105 -0.2333
 2561SOL    HW118362   0.036   5.985   2.404  1.2655 -0.0490  1.6367
 2561SOL    HW218363   0.192   5.965   2.359  0.5059  0.1084 -1.1653
 2562SOL     OW18364   1.680   6.553   0.359  0.2095  0.1705 -0.1357
 2562SOL    HW118365   1.743   6.475   0.355  2.5150  1.9254  0.9630
 2562SOL    HW218366   1.731   6.636   0.382 -2.7148  1.4327  2.1405
 2563SOL     OW18367   6.152   9.584   4.140  0.4151 -0.2174  0.2640
 2563SOL    HW118368   6.082   9.535   4.089 -0.1344  1.8106 -0.9706
 2563SOL    HW218369   6.240   9.536   4.131 -0.2518 -1.3734 -0.2745
 2564SOL     OW18370   5.322   3.455   0.740 -0.6468  0.4290  0.3570
 2564SOL    HW118371   5.326   3.412   0.830  1.9347 -1.4058 -0.5626
 2564SOL    HW218372   5.392   3.526   0.734 -0.5049  0.2367 -0.3279
 2565SOL     OW18373   8.506   3.926   0.870  0.1949  0.7380 -0.4531
 2565SOL    HW118374   8.459   3.947   0.956  1.9762  1.0487  0.4685
 2565SOL    HW218375   8.560   3.843   0.880  1.9503  1.8269 -0.6464
 2566SOL     OW18376   2.590   7.369   1.047 -0.1409 -0.0916  0.0639
 2566SOL    HW118377   2.549   7.438   1.106 -0.9259 -0.2052 -0.3306
 2566SOL    HW218378   2.591   7.281   1.094 -1.8617 -0.4413 -0.5146
 2567SOL     OW18379   8.367   5.635   0.910 -0.7525  0.7350  0.3937
 2567SOL    HW118380   8.339   5.552   0.958 -1.1324  0.7218  0.1578
 2567SOL    HW218381   8.401   5.703   0.975 -0.4375  0.3899  0.5857
 2568SOL     OW18382   4.270   3.857   0.772 -0.0876  0.3141 -0.0943
 2568SOL    HW118383   4.296   3.782   0.710  1.9288  1.2572 -0.4214
 2568SOL    HW218384   4.299   3.836   0.865  0.8456  0.8523 -0.2566
 2569SOL     OW18385   9.061   5.006   2.203 -0.3113  0.4374  0.0262
 2569SOL    HW118386   9.084   4.934   2.137 -3.3577 -0.1050 -0.5127
 2569SOL    HW218387   9.083   4.973   2.295  0.0718 -0.4339 -0.3631
 2570SOL     OW18388   3.254   6.534   3.186 -0.0956  0.0227 -0.1572
 2570SOL    HW118389   3.279   6.477   3.108  0.6313 -0.2745  0.2853
 2570SOL    HW218390   3.157   6.560   3.179 -0.1326 -0.3119 -0.9535
 2571SOL     OW18391   1.893   5.635   1.645 -0.3989  0.0899  0.1590
 2571SOL    HW118392   1.989   5.637   1.617 -0.6845  0.0678 -0.8372
 2571SOL    HW218393   1.837   5.683   1.578 -1.0238  0.5880  1.0121
 2572SOL     OW18394   0.145   9.540   1.289  0.4239 -0.7425  0.2049
 2572SOL    HW118395   0.240   9.553   1.260  0.3428 -2.8560 -1.0462
 2572SOL    HW218396   0.104   9.464   1.239 -1.8791 -0.0014  0.8939
 2573SOL     OW18397   1.325   4.678   2.833  0.0759  0.8218  0.1317
 2573SOL    HW118398   1.364   4.756   2.784 -2.8777  1.7738 -0.7730
 2573SOL    HW218399   1.241   4.705   2.879 -0.4164 -1.5557  0.7013
 2574SOL     OW18400   9.152   5.222   0.125  0.5712  0.5266  0.7662
 2574SOL    HW118401   9.219   5.148   0.138  1.4675  1.1763 -0.0544
 2574SOL    HW218402   9.190   5.307   0.161 -1.2209  0.2532  3.4513
 2575SOL     OW18403   0.023   1.321   2.779 -0.3033  0.5697 -0.2263
 2575SOL    HW118404  -0.057   1.378   2.760  0.3427  0.7650 -2.5448
 2575SOL    HW218405   0.025   1.244   2.715  0.4412 -0.3948  0.9460
 2576SOL     OW18406   4.670   3.567   4.563 -0.3089 -0.7443  0.6422
 2576SOL    HW118407   4.659   3.476   4.524  1.5019 -1.0169  0.7456
 2576SOL    HW218408   4.742   3.565   4.633  1.2150  1.1945 -0.8242
 2577SOL     OW18409   1.911   6.048   1.551  0.2221  0.5508 -0.3911
 2577SOL    HW118410   1.866   5.982   1.490  0.9254  0.1373 -0.4746
 2577SOL    HW218411   1.989   6.004   1.595 -0.0435  0.9673  0.5093
 2578SOL     OW18412   3.000   5.025   1.127  0.1102  0.0119 -0.1117
 2578SOL    HW118413   3.001   5.068   1.037 -0.2824 -0.2339 -0.2350
 2578SOL    HW218414   3.082   4.967   1.137  0.8793  1.1442  0.2370
 2579SOL     OW18415   2.906   5.922   3.798 -0.2225  0.4235 -0.0372
 2579SOL    HW118416   2.861   5.933   3.710  0.1169 -0.8195 -0.3821
 2579SOL    HW218417   3.004   5.943   3.789  0.1449 -1.3024 -0.3695
 2580SOL     OW18418   0.535   9.580   0.608 -0.1356  0.2248  0.5283
 2580SOL    HW118419   0.616   9.537   0.569 -0.5967 -0.2001  0.0349
 2580SOL    HW218420   0.545   9.586   0.708  0.8913  0.9964  0.3914
 2581SOL     OW18421   2.801   5.392   1.380 -0.1850 -0.1045  0.3872
 2581SOL    HW118422   2.755   5.447   1.450  0.4750  0.6456  0.2425
 2581SOL    HW218423   2.738   5.372   1.305  0.7018  3.9661 -1.5436
 2582SOL     OW18424   9.375   8.010   1.089  0.1748 -0.1790 -0.3846
 2582SOL    HW118425   9.302   8.013   1.158  0.3771  2.8477 -0.1996
 2582SOL    HW218426   9.464   8.018   1.135  0.4581 -0.9194 -0.8101
 2583SOL     OW18427   1.377   1.833   3.471  0.0589  0.0821  0.0812
 2583SOL    HW118428   1.430   1.828   3.387 -0.2872  1.0356 -0.1964
 2583SOL    HW218429   1.371   1.928   3.502 -1.8456  0.0398 -0.1192
 2584SOL     OW18430   2.873   5.141   1.475 -0.0390  0.2325  0.1389
 2584SOL    HW118431   2.784   5.118   1.514  0.4523 -0.4999  0.8474
 2584SOL    HW218432   2.870   5.233   1.436 -0.8227  0.5872  1.0307
 2585SOL     OW18433   0.883   5.337   3.659  0.0547 -0.7359  0.5694
 2585SOL    HW118434   0.794   5.346   3.702  0.7449  0.8181  1.6979
 2585SOL    HW218435   0.953   5.376   3.718  1.5865 -2.5079 -0.0107
 2586SOL     OW18436   2.315   1.217   2.827 -0.6216  0.0620  0.2632
 2586SOL    HW118437   2.231   1.168   2.806 -0.9214  0.6160  0.1408
 2586SOL    HW218438   2.378   1.212   2.749 -0.1824 -1.0926  0.6895
 2587SOL     OW18439   9.666   1.091   2.435 -0.2850  0.3233 -0.0177
 2587SOL    HW118440   9.638   1.007   2.480  0.0868  1.8103  3.0879
 2587SOL    HW218441   9.712   1.069   2.349  0.9141 -2.6741  1.3361
 2588SOL     OW18442   2.591   8.345   4.777  0.3382 -0.4475  0.0126
 2588SOL    HW118443   2.574   8.443   4.777  1.5313 -0.2301  1.0893
 2588SOL    HW218444   2.510   8.297   4.742 -0.4458  0.8782 -0.0112
 2589SOL     OW18445   2.975   6.795   2.607 -0.2249 -0.1068 -0.1842
 2589SOL    HW118446   3.030   6.737   2.547 -2.8925 -0.4691 -2.3633
 2589SOL    HW218447   3.036   6.847   2.667  2.3575 -2.4640 -0.6341
 2590SOL     OW18448   8.846   8.935   1.190 -0.6763  0.2741  0.0951
 2590SOL    HW118449   8.908   9.012   1.202  0.1654 -0.3349 -0.2824
 2590SOL    HW218450   8.801   8.915   1.276  0.4392  0.0652  0.6429
 2591SOL     OW18451   1.785   5.207   4.277  0.0150  0.0434  0.0937
 2591SOL    HW118452   1.827   5.223   4.366  1.4732  0.1528 -0.5965
 2591SOL    HW218453   1.728   5.125   4.281  0.3071 -0.1191  1.0497
 2592SOL     OW18454   6.565   8.960   1.640  0.6673  0.6329 -0.0017
 2592SOL    HW118455   6.565   9.057   1.664 -0.8519  0.9705 -1.2453
 2592SOL    HW218456   6.560   8.905   1.723  0.5764  1.6455  0.6699
 2593SOL     OW18457   4.129   8.128   0.961 -0.3205  0.3686 -0.3792
 2593SOL    HW118458   4.169   8.104   1.050 -1.3809  0.4462  0.1268
 2593SOL    HW218459   4.112   8.227   0.959 -2.6376  0.0026  0.3111
 2594SOL     OW18460   9.569   0.259   1.871 -0.7709 -0.7416 -0.4182
 2594SOL    HW118461   9.600   0.252   1.777 -0.5275  0.0229 -0.3914
 2594SOL    HW218462   9.490   0.320   1.876 -0.6677 -0.6340 -0.0947
 2595SOL     OW18463   0.702   5.140   1.616 -0.0249 -0.5218 -0.5300
 2595SOL    HW118464   0.670   5.136   1.522 -1.9136 -0.4642  0.0958
 2595SOL    HW218465   0.625   5.158   1.677  0.6239 -3.7422  1.3550
 2596SOL     OW18466   8.783   1.535   2.599  0.1116 -0.2669 -0.0508
 2596SOL    HW118467   8.700   1.576   2.637  0.6858 -1.3120  2.4476
 2596SOL    HW218468   8.759   1.453   2.547 -0.7296  1.4143 -2.3986
 2597SOL     OW18469   5.799   9.531   2.187  0.0400 -0.3809  0.1203
 2597SOL    HW118470   5.796   9.501   2.092 -0.8440 -0.3343  0.1314
 2597SOL    HW218471   5.848   9.618   2.193  0.5935 -0.6637 -0.2104
 2598SOL     OW18472   0.490   6.323   4.611 -0.0554  0.5053 -0.5772
 2598SOL    HW118473   0.413   6.270   4.578 -0.2373  1.3918 -1.6046
 2598SOL    HW218474   0.461   6.382   4.686 -0.5182  1.2526 -1.3336
 2599SOL     OW18475   2.380   9.581   0.403  0.0994  0.0342 -0.3882
 2599SOL    HW118476   2.360   9.650   0.473 -1.8060  1.6310 -2.4244
 2599SOL    HW218477   2.430   9.505   0.445 -0.0370  1.4249  2.4617
 2600SOL     OW18478   5.068   1.880   0.854  0.1126 -0.3361 -0.3565
 2600SOL    HW118479   5.000   1.810   0.872 -1.4680  1.1376 -0.4866
 2600SOL    HW218480   5.032   1.970   0.881  1.0327  0.7856 -2.7578
 2601SOL     OW18481   9.569   1.355   1.815 -0.3435 -0.3336 -0.6289
 2601SOL    HW118482   9.503   1.299   1.864  0.5229  0.0465  1.0188
 2601SOL    HW218483   9.573   1.446   1.857 -0.2577  0.2965 -1.9933
 2602SOL     OW18484   9.779   7.468   0.297  0.0263 -0.3930 -0.4992
 2602SOL    HW118485   9.777   7.443   0.393  1.0837 -2.0609 -0.8940
 2602SOL    HW218486   9.694   7.514   0.272 -1.1441 -1.8675  0.7286
 2603SOL     OW18487   0.318   5.962   0.402 -0.2652 -0.2109 -0.6492
 2603SOL    HW118488   0.282   5.899   0.470 -0.4729  0.0291 -0.5370
 2603SOL    HW218489   0.256   6.040   0.391  1.1277  1.1901  0.9420
 2604SOL     OW18490   3.719   7.093   1.961 -0.5253  0.2501 -0.2648
 2604SOL    HW118491   3.804   7.052   1.928 -0.2812 -0.7893  1.6098
 2604SOL    HW218492   3.712   7.187   1.927  1.0543  0.1269 -0.9714
 2605SOL     OW18493   1.335   3.549   3.770  0.1134  0.6936  0.4351
 2605SOL    HW118494   1.374   3.482   3.707 -0.6793 -0.3728  1.0672
 2605SOL    HW218495   1.349   3.518   3.864 -1.3845  0.8042  0.6986
 2606SOL     OW18496   4.144   0.150   3.609 -0.1163  0.8823 -0.3369
 2606SOL    HW118497   4.071   0.149   3.541 -2.3143  0.2393  1.9771
 2606SOL    HW218498   4.226   0.105   3.571 -1.7440 -0.7334 -2.0195
 2607SOL     OW18499   7.908   2.820   1.887  0.6017 -0.3122 -0.1858
 2607SOL    HW118500   7.880   2.889   1.954 -0.5657 -0.0744 -0.9039
 2607SOL    HW218501   8.007   2.809   1.891  0.6181  0.1840  1.1092
 2608SOL     OW18502   8.202   7.459   1.713 -0.7505  0.0641 -0.3989
 2608SOL    HW118503   8.238   7.421   1.799 -0.7312 -0.5450 -0.6701
 2608SOL    HW218504   8.269   7.521   1.673 -0.5399 -0.0598 -0.2414
 2609SOL     OW18505   0.526   3.422   1.209  0.0623  0.0816  0.4747
 2609SOL    HW118506   0.440   3.373   1.199  0.4454 -0.5769  0.3147
 2609SOL    HW218507   0.534   3.491   1.137  0.0577 -0.4554 -0.0485
 2610SOL     OW18508   1.520   0.138   1.404 -0.2161 -0.0698 -0.0560
 2610SOL    HW118509   1.421   0.143   1.418 -0.1067  1.7374  0.2782
 2610SOL    HW218510   1.566   0.195   1.472  1.0536 -0.8386 -0.2575
 2611SOL     OW18511   4.051   7.150   1.671 -0.1884  0.0907 -0.1337
 2611SOL    HW118512   4.084   7.125   1.579  0.6108  2.8482 -0.6491
 2611SOL    HW218513   3.970   7.208   1.662  0.0718  0.6201  0.8859
 2612SOL     OW18514   2.917   0.015   3.610  0.3054  0.2794 -0.0674
 2612SOL    HW118515   2.917   0.114   3.621  1.6900  0.6526 -2.9377
 2612SOL    HW218516   3.009  -0.020   3.627  0.1431 -0.3267 -0.4062
 2613SOL     OW18517   8.018   8.106   3.680  0.3995  0.1373  0.6782
 2613SOL    HW118518   8.086   8.046   3.637 -0.6899 -0.8618  0.3349
 2613SOL    HW218519   8.065   8.180   3.728  1.6740  0.6762 -1.3480
 2614SOL     OW18520   9.298   5.632   2.184 -0.5017  0.6101 -0.0963
 2614SOL    HW118521   9.264   5.585   2.266  0.3328 -1.0686 -0.6891
 2614SOL    HW218522   9.266   5.584   2.102  1.2719  0.4244 -0.6909
 2615SOL     OW18523   5.129   1.991   1.430  0.5431 -0.4879  0.2524
 2615SOL    HW118524   5.037   2.030   1.426  0.9812  0.6988  1.2976
 2615SOL    HW218525   5.138   1.919   1.361 -1.2953 -0.9049  0.4174
 2616SOL     OW18526   0.929   8.671   1.964  0.1729 -0.0186 -0.3505
 2616SOL    HW118527   0.865   8.641   2.035 -0.0703  1.3758  0.0417
 2616SOL    HW218528   1.016   8.623   1.975  1.4019  2.7556  3.1987
 2617SOL     OW18529   8.994   3.423   0.232 -0.0890 -0.5525 -0.1854
 2617SOL    HW118530   8.896   3.414   0.213  0.4943 -2.6460 -2.4976
 2617SOL    HW218531   9.021   3.356   0.302 -0.4230  0.5793  1.0561
 2618SOL     OW18532   1.879   8.405   4.617  0.4297 -0.3469 -0.0334
 2618SOL    HW118533   1.838   8.316   4.640 -1.2786  0.3576 -0.3184
 2618SOL    HW218534   1.965   8.415   4.668 -0.3806 -1.2986  1.5831
 2619SOL     OW18535   8.299   1.914   1.258  0.0174  0.2599 -0.5199
 2619SOL    HW118536   8.261   1.989   1.205 -1.2925 -0.1472 -0.1773
 2619SOL    HW218537   8.287   1.932   1.356 -1.8970 -1.1899 -0.4646
 2620SOL     OW18538   7.697   5.321   3.213  0.5960  0.2414  0.5774
 2620SOL    HW118539   7.762   5.282   3.148  0.5661 -1.2935  1.4482
 2620SOL    HW218540   7.616   5.352   3.164 -0.2093 -2.5472  0.0577
 2621SOL     OW18541   3.615   7.196   2.596  0.2436 -0.3242  0.0175
 2621SOL    HW118542   3.515   7.193   2.598  0.1836  2.1250  1.4378
 2621SOL    HW218543   3.645   7.244   2.513  0.2712 -1.1509 -0.4619
 2622SOL     OW18544   9.664   6.284   2.941  0.4390 -0.8128  0.1744
 2622SOL    HW118545   9.626   6.346   2.872  2.5132  1.0518  0.6450
 2622SOL    HW218546   9.637   6.190   2.920 -2.2562  0.1650 -0.9033
 2623SOL     OW18547   0.868   3.041   0.498  0.1715  0.4716  0.6653
 2623SOL    HW118548   0.770   3.041   0.480  0.0208  3.5020  1.1183
 2623SOL    HW218549   0.917   3.046   0.411 -0.2474  3.0794  0.5178
 2624SOL     OW18550   8.456   4.420   0.521  0.1031 -0.0006  0.4652
 2624SOL    HW118551   8.388   4.439   0.450 -0.1886  0.6789  0.9250
 2624SOL    HW218552   8.454   4.322   0.543 -0.1211 -0.1357 -0.1366
 2625SOL     OW18553   8.544   4.365   1.997 -0.5221 -0.5970  0.2514
 2625SOL    HW118554   8.461   4.418   1.984 -1.1124 -1.4975  0.2615
 2625SOL    HW218555   8.530   4.298   2.070  0.3454 -0.4916  0.5262
 2626SOL     OW18556   0.589   7.633   3.524  0.7665 -0.2074 -0.0195
 2626SOL    HW118557   0.540   7.646   3.438  1.6787  1.1614 -0.3485
 2626SOL    HW218558   0.661   7.703   3.532  0.8208 -0.4550  1.7503
 2627SOL     OW18559   9.867   5.151   3.376 -0.8645  0.1636  0.5285
 2627SOL    HW118560   9.810   5.220   3.421 -0.7319  0.8603 -0.3569
 2627SOL    HW218561   9.955   5.147   3.422 -0.4265  1.4636 -0.1570
 2628SOL     OW18562   7.535   6.697   3.013 -0.3347 -0.0233  0.5234
 2628SOL    HW118563   7.503   6.674   2.921  2.0589 -0.9026 -0.1330
 2628SOL    HW218564   7.534   6.796   3.025 -1.0319  0.0750 -0.3154
 2629SOL     OW18565   2.587   1.944   3.370  0.8173 -0.5619  0.0784
 2629SOL    HW118566   2.551   2.010   3.304 -0.3148  0.1628  1.3837
 2629SOL    HW218567   2.643   1.992   3.437  0.1919 -0.9611  0.8918
 2630SOL     OW18568   9.649   3.050   0.243 -0.4648 -0.1673  0.3547
 2630SOL    HW118569   9.704   3.111   0.186 -1.3826  0.5040  0.1786
 2630SOL    HW218570   9.601   2.985   0.185 -0.0906 -0.5575  0.4849
 2631SOL     OW18571   1.907   6.542   3.120  0.1169  0.1146  0.4169
 2631SOL    HW118572   1.995   6.495   3.113 -0.0805 -0.2148  0.1104
 2631SOL    HW218573   1.878   6.572   3.029  0.3383  1.0146  0.6369
 2632SOL     OW18574   0.784   3.644   1.695  0.3799  0.2978  0.1945
 2632SOL    HW118575   0.808   3.584   1.772 -1.0708  0.3934  0.7501
 2632SOL    HW218576   0.733   3.723   1.729 -1.2538 -0.2211 -0.9556
 2633SOL     OW18577   1.502   9.235   1.846 -0.2526 -0.3759  0.0245
 2633SOL    HW118578   1.560   9.155   1.860  1.8721  1.5258  2.7174
 2633SOL    HW218579   1.543   9.294   1.776 -1.8202 -1.5487 -1.9631
 2634SOL     OW18580   1.158   4.002   0.697 -0.4226  0.2831  0.5463
 2634SOL    HW118581   1.159   4.013   0.796 -1.4903 -1.3327  0.7566
 2634SOL    HW218582   1.142   4.090   0.654  1.1375  1.1899  1.7577
 2635SOL     OW18583   2.764   2.603   1.826 -0.1250 -0.4771  0.4594
 2635SOL    HW118584   2.737   2.507   1.827 -0.7354 -0.3044  1.1454
 2635SOL    HW218585   2.705   2.655   1.888  0.8349  0.1732  0.8328
 2636SOL     OW18586   3.793   0.945   2.822  0.2068 -0.3249 -0.3801
 2636SOL    HW118587   3.891   0.964   2.809  0.4531  0.8683  2.6523
 2636SOL    HW218588   3.781   0.890   2.905 -1.7222  0.1655 -0.3136
 2637SOL     OW18589   0.733   3.369   0.283 -0.2936 -0.3346 -0.3698
 2637SOL    HW118590   0.657   3.305   0.294 -2.1801  1.8516 -0.3373
 2637SOL    HW218591   0.752   3.413   0.371  0.4402 -0.2633 -0.5643
 2638SOL     OW18592   7.465   8.425   2.735  0.1549  0.2212 -0.3192
 2638SOL    HW118593   7.450   8.327   2.719 -0.6370  0.0559  1.3758
 2638SOL    HW218594   7.524   8.462   2.663  0.4176 -1.4925 -0.9987
 2639SOL     OW18595   4.405   8.092   1.598  0.1371  0.0596  0.5079
 2639SOL    HW118596   4.389   8.001   1.637  0.0614  1.4015  3.7376
 2639SOL    HW218597   4.500   8.119   1.615  0.2281  0.4851 -0.6762
 2640SOL     OW18598   4.492   0.367   2.419 -0.0607 -0.3182 -0.7143
 2640SOL    HW118599   4.445   0.280   2.432  0.8147 -0.6087  0.5860
 2640SOL    HW218600   4.541   0.392   2.503 -0.6545  1.6405 -0.9187
 2641SOL     OW18601   8.534   6.661   3.675  0.3658 -0.0500  0.2210
 2641SOL    HW118602   8.631   6.640   3.685  0.5956  1.5338  1.5868
 2641SOL    HW218603   8.523   6.759   3.660 -0.9913 -0.3025 -0.4516
 2642SOL     OW18604   2.179   4.627   0.656 -0.0861  0.5645 -0.4244
 2642SOL    HW118605   2.158   4.701   0.719  0.2797  2.1912 -2.1729
 2642SOL    HW218606   2.109   4.555   0.665  0.6939  0.1640  2.7051
 2643SOL     OW18607   1.191   5.578   4.253 -0.1927  0.2810  0.2672
 2643SOL    HW118608   1.174   5.648   4.185  0.3511 -0.2751 -0.4538
 2643SOL    HW218609   1.245   5.504   4.212  0.1123 -0.0760  1.2850
 2644SOL     OW18610   8.394   4.994   1.248 -0.1832  0.3143  0.2370
 2644SOL    HW118611   8.328   4.996   1.323 -1.5390 -0.1317 -0.9058
 2644SOL    HW218612   8.464   4.926   1.267 -0.5016  0.2323  1.1197
 2645SOL     OW18613   8.542   2.703   4.044 -0.0047 -0.0539  0.0476
 2645SOL    HW118614   8.637   2.675   4.055 -0.2114 -0.4977  0.6884
 2645SOL    HW218615   8.482   2.634   4.082 -0.6310 -0.3016 -1.3683
 2646SOL     OW18616   9.979   9.759   1.280 -0.4235 -0.2150 -0.3225
 2646SOL    HW118617  10.029   9.673   1.292  0.0267 -0.1429 -1.6276
 2646SOL    HW218618   9.975   9.807   1.368 -2.4163 -2.4769  0.9196
 2647SOL     OW18619   9.349   1.315   2.616 -0.2283  0.2425  0.0977
 2647SOL    HW118620   9.255   1.282   2.622 -0.6405  1.4004  0.1183
 2647SOL    HW218621   9.350   1.415   2.614  0.9226  0.2303 -1.1296
 2648SOL     OW18622   3.864   4.497   3.343 -0.0288 -0.0480 -0.1795
 2648SOL    HW118623   3.919   4.574   3.375 -0.6925  0.6398 -0.7087
 2648SOL    HW218624   3.851   4.432   3.419  0.9761  0.0922  0.1169
 2649SOL     OW18625   2.990   1.205   2.793 -0.0225 -0.2003 -0.2541
 2649SOL    HW118626   3.042   1.214   2.878 -1.5286  1.6776  0.5064
 2649SOL    HW218627   3.051   1.212   2.715  1.5416 -2.9911  0.6403
 2650SOL     OW18628   0.218   2.518   3.866  0.3065 -0.4900 -0.5736
 2650SOL    HW118629   0.170   2.515   3.953  1.0003 -0.7448 -0.1975
 2650SOL    HW218630   0.220   2.426   3.826 -1.4789 -0.0779 -1.6711
 2651SOL     OW18631   0.153   5.637   4.391 -0.0777 -0.0745 -0.1634
 2651SOL    HW118632   0.234   5.609   4.442 -1.2368 -1.3493  1.0236
 2651SOL    HW218633   0.171   5.630   4.293  1.4504  0.3128  0.0782
 2652SOL     OW18634   2.182   7.323   2.638 -0.1958  0.6525 -0.0101
 2652SOL    HW118635   2.086   7.328   2.610  0.1510 -1.4575 -1.6560
 2652SOL    HW218636   2.239   7.363   2.567  0.4211 -1.4851 -0.7352
 2653SOL     OW18637   9.539   9.432   3.580  0.5791 -0.3056 -0.4165
 2653SOL    HW118638   9.443   9.424   3.554  0.1584  0.0755  0.9831
 2653SOL    HW218639   9.588   9.349   3.553 -0.3837 -0.9743 -0.1446
 2654SOL     OW18640   4.394   0.312   3.375 -0.1622 -0.0981  0.1782
 2654SOL    HW118641   4.447   0.394   3.352 -1.1207  0.6206  0.5464
 2654SOL    HW218642   4.305   0.316   3.329 -0.2675 -0.8693  0.3138
 2655SOL     OW18643   0.560   0.231   1.614 -0.1588 -0.1126 -0.2556
 2655SOL    HW118644   0.628   0.215   1.542 -0.5028  1.6973 -1.0148
 2655SOL    HW218645   0.471   0.248   1.572 -0.8190 -1.1753  0.6942
 2656SOL     OW18646   3.753   1.419   3.720 -0.3517 -0.0688  0.6429
 2656SOL    HW118647   3.761   1.447   3.815  1.4602  0.9863  0.1998
 2656SOL    HW218648   3.843   1.397   3.683 -0.9449  0.1107 -0.9978
 2657SOL     OW18649   9.901   7.154   1.366  0.3487 -0.1445  0.1384
 2657SOL    HW118650   9.820   7.106   1.399  0.6903  0.0167  1.2343
 2657SOL    HW218651   9.874   7.224   1.299 -0.5235  0.5287  1.1715
 2658SOL     OW18652   1.438   8.991   2.149  0.7245 -0.0994  0.3554
 2658SOL    HW118653   1.528   9.023   2.178  0.5585  2.6751 -1.9620
 2658SOL    HW218654   1.382   9.070   2.121 -0.8406 -2.1364 -2.4964
 2659SOL     OW18655   4.480   4.608   4.164 -0.4011  0.2166 -0.1057
 2659SOL    HW118656   4.489   4.601   4.064 -1.1147 -1.9231 -0.0366
 2659SOL    HW218657   4.427   4.530   4.198  2.1739 -0.5821  2.2406
 2660SOL     OW18658   4.642   0.092   2.447  0.4463 -0.3117  0.8320
 2660SOL    HW118659   4.666   0.018   2.510 -0.2461  0.8390  2.4900
 2660SOL    HW218660   4.545   0.113   2.455  0.1677 -0.6968 -1.2551
 2661SOL     OW18661   3.382   8.468   4.436 -0.0418 -0.0197 -0.4865
 2661SOL    HW118662   3.311   8.463   4.507  0.0499  1.6415 -0.2704
 2661SOL    HW218663   3.347   8.430   4.351 -1.0625  0.4256 -0.2704
 2662SOL     OW18664   4.230   1.429   3.974  0.6444  0.4371  0.0524
 2662SOL    HW118665   4.297   1.503   3.975  1.0676  0.0584 -0.3612
 2662SOL    HW218666   4.264   1.353   4.030 -0.2789  0.9818  1.3919
 2663SOL     OW18667   7.787   0.109   0.035 -0.2936 -0.0431  0.2230
 2663SOL    HW118668   7.745   0.198   0.019  2.3883  1.1894 -0.2048
 2663SOL    HW218669   7.820   0.103   0.129  0.0884 -0.3354  0.0750
 2664SOL     OW18670   1.032   9.078   2.808  0.0719 -0.6116  0.4671
 2664SOL    HW118671   1.031   9.165   2.759  0.3311 -0.2593  1.0728
 2664SOL    HW218672   1.058   9.095   2.903 -0.2760 -1.3040  0.6832
 2665SOL     OW18673   9.320   4.811   4.778  0.3857  0.3922 -0.2699
 2665SOL    HW118674   9.298   4.790   4.683  1.8314 -0.1542 -0.5031
 2665SOL    HW218675   9.239   4.799   4.836 -0.9451  2.3296 -1.6666
 2666SOL     OW18676   1.702   5.367   1.936  0.4062  0.5508 -0.4204
 2666SOL    HW118677   1.686   5.278   1.892  0.2145  1.1830 -1.6645
 2666SOL    HW218678   1.682   5.440   1.871 -1.4523  1.5553  1.2356
 2667SOL     OW18679   4.269   9.079   2.618 -0.3337  0.1716  0.0807
 2667SOL    HW118680   4.304   9.120   2.702 -0.7785 -0.4649  0.5837
 2667SOL    HW218681   4.238   9.152   2.556  0.5247  0.6689  0.2196
 2668SOL     OW18682   1.503   0.439   1.102  0.5847 -0.2087  0.0397
 2668SOL    HW118683   1.557   0.521   1.086  2.8788 -1.5276  0.8396
 2668SOL    HW218684   1.559   0.358   1.085 -1.5345 -1.6259 -0.3744
 2669SOL     OW18685   4.142   8.162   3.674  0.0351 -0.6809 -0.1735
 2669SOL    HW118686   4.047   8.186   3.695  0.2083 -0.3275  0.2133
 2669SOL    HW218687   4.181   8.112   3.751  0.0100 -1.2663 -0.5375
 2670SOL     OW18688   8.296   5.301   3.251  0.8039 -0.1399 -0.0866
 2670SOL    HW118689   8.326   5.264   3.338  0.6335  0.5180  0.2551
 2670SOL    HW218690   8.253   5.229   3.196 -0.4295 -0.2176  0.9733
 2671SOL     OW18691   9.233   6.306   2.978 -0.0239 -0.3626 -0.0870
 2671SOL    HW118692   9.212   6.254   2.896 -0.7721 -3.2355  1.8238
 2671SOL    HW218693   9.149   6.347   3.014  0.3280  1.0154 -0.8185
 2672SOL     OW18694   2.883   3.746   0.756  0.0771 -0.5109  0.9043
 2672SOL    HW118695   2.805   3.734   0.818 -0.0811  0.7892  0.9581
 2672SOL    HW218696   2.931   3.659   0.747 -0.8406 -1.1025  1.5928
 2673SOL     OW18697   9.090   2.435   3.980 -0.4806  0.4499 -0.7805
 2673SOL    HW118698   9.023   2.383   3.927 -0.0149 -1.2322  0.2595
 2673SOL    HW218699   9.171   2.453   3.924  0.1423 -1.5988 -0.5561
 2674SOL     OW18700   9.386   0.514   2.964 -0.1278 -0.3447 -0.0369
 2674SOL    HW118701   9.311   0.472   2.912  1.7334 -0.9232 -2.3392
 2674SOL    HW218702   9.412   0.454   3.039 -2.4025  0.1740  1.2213
 2675SOL     OW18703   2.363   7.393   1.695  0.1725 -0.3759  0.7296
 2675SOL    HW118704   2.373   7.321   1.626 -0.1802  0.7167 -0.4705
 2675SOL    HW218705   2.271   7.390   1.733  0.0431 -0.3210  0.4192
 2676SOL     OW18706   1.662   8.832   2.521 -0.1940  0.3426 -0.5131
 2676SOL    HW118707   1.700   8.924   2.513  1.0799 -0.4198 -4.5439
 2676SOL    HW218708   1.575   8.827   2.474 -0.0462 -0.6215 -0.7039
 2677SOL     OW18709   4.936   7.404   0.509 -0.3077  0.2804  0.1987
 2677SOL    HW118710   4.932   7.404   0.609  0.3859 -0.8096  0.2311
 2677SOL    HW218711   4.885   7.326   0.474  2.2004 -1.2501 -0.1569
 2678SOL     OW18712   5.060   8.153   0.340  0.3301 -0.4602  0.1602
 2678SOL    HW118713   4.970   8.117   0.317  0.6607 -0.8509 -0.5405
 2678SOL    HW218714   5.085   8.224   0.274  1.2634 -1.5478 -0.6674
 2679SOL     OW18715   0.415   8.716   0.429  0.0844  0.1626 -0.5849
 2679SOL    HW118716   0.347   8.687   0.497  1.6538  0.3364  1.1276
 2679SOL    HW218717   0.410   8.657   0.349 -1.7545 -0.1170 -0.2874
 2680SOL     OW18718   9.823   1.483   3.091  0.5097 -0.2088  0.2117
 2680SOL    HW118719   9.915   1.449   3.113 -0.0193 -1.7881  0.0407
 2680SOL    HW218720   9.778   1.420   3.028 -0.3617  1.0266 -0.4191
 2681SOL     OW18721   2.436   9.879   4.276 -0.0442  0.7032  0.2533
 2681SOL    HW118722   2.431   9.848   4.181 -0.4640  1.9083 -0.1200
 2681SOL    HW218723   2.523   9.925   4.291 -1.2715  3.3229 -0.4178
 2682SOL     OW18724   9.063   5.652   4.358  0.0524  0.5096  0.1752
 2682SOL    HW118725   8.982   5.624   4.307  1.4555  0.3434 -2.0151
 2682SOL    HW218726   9.086   5.746   4.335  1.6913 -0.1157 -0.8665
 2683SOL     OW18727   8.172   8.618   1.995 -0.7760 -0.0551 -0.4259
 2683SOL    HW118728   8.152   8.526   2.029 -3.2949  1.0583  1.3044
 2683SOL    HW218729   8.103   8.643   1.927 -0.4161  0.7246 -0.5021
 2684SOL     OW18730   3.082   4.800   3.697 -0.2834 -0.1432 -0.1576
 2684SOL    HW118731   3.181   4.815   3.694 -0.3417  0.3456  0.2992
 2684SOL    HW218732   3.053   4.756   3.612 -0.0411  1.9342 -1.3415
 2685SOL     OW18733   9.590   1.677   0.838 -0.6411  0.2079  0.3489
 2685SOL    HW118734   9.542   1.633   0.914 -1.7143 -0.1117 -0.4960
 2685SOL    HW218735   9.680   1.634   0.826 -0.5015  0.1985  1.3707
 2686SOL     OW18736   0.790   0.030   3.052 -0.4747 -0.4373 -0.2278
 2686SOL    HW118737   0.839   0.097   2.997 -1.5656 -0.6695 -1.5114
 2686SOL    HW218738   0.695   0.024   3.021 -0.5029 -2.2677  0.1420
 2687SOL     OW18739   8.812   6.339   1.106  0.3194 -0.2260  0.1967
 2687SOL    HW118740   8.786   6.433   1.129 -1.8566 -0.1443 -2.2619
 2687SOL    HW218741   8.779   6.277   1.176 -1.2650  0.5335  0.1499
 2688SOL     OW18742   3.124   3.304   4.248 -0.3970  0.1159  0.1457
 2688SOL    HW118743   3.207   3.357   4.234 -0.6870  0.0124 -2.1559
 2688SOL    HW218744   3.079   3.334   4.332  1.0739  1.3275  0.5244
 2689SOL     OW18745   7.894   2.632   2.726 -0.6160  0.2835 -0.5247
 2689SOL    HW118746   7.910   2.559   2.793 -0.8882 -0.9160 -1.7411
 2689SOL    HW218747   7.944   2.714   2.753  2.4968 -1.4114 -0.9363
 2690SOL     OW18748   0.223   5.468   0.459 -0.8287  0.2806  0.0357
 2690SOL    HW118749   0.322   5.457   0.446 -0.7415  2.0328 -0.8858
 2690SOL    HW218750   0.174   5.419   0.387 -0.5556  1.9531 -1.2990
 2691SOL     OW18751   8.818   9.729   0.657 -0.2491 -0.2292 -0.3784
 2691SOL    HW118752   8.731   9.683   0.637 -0.0277 -0.4441 -0.8371
 2691SOL    HW218753   8.890   9.660   0.670 -0.4374 -0.1242  1.4314
 2692SOL     OW18754   2.119   2.221   0.318  0.2753  0.1139 -0.4493
 2692SOL    HW118755   2.088   2.268   0.235  1.1412  2.7803  0.6902
 2692SOL    HW218756   2.191   2.157   0.295  0.5529  0.8785 -1.7623
 2693SOL     OW18757   9.986   2.377   2.418 -0.6143  0.0599 -0.2141
 2693SOL    HW118758   9.897   2.358   2.460 -1.6883 -0.3735 -2.6472
 2693SOL    HW218759   9.982   2.358   2.320  1.9894  0.6436 -0.4693
 2694SOL     OW18760   8.752   0.236   3.604 -0.1209 -0.1282  0.0812
 2694SOL    HW118761   8.734   0.141   3.630 -0.9745  0.2994  1.0432
 2694SOL    HW218762   8.696   0.298   3.658 -0.0532  0.9098 -1.0022
 2695SOL     OW18763   8.477   8.847   0.191 -0.7800  0.0075 -0.3140
 2695SOL    HW118764   8.476   8.755   0.230 -0.9328 -0.3953 -1.2473
 2695SOL    HW218765   8.440   8.844   0.098  0.9929  0.6848 -1.0658
 2696SOL     OW18766   7.049   4.742   4.566  0.5327 -0.3675 -0.0661
 2696SOL    HW118767   6.979   4.672   4.577  0.3106 -0.1828 -0.2864
 2696SOL    HW218768   7.126   4.705   4.513  0.4590 -0.4724 -0.0991
 2697SOL     OW18769   2.679   8.186   4.381 -0.9234 -0.3113 -0.0687
 2697SOL    HW118770   2.618   8.263   4.404  1.2926  1.6701 -0.6371
 2697SOL    HW218771   2.771   8.207   4.412  0.1195 -1.8835 -2.0386
 2698SOL     OW18772   0.177   2.272   4.276 -0.2809  0.3866 -0.4948
 2698SOL    HW118773   0.163   2.234   4.368 -1.1619 -0.2761 -0.8904
 2698SOL    HW218774   0.163   2.372   4.279  0.8897  0.5304  0.3217
 2699SOL     OW18775   0.317   8.074   0.368 -0.2216  0.3039 -0.3933
 2699SOL    HW118776   0.381   8.142   0.331  0.4823 -1.2580 -2.1112
 2699SOL    HW218777   0.345   7.983   0.339 -1.4152 -0.7066  1.5161
 2700SOL     OW18778   0.917   8.488   3.090  0.1764  0.1147 -0.5983
 2700SOL    HW118779   0.992   8.487   3.024  0.5569  0.7066 -0.1758
 2700SOL    HW218780   0.874   8.579   3.091 -0.6319 -0.2524 -0.9249
 2701SOL     OW18781   8.418   1.628   0.578 -0.1529  0.4475  0.2226
 2701SOL    HW118782   8.500   1.641   0.634 -0.7590 -0.2022  1.2802
 2701SOL    HW218783   8.348   1.582   0.632 -0.9756  0.3748 -0.8912
 2702SOL     OW18784   5.617   7.466   3.543 -0.3106  0.0093 -0.0244
 2702SOL    HW118785   5.535   7.504   3.501 -1.0069 -1.1276  0.2950
 2702SOL    HW218786   5.592   7.390   3.603  0.9735 -0.3149  0.1111
 2703SOL     OW18787   2.263   4.964   3.803 -0.0321  0.0358  0.3766
 2703SOL    HW118788   2.206   4.934   3.879  0.0703  1.1262  0.8934
 2703SOL    HW218789   2.235   5.056   3.775  0.8663  0.2061  0.0262
 2704SOL     OW18790   2.179   9.138   1.036  0.2047 -0.6718  0.2072
 2704SOL    HW118791   2.124   9.221   1.027  0.8870 -0.2060  0.2640
 2704SOL    HW218792   2.243   9.133   0.959 -2.2035 -2.9717 -1.7845
 2705SOL     OW18793   0.074   1.257   3.874  0.0736  0.5276 -0.2921
 2705SOL    HW118794   0.008   1.215   3.935 -0.1929  1.2404 -0.0862
 2705SOL    HW218795   0.100   1.347   3.909 -1.0974  1.5345 -1.9172
 2706SOL     OW18796   2.545   9.281   0.265 -0.5901  0.0399  0.1926
 2706SOL    HW118797   2.483   9.205   0.246  1.1236 -0.8179 -2.1761
 2706SOL    HW218798   2.638   9.247   0.275  0.2235  1.8297 -0.9917
 2707SOL     OW18799   3.496   9.951   0.321 -0.4234  0.2943  0.2886
 2707SOL    HW118800   3.592   9.923   0.317 -0.8946 -1.1409 -1.8839
 2707SOL    HW218801   3.443   9.880   0.367 -0.8344 -0.1606 -0.8557
 2708SOL     OW18802   1.259   0.533   0.230 -0.0650  0.1976 -0.1900
 2708SOL    HW118803   1.279   0.440   0.200 -2.4345 -0.0459 -1.1247
 2708SOL    HW218804   1.264   0.538   0.330  0.4757 -0.8196 -0.1644
 2709SOL     OW18805   0.241   2.307   2.988  0.0159  0.4399 -0.0200
 2709SOL    HW118806   0.314   2.282   2.923  0.1711 -1.6799  0.9399
 2709SOL    HW218807   0.156   2.323   2.937  0.7376  1.2607 -0.9900
 2710SOL     OW18808   7.353   0.910   2.188 -0.0159  0.4658  0.1591
 2710SOL    HW118809   7.275   0.964   2.222  0.2923  0.2502  1.1888
 2710SOL    HW218810   7.402   0.964   2.119 -0.9526  0.6841 -0.3549
 2711SOL     OW18811   1.312   0.909   4.732  0.0808  0.1923 -0.4791
 2711SOL    HW118812   1.235   0.950   4.780  1.0718  0.6256  0.7701
 2711SOL    HW218813   1.386   0.977   4.722  0.1977 -0.1191 -1.9309
 2712SOL     OW18814   8.416   0.664   2.230 -0.2084  0.0508  0.0884
 2712SOL    HW118815   8.414   0.696   2.324  0.7106 -1.2379  0.5668
 2712SOL    HW218816   8.394   0.566   2.228 -1.4753  0.3380 -1.1728
 2713SOL     OW18817   2.566   5.637   3.664  0.2714 -0.1443 -0.0698
 2713SOL    HW118818   2.663   5.615   3.674  0.5323  0.5077 -1.1497
 2713SOL    HW218819   2.556   5.732   3.635 -0.7169 -0.0242  0.6496
 2714SOL     OW18820   9.946   7.999   0.529 -0.4717  0.2453 -0.0212
 2714SOL    HW118821   9.932   8.093   0.498 -0.6629  0.2726  0.1509
 2714SOL    HW218822   9.983   7.999   0.622  2.4053  0.2237 -1.0877
 2715SOL     OW18823   3.288   8.102   3.879  0.6532  0.2232 -0.3413
 2715SOL    HW118824   3.343   8.033   3.831 -1.1632 -0.9712 -0.7755
 2715SOL    HW218825   3.330   8.123   3.967  1.0341 -1.8075  0.0038
 2716SOL     OW18826   1.372   0.051   3.149  0.9531  0.3240  0.3975
 2716SOL    HW118827   1.387   0.147   3.124  0.8638 -0.5238 -3.1092
 2716SOL    HW218828   1.274   0.035   3.161  0.8422  0.3289 -0.4967
 2717SOL     OW18829   1.378   9.798   2.372  0.0139 -0.2270 -0.4499
 2717SOL    HW118830   1.280   9.788   2.386 -0.0293 -0.3972 -0.8962
 2717SOL    HW218831   1.402   9.774   2.278  0.5732 -0.8453 -0.1583
 2718SOL     OW18832   0.123   6.835   3.088 -0.4351 -0.1269  0.6334
 2718SOL    HW118833   0.081   6.745   3.074  0.4687 -0.7920  2.0160
 2718SOL    HW218834   0.215   6.836   3.049 -0.3142  0.0885  0.9213
 2719SOL     OW18835   9.209   4.287   3.940  0.4749 -0.4494 -0.4928
 2719SOL    HW118836   9.161   4.361   3.988 -0.6911 -1.3207 -0.2838
 2719SOL    HW218837   9.295   4.322   3.903 -0.6714  1.3850 -1.5564
 2720SOL     OW18838   8.155   8.921   2.385 -0.3906 -0.3584 -0.1699
 2720SOL    HW118839   8.223   8.972   2.332 -0.3171 -0.9945 -0.6922
 2720SOL    HW218840   8.063   8.948   2.355 -0.3906  1.3702  1.3567
 2721SOL     OW18841   1.884   2.017   2.899 -0.3830 -0.1475  0.1096
 2721SOL    HW118842   1.875   1.925   2.937  0.8792  0.4198  1.8260
 2721SOL    HW218843   1.823   2.079   2.948  0.5011  0.3904  0.5327
 2722SOL     OW18844   3.748   7.668   2.419 -0.0863 -0.2625  0.2865
 2722SOL    HW118845   3.781   7.674   2.513  0.2131 -1.3583  0.2578
 2722SOL    HW218846   3.662   7.617   2.417 -0.6942  0.7625  0.1038
 2723SOL     OW18847   2.783   7.092   4.723 -0.3870  0.2495 -0.3593
 2723SOL    HW118848   2.780   7.165   4.655  0.0018 -0.0930 -0.7485
 2723SOL    HW218849   2.708   7.028   4.706 -0.6576  0.4966 -0.0903
 2724SOL     OW18850   3.338   5.224   3.685 -0.3894  0.3084  0.0819
 2724SOL    HW118851   3.424   5.204   3.733  0.6211  0.0832 -1.7558
 2724SOL    HW218852   3.336   5.321   3.660 -0.5176  0.2358 -0.1841
 2725SOL     OW18853   9.523   8.685   0.947  0.0316 -0.6968 -0.0532
 2725SOL    HW118854   9.558   8.756   1.008  0.8004  0.1479 -1.4435
 2725SOL    HW218855   9.437   8.716   0.907 -0.8395 -1.5509  1.1347
 2726SOL     OW18856   7.415   0.103   4.066  0.5862 -0.2846  0.3652
 2726SOL    HW118857   7.419   0.093   3.967  0.1251  1.5651  0.1477
 2726SOL    HW218858   7.505   0.130   4.101  0.2662  0.9597  0.2278
 2727SOL     OW18859   0.890   6.162   1.186 -0.2369 -0.6412 -0.1487
 2727SOL    HW118860   0.793   6.182   1.170  0.2055  1.0189 -0.8926
 2727SOL    HW218861   0.900   6.069   1.222 -2.2880 -0.0619  2.0596
 2728SOL     OW18862   2.404   8.042   3.266 -0.0810  0.3429  0.1197
 2728SOL    HW118863   2.344   8.057   3.345 -0.5263 -0.1445 -0.1164
 2728SOL    HW218864   2.374   8.100   3.190 -1.5455 -1.3660 -0.6591
 2729SOL     OW18865   1.455   0.494   1.430  0.1561 -0.4453  0.1529
 2729SOL    HW118866   1.430   0.426   1.361 -1.4784 -0.1158  0.3858
 2729SOL    HW218867   1.472   0.582   1.385  0.1208 -0.4862  0.0588
 2730SOL     OW18868   2.001   8.741   2.856 -0.2236  0.0064 -0.0612
 2730SOL    HW118869   1.979   8.835   2.829 -0.2581  0.0135 -0.0092
 2730SOL    HW218870   2.076   8.707   2.801 -0.6081 -0.1448 -0.4937
 2731SOL     OW18871   9.379   5.855   0.771 -0.6818 -0.1068 -0.0162
 2731SOL    HW118872   9.321   5.780   0.802 -1.5010  0.4396 -0.2047
 2731SOL    HW218873   9.419   5.901   0.851 -0.7116 -0.3303  0.1272
 2732SOL     OW18874   1.941   5.822   0.949 -0.2271  0.0371  0.0852
 2732SOL    HW118875   2.024   5.832   1.005 -0.0814 -0.8075  0.0377
 2732SOL    HW218876   1.893   5.909   0.943  1.0867  0.7315 -0.5384
 2733SOL     OW18877   4.637   1.329   1.355  0.2357  0.4924  0.0698
 2733SOL    HW118878   4.626   1.428   1.346  1.3567  0.5436 -0.8232
 2733SOL    HW218879   4.580   1.296   1.431 -0.4082  1.7613  0.1576
 2734SOL     OW18880   8.141   4.870   4.183  0.1137 -0.2599  0.1368
 2734SOL    HW118881   8.160   4.927   4.262  1.4538  0.4588 -0.6877
 2734SOL    HW218882   8.215   4.804   4.170 -0.1489 -0.4499 -0.4412
 2735SOL     OW18883   8.512   5.057   4.405  0.5948 -0.4667 -0.1345
 2735SOL    HW118884   8.571   5.074   4.326  0.2466  2.1364  0.1449
 2735SOL    HW218885   8.566   5.066   4.489  0.1466  0.3986  0.0615
 2736SOL     OW18886   5.709   9.482   3.970  0.4543  0.1925 -0.6461
 2736SOL    HW118887   5.655   9.515   3.893  1.4800 -1.2976 -2.0413
 2736SOL    HW218888   5.806   9.497   3.951  0.6476  1.2109  1.0418
 2737SOL     OW18889   2.398   7.913   0.616 -0.0548  0.1725 -0.3437
 2737SOL    HW118890   2.465   7.908   0.542  2.3140 -0.7889  1.8029
 2737SOL    HW218891   2.409   8.000   0.664  1.0373 -0.8226  1.2498
 2738SOL     OW18892   2.403   2.689   4.321  0.4308 -0.2790 -0.7538
 2738SOL    HW118893   2.304   2.698   4.312  0.4477 -1.7877 -2.7014
 2738SOL    HW218894   2.448   2.751   4.256  0.8407  2.2706  1.8603
 2739SOL     OW18895   0.958   0.263   3.514  0.3649  0.0490  0.2610
 2739SOL    HW118896   0.992   0.175   3.547 -2.6827 -1.3164 -0.1710
 2739SOL    HW218897   0.983   0.275   3.418  1.5994  0.1175  0.5745
 2740SOL     OW18898   9.784   8.625   4.543  0.8078  0.0048 -1.0607
 2740SOL    HW118899   9.736   8.542   4.516  0.5573 -0.0971 -0.3174
 2740SOL    HW218900   9.866   8.601   4.595 -0.2899  0.2337  0.8502
 2741SOL     OW18901   8.926   4.425   2.904 -0.0186 -0.5576  0.2963
 2741SOL    HW118902   8.904   4.431   2.806  0.5474  1.4563  0.2654
 2741SOL    HW218903   8.846   4.452   2.958  0.1992 -0.0155  0.3479
 2742SOL     OW18904   0.711   6.238   4.758  0.5601 -0.1139  0.2678
 2742SOL    HW118905   0.626   6.253   4.708  0.5143  1.8581  0.8842
 2742SOL    HW218906   0.789   6.259   4.699  0.5224  1.4635  0.7535
 2743SOL     OW18907   0.757   4.434   4.021  0.0946 -0.3296 -0.2614
 2743SOL    HW118908   0.811   4.417   4.104  0.0047  0.3549 -0.0610
 2743SOL    HW218909   0.703   4.352   4.000  1.8760 -1.3356 -0.9790
 2744SOL     OW18910   5.557   9.567   2.462 -0.6870 -0.1326 -0.1174
 2744SOL    HW118911   5.541   9.579   2.560 -2.3457  0.5119 -0.4504
 2744SOL    HW218912   5.528   9.475   2.435 -2.5865  0.5498 -0.4568
 2745SOL     OW18913   1.021   7.019   2.504  0.4280 -0.4664  0.9063
 2745SOL    HW118914   1.060   7.101   2.544  0.3820  0.0757 -0.1303
 2745SOL    HW218915   0.922   7.029   2.497  0.5933  0.2072 -0.9666
 2746SOL     OW18916   6.351   8.822   2.312  0.3017  0.1647  0.3963
 2746SOL    HW118917   6.369   8.846   2.408 -0.0337 -1.0416  0.7720
 2746SOL    HW218918   6.312   8.730   2.308  0.6281  0.0781 -0.9303
 2747SOL     OW18919   1.048   4.750   0.425 -0.0838 -0.0954  0.0152
 2747SOL    HW118920   1.051   4.737   0.326 -0.7758  1.5852 -0.2251
 2747SOL    HW218921   1.061   4.846   0.447 -0.0965 -0.4331  1.5627
 2748SOL     OW18922   9.667   4.582   4.584  0.1947 -0.0907  0.2699
 2748SOL    HW118923   9.753   4.533   4.570  0.6665  0.8538 -0.1563
 2748SOL    HW218924   9.677   4.646   4.660  0.5017  1.4652 -1.0576
 2749SOL     OW18925   3.057   5.545   0.444 -0.0195 -0.6788  0.1376
 2749SOL    HW118926   3.052   5.469   0.379 -1.2725 -1.2344  0.8579
 2749SOL    HW218927   3.093   5.626   0.398  0.7730 -1.5443 -0.7904
 2750SOL     OW18928   9.091   2.157   1.487  0.0800  0.4521 -0.5996
 2750SOL    HW118929   9.030   2.189   1.414  0.4582 -0.0361 -1.1254
 2750SOL    HW218930   9.056   2.071   1.524 -0.8496  1.3699  0.7101
 2751SOL     OW18931   9.793   5.812   0.198  0.1769  0.3721 -0.2024
 2751SOL    HW118932   9.838   5.802   0.286  0.7611 -1.2073 -0.6472
 2751SOL    HW218933   9.704   5.765   0.201  0.7546 -0.7895 -0.8209
 2752SOL     OW18934   4.149   2.161   0.005  0.4012  0.3686 -0.1227
 2752SOL    HW118935   4.198   2.076  -0.012  0.7738  0.5668 -0.0337
 2752SOL    HW218936   4.066   2.141   0.058  0.5539  0.0804  0.0085
 2753SOL     OW18937   8.494   0.875   0.909 -0.8360  0.1388  0.0894
 2753SOL    HW118938   8.528   0.900   0.819 -1.9427 -0.4783 -0.5117
 2753SOL    HW218939   8.560   0.815   0.955 -0.8969 -0.6716 -0.8715
 2754SOL     OW18940   2.180   2.586   2.389  0.5949 -0.7104  0.1345
 2754SOL    HW118941   2.262   2.530   2.398 -0.0647 -1.5600  1.0737
 2754SOL    HW218942   2.118   2.565   2.465 -0.5719 -0.2330 -0.6755
 2755SOL     OW18943   8.955   5.022   0.698 -0.3099  0.3950  0.1935
 2755SOL    HW118944   9.055   5.025   0.702 -0.1790 -2.2352  0.0451
 2755SOL    HW218945   8.926   5.008   0.604 -0.8795  2.1784  0.0915
 2756SOL     OW18946   9.377   5.283   4.584  0.0974  0.3813 -0.1855
 2756SOL    HW118947   9.384   5.263   4.486 -0.7860  0.0550 -0.1856
 2756SOL    HW218948   9.379   5.198   4.636 -1.7937  0.3995 -0.0707
 2757SOL     OW18949   2.621   4.749   0.333 -0.0263  0.5864 -0.0006
 2757SOL    HW118950   2.596   4.721   0.426  0.0544  1.4040  0.2663
 2757SOL    HW218951   2.556   4.709   0.268  0.1023 -0.2509  0.3737
 2758SOL     OW18952   2.988   9.781   4.281  0.1442 -0.0429 -0.0662
 2758SOL    HW118953   2.930   9.750   4.205  1.2305 -1.9420 -0.1581
 2758SOL    HW218954   2.931   9.797   4.361 -0.7737  0.0615 -0.7240
 2759SOL     OW18955   5.223   6.652   2.422 -0.3916  0.0367 -0.2348
 2759SOL    HW118956   5.174   6.721   2.370  0.5068 -0.7469 -2.1624
 2759SOL    HW218957   5.190   6.561   2.397  0.4523 -0.3788  0.1297
 2760SOL     OW18958   2.405   0.613   2.382  0.2104  0.4759 -0.3032
 2760SOL    HW118959   2.311   0.641   2.402 -0.2345 -0.4594 -1.0241
 2760SOL    HW218960   2.468   0.677   2.424 -0.7151  0.1247  1.7032
 2761SOL     OW18961   0.934   4.454   0.433 -0.0146  0.0243 -0.2150
 2761SOL    HW118962   0.937   4.554   0.427 -2.1485  0.2949  2.4095
 2761SOL    HW218963   0.839   4.424   0.437  0.6369 -1.8103  3.0352
 2762SOL     OW18964   6.672   9.647   3.646 -0.2843 -0.3516 -0.3433
 2762SOL    HW118965   6.723   9.617   3.726  2.5901  0.8245 -1.6727
 2762SOL    HW218966   6.669   9.574   3.578  1.4295  0.2398 -1.0831
 2763SOL     OW18967   1.982   9.947   0.227 -0.4574 -0.2552 -0.4679
 2763SOL    HW118968   1.961   9.898   0.312  2.9828  1.0106  1.2275
 2763SOL    HW218969   2.061   9.905   0.184  0.4714  1.7314 -0.7513
 2764SOL     OW18970   8.890   3.741   2.866 -0.0780  0.2613 -0.5054
 2764SOL    HW118971   8.884   3.646   2.897  0.6195 -0.2130 -1.7814
 2764SOL    HW218972   8.811   3.792   2.899  0.2510 -0.4104  1.3698
 2765SOL     OW18973   1.109   0.438   1.242 -0.0348  0.4247 -0.5316
 2765SOL    HW118974   1.020   0.408   1.208  0.1107 -1.0363  0.3263
 2765SOL    HW218975   1.110   0.433   1.341  1.4285 -0.8139 -0.5925
 2766SOL     OW18976   2.727   3.678   0.347  0.8165  0.3745 -0.9659
 2766SOL    HW118977   2.748   3.656   0.252  1.4268 -1.5004 -0.4124
 2766SOL    HW218978   2.804   3.729   0.387 -0.0516  2.4521 -1.8724
 2767SOL     OW18979   3.545   4.943   1.394 -0.0360 -0.0582  0.1260
 2767SOL    HW118980   3.506   4.995   1.319  1.0873 -1.9330 -1.8442
 2767SOL    HW218981   3.616   4.997   1.440 -1.7687  1.6513  0.8119
 2768SOL     OW18982   9.727   0.296   3.829  0.0824  0.1936 -0.1723
 2768SOL    HW118983   9.632   0.319   3.812  0.5799  0.4383 -2.8982
 2768SOL    HW218984   9.786   0.369   3.795  1.2911 -0.3532  0.6822
 2769SOL     OW18985   1.374   8.519   0.367 -0.0456 -0.0256 -0.1617
 2769SOL    HW118986   1.428   8.522   0.451 -0.1513 -0.8627 -0.0590
 2769SOL    HW218987   1.432   8.491   0.291 -0.5174 -1.8333  0.1169
 2770SOL     OW18988   3.420   3.647   0.847 -0.6719  0.1939 -0.3956
 2770SOL    HW118989   3.351   3.598   0.794 -0.7342  1.0199 -1.0884
 2770SOL    HW218990   3.510   3.632   0.806 -0.7382  0.9423 -0.8283
 2771SOL     OW18991   4.878   2.092   1.443 -0.1309 -0.2785 -0.0729
 2771SOL    HW118992   4.794   2.140   1.417 -0.0147  0.5037  0.9373
 2771SOL    HW218993   4.885   2.090   1.543  2.4378  2.1727 -0.1192
 2772SOL     OW18994   0.092   9.943   3.791  0.1678  0.1418 -0.3482
 2772SOL    HW118995   0.005   9.893   3.785  0.2481 -0.1950  1.0898
 2772SOL    HW218996   0.101   9.982   3.882  1.0391  1.0897 -0.8375
 2773SOL     OW18997   7.663   7.790   1.531 -0.7237 -0.1805  1.0150
 2773SOL    HW118998   7.585   7.851   1.546  0.8591  1.9684  0.7410
 2773SOL    HW218999   7.734   7.810   1.598  0.6533 -0.3347 -0.3801
 2774SOL     OW19000   3.213   4.317   0.584 -0.4132  0.0508  0.3844
 2774SOL    HW119001   3.181   4.290   0.675 -0.1177  0.7901  0.7099
 2774SOL    HW219002   3.309   4.342   0.589 -0.3599 -0.0485 -0.1636
 2775SOL     OW19003   9.412   5.755   4.659  0.0788 -0.1099 -0.5006
 2775SOL    HW119004   9.350   5.831   4.639 -1.3371 -0.3664  2.6210
 2775SOL    HW219005   9.360   5.669   4.657  0.8409 -0.5865 -0.1587
 2776SOL     OW19006   2.428   2.056   0.741  0.3387 -0.1274  0.0600
 2776SOL    HW119007   2.379   1.984   0.789  2.3390 -1.6575 -0.1102
 2776SOL    HW219008   2.526   2.044   0.756  0.7890  1.4105 -1.5904
 2777SOL     OW19009   5.066   0.385   2.157  0.2635 -0.0549  0.1995
 2777SOL    HW119010   5.144   0.429   2.202  0.2950 -0.5709  0.6475
 2777SOL    HW219011   5.092   0.294   2.127 -0.2330 -0.3108  0.5434
 2778SOL     OW19012   8.428   9.843   2.958  0.7952 -0.1563  0.1976
 2778SOL    HW119013   8.520   9.880   2.970  1.5495 -1.1503 -2.0961
 2778SOL    HW219014   8.398   9.797   3.042  2.8725 -0.8469  0.5849
 2779SOL     OW19015   4.399   0.991   0.688  0.5836 -0.3712  0.1577
 2779SOL    HW119016   4.470   0.921   0.688  0.5529 -0.4012  0.0492
 2779SOL    HW219017   4.373   1.013   0.594  1.3665  0.5608  0.1497
 2780SOL     OW19018   9.331   2.006   1.720  0.1911  0.4694 -0.2789
 2780SOL    HW119019   9.370   2.061   1.794 -0.7966  1.2787 -0.3417
 2780SOL    HW219020   9.355   2.047   1.632 -2.1544  1.9636 -0.2822
 2781SOL     OW19021   9.885   4.997   2.573  0.4999 -0.7843  0.0393
 2781SOL    HW119022   9.800   5.028   2.532  0.7073 -0.4586 -0.1496
 2781SOL    HW219023   9.951   5.073   2.575  1.2399 -1.3908 -1.0247
 2782SOL     OW19024   0.935   3.381   2.851 -0.2631 -0.0232  0.3179
 2782SOL    HW119025   0.988   3.387   2.936  0.3315  1.6306 -0.1620
 2782SOL    HW219026   0.948   3.290   2.810  0.4475 -0.3864  1.3320
 2783SOL     OW19027   1.881   4.404   2.320 -0.0004  0.1942  0.2958
 2783SOL    HW119028   1.976   4.371   2.330 -0.0721  0.1027  0.6741
 2783SOL    HW219029   1.850   4.385   2.227 -0.1126 -1.0254  0.5670
 2784SOL     OW19030   3.190   5.514   0.688 -0.3761 -0.5314 -0.3716
 2784SOL    HW119031   3.178   5.559   0.777  0.6632  0.0668 -0.5293
 2784SOL    HW219032   3.138   5.563   0.618 -0.0737 -0.1874 -0.3528
 2785SOL     OW19033   3.859   8.731   2.746  0.3387 -0.0264  0.3261
 2785SOL    HW119034   3.881   8.817   2.702 -1.2394 -0.7995 -2.1012
 2785SOL    HW219035   3.778   8.743   2.803  0.8053  0.3648  0.9058
 2786SOL     OW19036   9.116   2.320   2.239  0.1842 -0.0506  0.0172
 2786SOL    HW119037   9.137   2.269   2.156  1.1724 -1.7504  1.2727
 2786SOL    HW219038   9.040   2.383   2.221  0.4463 -0.3174 -2.1747
 2787SOL     OW19039   5.210   3.334   0.512  0.3531 -0.2789 -0.2183
 2787SOL    HW119040   5.258   3.251   0.485  0.6077 -0.4316  0.6904
 2787SOL    HW219041   5.258   3.377   0.588  0.0475  0.5352 -0.4777
 2788SOL     OW19042   3.750   5.349   3.527  0.1168  0.1426  0.4343
 2788SOL    HW119043   3.687   5.297   3.584  0.9185 -0.7858  0.4726
 2788SOL    HW219044   3.700   5.424   3.482 -0.5714  0.7278  2.1306
 2789SOL     OW19045   2.102   4.539   4.558  0.0062  0.4836  0.1792
 2789SOL    HW119046   2.063   4.498   4.476  0.1505  1.2442 -0.2689
 2789SOL    HW219047   2.043   4.519   4.636  0.0055 -0.4640 -0.0592
 2790SOL     OW19048   6.956   7.661   2.516  0.2401  0.1480  0.0716
 2790SOL    HW119049   6.914   7.640   2.604 -0.1497  0.0578 -0.1361
 2790SOL    HW219050   7.033   7.599   2.500  0.9353  0.8071  0.7968
 2791SOL     OW19051   9.309   5.535   4.346 -0.0592 -0.6421 -0.1491
 2791SOL    HW119052   9.225   5.587   4.363  0.3987 -0.8024  2.8585
 2791SOL    HW219053   9.368   5.588   4.284 -1.6929  0.1671 -1.0566
 2792SOL     OW19054   2.696   4.694   2.009 -0.0694  0.2248  0.3132
 2792SOL    HW119055   2.627   4.653   1.949  0.2243  0.7870 -0.4187
 2792SOL    HW219056   2.674   4.791   2.024  0.2018  0.2419  0.6065
 2793SOL     OW19057   0.037   5.293   1.209 -0.4995 -0.0417 -0.2580
 2793SOL    HW119058   0.076   5.246   1.288 -0.6586  0.7432  0.2953
 2793SOL    HW219059  -0.055   5.260   1.192  0.2055 -1.5573 -1.2711
 2794SOL     OW19060   9.769   3.565   2.321  0.0471 -0.3046 -0.7820
 2794SOL    HW119061   9.857   3.520   2.308  0.1579 -0.7430  1.3550
 2794SOL    HW219062   9.730   3.539   2.410 -0.6779  2.4848 -0.2138
 2795SOL     OW19063   8.625   5.523   2.726 -0.4884 -0.2353  0.2815
 2795SOL    HW119064   8.664   5.515   2.818 -2.3974  1.3678  1.2765
 2795SOL    HW219065   8.537   5.571   2.731 -0.1816  0.7220 -2.4967
 2796SOL     OW19066   1.642   8.219   2.072  0.0494 -0.0174  0.0408
 2796SOL    HW119067   1.692   8.259   1.995 -2.5839  4.6608  0.5685
 2796SOL    HW219068   1.565   8.166   2.039 -0.4527  1.0922 -0.5804
 2797SOL     OW19069   3.091   0.991   1.594 -0.2497 -1.1347 -0.0963
 2797SOL    HW119070   3.033   1.036   1.525 -0.8386 -4.0200 -1.5649
 2797SOL    HW219071   3.162   0.937   1.548  0.5829 -1.5247  1.6054
 2798SOL     OW19072   9.169   6.089   4.042  0.3650  0.0214  0.3880
 2798SOL    HW119073   9.213   5.999   4.044 -0.6993 -0.5084  0.1332
 2798SOL    HW219074   9.207   6.146   4.115  0.2528 -1.0167  1.2729
 2799SOL     OW19075   0.937   1.503   1.340  0.4379  0.2019 -0.2675
 2799SOL    HW119076   0.907   1.483   1.246  2.1871  1.1640 -1.0475
 2799SOL    HW219077   1.036   1.489   1.347  0.4776  1.1195  1.1687
 2800SOL     OW19078   0.509   5.560   1.795  0.1122  0.2384 -0.2312
 2800SOL    HW119079   0.441   5.577   1.867  0.5512  1.3525 -0.0587
 2800SOL    HW219080   0.462   5.530   1.712 -0.2116 -3.2016  1.1416
 2801SOL     OW19081   3.213   1.301   3.845  0.3966 -0.5070 -0.4023
 2801SOL    HW119082   3.304   1.341   3.835  0.2910 -0.6788 -2.1710
 2801SOL    HW219083   3.144   1.368   3.816 -0.2164  0.3739  2.8154
 2802SOL     OW19084   0.518   2.704   2.585  0.7586  0.4322  0.8211
 2802SOL    HW119085   0.618   2.710   2.577  0.7455  0.0976  0.3604
 2802SOL    HW219086   0.495   2.658   2.670  1.0358 -0.7830  0.2544
 2803SOL     OW19087   3.897   3.355   4.460  0.3829 -0.3665 -0.4677
 2803SOL    HW119088   3.884   3.453   4.472  2.2698 -0.0749 -0.7020
 2803SOL    HW219089   3.850   3.325   4.377 -1.8784 -0.0520  0.6640
 2804SOL     OW19090   4.864   8.550   4.776 -0.0820  0.3655 -0.2224
 2804SOL    HW119091   4.782   8.580   4.728 -1.2135 -1.0804  0.7509
 2804SOL    HW219092   4.944   8.557   4.716 -1.1322  0.5096 -1.6033
 2805SOL     OW19093   3.630   5.538   3.364 -0.1317  0.0534 -0.1125
 2805SOL    HW119094   3.621   5.603   3.440 -0.8897  0.3335 -0.4270
 2805SOL    HW219095   3.684   5.580   3.291  0.0552  0.0305  0.0135
 2806SOL     OW19096   5.207   8.908   3.900  0.7452  0.5157 -0.3623
 2806SOL    HW119097   5.225   8.855   3.982 -2.2880  0.4311  0.3164
 2806SOL    HW219098   5.217   9.006   3.920  0.9290  0.4550 -0.1510
 2807SOL     OW19099   9.212   2.753   1.369  0.1273 -0.3281  0.3689
 2807SOL    HW119100   9.251   2.662   1.353  0.1619  0.0452 -1.7980
 2807SOL    HW219101   9.270   2.804   1.432  0.9060 -1.2691  0.4177
 2808SOL     OW19102   2.871   9.658   0.017  0.2242 -0.3784  0.0776
 2808SOL    HW119103   2.846   9.707   0.101  1.2717  0.9242 -0.3505
 2808SOL    HW219104   2.814   9.577   0.008 -1.0128  0.3404  1.2121
 2809SOL     OW19105   9.667   3.249   1.151  0.0073  0.2797  0.5100
 2809SOL    HW119106   9.604   3.259   1.073  1.4912  0.5783 -0.6731
 2809SOL    HW219107   9.749   3.304   1.135  1.2476 -1.2729  1.3565
 2810SOL     OW19108   4.260   7.566   3.135  0.2407  0.4146 -0.5637
 2810SOL    HW119109   4.222   7.643   3.187 -0.6713  0.1231 -0.7982
 2810SOL    HW219110   4.309   7.505   3.198  1.5898  1.5543 -0.4825
 2811SOL     OW19111   2.004   6.375   1.122 -0.0809  0.1700 -0.4207
 2811SOL    HW119112   1.977   6.283   1.149  0.6291 -0.4192 -1.7195
 2811SOL    HW219113   1.983   6.439   1.197 -3.4242 -0.5269 -0.6992
 2812SOL     OW19114   3.660   2.222   0.889 -0.1292  0.1245  0.3496
 2812SOL    HW119115   3.601   2.158   0.937 -0.8108  0.0554 -0.5633
 2812SOL    HW219116   3.635   2.225   0.792  0.3972  1.1959  0.2288
 2813SOL     OW19117   8.617   7.066   3.469  1.1600  0.8003  0.3438
 2813SOL    HW119118   8.583   6.985   3.421 -0.8500  0.7129  1.8413
 2813SOL    HW219119   8.717   7.065   3.470  1.1600 -2.3595  1.4865
 2814SOL     OW19120   8.481   7.856   1.714  0.2405  0.1967  0.5051
 2814SOL    HW119121   8.567   7.889   1.675 -0.3141  0.3063 -0.6234
 2814SOL    HW219122   8.408   7.922   1.697 -0.4331 -0.6698 -0.0072
 2815SOL     OW19123   1.957   3.207   1.268 -0.6313  0.3211  0.0406
 2815SOL    HW119124   2.011   3.267   1.209  0.6468 -0.1484  0.7195
 2815SOL    HW219125   1.879   3.259   1.305  0.1646  1.4175  0.2160
 2816SOL     OW19126   5.151   1.151   4.186 -0.2760  0.6775 -0.3337
 2816SOL    HW119127   5.180   1.056   4.177 -0.3961  0.5529  0.5151
 2816SOL    HW219128   5.176   1.202   4.104  2.9535  0.7322  0.6003
 2817SOL     OW19129   4.616   9.497   3.419  0.1409  0.0228  0.5056
 2817SOL    HW119130   4.709   9.486   3.384  0.3448  1.1862  0.6589
 2817SOL    HW219131   4.614   9.481   3.517  0.1849  0.0243  0.5065
 2818SOL     OW19132   4.818   4.440   1.682  0.2574 -0.0593 -1.0881
 2818SOL    HW119133   4.811   4.389   1.597  1.4974  0.5958 -1.6002
 2818SOL    HW219134   4.761   4.523   1.676  0.4825  0.0773 -1.3487
 2819SOL     OW19135   8.746   6.522   1.750 -0.1928  0.4810  0.2334
 2819SOL    HW119136   8.695   6.597   1.708  0.9351  1.4399  0.5635
 2819SOL    HW219137   8.831   6.557   1.789 -1.0874 -0.4226  3.1081
 2820SOL     OW19138   1.593   0.833   1.566 -0.0573 -0.2597  0.0805
 2820SOL    HW119139   1.577   0.788   1.478  0.9584  0.3548 -0.4259
 2820SOL    HW219140   1.642   0.919   1.551 -0.1759  0.0148  1.2196
 2821SOL     OW19141   3.122   0.075   2.123  0.1588  0.8594  0.4705
 2821SOL    HW119142   3.220   0.072   2.143  0.2002 -0.9776  0.1104
 2821SOL    HW219143   3.082  -0.014   2.143 -1.2682  1.3293 -0.2766
 2822SOL     OW19144   2.611   1.608   1.270  0.0052 -0.3914 -0.9417
 2822SOL    HW119145   2.672   1.538   1.233  1.4515 -0.4818  1.5395
 2822SOL    HW219146   2.664   1.684   1.306 -1.3738 -0.1214  0.5797
 2823SOL     OW19147   8.356   6.367   1.630 -0.2459  0.2680  0.2091
 2823SOL    HW119148   8.299   6.296   1.588  0.7286  0.0681 -0.7871
 2823SOL    HW219149   8.368   6.346   1.727 -0.8881 -0.3292  0.1632
 2824SOL     OW19150   0.364   6.467   2.365  0.0206 -0.1566  0.4691
 2824SOL    HW119151   0.277   6.417   2.361  0.6492 -1.2470 -0.1153
 2824SOL    HW219152   0.363   6.532   2.441 -0.3618 -1.9869  2.0775
 2825SOL     OW19153   0.261   6.753   3.651 -0.1806 -0.7022  0.1411
 2825SOL    HW119154   0.326   6.677   3.645  1.5886  0.7520  0.4732
 2825SOL    HW219155   0.247   6.791   3.559  1.7737  0.8661  0.4537
 2826SOL     OW19156   7.690   7.534   1.710  0.7678  0.0203  0.3492
 2826SOL    HW119157   7.662   7.600   1.640  0.8686 -0.5055 -0.1914
 2826SOL    HW219158   7.786   7.510   1.697 -0.1876 -2.9630 -1.7031
 2827SOL     OW19159   7.644   6.044   2.631  0.1373 -0.3126 -0.1300
 2827SOL    HW119160   7.670   5.954   2.595  2.0817  0.9126 -1.8997
 2827SOL    HW219161   7.572   6.033   2.700 -1.1831 -3.0376 -1.8567
 2828SOL     OW19162   8.872   1.934   0.527 -0.2714  0.1714  0.0801
 2828SOL    HW119163   8.960   1.916   0.571 -0.1432 -0.3366 -0.3794
 2828SOL    HW219164   8.875   2.022   0.479 -0.0295  0.1747  0.1035
 2829SOL     OW19165   3.270   4.046   4.152 -0.0969 -0.2468 -0.0728
 2829SOL    HW119166   3.333   3.970   4.140  1.5750  1.6518 -4.1370
 2829SOL    HW219167   3.296   4.100   4.232  1.7499 -1.0957 -0.0997
 2830SOL     OW19168   3.509   1.381   3.555  0.0800 -0.4083  0.5133
 2830SOL    HW119169   3.598   1.401   3.597  1.5404 -0.5214 -2.3282
 2830SOL    HW219170   3.513   1.290   3.512 -1.1077 -0.0241 -0.4177
 2831SOL     OW19171   8.326   6.408   0.115 -0.2644 -0.1526  0.2602
 2831SOL    HW119172   8.360   6.412   0.209 -0.0137  2.2184  0.0969
 2831SOL    HW219173   8.315   6.313   0.087 -0.4035 -0.8725  2.7139
 2832SOL     OW19174   0.049   7.867   2.116 -0.6671 -0.6276 -0.2080
 2832SOL    HW119175  -0.029   7.925   2.141  1.2179  1.3534  1.3351
 2832SOL    HW219176   0.073   7.809   2.193  1.2872  1.0270  0.4813
 2833SOL     OW19177   3.649   2.081   2.736 -0.1191 -0.3539  0.2320
 2833SOL    HW119178   3.686   2.144   2.805 -0.9441 -2.6937  2.8855
 2833SOL    HW219179   3.705   1.999   2.732 -0.7418 -0.7296 -1.0824
 2834SOL     OW19180   1.090   3.329   4.434 -0.3994 -0.4901 -0.3584
 2834SOL    HW119181   1.174   3.338   4.488  0.1332 -1.1165 -1.0763
 2834SOL    HW219182   1.086   3.404   4.367 -0.7670 -0.0548  0.1452
 2835SOL     OW19183   0.485   2.231   3.694 -0.3816 -0.1189  0.5284
 2835SOL    HW119184   0.548   2.305   3.715 -1.0271  0.1411  1.6189
 2835SOL    HW219185   0.465   2.230   3.596 -1.4185  2.0135  0.6913
 2836SOL     OW19186   9.676   3.195   3.612  0.0988  0.2951  0.4737
 2836SOL    HW119187   9.704   3.256   3.538  0.3667  0.2036  0.4971
 2836SOL    HW219188   9.690   3.240   3.700 -0.8390  0.6486  0.4402
 2837SOL     OW19189   0.464   3.863   1.026 -0.0862  0.0919  0.1006
 2837SOL    HW119190   0.373   3.823   1.011  1.4124 -3.8701  0.9696
 2837SOL    HW219191   0.498   3.899   0.939 -1.9792  0.5149 -0.4953
 2838SOL     OW19192   4.866   1.495   2.071 -0.2011  0.0127 -0.1166
 2838SOL    HW119193   4.808   1.427   2.115 -0.7257  0.9051  0.6045
 2838SOL    HW219194   4.903   1.459   1.986  1.4795 -2.0547  1.4305
 2839SOL     OW19195   8.475   8.111   0.802 -0.1064  0.0247 -0.4466
 2839SOL    HW119196   8.470   8.013   0.822  1.9035  0.2043  1.0417
 2839SOL    HW219197   8.457   8.126   0.705 -1.4312 -1.7162 -0.4943
 2840SOL     OW19198   8.031   1.723   0.858 -0.6836 -0.0815  0.5580
 2840SOL    HW119199   8.123   1.689   0.880 -1.1492 -1.7460  0.0202
 2840SOL    HW219200   8.039   1.803   0.798  0.4340  0.6322  1.6223
 2841SOL     OW19201   8.910   0.832   0.446  0.0818 -0.8181  0.9335
 2841SOL    HW119202   8.994   0.847   0.498  1.2535  0.2494 -1.1727
 2841SOL    HW219203   8.924   0.757   0.382 -0.5565 -0.6245  0.5650
 2842SOL     OW19204   4.775   3.403   3.558 -0.2413 -0.6524  0.5725
 2842SOL    HW119205   4.811   3.319   3.600  1.3270 -0.0307  0.5058
 2842SOL    HW219206   4.747   3.383   3.464 -1.5684 -1.5019  1.1243
 2843SOL     OW19207   1.666   0.642   1.038 -0.0757  0.1726  0.3958
 2843SOL    HW119208   1.712   0.628   0.951  0.4275 -2.0778  1.0007
 2843SOL    HW219209   1.640   0.738   1.047  0.5706  0.5777 -1.8731
 2844SOL     OW19210   2.662   1.059   3.011 -0.3669 -0.2452 -0.2649
 2844SOL    HW119211   2.644   0.964   2.986  3.1081 -0.2603 -3.1420
 2844SOL    HW219212   2.592   1.118   2.971 -0.9168 -1.3222 -0.9265
 2845SOL     OW19213   3.176   0.943   2.089 -0.4764 -0.0571 -0.1256
 2845SOL    HW119214   3.191   1.038   2.118  1.1743 -1.0372  2.3178
 2845SOL    HW219215   3.082   0.916   2.110 -0.6875  0.7406 -0.0241
 2846SOL     OW19216   9.365   1.161   0.629 -0.1609 -0.1556 -0.6228
 2846SOL    HW119217   9.407   1.179   0.540  1.1268  2.9801  0.5612
 2846SOL    HW219218   9.281   1.109   0.615  0.7020 -0.9250 -3.5425
 2847SOL     OW19219   3.064   5.294   0.279 -0.0358 -0.0970 -0.0905
 2847SOL    HW119220   3.061   5.332   0.187  1.0326 -0.2441 -0.1921
 2847SOL    HW219221   2.983   5.238   0.294 -0.8041  0.8978 -0.5144
 2848SOL     OW19222   1.982   4.152   0.944  0.0788  0.5048 -0.6697
 2848SOL    HW119223   1.964   4.245   0.976 -1.1872  0.1130 -0.2436
 2848SOL    HW219224   2.049   4.156   0.869 -0.4066  1.8036 -1.0528
 2849SOL     OW19225   4.003   2.762   2.071  0.2179  0.3162  0.1920
 2849SOL    HW119226   3.914   2.773   2.026 -0.5994  0.4337  1.7831
 2849SOL    HW219227   4.075   2.795   2.011 -1.0469  2.5464 -0.1360
 2850SOL     OW19228   3.185   4.793   1.666  0.2147 -0.3276 -0.0578
 2850SOL    HW119229   3.109   4.815   1.603  1.6139  1.6287 -1.1231
 2850SOL    HW219230   3.260   4.754   1.614  0.7776 -0.1771  0.6430
 2851SOL     OW19231   3.054   5.505   1.378 -0.1182 -0.0406 -0.0610
 2851SOL    HW119232   3.119   5.483   1.450 -0.8978  1.5543  1.1686
 2851SOL    HW219233   2.975   5.445   1.384 -0.4247  0.4420  0.7611
 2852SOL     OW19234   3.004   4.585   1.327 -0.7802 -0.5838  0.2699
 2852SOL    HW119235   3.075   4.516   1.308 -0.2525  0.4006 -1.4466
 2852SOL    HW219236   3.008   4.611   1.423  0.7494 -1.0361  0.3400
 2853SOL     OW19237   2.992   9.165   3.003 -0.6883 -0.1311  0.1238
 2853SOL    HW119238   2.983   9.155   2.904 -0.9772 -1.2168  0.2644
 2853SOL    HW219239   3.089   9.175   3.026 -0.3010 -3.3253  0.0484
 2854SOL     OW19240   9.776   3.058   4.055  0.1797  0.1297 -0.0309
 2854SOL    HW119241   9.731   3.148   4.057 -0.9774 -0.4231 -0.5387
 2854SOL    HW219242   9.866   3.067   4.013  0.0871  1.0558 -0.0518
 2855SOL     OW19243   9.616   9.003   1.613 -0.1264  0.0519 -0.3618
 2855SOL    HW119244   9.554   8.929   1.639 -0.6846  0.2719 -1.0302
 2855SOL    HW219245   9.566   9.069   1.556  0.0832  1.5061  1.1269
 2856SOL     OW19246   1.715   3.070   1.160  0.4774  0.5079  0.0596
 2856SOL    HW119247   1.639   3.126   1.194  0.9761  1.3408 -0.1841
 2856SOL    HW219248   1.802   3.113   1.185  0.8525  0.6479 -1.4480
 2857SOL     OW19249   9.173   9.562   4.293  0.4507 -0.6487 -0.2092
 2857SOL    HW119250   9.128   9.618   4.363  1.7167 -0.0641  0.1607
 2857SOL    HW219251   9.187   9.616   4.210  0.7756 -0.7200 -0.2016
 2858SOL     OW19252   4.124   3.259   4.180  0.4776  0.1146  0.4960
 2858SOL    HW119253   4.117   3.162   4.203 -0.2854  0.4158  1.5647
 2858SOL    HW219254   4.205   3.298   4.225  0.7892 -0.0197  0.0587
 2859SOL     OW19255   1.526   1.772   3.907 -0.2375  0.2962 -0.2779
 2859SOL    HW119256   1.508   1.774   4.005  0.2222  0.3615 -0.1948
 2859SOL    HW219257   1.619   1.803   3.889  0.8238 -2.8343 -0.4663
 2860SOL     OW19258   8.730   3.948   1.647  0.0069  0.6427  0.2208
 2860SOL    HW119259   8.671   4.010   1.595 -2.1012 -0.7870  0.7973
 2860SOL    HW219260   8.734   3.859   1.601  0.8756  0.4109  0.7354
 2861SOL     OW19261   9.974   9.442   0.666 -0.0444  0.0994 -0.6279
 2861SOL    HW119262   9.988   9.359   0.612  0.7072 -0.0506 -0.2042
 2861SOL    HW219263   9.949   9.518   0.605  0.7921 -0.0665 -1.1805
 2862SOL     OW19264   0.567   4.583   4.465  0.7096  0.0339  0.3632
 2862SOL    HW119265   0.502   4.522   4.420  1.6474 -0.3397 -0.5189
 2862SOL    HW219266   0.547   4.588   4.562  0.1188 -1.0312  0.3011
 2863SOL     OW19267   0.670   5.220   3.470  0.3422  0.1073 -0.8220
 2863SOL    HW119268   0.768   5.233   3.451  0.2986 -1.2651 -2.0828
 2863SOL    HW219269   0.653   5.124   3.490 -0.8345  0.2574 -1.1010
 2864SOL     OW19270   3.532   7.975   2.922 -0.6143 -0.0975 -0.2887
 2864SOL    HW119271   3.520   7.949   2.826  1.5719  0.0750 -0.6377
 2864SOL    HW219272   3.563   7.895   2.974  1.1344  0.5020 -0.3526
 2865SOL     OW19273   8.573   6.840   2.107 -0.2661  0.4982 -0.0300
 2865SOL    HW119274   8.627   6.763   2.140 -1.9136 -1.0015 -0.7650
 2865SOL    HW219275   8.513   6.872   2.179 -0.4717  0.2802 -0.1038
 2866SOL     OW19276   8.329   1.277   3.743  0.1307 -0.5548  0.3745
 2866SOL    HW119277   8.278   1.343   3.798  1.4079 -0.1544  1.0844
 2866SOL    HW219278   8.317   1.186   3.781  0.5189 -0.3638  0.9472
 2867SOL     OW19279   7.824   2.372   1.127  0.1099  0.4220  0.1139
 2867SOL    HW119280   7.921   2.350   1.135  0.5994  2.3303 -0.1928
 2867SOL    HW219281   7.784   2.320   1.053  0.2250 -2.4892  2.0288
 2868SOL     OW19282   5.382   8.085   2.396 -0.1083 -0.1371  0.1897
 2868SOL    HW119283   5.294   8.074   2.350 -0.7927 -0.8760  1.6393
 2868SOL    HW219284   5.445   8.013   2.364 -0.8965 -1.2620  1.1335
 2869SOL     OW19285   1.152   4.566   0.598 -0.8729 -0.6229  0.5232
 2869SOL    HW119286   1.112   4.476   0.576 -0.7478 -0.7125  0.6632
 2869SOL    HW219287   1.129   4.631   0.526 -3.8550  0.1023  2.0299
 2870SOL     OW19288   1.089   5.431   3.810  0.0201  0.3463 -0.0131
 2870SOL    HW119289   1.110   5.384   3.895 -0.0398 -1.0217 -0.7272
 2870SOL    HW219290   1.171   5.434   3.752 -0.2686  0.0965 -0.4417
 2871SOL     OW19291   0.861   3.624   0.923  0.4533  1.2300  0.1460
 2871SOL    HW119292   0.885   3.608   1.019 -1.9600 -0.1312  0.5793
 2871SOL    HW219293   0.883   3.718   0.898  2.0979  1.2826  1.7202
 2872SOL     OW19294   1.769   2.324   1.129  0.0934  0.3235 -0.2539
 2872SOL    HW119295   1.799   2.317   1.224  1.7918  0.2027 -0.7876
 2872SOL    HW219296   1.685   2.271   1.117 -0.3239  0.6202  1.2476
 2873SOL     OW19297   8.707   5.442   4.233  0.0119 -0.4012 -0.6008
 2873SOL    HW119298   8.762   5.390   4.299 -1.1044  1.3419  1.7707
 2873SOL    HW219299   8.747   5.533   4.222 -1.9497  0.6216  0.5719
 2874SOL     OW19300   3.441   0.107   3.419  0.3578 -0.6085  0.2357
 2874SOL    HW119301   3.442   0.128   3.516 -1.3513 -0.5579  0.2550
 2874SOL    HW219302   3.349   0.118   3.383  1.0421 -0.2526 -1.4839
 2875SOL     OW19303   9.572   8.869   4.551 -0.3279  0.8589 -0.1609
 2875SOL    HW119304   9.625   8.785   4.544  0.5124  1.2868  0.8683
 2875SOL    HW219305   9.490   8.853   4.605 -0.3662  0.6179 -0.2906
 2876SOL     OW19306   0.341   6.114   2.488 -0.3709  0.1846  0.6160
 2876SOL    HW119307   0.429   6.122   2.441 -0.9724  1.2717 -0.3556
 2876SOL    HW219308   0.271   6.164   2.436 -1.6507 -1.0295  1.1414
 2877SOL     OW19309   3.536   6.395   1.511 -0.0986 -0.3056 -0.2195
 2877SOL    HW119310   3.535   6.477   1.454 -0.3554 -0.2675 -0.1593
 2877SOL    HW219311   3.468   6.404   1.584 -0.5925 -0.8563 -0.6098
 2878SOL     OW19312   9.797   0.214   0.515 -0.3909  0.6327 -0.4974
 2878SOL    HW119313   9.742   0.183   0.592  1.1131 -0.0453  0.3288
 2878SOL    HW219314   9.860   0.142   0.487 -1.8483  0.3533 -3.2776
 2879SOL     OW19315   0.134   9.693   1.793  0.5000  0.0596  0.1112
 2879SOL    HW119316   0.110   9.647   1.708  0.6940 -1.7212  0.9856
 2879SOL    HW219317   0.052   9.703   1.850  0.7456 -0.7886  0.6389
 2880SOL     OW19318   1.910   3.444   1.991  0.2599  0.0005  0.2301
 2880SOL    HW119319   1.829   3.393   2.018  0.8445 -0.7060  0.6767
 2880SOL    HW219320   1.883   3.530   1.948 -0.7150 -0.1315  0.5704
 2881SOL     OW19321   4.317   1.255   4.648 -0.0618 -0.3356 -0.0019
 2881SOL    HW119322   4.301   1.225   4.554 -0.6587  0.2472 -0.0950
 2881SOL    HW219323   4.376   1.336   4.647 -1.4924  0.7352  0.0001
 2882SOL     OW19324   4.098   0.120   3.885 -0.2121  0.1989 -0.1649
 2882SOL    HW119325   4.053   0.199   3.928 -0.0626 -0.2101  0.7506
 2882SOL    HW219326   4.147   0.151   3.803 -1.4081  0.7979 -0.6670
 2883SOL     OW19327   0.663   8.927   1.953  0.4310  0.2663 -1.0538
 2883SOL    HW119328   0.684   8.841   1.998 -1.1001  1.1521  1.4610
 2883SOL    HW219329   0.718   9.001   1.993  0.4321  0.7625 -1.9435
 2884SOL     OW19330   0.684   6.998   0.138 -0.1422 -0.5077  0.5630
 2884SOL    HW119331   0.758   6.966   0.199 -0.2405 -0.3290  0.7760
 2884SOL    HW219332   0.718   7.001   0.044  0.1266 -0.4153  0.6618
 2885SOL     OW19333   4.735   0.560   3.908  0.2197 -0.0699  0.7940
 2885SOL    HW119334   4.735   0.528   3.813  1.0212 -0.4727  0.9235
 2885SOL    HW219335   4.642   0.587   3.934  0.2429  1.4620 -0.5797
 2886SOL     OW19336   5.576   9.974   2.741 -0.1112  0.4542 -0.6655
 2886SOL    HW119337   5.652   9.912   2.757  0.3862  1.4528  0.9339
 2886SOL    HW219338   5.536   9.955   2.651  1.4043 -0.7224 -1.1138
 2887SOL     OW19339   9.442   7.098   4.214 -0.0761  0.3340  0.2970
 2887SOL    HW119340   9.383   7.073   4.290  0.5962  2.7653  1.6627
 2887SOL    HW219341   9.537   7.097   4.243  0.2860  0.1885 -0.8414
 2888SOL     OW19342   0.762   8.027   3.080  0.3135 -0.4507  0.1159
 2888SOL    HW119343   0.699   8.004   3.154  0.4051 -0.9144  0.0521
 2888SOL    HW219344   0.844   7.971   3.088  1.9276  2.0366  1.8134
 2889SOL     OW19345   6.275   9.067   1.608 -0.3598 -0.1381 -0.0563
 2889SOL    HW119346   6.214   9.126   1.660  0.1037  0.7104 -0.4633
 2889SOL    HW219347   6.334   9.016   1.671 -0.5924  0.0198  0.2876
 2890SOL     OW19348   0.169   4.305   1.519 -0.2826 -0.6934  0.4639
 2890SOL    HW119349   0.129   4.267   1.603  0.2451 -1.4718  0.3736
 2890SOL    HW219350   0.193   4.230   1.457 -1.6626 -0.0750 -0.8584
 2891SOL     OW19351   9.932   0.791   3.301 -0.0038  0.0061  0.8346
 2891SOL    HW119352   9.944   0.752   3.392  2.0251  2.4018  1.6358
 2891SOL    HW219353   9.909   0.717   3.237  0.8611 -2.0604  2.8081
 2892SOL     OW19354   3.564   3.257   0.629  0.0935  0.2196 -0.0682
 2892SOL    HW119355   3.522   3.283   0.542  0.3237  0.8496  0.0001
 2892SOL    HW219356   3.632   3.185   0.614 -0.6049 -0.3988 -0.2590
 2893SOL     OW19357   0.193   8.277   4.178  0.0913 -0.1388  0.3173
 2893SOL    HW119358   0.142   8.204   4.133  0.2841 -0.9586  1.4112
 2893SOL    HW219359   0.159   8.365   4.146 -1.5906 -0.6841  0.5669
 2894SOL     OW19360   2.550   6.065   1.361 -0.3954 -0.0796  0.0767
 2894SOL    HW119361   2.493   6.145   1.381  0.4994  0.2644  1.3406
 2894SOL    HW219362   2.638   6.095   1.325 -0.0413 -0.4831  0.5919
 2895SOL     OW19363   8.065   4.999   2.684  0.3077  0.0789  0.0163
 2895SOL    HW119364   8.076   5.069   2.614  1.5525 -0.3899 -0.2732
 2895SOL    HW219365   8.149   4.994   2.739 -0.3326 -0.1564  0.9830
 2896SOL     OW19366   8.057   5.420   2.204  0.4841  0.4747 -0.0904
 2896SOL    HW119367   8.043   5.325   2.232 -1.3365  0.6569 -0.3181
 2896SOL    HW219368   8.062   5.478   2.286  1.6809  0.1931  0.0516
 2897SOL     OW19369   3.833   7.301   1.653  0.2194  0.5742 -0.2061
 2897SOL    HW119370   3.758   7.291   1.587 -0.0961  2.1507 -0.1139
 2897SOL    HW219371   3.796   7.291   1.745  0.1121  1.3837 -0.1594
 2898SOL     OW19372   8.719   7.962   0.709  0.1872 -0.0768  0.1431
 2898SOL    HW119373   8.785   7.906   0.758 -0.5185 -0.1135  1.0562
 2898SOL    HW219374   8.718   8.054   0.747  1.9753  0.8397 -1.9167
 2899SOL     OW19375   9.014   9.458   0.953 -0.4480 -0.1058 -0.0171
 2899SOL    HW119376   9.109   9.488   0.951 -0.2703 -0.7126 -0.8355
 2899SOL    HW219377   8.983   9.436   0.861 -1.5158  0.4715  0.1879
 2900SOL     OW19378   9.743   8.588   0.256  0.1312 -0.3177 -0.3464
 2900SOL    HW119379   9.778   8.609   0.347  1.9113 -2.1950 -0.5532
 2900SOL    HW219380   9.665   8.526   0.263  0.7471 -1.0752 -0.1092
 2901SOL     OW19381   1.466   4.060   4.452 -0.2287 -0.5007  0.1553
 2901SOL    HW119382   1.553   4.085   4.411 -1.0756  1.9948 -0.2264
 2901SOL    HW219383   1.402   4.033   4.379 -0.1426 -1.1263  0.3141
 2902SOL     OW19384   7.566   2.112   2.561  0.5691 -0.0371  0.5094
 2902SOL    HW119385   7.526   2.029   2.521 -0.1620  0.4434  0.2413
 2902SOL    HW219386   7.493   2.177   2.582  1.2961  1.2602 -0.9318
 2903SOL     OW19387   9.704   5.173   3.168 -0.3582 -0.1413 -0.0703
 2903SOL    HW119388   9.657   5.086   3.153 -0.3393  0.2534 -2.5845
 2903SOL    HW219389   9.758   5.168   3.252 -3.1947 -1.3064  1.7496
 2904SOL     OW19390   8.432   2.727   2.058 -0.0824 -0.0790 -0.1482
 2904SOL    HW119391   8.399   2.775   1.977  1.1508 -1.1931 -1.3649
 2904SOL    HW219392   8.415   2.629   2.047  0.2320 -0.2494  0.8676
 2905SOL     OW19393   6.273   0.916   2.812 -0.1732 -0.7764  0.6572
 2905SOL    HW119394   6.250   1.009   2.839  0.3825  0.1157 -1.7709
 2905SOL    HW219395   6.200   0.854   2.842 -1.1378  0.6051  1.2499
 2906SOL     OW19396   3.581   6.152   3.313  0.0864 -0.0837 -0.1379
 2906SOL    HW119397   3.615   6.233   3.361  0.8795  0.3454 -1.4105
 2906SOL    HW219398   3.642   6.075   3.330  1.3896  0.5373 -1.9451
 2907SOL     OW19399   9.137   9.766   4.100  0.2545  0.1133 -0.2294
 2907SOL    HW119400   9.039   9.749   4.108  0.3106 -0.3914 -0.5695
 2907SOL    HW219401   9.176   9.706   4.030  0.9202 -0.1377  0.3480
 2908SOL     OW19402   8.764   5.285   2.341 -0.3438 -0.3708  0.2027
 2908SOL    HW119403   8.805   5.256   2.255  0.3751 -0.5785  0.6070
 2908SOL    HW219404   8.703   5.213   2.375  0.2491 -0.7743  0.4299
 2909SOL     OW19405   4.491   9.788   0.817  0.9150 -0.1157  0.0747
 2909SOL    HW119406   4.427   9.865   0.830  0.8809 -0.3208  1.1557
 2909SOL    HW219407   4.525   9.789   0.723  1.3409  1.5515  0.2270
 2910SOL     OW19408   1.590   6.113   4.652  0.0282 -0.1204  0.0795
 2910SOL    HW119409   1.626   6.201   4.683 -1.3343  0.7431 -0.7616
 2910SOL    HW219410   1.660   6.042   4.663  1.1338  1.0702  0.7352
 2911SOL     OW19411   1.418   1.416   3.013 -0.6964  0.0279 -0.5306
 2911SOL    HW119412   1.325   1.423   3.049 -1.2252 -1.0990 -1.6307
 2911SOL    HW219413   1.425   1.471   2.929 -0.0517  1.0010  0.1550
 2912SOL     OW19414   1.450   2.506   2.072  0.3501 -0.1814 -0.3024
 2912SOL    HW119415   1.444   2.540   1.978 -1.1598 -0.3888 -0.3033
 2912SOL    HW219416   1.364   2.461   2.096  1.4959 -2.0201  0.4614
 2913SOL     OW19417   8.430   3.558   4.475  0.2751  0.6941 -0.4414
 2913SOL    HW119418   8.486   3.487   4.432  0.3791  0.4066  0.1621
 2913SOL    HW219419   8.457   3.568   4.571 -2.2191 -1.0223  0.4874
 2914SOL     OW19420   3.214   2.144   3.407 -0.3335  0.3722  0.3602
 2914SOL    HW119421   3.241   2.094   3.490  0.2448 -1.1545 -0.7127
 2914SOL    HW219422   3.158   2.222   3.432 -0.2437 -0.1185  2.1926
 2915SOL     OW19423   8.709   4.888   0.484 -0.4415  0.0096  0.5179
 2915SOL    HW119424   8.734   4.809   0.429  1.2895  1.0144 -0.1964
 2915SOL    HW219425   8.714   4.864   0.581  1.0432 -0.4999  0.3321
 2916SOL     OW19426   3.067   8.798   2.823  0.1386  0.1789  0.2655
 2916SOL    HW119427   3.134   8.860   2.863  0.0804  0.1109  0.4699
 2916SOL    HW219428   3.113   8.734   2.761  0.1829  0.4958 -0.0288
 2917SOL     OW19429   8.243   2.910   3.201  0.7556 -0.0700 -0.1695
 2917SOL    HW119430   8.227   2.872   3.292  0.8056  1.7381  0.6271
 2917SOL    HW219431   8.301   2.991   3.209  1.3515 -0.3126 -1.8920
 2918SOL     OW19432   2.288   8.016   2.009  0.4211  0.4320  0.3937
 2918SOL    HW119433   2.228   7.970   1.944  0.7066 -0.2563  0.6026
 2918SOL    HW219434   2.300   8.111   1.982 -1.0230  0.6584  0.5431
 2919SOL     OW19435   0.176   6.659   1.533 -0.0356 -0.2829 -0.2655
 2919SOL    HW119436   0.240   6.623   1.601 -0.4438 -0.2200  0.1459
 2919SOL    HW219437   0.149   6.585   1.471  0.8870 -0.1864 -0.8013
 2920SOL     OW19438   8.314   1.434   3.375 -0.7686 -0.4402 -0.1528
 2920SOL    HW119439   8.274   1.518   3.339  0.7002  0.4036  0.1398
 2920SOL    HW219440   8.313   1.363   3.304 -2.1318 -0.2286 -0.3569
 2921SOL     OW19441   0.210   8.078   2.013 -0.3014 -0.4617 -0.3638
 2921SOL    HW119442   0.269   8.001   1.990 -1.0272 -1.2797  0.4519
 2921SOL    HW219443   0.154   8.054   2.092  0.3609  1.3808  0.6706
 2922SOL     OW19444   7.652   0.269   4.163 -0.1277  0.6072  0.0311
 2922SOL    HW119445   7.685   0.358   4.196 -2.8782  1.0441  1.7796
 2922SOL    HW219446   7.722   0.227   4.105  1.7903  3.2678  0.3132
 2923SOL     OW19447   1.795   2.270   4.579  0.3584 -0.1507 -0.5633
 2923SOL    HW119448   1.729   2.280   4.653  1.5485 -0.7716  0.6128
 2923SOL    HW219449   1.832   2.177   4.580 -0.7950 -0.6710 -2.9566
 2924SOL     OW19450   8.670   3.098   4.248 -0.0829  0.1488 -0.6437
 2924SOL    HW119451   8.763   3.108   4.215  0.7272 -0.0711  1.4865
 2924SOL    HW219452   8.620   3.184   4.236  1.1196  0.9930  0.3373
 2925SOL     OW19453   3.833   9.317   0.887 -0.4917 -0.3987  0.8386
 2925SOL    HW119454   3.762   9.369   0.934 -1.0201 -2.5084  2.4401
 2925SOL    HW219455   3.790   9.257   0.820  0.1157  1.1386 -0.9753
 2926SOL     OW19456   9.967   5.243   3.052  0.0018  0.3992 -0.6168
 2926SOL    HW119457   9.873   5.215   3.068 -0.4994  1.9389 -0.8422
 2926SOL    HW219458  10.026   5.161   3.049 -1.0960 -0.4766  0.8956
 2927SOL     OW19459   2.612   3.528   4.560 -0.0738  0.2244 -0.0720
 2927SOL    HW119460   2.605   3.627   4.574 -0.0155  0.3340 -0.7823
 2927SOL    HW219461   2.522   3.486   4.572 -0.0363  0.3215  0.5509
 2928SOL     OW19462   1.856   1.824   2.366  0.3087 -0.1312  0.0113
 2928SOL    HW119463   1.828   1.913   2.401 -0.6932 -0.0668 -0.9134
 2928SOL    HW219464   1.857   1.826   2.266  0.7059 -1.0283 -0.0114
 2929SOL     OW19465   0.556   2.442   4.372 -0.0015 -0.5513 -0.0181
 2929SOL    HW119466   0.532   2.348   4.397  2.7565 -1.2556  0.1130
 2929SOL    HW219467   0.654   2.456   4.384 -0.1202  1.8909 -1.5290
 2930SOL     OW19468   9.187   9.866   2.023 -0.1599  0.2623 -0.0502
 2930SOL    HW119469   9.106   9.901   2.070 -0.7702 -0.1228 -0.8018
 2930SOL    HW219470   9.180   9.885   1.925 -0.9532 -2.7737 -0.6246
 2931SOL     OW19471   7.484   1.329   0.982 -0.3769 -0.5856  0.1927
 2931SOL    HW119472   7.400   1.330   0.928 -1.4126  1.7623  1.7833
 2931SOL    HW219473   7.539   1.250   0.955 -2.4176 -1.3821 -1.8663
 2932SOL     OW19474   3.089   2.385   3.485 -0.8855  0.2885  0.1124
 2932SOL    HW119475   3.117   2.438   3.565 -0.9769  0.5692 -0.0445
 2932SOL    HW219476   3.062   2.446   3.411 -0.3447  0.0369 -0.3001
 2933SOL     OW19477   4.948   8.201   0.587  0.2706  0.2562 -0.3002
 2933SOL    HW119478   5.001   8.219   0.505  0.5358 -0.7459 -0.3477
 2933SOL    HW219479   4.971   8.111   0.623 -1.3648 -0.1743 -0.2964
 2934SOL     OW19480   8.211   7.582   1.330 -0.1389  0.4167  0.1061
 2934SOL    HW119481   8.303   7.615   1.351  0.3201  0.4651 -1.8965
 2934SOL    HW219482   8.159   7.653   1.283 -1.3856  0.5618  1.6661
 2935SOL     OW19483   0.353   8.016   1.295  0.6271 -0.1162 -0.3510
 2935SOL    HW119484   0.269   7.974   1.330  0.6528  1.3408  1.5174
 2935SOL    HW219485   0.405   7.947   1.244 -0.9631 -1.4356 -0.2513
 2936SOL     OW19486   8.381   0.658   0.625 -0.4304  0.3488  0.5261
 2936SOL    HW119487   8.342   0.646   0.717  0.2079 -0.6356  0.6780
 2936SOL    HW219488   8.317   0.622   0.557 -1.0220  1.3238  0.5654
 2937SOL     OW19489   1.846   6.512   1.744  0.8001 -0.0150 -0.2174
 2937SOL    HW119490   1.816   6.579   1.676  2.0997 -0.0301 -0.8168
 2937SOL    HW219491   1.851   6.557   1.834 -0.4011  0.1377 -0.2141
 2938SOL     OW19492   0.300   5.798   4.160  0.4823  0.2816 -0.0125
 2938SOL    HW119493   0.258   5.848   4.085 -0.0060 -1.2900 -0.8214
 2938SOL    HW219494   0.314   5.859   4.238  1.6297  2.0946 -1.6174
 2939SOL     OW19495   3.801   8.150   2.382 -0.8405 -0.1473 -0.1400
 2939SOL    HW119496   3.780   8.213   2.307  0.6938  1.3748  0.6739
 2939SOL    HW219497   3.878   8.091   2.356  0.6059  1.3239  0.7210
 2940SOL     OW19498   4.519   8.317   0.519 -0.3213  0.6044  0.1268
 2940SOL    HW119499   4.613   8.350   0.517 -0.4304  0.9231  0.2536
 2940SOL    HW219500   4.457   8.392   0.496 -0.5228  0.3090 -0.2978
 2941SOL     OW19501   2.497   4.989   0.043 -0.7117  0.4681  0.3376
 2941SOL    HW119502   2.469   4.903   0.000 -0.1620  0.4687 -0.0344
 2941SOL    HW219503   2.438   5.008   0.121 -0.0338 -0.8982  1.1997
 2942SOL     OW19504   8.307   1.042   0.138  0.4261  0.1666 -0.0479
 2942SOL    HW119505   8.379   1.032   0.207 -0.7814  0.5382  1.2798
 2942SOL    HW219506   8.318   1.129   0.091  0.9824  0.1148 -0.0193
 2943SOL     OW19507   5.089   7.633   3.095 -0.5656  0.2223 -0.3389
 2943SOL    HW119508   5.016   7.638   3.026 -0.7971  0.5245 -0.0751
 2943SOL    HW219509   5.048   7.627   3.186 -0.2559  0.4119 -0.1874
 2944SOL     OW19510   0.270   3.662   3.885 -0.4509 -0.3858 -0.0528
 2944SOL    HW119511   0.264   3.565   3.907 -0.1710  0.2491  3.0475
 2944SOL    HW219512   0.181   3.705   3.897  0.0850  0.3097  1.7749
 2945SOL     OW19513   1.145   9.966   4.291  0.3108  0.0335 -0.9330
 2945SOL    HW119514   1.060  10.003   4.254 -0.5103  0.1918  1.0405
 2945SOL    HW219515   1.169   9.882   4.243 -1.5012 -0.5401 -0.8583
 2946SOL     OW19516   9.521   8.431   3.608 -0.2550 -0.6232  0.0410
 2946SOL    HW119517   9.437   8.390   3.646  0.3182 -0.9899  0.9324
 2946SOL    HW219518   9.499   8.478   3.523 -1.5571  0.1471  0.7792
 2947SOL     OW19519   8.292   7.898   3.301 -0.0974 -0.1478 -0.6762
 2947SOL    HW119520   8.355   7.973   3.279  0.8868 -0.8365 -0.2577
 2947SOL    HW219521   8.260   7.856   3.216  1.6698 -1.1386 -0.8881
 2948SOL     OW19522   6.084   8.420   3.441 -0.1106  0.6838 -0.3907
 2948SOL    HW119523   6.002   8.381   3.483  1.0711 -1.4011  0.0295
 2948SOL    HW219524   6.093   8.388   3.347 -0.1662  1.5104 -0.6840
 2949SOL     OW19525   1.645   0.011   0.351  0.2108 -0.6124  0.5780
 2949SOL    HW119526   1.741  -0.011   0.334 -0.0083  0.0004 -1.6243
 2949SOL    HW219527   1.607   0.058   0.271 -1.8803 -0.6892  1.4948
 2950SOL     OW19528   7.596   9.291   2.977  0.2631 -0.0283  0.1666
 2950SOL    HW119529   7.693   9.288   3.002  0.4490 -0.9435 -0.6385
 2950SOL    HW219530   7.565   9.198   2.955 -0.7408  0.2971  0.2141
 2951SOL     OW19531   4.215   0.055   2.092 -0.6562 -0.0629  0.0638
 2951SOL    HW119532   4.172  -0.019   2.041  1.2454 -0.4640 -0.9821
 2951SOL    HW219533   4.216   0.138   2.036  0.3963 -0.1965 -0.1211
 2952SOL     OW19534   4.922   9.990   3.044  0.4666 -1.0056 -0.3383
 2952SOL    HW119535   4.870   9.937   3.111  0.6135  0.4271  0.9284
 2952SOL    HW219536   5.013   9.949   3.033  1.0819 -0.2421  1.6666
 2953SOL     OW19537   8.243   2.808   1.297 -0.1684 -0.1387  0.1576
 2953SOL    HW119538   8.307   2.883   1.279  1.0673 -0.6486  2.2806
 2953SOL    HW219539   8.173   2.840   1.361  0.0773 -0.6503  0.6814
 2954SOL     OW19540   9.808   4.817   3.034 -0.2369  0.4341 -0.5699
 2954SOL    HW119541   9.736   4.868   2.988 -0.4789  0.3517 -0.2812
 2954SOL    HW219542   9.840   4.868   3.114 -1.5497 -0.5667  0.6139
 2955SOL     OW19543   1.159   0.394   3.628 -0.3151  0.1285 -0.0925
 2955SOL    HW119544   1.083   0.342   3.590  0.9236 -0.4371 -1.8858
 2955SOL    HW219545   1.180   0.471   3.568  0.7388  0.0914  0.2167
 2956SOL     OW19546   4.209   7.604   0.025  0.2714 -0.0632 -0.2894
 2956SOL    HW119547   4.223   7.693   0.068  1.6858 -0.2641 -0.3035
 2956SOL    HW219548   4.291   7.548   0.037 -0.2576 -1.0229 -1.0763
 2957SOL     OW19549   4.007   3.822   0.483  0.1158 -0.5957 -0.1283
 2957SOL    HW119550   3.959   3.887   0.541  0.4972 -0.6303  0.2247
 2957SOL    HW219551   4.035   3.743   0.537  0.1722 -0.7852 -0.4299
 2958SOL     OW19552   1.140   1.675   3.172 -0.0786  0.3208  0.3018
 2958SOL    HW119553   1.154   1.596   3.113  1.7849  1.0494 -0.2983
 2958SOL    HW219554   1.166   1.758   3.122 -2.3698  1.3544  0.7849
 2959SOL     OW19555   0.088   3.824   1.714  0.1313 -0.1554  0.6792
 2959SOL    HW119556   0.066   3.738   1.762 -0.6308 -0.0941  0.4504
 2959SOL    HW219557   0.031   3.831   1.632  1.3594 -0.2142 -0.1981
 2960SOL     OW19558   5.194   6.867   2.144  0.4472  0.1191  0.5750
 2960SOL    HW119559   5.273   6.808   2.126  1.4299  1.6118 -0.1204
 2960SOL    HW219560   5.170   6.916   2.060 -0.1936  0.9058  1.2177
 2961SOL     OW19561   5.022   9.041   2.631  0.2481 -0.4348 -0.4960
 2961SOL    HW119562   4.953   8.968   2.629 -0.4117  0.1246  1.1689
 2961SOL    HW219563   5.008   9.102   2.552 -1.1473 -0.3548 -0.2002
 2962SOL     OW19564   3.189   5.583   0.968 -0.1527 -0.0174 -0.6362
 2962SOL    HW119565   3.102   5.597   1.016  0.5995 -1.1300  1.1040
 2962SOL    HW219566   3.224   5.492   0.989  1.8772  0.7393 -0.5944
 2963SOL     OW19567   9.578   4.948   3.242 -0.0729 -0.0784 -0.2863
 2963SOL    HW119568   9.541   4.907   3.159 -2.1054  0.4636  0.3028
 2963SOL    HW219569   9.668   4.909   3.263 -0.1851 -1.2448 -1.9400
 2964SOL     OW19570   0.523   8.805   2.808  0.2212  0.1101  0.6440
 2964SOL    HW119571   0.573   8.842   2.730  1.5123 -0.2957  1.2708
 2964SOL    HW219572   0.435   8.852   2.817 -1.4623 -2.0840 -3.0718
 2965SOL     OW19573   1.996   1.659   3.179  0.0147 -0.6636  0.3955
 2965SOL    HW119574   2.017   1.714   3.260  0.9120 -0.9222  0.3402
 2965SOL    HW219575   2.075   1.657   3.118 -0.0149 -2.0047  0.3884
 2966SOL     OW19576   4.643   1.908   1.013 -0.7447 -0.1655 -0.3519
 2966SOL    HW119577   4.602   1.819   1.034 -2.6501  0.4947 -1.2316
 2966SOL    HW219578   4.575   1.980   1.023  0.7139  1.1880  0.0886
 2967SOL     OW19579   8.508   4.743   0.241  0.0149  0.7853 -0.0281
 2967SOL    HW119580   8.481   4.837   0.260 -1.4777  0.4464 -0.3816
 2967SOL    HW219581   8.607   4.737   0.237  0.0977  2.6356 -1.4866
 2968SOL     OW19582   3.905   6.840   1.636 -0.0461  0.0702  0.2931
 2968SOL    HW119583   3.905   6.879   1.544  0.1933 -1.5830 -0.4340
 2968SOL    HW219584   3.842   6.762   1.639  2.0279 -1.6511  0.7373
 2969SOL     OW19585   4.467   9.486   4.229 -0.1521  0.5494 -0.0554
 2969SOL    HW119586   4.521   9.571   4.232  0.1229  0.4625 -2.0982
 2969SOL    HW219587   4.495   9.427   4.305  2.3090  0.7104 -0.7912
 2970SOL     OW19588   4.084   2.757   0.597 -0.1459  0.0310 -0.4254
 2970SOL    HW119589   4.077   2.765   0.498 -2.6239  1.5897 -0.1506
 2970SOL    HW219590   4.149   2.825   0.631  1.2554 -0.9841 -1.0238
 2971SOL     OW19591   0.797   8.779   2.398 -0.5320  0.4320  0.0950
 2971SOL    HW119592   0.762   8.702   2.346  0.2694  1.8031 -2.5639
 2971SOL    HW219593   0.890   8.760   2.430 -0.5560  0.0773 -0.0538
 2972SOL     OW19594   1.748   8.596   0.571  0.1088 -0.2010 -0.1207
 2972SOL    HW119595   1.763   8.642   0.483 -0.7434 -1.1115 -0.7637
 2972SOL    HW219596   1.803   8.513   0.575  0.5906  0.1454  0.4545
 2973SOL     OW19597   6.377   9.549   2.448 -0.1811  0.1804 -0.3090
 2973SOL    HW119598   6.293   9.546   2.393  0.6583 -3.0633 -1.5452
 2973SOL    HW219599   6.455   9.528   2.390  1.0329 -0.7925  1.6296
 2974SOL     OW19600   7.980   2.597   1.407  0.4449  0.0136 -0.0631
 2974SOL    HW119601   7.966   2.506   1.445 -0.8007 -0.2712 -1.1344
 2974SOL    HW219602   7.966   2.666   1.478 -0.4698 -0.5629  0.3268
 2975SOL     OW19603   7.490   6.123   2.192  0.0544  0.2315  0.0703
 2975SOL    HW119604   7.547   6.046   2.162  1.5832  1.8243 -1.2822
 2975SOL    HW219605   7.521   6.155   2.281  0.0742 -0.0934  0.1791
 2976SOL     OW19606   0.661   6.939   3.961 -0.4269  0.3953 -0.1064
 2976SOL    HW119607   0.636   6.982   3.874 -0.3270 -0.4618 -0.5732
 2976SOL    HW219608   0.616   6.849   3.967 -0.1260  0.2878  0.5563
 2977SOL     OW19609   2.710   8.428   2.263 -0.4116 -0.0018  0.5883
 2977SOL    HW119610   2.646   8.401   2.334 -3.0521  0.8942 -1.3586
 2977SOL    HW219611   2.744   8.347   2.215 -0.2468 -0.4639  1.4798
 2978SOL     OW19612   7.539   8.200   3.081  0.1918  0.3717 -0.1772
 2978SOL    HW119613   7.605   8.259   3.127 -1.6555  2.2993  0.0586
 2978SOL    HW219614   7.447   8.222   3.112 -0.5785 -2.4691 -0.3097
 2979SOL     OW19615   4.394   4.785   1.717  0.1981 -0.1436 -0.2003
 2979SOL    HW119616   4.297   4.785   1.691 -0.5300  1.8123  2.2269
 2979SOL    HW219617   4.439   4.863   1.674  0.7498 -1.1369 -1.4443
 2980SOL     OW19618   3.037   1.133   0.298  0.2610  0.0116 -0.2396
 2980SOL    HW119619   3.108   1.131   0.228  0.2234 -1.7025 -0.2401
 2980SOL    HW219620   2.953   1.170   0.258  0.9291  1.3823 -0.4197
 2981SOL     OW19621   1.800   3.339   3.610  0.3963  0.4980 -0.2761
 2981SOL    HW119622   1.879   3.278   3.619 -0.1795 -0.4324 -1.4814
 2981SOL    HW219623   1.734   3.299   3.546 -0.9530  1.3699  0.5529
 2982SOL     OW19624   4.425   9.815   2.964 -0.4467  0.3824 -0.4190
 2982SOL    HW119625   4.506   9.756   2.968 -1.0372 -0.3908  0.4449
 2982SOL    HW219626   4.343   9.759   2.956 -1.2064  0.9035  2.7936
 2983SOL     OW19627   8.772   4.659   4.139  0.0765 -0.1845  0.1997
 2983SOL    HW119628   8.826   4.585   4.179  0.2714  0.1260  0.5128
 2983SOL    HW219629   8.833   4.733   4.110 -0.1460 -0.0034  0.1911
 2984SOL     OW19630   4.925   9.995   1.721 -0.1162 -0.0528  0.5560
 2984SOL    HW119631   4.925  10.095   1.730 -0.9694 -0.0532  0.6005
 2984SOL    HW219632   4.880   9.955   1.801 -2.2568 -0.3455 -0.7444
 2985SOL     OW19633   0.378   3.928   0.209  0.0361  0.0763 -0.5841
 2985SOL    HW119634   0.443   3.908   0.136  1.2406  0.1622  0.4595
 2985SOL    HW219635   0.343   4.021   0.198  1.0380  0.4766 -0.4343
 2986SOL     OW19636   8.709   4.404   4.449 -0.3104  0.0747 -0.2743
 2986SOL    HW119637   8.789   4.346   4.461  0.3661  0.9316 -0.6654
 2986SOL    HW219638   8.643   4.358   4.389  1.7648  1.2174 -3.5458
 2987SOL     OW19639   8.699   9.055   0.132 -0.0409  0.5489 -0.1160
 2987SOL    HW119640   8.773   8.990   0.150  0.2318  0.7269 -0.5828
 2987SOL    HW219641   8.610   9.008   0.141  0.1416  0.2207 -0.0123
 2988SOL     OW19642   0.100   2.161   4.014  0.8296  0.0390 -0.4716
 2988SOL    HW119643   0.137   2.218   4.088 -2.3703 -0.4826  1.6163
 2988SOL    HW219644   0.020   2.206   3.975  0.8029 -1.0540 -1.7108
 2989SOL     OW19645   3.737   5.008   4.236  0.0011  0.3381  0.0889
 2989SOL    HW119646   3.642   4.982   4.219 -0.1005  1.4793 -1.1609
 2989SOL    HW219647   3.751   5.102   4.207  1.4521  0.2669  0.5405
 2990SOL     OW19648   5.079   2.810   1.568 -0.0263 -0.3924 -0.2413
 2990SOL    HW119649   5.123   2.748   1.633  1.4168  0.4024 -0.4390
 2990SOL    HW219650   5.143   2.834   1.495 -1.5079 -0.9849 -1.7878
 2991SOL     OW19651   2.350   2.000   4.373  0.0512  0.1054  0.1967
 2991SOL    HW119652   2.332   2.060   4.451  2.5005  1.3006 -0.0962
 2991SOL    HW219653   2.304   2.037   4.292  0.4356  0.8384  0.3086
 2992SOL     OW19654   8.768   0.370   2.758  0.3622 -0.6366  0.0692
 2992SOL    HW119655   8.748   0.461   2.794 -1.6073 -0.9264 -0.2166
 2992SOL    HW219656   8.727   0.360   2.667  2.6810 -0.9668 -0.9796
 2993SOL     OW19657   9.021   9.776   0.169 -0.3246 -0.4878 -0.1527
 2993SOL    HW119658   8.954   9.784   0.243 -0.0812  1.7689 -0.1392
 2993SOL    HW219659   8.987   9.824   0.088  0.4176 -0.9832 -0.7600
 2994SOL     OW19660   9.066   6.385   1.187  0.3103  0.6122  0.3879
 2994SOL    HW119661   8.977   6.364   1.146 -0.0995  0.7089  1.2059
 2994SOL    HW219662   9.138   6.334   1.139 -0.4457 -1.2110  1.1386
 2995SOL     OW19663   9.024   8.023   2.869  0.3336 -0.0475 -0.2977
 2995SOL    HW119664   9.080   7.964   2.811 -0.0013  1.0832 -1.8341
 2995SOL    HW219665   8.968   8.083   2.810  0.2008  1.3352  1.2042
 2996SOL     OW19666   5.438   7.471   2.630  0.3499  0.1139 -0.1086
 2996SOL    HW119667   5.482   7.384   2.653  0.9135  0.9766  2.2047
 2996SOL    HW219668   5.495   7.522   2.566  0.2744 -0.9555 -1.0492
 2997SOL     OW19669   2.876   0.379   2.841  0.1609 -0.2870 -0.2245
 2997SOL    HW119670   2.907   0.472   2.860 -2.5619  0.1683  2.3206
 2997SOL    HW219671   2.864   0.330   2.927  1.3158 -2.9682 -1.5273
 2998SOL     OW19672   4.508   9.603   1.495  0.7973 -0.1861 -0.0298
 2998SOL    HW119673   4.464   9.635   1.411 -1.8680 -0.8220  1.0645
 2998SOL    HW219674   4.552   9.515   1.477  1.1510  0.1891 -1.0243
 2999SOL     OW19675   4.625   2.288   2.268 -0.8523 -0.3420 -0.4538
 2999SOL    HW119676   4.724   2.281   2.254 -0.8205  0.6158 -0.7500
 2999SOL    HW219677   4.578   2.273   2.181 -1.1073 -3.2969  0.1452
 3000SOL     OW19678   7.385   9.974   1.369  0.5574 -0.2906  0.4271
 3000SOL    HW119679   7.363   9.957   1.273 -0.3009 -0.5562  0.6624
 3000SOL    HW219680   7.388   9.887   1.418  0.8895 -0.1470  0.6635
 3001SOL     OW19681   9.835   7.321   0.894  0.3501  0.2224 -0.1639
 3001SOL    HW119682   9.906   7.360   0.835  0.2183  0.4074 -0.2025
 3001SOL    HW219683   9.745   7.339   0.853  0.2963 -0.2979 -0.2868
 3002SOL     OW19684   3.655   7.329   1.882 -0.1009 -0.1079 -0.5152
 3002SOL    HW119685   3.672   7.428   1.880  1.0711 -0.1072  3.9632
 3002SOL    HW219686   3.558   7.312   1.896  0.0217  0.5152  1.2185
 3003SOL     OW19687   1.845   8.916   1.117 -0.3360  0.3421 -0.4582
 3003SOL    HW119688   1.812   8.961   1.200  2.8032  1.8489  0.0568
 3003SOL    HW219689   1.860   8.819   1.135 -0.5192  0.4821  0.4563
 3004SOL     OW19690   0.580   9.582   0.231 -0.1617 -0.2501 -0.1444
 3004SOL    HW119691   0.670   9.567   0.188  1.9446  1.9095  3.3053
 3004SOL    HW219692   0.547   9.496   0.270  0.6119 -0.9706 -1.0426
 3005SOL     OW19693   1.482   2.094   1.874 -0.2184 -0.3871  0.2882
 3005SOL    HW119694   1.486   2.048   1.963  4.5564 -1.1294 -0.1507
 3005SOL    HW219695   1.437   2.183   1.885  1.3271  0.0781  3.7512
 3006SOL     OW19696   7.823   8.859   4.261 -0.0531 -0.0759  0.6787
 3006SOL    HW119697   7.732   8.901   4.257 -0.2751 -0.5891  0.2044
 3006SOL    HW219698   7.867   8.865   4.171  0.3897  0.1942  0.9129
 3007SOL     OW19699   8.573   0.678   2.535 -0.3756 -0.2004 -0.3406
 3007SOL    HW119700   8.649   0.710   2.592  1.2491 -1.7008 -1.6137
 3007SOL    HW219701   8.513   0.619   2.589  1.3389 -1.8886 -0.2626
 3008SOL     OW19702   9.177   9.732   2.795 -0.0392  0.1599  0.6530
 3008SOL    HW119703   9.195   9.687   2.883 -0.0543 -0.3850  0.3807
 3008SOL    HW219704   9.080   9.720   2.772 -0.0669  0.4231  0.6307
 3009SOL     OW19705   5.214   1.190   3.050  0.1825  0.2625 -0.5023
 3009SOL    HW119706   5.139   1.164   3.110 -0.7754  2.3959 -0.7522
 3009SOL    HW219707   5.179   1.246   2.975  1.9253  0.6928 -1.0098
 3010SOL     OW19708   7.193   7.289   3.126  0.3430  0.2337  0.0779
 3010SOL    HW119709   7.117   7.229   3.101 -0.2179  1.5863 -1.6319
 3010SOL    HW219710   7.202   7.293   3.225 -0.1637 -1.9624  0.2334
 3011SOL     OW19711   3.371   9.331   0.193  0.2462 -0.0620 -0.2260
 3011SOL    HW119712   3.320   9.248   0.215  0.4193 -0.4328 -1.2232
 3011SOL    HW219713   3.330   9.375   0.113  0.4882  0.5264 -0.0287
 3012SOL     OW19714   1.092   7.751   2.956  0.3605 -0.8258 -0.0990
 3012SOL    HW119715   1.018   7.717   2.898  0.3585 -0.6388 -0.2081
 3012SOL    HW219716   1.165   7.788   2.898  0.3616 -0.6448  0.0183
 3013SOL     OW19717   5.339   7.460   3.347  0.2345  0.2405  0.0715
 3013SOL    HW119718   5.291   7.542   3.377  1.1090 -0.5484  3.8581
 3013SOL    HW219719   5.293   7.379   3.384  0.8214 -0.8495 -1.5358
 3014SOL     OW19720   9.365   0.080   3.980  0.6751  0.9286  0.1926
 3014SOL    HW119721   9.286   0.086   3.919  0.9961 -0.0514 -0.3337
 3014SOL    HW219722   9.387  -0.016   3.996 -1.1525  1.0567  4.1365
 3015SOL     OW19723   5.073   2.077   2.390  0.2552 -0.3160 -0.3616
 3015SOL    HW119724   4.999   2.012   2.373 -0.2540  0.2106 -0.1809
 3015SOL    HW219725   5.077   2.144   2.316 -1.4697  1.5196  1.1597
 3016SOL     OW19726   1.259   0.504   0.690 -0.1776  0.0689 -0.4809
 3016SOL    HW119727   1.164   0.536   0.701  0.5047  1.5589  1.4310
 3016SOL    HW219728   1.321   0.581   0.703  1.4277 -1.5400  1.7535
 3017SOL     OW19729   7.379   8.670   1.937  0.2433  0.0543  0.6273
 3017SOL    HW119730   7.371   8.747   1.874  0.1959  0.3231  0.9595
 3017SOL    HW219731   7.310   8.678   2.009 -1.6039 -1.7772 -0.8849
 3018SOL     OW19732   5.872   8.927   3.247  0.3714  0.2627  0.2083
 3018SOL    HW119733   5.920   8.962   3.328  1.2178  0.4460 -0.3566
 3018SOL    HW219734   5.824   9.002   3.202 -0.1160  0.1559  0.5565
 3019SOL     OW19735   8.862   4.815   1.397 -0.1008 -0.1505 -0.0695
 3019SOL    HW119736   8.842   4.720   1.419  0.0764 -0.0610  0.4716
 3019SOL    HW219737   8.793   4.874   1.439  0.6097  0.0676  0.8087
 3020SOL     OW19738   6.791   9.429   2.732 -0.3131  0.1232 -0.1966
 3020SOL    HW119739   6.751   9.397   2.646  0.3980 -1.2746 -0.0149
 3020SOL    HW219740   6.862   9.365   2.762  0.7209  1.5694  0.4834
 3021SOL     OW19741   1.536   0.140   2.189  0.6496  0.2358  0.5937
 3021SOL    HW119742   1.490   0.211   2.136 -0.3199  0.2040  1.3963
 3021SOL    HW219743   1.557   0.062   2.129  0.3064  0.5453  0.0689
 3022SOL     OW19744   8.990   4.134   4.153 -0.0835  0.0677 -0.0645
 3022SOL    HW119745   8.921   4.116   4.223 -1.4692 -1.1998 -1.7463
 3022SOL    HW219746   8.945   4.155   4.066  1.6441 -0.8098 -1.1895
 3023SOL     OW19747   8.533   8.668   4.392 -0.5109  0.0914 -0.4014
 3023SOL    HW119748   8.609   8.698   4.448  0.2768 -1.0186 -0.8483
 3023SOL    HW219749   8.452   8.657   4.449 -0.2062  0.7768  0.1685
 3024SOL     OW19750   7.937   1.252   3.808 -0.2625 -0.5388  0.0315
 3024SOL    HW119751   7.916   1.233   3.904  0.0841  1.6261  0.5573
 3024SOL    HW219752   7.977   1.343   3.800 -1.0553 -0.3664 -2.2762
 3025SOL     OW19753   3.393   0.363   4.493 -0.1085  0.2920  0.2464
 3025SOL    HW119754   3.478   0.376   4.544 -0.1760  1.4531  0.0870
 3025SOL    HW219755   3.320   0.339   4.557  0.3987 -1.0332  0.3436
 3026SOL     OW19756   1.115   0.913   0.697 -0.0551 -0.3863 -0.3688
 3026SOL    HW119757   1.153   0.907   0.790  1.6551  1.3106 -0.9141
 3026SOL    HW219758   1.023   0.952   0.702 -0.1977 -0.8229  0.6538
 3027SOL     OW19759   0.222   3.083   2.062  0.3736  1.0838  0.1728
 3027SOL    HW119760   0.180   3.173   2.070  1.3323  1.5372  0.1110
 3027SOL    HW219761   0.176   3.030   1.991 -0.6049  1.2860  0.6462
 3028SOL     OW19762   8.617   6.245   0.033  0.5164  0.0379  0.0163
 3028SOL    HW119763   8.668   6.327   0.058 -0.0416  0.2484  0.4671
 3028SOL    HW219764   8.563   6.214   0.111 -0.2178 -0.0616 -0.5205
 3029SOL     OW19765   2.732   1.546   2.227  0.1204 -0.2193  0.2122
 3029SOL    HW119766   2.761   1.495   2.146  1.3726  2.3295 -0.9851
 3029SOL    HW219767   2.768   1.639   2.223 -1.2932  0.4929  2.8398
 3030SOL     OW19768   8.657   6.466   2.645 -0.2775  0.3106  0.3288
 3030SOL    HW119769   8.670   6.505   2.736 -1.9218  1.0789  0.2533
 3030SOL    HW219770   8.638   6.368   2.653  0.7238  0.1412  0.7226
 3031SOL     OW19771   3.247   6.862   0.789 -0.2935 -0.1777 -0.4821
 3031SOL    HW119772   3.263   6.797   0.864 -2.4055 -0.3890 -0.1881
 3031SOL    HW219773   3.243   6.955   0.826 -0.3965 -0.1916 -0.4577
 3032SOL     OW19774   2.068   0.416   2.391 -0.3025  0.1428 -0.3705
 3032SOL    HW119775   2.117   0.394   2.306  1.2192 -1.2142  0.8338
 3032SOL    HW219776   2.017   0.336   2.421 -4.0845  1.7790 -2.0723
 3033SOL     OW19777   0.815   9.583   0.054 -0.1678  0.5031  0.3748
 3033SOL    HW119778   0.777   9.621  -0.031 -1.3574  1.6437  1.3802
 3033SOL    HW219779   0.907   9.549   0.038  0.1526  2.0077 -1.0598
 3034SOL     OW19780   5.604   0.356   1.462 -0.0659 -0.5856 -0.6898
 3034SOL    HW119781   5.618   0.271   1.411  0.1351 -0.4975 -0.7810
 3034SOL    HW219782   5.516   0.352   1.511  0.0703 -0.9589 -0.4742
 3035SOL     OW19783   8.188   3.080   2.175  0.5825  0.7904  0.3696
 3035SOL    HW119784   8.144   3.121   2.255  0.8747  1.2348  0.3029
 3035SOL    HW219785   8.251   3.145   2.134 -0.9413  1.2275 -1.3370
 3036SOL     OW19786   4.775   7.492   1.730  0.0059 -0.2653  0.3515
 3036SOL    HW119787   4.829   7.549   1.668  1.9010 -1.0140  1.2867
 3036SOL    HW219788   4.792   7.520   1.824 -1.8059 -0.0482  0.6426
 3037SOL     OW19789   9.532   9.903   2.804  0.1909 -0.1608  0.3579
 3037SOL    HW119790   9.438   9.938   2.806  0.4791  0.6592 -0.2076
 3037SOL    HW219791   9.558   9.882   2.710  0.7012 -0.0404  0.4721
 3038SOL     OW19792   2.173   0.858   2.258 -0.1785  0.1333 -0.3927
 3038SOL    HW119793   2.170   0.795   2.335 -0.5546  0.2053 -0.3457
 3038SOL    HW219794   2.214   0.813   2.179  1.3822  0.4656  0.2153
 3039SOL     OW19795   3.627   3.375   0.985  0.5588  0.2172  0.0834
 3039SOL    HW119796   3.703   3.416   1.035  2.1235 -1.8826 -0.4669
 3039SOL    HW219797   3.628   3.407   0.890  0.2648  0.8257  0.2886
 3040SOL     OW19798   2.821   3.912   0.534  0.0840 -0.7074  0.1912
 3040SOL    HW119799   2.817   4.002   0.578 -0.1019  0.3317 -1.8776
 3040SOL    HW219800   2.848   3.843   0.601 -0.3849  0.7875  1.9547
 3041SOL     OW19801   0.174   7.065   2.303 -0.2244  0.1461 -0.2780
 3041SOL    HW119802   0.254   7.023   2.259  1.4047  0.4797  2.2336
 3041SOL    HW219803   0.155   7.017   2.389 -1.3798  1.4659  0.2078
 3042SOL     OW19804   5.215   7.218   3.156  0.1155 -0.1590 -0.0803
 3042SOL    HW119805   5.304   7.211   3.111  0.4000 -0.0758  0.4645
 3042SOL    HW219806   5.226   7.258   3.246 -0.3362 -1.1574  0.4260
 3043SOL     OW19807   6.952   8.798   1.952 -0.3505 -0.8997  0.1686
 3043SOL    HW119808   6.947   8.699   1.942 -0.6920 -0.7642 -1.0639
 3043SOL    HW219809   6.882   8.828   2.017  0.5162 -1.5795  1.4279
 3044SOL     OW19810   5.283   9.606   3.699  0.3772  0.2914 -0.8827
 3044SOL    HW119811   5.243   9.605   3.790 -0.2980 -2.3362 -1.1793
 3044SOL    HW219812   5.281   9.700   3.663 -1.5795  0.9440  0.8219
 3045SOL     OW19813   5.457   6.923   1.927 -0.0944 -0.1997  0.4866
 3045SOL    HW119814   5.440   6.863   2.005 -2.7098  0.1020  0.1961
 3045SOL    HW219815   5.448   6.871   1.842 -1.4639  0.3984  0.2642
 3046SOL     OW19816   4.492   7.732   3.173  0.3193 -0.2160  0.2077
 3046SOL    HW119817   4.551   7.760   3.097  0.4912  1.2536  0.8655
 3046SOL    HW219818   4.420   7.672   3.139  1.0471 -0.4492 -0.9349
 3047SOL     OW19819   3.995   1.984   0.692  0.7303 -0.7392 -0.8175
 3047SOL    HW119820   3.975   1.893   0.728  2.0849 -0.8801 -0.4089
 3047SOL    HW219821   3.911   2.023   0.653 -0.6914 -0.7086  2.1483
 3048SOL     OW19822   9.844   9.353   4.534  0.3706  0.1374  0.5282
 3048SOL    HW119823   9.920   9.312   4.483 -1.0051 -2.8201  0.7272
 3048SOL    HW219824   9.758   9.330   4.489 -0.7129 -0.5346  2.8854
 3049SOL     OW19825   1.129   8.998   3.512 -0.1304  0.5723 -0.1999
 3049SOL    HW119826   1.227   9.020   3.508 -0.4795  1.8098 -2.4264
 3049SOL    HW219827   1.113   8.913   3.462 -0.0872 -0.0987  0.9043
 3050SOL     OW19828   5.172   0.183   2.741  0.1850  0.1715  0.3792
 3050SOL    HW119829   5.118   0.128   2.678 -2.7043  2.0009  1.1562
 3050SOL    HW219830   5.128   0.272   2.755  2.8010  1.3078  1.9731
 3051SOL     OW19831   2.468   9.456   4.096 -0.3416 -0.0677  0.3628
 3051SOL    HW119832   2.562   9.482   4.072 -0.3469 -1.6659 -1.4964
 3051SOL    HW219833   2.466   9.360   4.121 -0.8217  0.8990  4.4414
 3052SOL     OW19834   0.913   5.490   3.248  0.6907 -0.3345 -0.0511
 3052SOL    HW119835   0.884   5.417   3.186  1.8404  1.6896 -3.0738
 3052SOL    HW219836   0.850   5.567   3.240  1.1989  0.1845  0.8500
 3053SOL     OW19837   2.316   6.973   3.642 -0.0047  0.7372  0.3115
 3053SOL    HW119838   2.247   7.041   3.617 -1.5390 -0.9458 -0.2078
 3053SOL    HW219839   2.329   6.909   3.566  0.4917 -0.2745  1.2265
 3054SOL     OW19840   7.875   8.526   1.414  0.2160  0.6327 -0.5149
 3054SOL    HW119841   7.788   8.490   1.448 -0.0985  0.4032 -1.5406
 3054SOL    HW219842   7.941   8.531   1.489 -0.2414 -0.5715 -0.0206
 3055SOL     OW19843   6.527   0.149   2.907  0.3867 -0.3812 -0.6213
 3055SOL    HW119844   6.453   0.118   2.967  0.9718 -1.0778 -0.2425
 3055SOL    HW219845   6.615   0.115   2.942  0.5536 -2.6555 -3.0392
 3056SOL     OW19846   9.794   2.157   1.902  0.2542  0.5122  0.2046
 3056SOL    HW119847   9.733   2.108   1.965  0.4293  0.7587  0.5675
 3056SOL    HW219848   9.763   2.251   1.891  0.5651  0.6395  0.3898
 3057SOL     OW19849   8.882   8.520   4.304 -0.1140 -0.0826 -0.2944
 3057SOL    HW119850   8.819   8.481   4.370 -0.7626  0.3440 -0.6575
 3057SOL    HW219851   8.884   8.620   4.315  1.9913 -0.2379  1.0517
 3058SOL     OW19852   3.701   3.782   0.690  0.5807  0.7458 -0.0600
 3058SOL    HW119853   3.678   3.686   0.702 -0.2019  0.9396  0.0082
 3058SOL    HW219854   3.795   3.798   0.721  1.0816 -0.2024 -1.0477
 3059SOL     OW19855   1.101   4.725   2.986  0.1652 -0.1547 -0.1851
 3059SOL    HW119856   1.087   4.653   3.054  0.8848  1.2505  1.4940
 3059SOL    HW219857   1.013   4.767   2.964 -0.0941 -0.7139 -0.2276
 3060SOL     OW19858   0.625   8.679   4.683  0.2477  0.0717 -0.1915
 3060SOL    HW119859   0.530   8.707   4.693 -0.2023 -1.0163 -1.2842
 3060SOL    HW219860   0.630   8.600   4.622  1.8418  0.0592 -0.0607
 3061SOL     OW19861   0.346   2.914   2.259 -0.1909 -0.0980 -0.5712
 3061SOL    HW119862   0.277   2.967   2.209 -0.4576  0.7586  0.6926
 3061SOL    HW219863   0.336   2.930   2.357  0.3334 -1.7681 -0.2294
 3062SOL     OW19864   3.668   0.156   2.451  0.1106 -0.1347 -0.2194
 3062SOL    HW119865   3.767   0.170   2.463  0.4128 -2.8793  0.8602
 3062SOL    HW219866   3.620   0.184   2.534  0.1931 -0.7818  0.0450
 3063SOL     OW19867   1.703   6.292   3.711  0.4397  0.1198  0.3524
 3063SOL    HW119868   1.763   6.359   3.754 -0.5873 -0.1648  2.3124
 3063SOL    HW219869   1.686   6.317   3.616  1.9010  1.3724  0.4230
 3064SOL     OW19870   9.884   7.953   0.052  0.0713 -0.2957 -0.5749
 3064SOL    HW119871   9.880   8.036  -0.004  0.6249 -0.5476 -0.9889
 3064SOL    HW219872   9.968   7.952   0.104  0.1465 -0.6820 -0.7027
 3065SOL     OW19873   3.799   8.178   1.583  0.6632  0.5593 -0.3532
 3065SOL    HW119874   3.837   8.261   1.623 -0.5304  0.5868  0.7655
 3065SOL    HW219875   3.803   8.104   1.650 -1.9311  0.7641  0.0773
 3066SOL     OW19876   7.936   6.664   1.194  0.3858  0.1855 -0.5662
 3066SOL    HW119877   7.969   6.576   1.160 -0.2253 -0.2534 -0.0432
 3066SOL    HW219878   7.884   6.649   1.279 -1.0280  0.8687 -1.2948
 3067SOL     OW19879   4.293   7.219   2.640  0.1748 -0.2313 -0.5288
 3067SOL    HW119880   4.344   7.216   2.725 -0.5502 -1.6820 -0.1233
 3067SOL    HW219881   4.222   7.290   2.646  1.5258  1.1595 -0.7582
 3068SOL     OW19882   9.964   2.964   0.406  0.0652 -0.5827 -0.4546
 3068SOL    HW119883   9.987   2.988   0.312 -1.4003  1.8257 -0.2338
 3068SOL    HW219884  10.004   3.031   0.468 -0.3485 -1.2295  0.5322
 3069SOL     OW19885   3.062   2.196   4.509  0.8725 -0.3176 -1.0740
 3069SOL    HW119886   2.967   2.207   4.537  1.0356  0.2218 -0.7142
 3069SOL    HW219887   3.109   2.135   4.574  0.9866  0.0983 -0.7639
 3070SOL     OW19888   9.083   6.092   4.739 -0.3101 -0.3421  0.1325
 3070SOL    HW119889   9.109   6.183   4.771 -0.4042 -0.3997  0.3673
 3070SOL    HW219890   9.158   6.055   4.683  0.6141 -0.9964  1.7861
 3071SOL     OW19891   9.333   2.450   3.404  0.0980  0.3116 -0.3160
 3071SOL    HW119892   9.336   2.479   3.309 -1.1461  1.1334 -0.1160
 3071SOL    HW219893   9.241   2.466   3.441  0.8142  0.8570  1.2805
 3072SOL     OW19894   3.936   9.688   3.476  0.1476 -0.0067 -0.0127
 3072SOL    HW119895   3.972   9.768   3.429  1.6414 -1.8265 -2.0832
 3072SOL    HW219896   4.001   9.659   3.546 -1.3408  1.7633  2.1448
 3073SOL     OW19897   0.984   1.381   0.623  0.3718  0.3096 -0.1755
 3073SOL    HW119898   1.072   1.337   0.603 -0.3714 -1.3540  0.1333
 3073SOL    HW219899   0.967   1.380   0.722  0.0557  0.7491 -0.2197
 3074SOL     OW19900   1.554   4.378   2.657  0.0704  0.0278 -0.3073
 3074SOL    HW119901   1.465   4.422   2.667  1.2885  2.0965  1.6409
 3074SOL    HW219902   1.594   4.404   2.568 -1.3080 -1.0547 -1.2680
 3075SOL     OW19903   8.555   2.358   0.179 -0.1341  0.3349  0.2577
 3075SOL    HW119904   8.589   2.340   0.087  1.4537  0.5516  0.7777
 3075SOL    HW219905   8.552   2.457   0.194 -0.4951  0.3019  0.4029
 3076SOL     OW19906   8.626   2.009   2.539 -0.9354  0.0762  0.1085
 3076SOL    HW119907   8.568   2.078   2.497  0.0818  0.8745  0.0048
 3076SOL    HW219908   8.641   1.934   2.475 -2.0436 -0.2556  0.2254
 3077SOL     OW19909   8.472   1.203   0.797 -0.4717 -0.3467 -0.2247
 3077SOL    HW119910   8.387   1.226   0.845 -0.5398  1.3534 -1.1198
 3077SOL    HW219911   8.458   1.214   0.698  1.1503  1.2033 -0.2977
 3078SOL     OW19912   1.671   9.885   0.796 -0.1759 -0.5118 -0.1059
 3078SOL    HW119913   1.667   9.791   0.763  1.8980 -0.3341 -0.8840
 3078SOL    HW219914   1.603   9.940   0.748 -0.6681 -1.3650 -0.3979
 3079SOL     OW19915   8.891   0.947   4.601 -0.1190  0.2864  0.5807
 3079SOL    HW119916   8.916   0.852   4.579  0.1833  0.5255 -0.1023
 3079SOL    HW219917   8.795   0.962   4.579 -0.1249  0.1864  0.5309
 3080SOL     OW19918   2.313   3.560   0.830 -0.2584 -0.5216 -0.6824
 3080SOL    HW119919   2.332   3.543   0.927 -1.4975  1.3903 -0.0904
 3080SOL    HW219920   2.347   3.650   0.805  0.3097 -1.1320 -2.1056
 3081SOL     OW19921   8.143   5.355   3.873 -0.8330 -0.8382  0.7081
 3081SOL    HW119922   8.118   5.446   3.904  1.1516  0.1957 -0.6360
 3081SOL    HW219923   8.230   5.327   3.915  0.1874 -0.7723 -1.2769
 3082SOL     OW19924   7.039   7.546   2.857 -0.8755  0.4587  0.1000
 3082SOL    HW119925   7.074   7.453   2.857 -2.1920 -0.0580 -1.2688
 3082SOL    HW219926   6.952   7.549   2.808 -0.7264  2.4555 -0.0834
 3083SOL     OW19927   4.513   0.848   1.952  0.1806  0.3887 -0.6714
 3083SOL    HW119928   4.467   0.932   1.923 -3.9125 -1.7519 -0.8715
 3083SOL    HW219929   4.558   0.805   1.874  0.5429  1.3315 -0.9909
 3084SOL     OW19930   9.722   6.627   1.975 -0.0007 -0.0404  0.1902
 3084SOL    HW119931   9.810   6.663   1.943 -0.0116 -0.5792 -0.4538
 3084SOL    HW219932   9.659   6.703   1.988  0.4130  0.3096  0.1861
 3085SOL     OW19933   9.762   8.974   4.740  0.2093 -0.2759 -0.0462
 3085SOL    HW119934   9.704   8.968   4.659 -0.2610  1.4034  0.1576
 3085SOL    HW219935   9.714   8.934   4.819 -1.4016  2.5951  0.4945
 3086SOL     OW19936   1.371   3.169   1.973 -0.0528 -0.3149 -0.5811
 3086SOL    HW119937   1.288   3.165   1.919  0.4825 -1.9180 -1.3196
 3086SOL    HW219938   1.384   3.083   2.022  1.3704 -0.2346 -0.7816
 3087SOL     OW19939   3.197   0.013   3.741 -0.4285  0.3684  0.1112
 3087SOL    HW119940   3.204   0.007   3.840  1.1533  3.5808  0.2328
 3087SOL    HW219941   3.263   0.079   3.706  0.4927 -2.2174 -3.3212
 3088SOL     OW19942   9.259   7.957   1.712 -0.1355 -0.5153 -0.7306
 3088SOL    HW119943   9.267   7.952   1.812  1.3018  0.1220 -0.7908
 3088SOL    HW219944   9.321   8.028   1.678 -3.3409  1.9067 -1.7728
 3089SOL     OW19945   2.351   0.010   1.341  0.0560  0.1710 -0.2100
 3089SOL    HW119946   2.411  -0.066   1.367 -0.6781 -0.7528 -1.1668
 3089SOL    HW219947   2.349   0.077   1.415  1.7557 -0.0911  0.1008
 3090SOL     OW19948   0.322   5.536   2.244  0.4037  0.2731  0.2079
 3090SOL    HW119949   0.230   5.502   2.267  0.6554  0.2173  1.1355
 3090SOL    HW219950   0.326   5.555   2.146  0.1108 -1.9658 -0.2826
 3091SOL     OW19951   2.980   6.198   3.386  0.0039  0.0503  0.3168
 3091SOL    HW119952   3.013   6.199   3.291  1.1173  1.6837  0.7093
 3091SOL    HW219953   2.923   6.279   3.402 -1.7375 -1.1849  0.5235
 3092SOL     OW19954   0.670   1.704   0.306  0.0708 -0.2685 -0.5085
 3092SOL    HW119955   0.737   1.709   0.379  1.8850 -0.4796 -2.1082
 3092SOL    HW219956   0.603   1.778   0.316  1.1785  0.6042  0.4949
 3093SOL     OW19957   1.411   0.270   3.586  0.6680  0.2865 -0.1430
 3093SOL    HW119958   1.406   0.182   3.540  1.7493  0.7613 -1.1894
 3093SOL    HW219959   1.320   0.294   3.621 -0.2787  0.1112 -2.3787
 3094SOL     OW19960   1.105   8.270   4.228  0.8343 -0.5651 -0.2404
 3094SOL    HW119961   1.186   8.327   4.216  0.4068 -0.0496 -0.6913
 3094SOL    HW219962   1.091   8.252   4.326  0.9113  0.1982 -0.0861
 3095SOL     OW19963   9.906   8.868   4.515  0.4272  0.1220 -0.0862
 3095SOL    HW119964   9.862   8.779   4.508 -1.9589  1.4171 -2.3591
 3095SOL    HW219965   9.867   8.920   4.592 -0.1222  0.2585 -0.4605
 3096SOL     OW19966   1.115   3.408   0.281  0.2978  0.2480  0.2115
 3096SOL    HW119967   1.055   3.472   0.233 -0.2463 -0.6975 -0.3866
 3096SOL    HW219968   1.071   3.379   0.366  0.9989  1.4561  1.0056
 3097SOL     OW19969   7.691   8.053   1.802 -0.4395 -1.2022  0.3500
 3097SOL    HW119970   7.731   7.968   1.835  3.7623  0.4189 -0.2751
 3097SOL    HW219971   7.689   8.119   1.878 -2.2203 -1.3164  0.4241
 3098SOL     OW19972   8.753   0.029   0.623  0.2419 -0.1486  0.0356
 3098SOL    HW119973   8.813   0.040   0.544  0.5630  0.1394  0.3144
 3098SOL    HW219974   8.792   0.077   0.701 -0.1844 -0.2430  0.3106
 3099SOL     OW19975   8.076   1.448   1.236 -0.6301  0.0712  0.3014
 3099SOL    HW119976   8.072   1.358   1.280  1.0588  0.0243  0.4010
 3099SOL    HW219977   8.035   1.443   1.146 -3.6779  0.0439  1.6277
 3100SOL     OW19978   0.559   9.225   2.394  0.0301 -0.2323  0.4332
 3100SOL    HW119979   0.599   9.137   2.367  0.7264  0.0310  0.5797
 3100SOL    HW219980   0.527   9.220   2.489 -1.4360 -0.8307 -0.0822
 3101SOL     OW19981   2.536   9.613   0.707  0.3887  0.2397 -0.7353
 3101SOL    HW119982   2.587   9.687   0.662  1.7219  0.4995  1.1329
 3101SOL    HW219983   2.600   9.548   0.746 -0.7347  0.0306  0.7890
 3102SOL     OW19984   7.986   1.101   2.952  0.3995 -0.1263 -0.3799
 3102SOL    HW119985   8.010   1.195   2.974  0.6224 -0.3288  0.2358
 3102SOL    HW219986   7.927   1.100   2.871 -0.3836  0.6078  0.1744
 3103SOL     OW19987   5.320   1.902   1.656 -0.4863  0.6969  0.1038
 3103SOL    HW119988   5.256   1.937   1.588  0.6807 -0.2987 -1.5241
 3103SOL    HW219989   5.282   1.819   1.697 -0.3978  0.3116 -0.5934
 3104SOL     OW19990   8.236   0.692   2.909  0.1790  0.1578 -0.0570
 3104SOL    HW119991   8.137   0.677   2.917  0.3098 -0.3465  0.7259
 3104SOL    HW219992   8.262   0.770   2.967 -0.0254  1.4668 -1.6837
 3105SOL     OW19993   3.283   6.840   3.223  0.1035 -0.4537  0.0243
 3105SOL    HW119994   3.242   6.759   3.181  0.2305 -0.7467  0.4480
 3105SOL    HW219995   3.378   6.818   3.249  0.0925 -0.2125  0.2645
 3106SOL     OW19996   5.003   2.366   0.809  0.6389  0.4137  0.0114
 3106SOL    HW119997   5.091   2.317   0.801  1.3904  1.6212  0.7078
 3106SOL    HW219998   4.996   2.435   0.737  0.3904  0.5222  0.1392
 3107SOL     OW19999   6.353   9.846   2.389 -0.4255 -0.0670 -0.4217
 3107SOL    HW120000   6.348   9.906   2.469  0.1252 -0.1383 -0.3344
 3107SOL    HW220001   6.360   9.751   2.419 -2.5817 -0.2961 -0.5577
 3108SOL     OW20002   1.922   3.534   0.940  0.1811  0.1289 -0.4719
 3108SOL    HW120003   1.959   3.625   0.924  0.4528  0.2056  0.5874
 3108SOL    HW220004   1.929   3.480   0.856  0.6115  0.8703 -0.9131
 3109SOL     OW20005   2.835   5.153   0.333 -0.4656  0.4789  0.0190
 3109SOL    HW120006   2.776   5.141   0.413 -1.6700  0.1166 -0.9270
 3109SOL    HW220007   2.811   5.086   0.263  1.0339  0.3580 -0.3939
 3110SOL     OW20008   3.849   8.632   3.325 -0.0964 -0.3039  0.3388
 3110SOL    HW120009   3.828   8.638   3.227 -0.6275  1.7729  0.5585
 3110SOL    HW220010   3.946   8.651   3.339 -0.2090  0.2985  0.3028
 3111SOL     OW20011   7.212   9.292   4.409  0.6496  0.4748  0.1315
 3111SOL    HW120012   7.277   9.323   4.479 -0.9328  1.6649  1.1090
 3111SOL    HW220013   7.122   9.334   4.426 -0.9024 -2.6412 -0.0479
 3112SOL     OW20014   9.864   3.525   2.943 -0.6748  0.4616 -0.5062
 3112SOL    HW120015   9.891   3.472   2.862 -0.2055 -1.9531  1.1716
 3112SOL    HW220016   9.940   3.528   3.008 -1.3765  1.5576  0.2802
 3113SOL     OW20017   3.129   6.951   1.811 -0.1029  0.2513  0.3379
 3113SOL    HW120018   3.175   7.039   1.806 -0.5484  0.4546 -0.3323
 3113SOL    HW220019   3.121   6.913   1.719  0.0577 -0.4745  0.6196
 3114SOL     OW20020   8.030   5.579   4.510  0.1840  0.2041  0.2669
 3114SOL    HW120021   8.085   5.514   4.457 -0.2038 -1.3473  1.6956
 3114SOL    HW220022   8.037   5.556   4.607 -1.6012  1.0384  0.6172
 3115SOL     OW20023   8.266   3.966   3.786  0.2375 -0.4083 -0.2543
 3115SOL    HW120024   8.328   3.925   3.719  0.3443  1.2515 -1.1983
 3115SOL    HW220025   8.282   4.065   3.791 -1.9727 -0.0254 -0.1231
 3116SOL     OW20026   3.027   7.496   0.970 -0.0684 -0.3240 -0.1565
 3116SOL    HW120027   3.027   7.509   1.070 -0.4233 -2.4394  0.1340
 3116SOL    HW220028   3.086   7.565   0.928 -0.6187  1.1583  1.4352
 3117SOL     OW20029   9.166   7.631   4.643  0.2990 -0.1184 -0.2366
 3117SOL    HW120030   9.259   7.638   4.606 -0.3717  0.1865 -1.9130
 3117SOL    HW220031   9.159   7.688   4.724  1.8647 -0.9575  0.5109
 3118SOL     OW20032   9.966   6.258   0.156 -0.0298 -0.1741  0.3296
 3118SOL    HW120033   9.911   6.340   0.173  0.7090 -0.3412  3.8052
 3118SOL    HW220034   9.907   6.182   0.132 -0.8719  0.8639 -0.9938
 3119SOL     OW20035   5.438   0.290   3.593 -0.4966  0.5132  0.2625
 3119SOL    HW120036   5.346   0.329   3.581 -0.0004  1.6327  0.1000
 3119SOL    HW220037   5.495   0.355   3.643  0.3791  0.0410 -0.1300
 3120SOL     OW20038   0.060   0.445   3.575 -0.0063  0.5462 -0.1906
 3120SOL    HW120039   0.111   0.369   3.617 -1.6111  0.2042  1.2235
 3120SOL    HW220040   0.045   0.425   3.478 -1.0806 -1.3459  0.3325
 3121SOL     OW20041   4.340   8.369   1.107 -0.6275  0.7744 -0.5979
 3121SOL    HW120042   4.413   8.322   1.058 -0.9600 -1.6301  1.1062
 3121SOL    HW220043   4.370   8.460   1.134  1.1087  0.4603 -1.4223
 3122SOL     OW20044   0.651   1.837   1.172  0.6959  0.5574  0.3345
 3122SOL    HW120045   0.577   1.789   1.125  0.7981  0.1141  0.6149
 3122SOL    HW220046   0.653   1.932   1.144 -3.2869  1.9190  4.1836
 3123SOL     OW20047   9.324   1.501   3.687 -0.5777 -0.3728  0.5111
 3123SOL    HW120048   9.369   1.436   3.627 -1.7418 -0.1736 -0.6043
 3123SOL    HW220049   9.233   1.522   3.651 -0.4292  1.4415  1.1582
 3124SOL     OW20050   1.564   8.032   4.470  0.2254  0.2466  0.2769
 3124SOL    HW120051   1.647   7.978   4.458  1.3012  1.6866  0.9494
 3124SOL    HW220052   1.565   8.109   4.405 -0.5797  0.2738  0.2938
 3125SOL     OW20053   8.238   6.120   3.416  0.5426  0.2057  0.0538
 3125SOL    HW120054   8.141   6.129   3.394  0.3034 -0.4103  0.8011
 3125SOL    HW220055   8.283   6.208   3.407 -0.2870  0.6967  0.6284
 3126SOL     OW20056   8.734   5.150   0.440 -0.5734  0.3091  0.1442
 3126SOL    HW120057   8.657   5.194   0.487  0.0255  1.3182  0.1768
 3126SOL    HW220058   8.729   5.051   0.454 -2.2168  0.2983 -0.3565
 3127SOL     OW20059   1.398   3.117   1.509 -0.1055  0.4521 -0.3963
 3127SOL    HW120060   1.388   3.216   1.501 -0.1299  0.4094 -0.8706
 3127SOL    HW220061   1.465   3.096   1.581 -2.3642  0.7542  1.8691
 3128SOL     OW20062   9.401   0.925   3.484  0.1064  0.3078  0.0431
 3128SOL    HW120063   9.409   0.898   3.389 -1.2746 -0.8056  0.2470
 3128SOL    HW220064   9.488   0.966   3.514  0.7800  0.0017 -1.4638
 3129SOL     OW20065   0.167   8.745   2.495  0.0376  0.4356  0.0138
 3129SOL    HW120066   0.103   8.797   2.438 -1.1483  0.4125  1.3124
 3129SOL    HW220067   0.260   8.779   2.479 -0.4417  1.3585 -0.9024
 3130SOL     OW20068   4.086   4.231   4.693 -0.4017 -1.2473 -0.0302
 3130SOL    HW120069   4.132   4.150   4.731  0.0996 -0.5377  0.8841
 3130SOL    HW220070   4.009   4.255   4.751 -0.4807 -0.9974 -0.2409
 3131SOL     OW20071   7.449   7.271   1.937  0.4284  0.2060  0.4295
 3131SOL    HW120072   7.414   7.221   1.857  0.8150 -0.5395  0.7195
 3131SOL    HW220073   7.461   7.207   2.013 -0.3242  0.9789  1.2155
 3132SOL     OW20074   0.223   6.849   3.393  0.2465 -0.1874  0.0476
 3132SOL    HW120075   0.250   6.942   3.367 -0.6516  0.1853  0.4104
 3132SOL    HW220076   0.191   6.800   3.312 -1.9644  0.7695  0.3102
 3133SOL     OW20077   4.286   0.238   2.979 -0.0393  0.4208  0.0497
 3133SOL    HW120078   4.297   0.175   3.056  2.1511 -1.2946 -1.6067
 3133SOL    HW220079   4.347   0.316   2.991 -0.8775  0.9724  0.8222
 3134SOL     OW20080   1.208   5.095   4.759 -0.3689  0.5968 -0.1240
 3134SOL    HW120081   1.115   5.107   4.793  0.3553 -0.6345  2.4136
 3134SOL    HW220082   1.262   5.177   4.780 -0.4981  0.7140 -0.2516
 3135SOL     OW20083   8.176   2.273   3.227  0.2000  0.0744 -0.0720
 3135SOL    HW120084   8.210   2.361   3.193 -0.6313 -0.1958 -1.6711
 3135SOL    HW220085   8.081   2.284   3.258  0.2130 -0.1739  0.0561
 3136SOL     OW20086   8.000   4.577   4.479  0.3175  0.1640 -0.0835
 3136SOL    HW120087   8.004   4.672   4.449  2.1755  0.4946  1.1458
 3136SOL    HW220088   8.044   4.518   4.411  1.9415  0.5693  0.5947
 3137SOL     OW20089   9.509   9.205   1.495 -0.4945  0.1688 -0.2398
 3137SOL    HW120090   9.564   9.268   1.440 -1.1738  0.1958 -0.9056
 3137SOL    HW220091   9.416   9.243   1.505 -0.4025  0.1232  0.8557
 3138SOL     OW20092   6.822   0.068   2.646  0.1385 -0.0563  0.1383
 3138SOL    HW120093   6.837   0.055   2.744  0.3787 -0.9878 -0.0190
 3138SOL    HW220094   6.766   0.150   2.632  0.7090  0.4968  1.0094
 3139SOL     OW20095   8.803   5.251   0.745  0.6614  0.2672  0.0203
 3139SOL    HW120096   8.712   5.292   0.749  0.4663 -0.0649 -0.9100
 3139SOL    HW220097   8.834   5.230   0.838  0.0667  0.9767  0.3847
 3140SOL     OW20098   1.720   6.780   0.861 -0.0971  0.2906  0.2094
 3140SOL    HW120099   1.642   6.836   0.888 -1.1202 -0.9540 -0.0730
 3140SOL    HW220100   1.690   6.710   0.796  1.1876 -0.4401  0.3719
 3141SOL     OW20101   1.548   9.813   4.467  0.3378  0.2154  0.2177
 3141SOL    HW120102   1.587   9.805   4.558  0.0512 -0.2886  0.2989
 3141SOL    HW220103   1.618   9.845   4.403  1.2340 -1.8410  0.1275
 3142SOL     OW20104   9.062   2.166   4.215  0.6370 -0.1324  0.2290
 3142SOL    HW120105   9.076   2.109   4.134 -1.6806 -1.2680  0.5792
 3142SOL    HW220106   9.141   2.226   4.228  2.9015 -2.8426 -0.4966
 3143SOL     OW20107   0.428   7.670   3.764 -0.0062  0.1995  0.1032
 3143SOL    HW120108   0.438   7.666   3.863  1.3662  0.1634 -0.0280
 3143SOL    HW220109   0.477   7.593   3.722 -3.0193 -1.5210 -0.4596
 3144SOL     OW20110   3.730   5.907   1.935  0.2690 -0.4443  0.4070
 3144SOL    HW120111   3.678   5.951   2.008 -0.5268 -0.8893  0.1138
 3144SOL    HW220112   3.682   5.825   1.904 -1.3166  1.6996 -3.1447
 3145SOL     OW20113   9.622   5.185   2.727 -0.7398  0.5905  0.0240
 3145SOL    HW120114   9.540   5.238   2.750 -1.6898 -0.3036 -1.2552
 3145SOL    HW220115   9.703   5.244   2.738 -1.4062  1.1160  2.5026
 3146SOL     OW20116   0.872   0.955   2.182 -0.0284  0.5257 -0.1341
 3146SOL    HW120117   0.963   0.914   2.189 -0.3739 -0.3768 -0.8293
 3146SOL    HW220118   0.880   1.053   2.166  0.8193  0.5707  0.5749
 3147SOL     OW20119   4.798   0.123   2.718  0.1037  0.6797  0.0074
 3147SOL    HW120120   4.799   0.029   2.753  2.1511  2.0655  3.9897
 3147SOL    HW220121   4.852   0.127   2.634 -0.0194 -1.7083 -0.2266
 3148SOL     OW20122   5.054   5.618   1.783  0.8104  0.5785 -0.4868
 3148SOL    HW120123   5.105   5.540   1.818 -0.3225  0.8037  1.7794
 3148SOL    HW220124   4.993   5.588   1.710 -0.0913 -0.8275  0.8053
 3149SOL     OW20125   0.683   2.630   0.993  0.6000 -0.1427 -0.1925
 3149SOL    HW120126   0.594   2.594   1.020  0.5810  0.6877  0.8936
 3149SOL    HW220127   0.682   2.655   0.896 -0.6321  0.7314  0.0442
 3150SOL     OW20128   8.995   1.864   2.133 -0.1295  0.2370  0.9423
 3150SOL    HW120129   9.022   1.785   2.189 -0.9022 -1.3109 -0.8035
 3150SOL    HW220130   8.907   1.845   2.089  1.3202  0.5548 -2.3059
 3151SOL     OW20131   4.131   9.558   3.612  0.3817 -0.1499  0.0015
 3151SOL    HW120132   4.114   9.473   3.563 -0.8862 -0.0389  0.2324
 3151SOL    HW220133   4.091   9.553   3.703 -0.6637  1.0879 -0.3652
 3152SOL     OW20134   1.119   9.049   4.271 -0.2541  0.6194  0.1164
 3152SOL    HW120135   1.079   9.057   4.180  0.3728  0.4179 -0.1772
 3152SOL    HW220136   1.080   9.119   4.331  0.6470  1.9090 -0.7760
 3153SOL     OW20137   4.242   3.528   3.832  0.0012  0.4404  0.0659
 3153SOL    HW120138   4.224   3.431   3.845  0.2482  0.5331  1.1336
 3153SOL    HW220139   4.333   3.540   3.791  0.1252  0.2417  0.2841
 3154SOL     OW20140   0.209   7.112   0.278 -0.5413  0.1138 -0.2152
 3154SOL    HW120141   0.155   7.100   0.195  0.6987  1.0652 -1.1923
 3154SOL    HW220142   0.303   7.136   0.253  0.1456 -0.7547  1.4539
 3155SOL     OW20143   2.731   4.575   4.227 -0.1157 -0.2529  0.7422
 3155SOL    HW120144   2.830   4.575   4.221 -0.1743  0.8455 -0.4563
 3155SOL    HW220145   2.702   4.535   4.314  1.3472 -1.2392  0.7886
 3156SOL     OW20146   1.339   4.967   0.565  0.4566  0.0136 -0.6232
 3156SOL    HW120147   1.390   5.051   0.550  0.7529 -0.4588 -2.3750
 3156SOL    HW220148   1.401   4.889   0.558  0.1087 -0.3934  0.5920
 3157SOL     OW20149   1.118   4.061   2.890  0.2241 -0.7151  0.1157
 3157SOL    HW120150   1.186   4.108   2.834 -0.1351  0.2563  0.4745
 3157SOL    HW220151   1.037   4.041   2.834  0.2240 -0.5465  0.0540
 3158SOL     OW20152   2.622   6.920   1.579 -0.4926  0.8081 -0.1860
 3158SOL    HW120153   2.525   6.897   1.591 -0.1474 -0.2656  0.5668
 3158SOL    HW220154   2.675   6.836   1.570  0.2627  1.4167 -1.5178
 3159SOL     OW20155   0.034   6.233   2.749 -0.5435  0.0586  0.0310
 3159SOL    HW120156   0.126   6.195   2.752 -0.0128  1.1764 -1.5918
 3159SOL    HW220157  -0.031   6.160   2.726  0.0919 -0.4774 -0.0884
 3160SOL     OW20158   8.915   0.182   2.885  0.5358 -0.2794  0.0833
 3160SOL    HW120159   8.910   0.094   2.838  0.8915  1.2150 -2.8625
 3160SOL    HW220160   8.859   0.249   2.837  1.3942  1.4714  1.4475
 3161SOL     OW20161   6.456   8.791   1.462 -0.1625  0.3658  0.1102
 3161SOL    HW120162   6.522   8.846   1.513  1.5762  0.2312 -1.9173
 3161SOL    HW220163   6.384   8.851   1.427  1.5859  1.3625 -1.8737
 3162SOL     OW20164   4.045   7.861   4.140 -0.3931  0.2496 -0.3094
 3162SOL    HW120165   4.143   7.880   4.140 -0.3219 -0.1258 -0.5286
 3162SOL    HW220166   4.030   7.763   4.150 -0.7419  0.2542 -0.8057
 3163SOL     OW20167   9.182   3.422   0.607  0.0691 -0.1253 -0.4411
 3163SOL    HW120168   9.246   3.351   0.577 -0.8833 -1.0555 -0.2819
 3163SOL    HW220169   9.109   3.380   0.661 -1.3235  0.7674 -1.6134
 3164SOL     OW20170   0.602   6.338   1.184 -0.2209 -0.2928  0.4667
 3164SOL    HW120171   0.657   6.415   1.153 -0.3236  0.0150  1.0362
 3164SOL    HW220172   0.505   6.356   1.165 -0.2391 -0.3090  0.5441
 3165SOL     OW20173   2.671   7.447   0.570  0.2814  0.4895 -0.0348
 3165SOL    HW120174   2.738   7.480   0.503  1.3484 -1.3522  0.1090
 3165SOL    HW220175   2.670   7.347   0.570 -3.0184  0.4746 -0.5646
 3166SOL     OW20176   4.352   1.781   2.051  0.3212 -0.3762 -0.2497
 3166SOL    HW120177   4.420   1.830   2.105 -0.7138  1.8274 -0.9096
 3166SOL    HW220178   4.272   1.839   2.037 -0.2233 -1.6042 -2.4992
 3167SOL     OW20179   1.671   6.618   1.209  0.0364 -0.5260  0.3978
 3167SOL    HW120180   1.697   6.539   1.153 -2.0430 -0.6557 -0.4396
 3167SOL    HW220181   1.663   6.699   1.150 -1.2924 -0.4719  0.6318
 3168SOL     OW20182   2.519   3.968   3.896  0.4863  0.3688  0.4815
 3168SOL    HW120183   2.584   4.044   3.888 -0.5608  1.5889  2.9042
 3168SOL    HW220184   2.448   3.978   3.826  1.6117  0.3307 -0.6814
 3169SOL     OW20185   9.468   2.380   2.513 -0.1629 -0.2348  0.2082
 3169SOL    HW120186   9.470   2.449   2.585  2.3545  0.0343 -0.0690
 3169SOL    HW220187   9.470   2.288   2.553 -1.5974 -0.1450  0.5218
 3170SOL     OW20188   8.307   0.276   1.007  0.3682 -0.0412  0.0956
 3170SOL    HW120189   8.280   0.200   0.948 -1.0758  0.4399  0.1071
 3170SOL    HW220190   8.278   0.257   1.101 -0.0655  0.5565  0.0840
 3171SOL     OW20191   2.929   4.806   3.957  0.7390 -0.8740 -0.3302
 3171SOL    HW120192   2.967   4.777   3.870 -0.6641 -0.8455 -0.9653
 3171SOL    HW220193   2.915   4.905   3.956 -1.0349 -1.1234 -0.7755
 3172SOL     OW20194   7.836   3.786   4.283 -0.2124  0.2569 -0.1892
 3172SOL    HW120195   7.828   3.776   4.183 -3.9520 -1.0626  0.1956
 3172SOL    HW220196   7.773   3.856   4.315 -0.2586 -0.5153  1.4499
 3173SOL     OW20197   3.258   3.220   0.692 -0.3040  0.0695 -0.1940
 3173SOL    HW120198   3.245   3.231   0.594  3.3467  0.6022 -0.7042
 3173SOL    HW220199   3.234   3.126   0.718 -0.0575 -0.4699 -1.8327
 3174SOL     OW20200   4.166   1.648   0.497 -0.1666 -0.0239 -0.2625
 3174SOL    HW120201   4.098   1.710   0.457 -0.7510 -0.9000 -0.6463
 3174SOL    HW220202   4.200   1.586   0.426  0.0572 -0.4617  0.2290
 3175SOL     OW20203   5.216   9.991   1.045  0.1864 -0.3682 -0.3954
 3175SOL    HW120204   5.141   9.954   1.099 -0.3683  1.0784 -0.1565
 3175SOL    HW220205   5.301   9.946   1.071 -0.4381 -1.3601 -0.0112
 3176SOL     OW20206   6.754   0.173   1.913  0.4854 -0.0785  0.2784
 3176SOL    HW120207   6.678   0.181   1.849  0.7068  0.1898  0.0550
 3176SOL    HW220208   6.824   0.241   1.892  0.9178 -0.5082  0.3134
 3177SOL     OW20209   3.447   0.019   2.784  0.2238  0.1915  0.0747
 3177SOL    HW120210   3.435   0.020   2.883 -0.0967  0.0017  0.0398
 3177SOL    HW220211   3.364   0.052   2.740  0.4589  0.5224 -0.1253
 3178SOL     OW20212   8.570   1.159   3.166 -0.4472 -0.2053  0.0118
 3178SOL    HW120213   8.621   1.075   3.184  1.5963  0.4805 -2.1932
 3178SOL    HW220214   8.514   1.147   3.083 -0.2035  0.5538 -0.2734
 3179SOL     OW20215   3.288   0.146   2.593 -0.1497  1.0286  0.1484
 3179SOL    HW120216   3.224   0.157   2.669  1.1380  2.2231  1.0871
 3179SOL    HW220217   3.254   0.075   2.530 -0.9356 -0.3876  2.1323
 3180SOL     OW20218   1.338   7.630   1.871  0.2938  0.0558  0.0750
 3180SOL    HW120219   1.315   7.604   1.777 -0.2351  0.7624  0.0078
 3180SOL    HW220220   1.430   7.669   1.874  0.4329 -0.2559 -0.0953
 3181SOL     OW20221   9.172   0.788   4.351  0.3290 -0.0620 -0.3416
 3181SOL    HW120222   9.220   0.843   4.420 -0.0582  0.6420 -0.6241
 3181SOL    HW220223   9.228   0.783   4.268  0.1023  0.4154 -0.5266
 3182SOL     OW20224   0.810   0.529   0.501  0.4267  0.3167  0.3404
 3182SOL    HW120225   0.884   0.516   0.435  1.2652  1.4322  1.0485
 3182SOL    HW220226   0.776   0.623   0.496 -1.0422 -0.2166 -0.0690
 3183SOL     OW20227   8.991   9.460   2.305  0.0675  0.0354  0.0670
 3183SOL    HW120228   9.007   9.490   2.211  1.6440  0.4233  0.4402
 3183SOL    HW220229   8.965   9.364   2.305 -0.4149  0.1620 -0.8020
 3184SOL     OW20230   8.119   8.694   1.482  0.2287  0.9052 -0.0285
 3184SOL    HW120231   8.193   8.639   1.522 -0.1730  1.5488  1.6377
 3184SOL    HW220232   8.158   8.776   1.439  0.3955  1.9292  2.0263
 3185SOL     OW20233   3.504   9.867   2.554  0.0618 -0.1174 -0.3208
 3185SOL    HW120234   3.484   9.937   2.623  2.2702 -0.4146  0.6567
 3185SOL    HW220235   3.449   9.786   2.572  1.2588 -0.5363  1.6879
 3186SOL     OW20236   6.976   9.446   4.484 -0.2370 -0.1183 -0.5916
 3186SOL    HW120237   7.021   9.446   4.574 -1.1303 -1.7188 -0.1126
 3186SOL    HW220238   6.935   9.535   4.466 -0.8207 -0.0594  0.9922
 3187SOL     OW20239   8.461   7.443   1.971 -0.1095 -0.2562  0.0462
 3187SOL    HW120240   8.470   7.358   2.022 -0.6166 -1.2400 -1.4778
 3187SOL    HW220241   8.507   7.435   1.883  0.8113  1.4505  0.3429
 3188SOL     OW20242   4.145   3.116   0.211  0.0742 -0.4588 -0.2838
 3188SOL    HW120243   4.067   3.120   0.149  0.5697 -1.3857 -0.9707
 3188SOL    HW220244   4.150   3.026   0.254  0.1764 -0.0704  0.5309
 3189SOL     OW20245   3.239   9.480   4.452  0.0534  0.0433 -0.6950
 3189SOL    HW120246   3.327   9.487   4.500 -0.1237  0.5836 -0.4403
 3189SOL    HW220247   3.245   9.527   4.364 -0.0571  0.2980 -0.5666
 3190SOL     OW20248   2.147   6.111   2.744 -0.0506  0.4842  0.0122
 3190SOL    HW120249   2.222   6.165   2.782  0.4284 -0.2614  0.1247
 3190SOL    HW220250   2.060   6.149   2.776  0.2781  1.2238  0.0497
 3191SOL     OW20251   3.439   0.957   2.550  0.0829 -0.1348 -0.3656
 3191SOL    HW120252   3.497   1.037   2.567  0.4937 -0.5657  0.2738
 3191SOL    HW220253   3.483   0.876   2.588 -0.6740 -0.5512 -0.3868
 3192SOL     OW20254   3.440   1.303   0.571 -0.0150 -0.6219 -0.5780
 3192SOL    HW120255   3.407   1.231   0.509 -0.5667  0.7685 -1.9180
 3192SOL    HW220256   3.370   1.322   0.640 -0.6530 -0.0487 -1.3728
 3193SOL     OW20257   4.012   3.767   2.104 -0.3198 -0.4552  0.0845
 3193SOL    HW120258   3.948   3.760   2.028 -0.3504 -0.1767  0.0848
 3193SOL    HW220259   4.106   3.758   2.068 -0.1924  2.1660 -0.3476
 3194SOL     OW20260   3.333   7.580   1.036 -0.4621  0.3543 -0.7540
 3194SOL    HW120261   3.368   7.626   1.118  0.8050  0.7010 -1.4723
 3194SOL    HW220262   3.335   7.481   1.050  0.1836  0.3953 -0.5293
 3195SOL     OW20263   2.267   3.672   2.746  0.3220  0.1656 -0.6478
 3195SOL    HW120264   2.315   3.596   2.790  0.7206  1.0179  0.3763
 3195SOL    HW220265   2.332   3.743   2.721 -0.3088  0.9759  0.0236
 3196SOL     OW20266   1.305   3.931   2.056 -0.4632  0.4560  0.7318
 3196SOL    HW120267   1.286   3.852   2.114  0.9839 -0.8069 -0.4631
 3196SOL    HW220268   1.403   3.934   2.036 -0.9433  0.7836 -1.7330
 3197SOL     OW20269   8.695   5.673   1.987  0.0060  0.1932  0.2907
 3197SOL    HW120270   8.723   5.757   1.941 -0.9385  0.8875  0.9710
 3197SOL    HW220271   8.628   5.625   1.931  0.9177 -0.3784 -0.3334
 3198SOL     OW20272   8.549   2.800   1.414 -0.3292  0.0995  0.1073
 3198SOL    HW120273   8.630   2.748   1.440 -0.3523  1.7234  3.7313
 3198SOL    HW220274   8.468   2.742   1.422  0.1277 -0.6480 -0.5880
 3199SOL     OW20275   0.028   1.199   1.102  0.6494  0.6921  0.1706
 3199SOL    HW120276  -0.040   1.271   1.091  0.9367  0.9490  0.0737
 3199SOL    HW220277   0.042   1.179   1.199 -1.8585 -1.5412  0.1162
 3200SOL     OW20278   0.577   9.635   4.308  0.1604 -0.8596 -0.3021
 3200SOL    HW120279   0.499   9.697   4.300  0.4757 -0.2488  1.2656
 3200SOL    HW220280   0.611   9.635   4.402  2.5107 -0.5564 -1.1173
 3201SOL     OW20281   1.166   6.688   0.906 -0.5444 -0.2480 -0.0602
 3201SOL    HW120282   1.231   6.673   0.981  0.3558 -0.7360 -0.9214
 3201SOL    HW220283   1.074   6.695   0.943 -0.0983 -0.3525  1.1102
 3202SOL     OW20284   7.358   1.296   2.646  0.2025 -0.0098  0.4675
 3202SOL    HW120285   7.419   1.354   2.700  2.0231 -0.9046 -0.5904
 3202SOL    HW220286   7.327   1.219   2.702  1.1625 -0.3044  0.6102
 3203SOL     OW20287   0.058   6.309   4.680  0.8587  0.9072  0.2260
 3203SOL    HW120288   0.036   6.299   4.777  1.3527  1.7183  0.4196
 3203SOL    HW220289   0.112   6.230   4.650  0.5429  0.5620  0.5578
 3204SOL     OW20290   0.234   8.449   3.670  0.0456 -0.3570 -0.4508
 3204SOL    HW120291   0.281   8.419   3.588  0.7118  3.5292 -1.6238
 3204SOL    HW220292   0.137   8.425   3.665  0.5967 -2.4307 -1.1515
 3205SOL     OW20293   8.972   2.945   2.435 -0.2605 -0.0309 -0.3173
 3205SOL    HW120294   8.988   2.847   2.446 -1.8015 -0.0771  1.7668
 3205SOL    HW220295   9.033   2.997   2.496 -1.0975  0.1887  0.3485
 3206SOL     OW20296   8.512   6.534   3.379 -0.2686 -0.3484  0.0083
 3206SOL    HW120297   8.536   6.609   3.440  0.6870  0.4798 -1.3378
 3206SOL    HW220298   8.562   6.451   3.407  0.6885  0.1995 -0.0432
 3207SOL     OW20299   0.987   7.012   4.187 -0.1020 -0.0157  0.2809
 3207SOL    HW120300   0.908   7.068   4.213 -1.6833 -1.2801 -1.6198
 3207SOL    HW220301   1.019   7.038   4.096  0.0876 -1.1652  0.0023
 3208SOL     OW20302   9.635   9.654   3.355 -0.2103 -0.2568  0.2237
 3208SOL    HW120303   9.562   9.591   3.379 -0.2623 -0.0574  0.6035
 3208SOL    HW220304   9.629   9.735   3.413 -1.8669  1.3876 -2.1627
 3209SOL     OW20305   1.674   0.237   1.135  0.4291  0.1435 -0.2942
 3209SOL    HW120306   1.749   0.230   1.201 -0.5621  0.6245  0.8825
 3209SOL    HW220307   1.645   0.145   1.109  1.1732 -0.0485 -0.4792
 3210SOL     OW20308   8.709   3.023   2.338 -0.6792 -0.2970  0.4956
 3210SOL    HW120309   8.773   3.017   2.414  0.3080  0.8364 -0.2298
 3210SOL    HW220310   8.673   2.932   2.318  1.4160 -1.1301  0.3224
 3211SOL     OW20311   9.379   8.469   3.977 -0.4232 -0.5781 -0.2683
 3211SOL    HW120312   9.435   8.406   4.030  0.7141 -1.0564 -1.9829
 3211SOL    HW220313   9.438   8.534   3.929 -1.3467 -0.8957 -1.8716
 3212SOL     OW20314   8.297   2.530   3.224  0.3682  0.5622 -0.2153
 3212SOL    HW120315   8.281   2.582   3.140 -1.1948  0.7044  0.1735
 3212SOL    HW220316   8.377   2.568   3.271  0.7434  1.0184 -1.2040
 3213SOL     OW20317   0.711   3.200   1.170  0.3860  0.3390 -0.1312
 3213SOL    HW120318   0.657   3.278   1.202  0.4903  0.5077 -0.3654
 3213SOL    HW220319   0.698   3.188   1.071 -0.9799 -1.0028  0.1935
 3214SOL     OW20320   0.747   5.502   4.194  0.5378  0.4015  0.2342
 3214SOL    HW120321   0.651   5.525   4.209 -0.4003 -1.7159 -2.3261
 3214SOL    HW220322   0.794   5.582   4.157 -0.4111  1.1921  0.6891
 3215SOL     OW20323   8.073   6.122   2.502  0.1304  1.1275  0.5217
 3215SOL    HW120324   8.119   6.133   2.590 -0.2233  2.0033  0.6044
 3215SOL    HW220325   8.042   6.211   2.469  1.8017  1.0530 -1.3445
 3216SOL     OW20326   3.379   8.499   2.286  0.3809  0.1393  0.3523
 3216SOL    HW120327   3.467   8.487   2.333  0.5754 -1.9715 -0.4911
 3216SOL    HW220328   3.341   8.410   2.264 -1.4194  1.0636 -0.3666
 3217SOL     OW20329   8.773   9.304   2.976 -0.2207  0.5160  0.6991
 3217SOL    HW120330   8.710   9.248   2.923 -0.5343  0.1471  1.4607
 3217SOL    HW220331   8.866   9.294   2.939  0.3053 -3.0269  2.7914
 3218SOL     OW20332   4.601   9.700   1.740  0.0113  1.0840  0.0935
 3218SOL    HW120333   4.580   9.652   1.655  0.4198 -0.1022  0.6436
 3218SOL    HW220334   4.661   9.778   1.721  0.9569  0.2122 -0.5918
 3219SOL     OW20335   3.616   5.369   2.449  0.1834 -0.0715  0.1057
 3219SOL    HW120336   3.527   5.411   2.465  0.6955  2.1355 -2.5634
 3219SOL    HW220337   3.604   5.283   2.400 -0.4832 -0.0165  0.1684
 3220SOL     OW20338   8.199   8.482   1.243 -0.2394  0.6252 -0.1823
 3220SOL    HW120339   8.251   8.414   1.293 -0.3966 -0.3487 -1.3154
 3220SOL    HW220340   8.146   8.538   1.307  0.9106  0.5577  0.8428
 3221SOL     OW20341   8.951   1.998   2.632 -0.0245 -0.2013 -0.1704
 3221SOL    HW120342   8.871   1.973   2.578  0.6093 -0.3687 -1.0520
 3221SOL    HW220343   9.020   2.040   2.573 -0.0623  1.3162  0.8609
 3222SOL     OW20344   8.824   0.742   2.225  0.0258 -0.6296  0.1449
 3222SOL    HW120345   8.745   0.737   2.286  0.0746 -1.1750  0.1620
 3222SOL    HW220346   8.893   0.803   2.264 -0.6069  0.2748 -0.1230
 3223SOL     OW20347   2.645   2.994   0.941  0.7613  0.4559 -0.3680
 3223SOL    HW120348   2.719   3.041   0.989  0.3943 -0.4048  1.0624
 3223SOL    HW220349   2.579   2.959   1.007  0.4035 -1.0092 -1.4714
 3224SOL     OW20350   5.165   2.103   1.862 -0.2802 -0.3234  0.2123
 3224SOL    HW120351   5.188   2.037   1.933 -0.2433  1.5464  2.0038
 3224SOL    HW220352   5.248   2.132   1.815 -0.1536 -0.7245  0.1917
 3225SOL     OW20353   0.721   4.024   3.274 -0.2236  0.7405  0.2145
 3225SOL    HW120354   0.723   4.095   3.204  0.8229 -0.9107 -1.4996
 3225SOL    HW220355   0.626   4.005   3.300 -0.7291  0.5972 -1.6316
 3226SOL     OW20356   8.095   4.156   4.411  0.2279 -0.2391  0.2020
 3226SOL    HW120357   8.118   4.253   4.419  0.0623 -0.3212  1.9311
 3226SOL    HW220358   8.023   4.134   4.477  2.2024 -2.1301  1.7702
 3227SOL     OW20359   4.907   1.804   1.730  0.4173  0.5179  0.0572
 3227SOL    HW120360   4.844   1.769   1.660  2.2887  0.8132 -1.8126
 3227SOL    HW220361   4.904   1.904   1.729 -0.8375  0.5132  1.6221
 3228SOL     OW20362   8.498   4.517   1.482 -0.8806 -0.3130  0.0397
 3228SOL    HW120363   8.538   4.474   1.401 -1.0708 -0.7949  0.1964
 3228SOL    HW220364   8.572   4.547   1.543 -0.7441 -0.9431  0.1953
 3229SOL     OW20365   4.561   2.031   2.893 -1.0429  0.1685  0.2396
 3229SOL    HW120366   4.573   1.937   2.861  0.4578  0.4909 -0.1757
 3229SOL    HW220367   4.542   2.030   2.991  0.6661 -0.5008  0.5910
 3230SOL     OW20368   8.907   7.794   0.510 -0.5354  0.1027 -0.0961
 3230SOL    HW120369   8.879   7.742   0.429 -0.5656 -0.6264  0.3789
 3230SOL    HW220370   8.979   7.859   0.485 -0.2067 -0.4563 -0.6110
 3231SOL     OW20371   0.435   2.537   1.052 -0.5769  0.0532 -0.0566
 3231SOL    HW120372   0.397   2.531   0.959  2.7279  1.7719 -1.5990
 3231SOL    HW220373   0.414   2.628   1.090  0.1570  0.2365 -0.0870
 3232SOL     OW20374   2.758   6.502   2.919 -0.2178  0.1722  0.1105
 3232SOL    HW120375   2.774   6.592   2.877  0.3767 -0.2839 -0.6675
 3232SOL    HW220376   2.846   6.462   2.946 -0.3984 -0.5341 -0.3225
 3233SOL     OW20377   8.711   5.778   2.527 -0.4725 -0.3151 -0.0406
 3233SOL    HW120378   8.762   5.759   2.444 -2.6916  0.4825 -1.6165
 3233SOL    HW220379   8.660   5.697   2.555  1.5076 -1.0794  1.4767
 3234SOL     OW20380   6.342   8.804   3.680 -0.4306  0.5078 -0.6302
 3234SOL    HW120381   6.279   8.766   3.613 -0.5697 -1.3744  0.5495
 3234SOL    HW220382   6.289   8.845   3.755 -0.2637  1.0370 -0.8006
 3235SOL     OW20383   3.364   4.986   3.249 -0.2053  0.2667 -0.5756
 3235SOL    HW120384   3.286   5.044   3.274  0.2653 -0.0392  1.7127
 3235SOL    HW220385   3.331   4.897   3.219 -0.8458  1.0421 -2.2267
 3236SOL     OW20386   3.172   3.302   1.987  0.4387 -0.1990  0.2610
 3236SOL    HW120387   3.154   3.301   1.888  1.0183  0.3579  0.1493
 3236SOL    HW220388   3.210   3.391   2.013  1.0019 -0.6082  0.8556
 3237SOL     OW20389   5.660   7.541   1.704  0.5653  0.0195  0.7021
 3237SOL    HW120390   5.732   7.568   1.768  0.5476  0.4480  0.5416
 3237SOL    HW220391   5.574   7.584   1.730  0.7539  0.9055 -0.1303
 3238SOL     OW20392   4.468   9.896   1.954 -0.2494 -0.0678  0.3537
 3238SOL    HW120393   4.509   9.941   2.033  2.1668  3.0361 -2.5190
 3238SOL    HW220394   4.539   9.853   1.899 -1.4371  0.5943 -1.7778
 3239SOL     OW20395   8.784   0.704   4.085  0.0560 -0.0806 -0.2428
 3239SOL    HW120396   8.849   0.773   4.117  0.6062 -0.7499  0.1084
 3239SOL    HW220397   8.812   0.671   3.995 -0.3424  0.3277 -0.5159
 3240SOL     OW20398   3.783   3.588   4.709 -0.1621  0.1730  0.1482
 3240SOL    HW120399   3.757   3.678   4.744  2.1505  1.3079 -0.9455
 3240SOL    HW220400   3.761   3.582   4.612 -0.7228 -0.6265  0.3154
 3241SOL     OW20401   3.084   3.355   0.433  0.7760  0.5078  0.2821
 3241SOL    HW120402   3.080   3.255   0.441  0.0015  0.5286  0.1843
 3241SOL    HW220403   3.050   3.382   0.343  1.2212  0.8465  0.2154
 3242SOL     OW20404   1.081   9.019   2.129  0.6190  0.7729 -0.2588
 3242SOL    HW120405   1.152   9.065   2.076 -1.1332 -0.5821 -3.9618
 3242SOL    HW220406   1.104   8.922   2.139  0.8209  0.9636  1.3418
 3243SOL     OW20407   3.341   2.716   2.876  0.5847 -1.0389  0.0065
 3243SOL    HW120408   3.335   2.621   2.847  1.2181 -1.3598  0.9040
 3243SOL    HW220409   3.418   2.760   2.831 -0.1537 -0.7310 -0.9837
 3244SOL     OW20410   9.917   7.612   4.534 -0.0719  0.1680  0.3190
 3244SOL    HW120411   9.998   7.590   4.588  0.4953 -0.7046 -0.8837
 3244SOL    HW220412   9.896   7.536   4.472 -0.6063  1.2480 -0.8457
 3245SOL     OW20413   1.191   8.605   0.711 -0.1962 -0.7052 -0.6085
 3245SOL    HW120414   1.120   8.539   0.688 -0.6434 -0.1312 -0.8665
 3245SOL    HW220415   1.265   8.599   0.643 -0.2343 -0.9329 -0.6329
 3246SOL     OW20416   8.679   2.848   0.015 -0.8259  0.0431  0.0635
 3246SOL    HW120417   8.733   2.841  -0.069 -0.6266  1.4687  0.0650
 3246SOL    HW220418   8.582   2.853  -0.009 -0.7515  0.7646 -0.1068
 3247SOL     OW20419   0.050   3.216   1.733  0.0602  0.0257  0.3335
 3247SOL    HW120420   0.090   3.211   1.642 -0.7338 -1.2371  0.0340
 3247SOL    HW220421  -0.050   3.215   1.725 -0.1327  4.2477  0.9910
 3248SOL     OW20422   6.403   6.919   2.528  0.6065 -0.3882 -0.6282
 3248SOL    HW120423   6.315   6.965   2.534  0.2773 -0.9433 -1.1986
 3248SOL    HW220424   6.473   6.985   2.500  0.4677  0.1565  0.2688
 3249SOL     OW20425   8.347   4.644   2.800 -0.2338  0.3430 -0.1641
 3249SOL    HW120426   8.255   4.663   2.765  0.0078  0.6524 -0.6261
 3249SOL    HW220427   8.376   4.553   2.770 -0.2286  0.4065 -0.3549
 3250SOL     OW20428   0.760   3.908   4.301 -0.2378 -0.0861  0.5674
 3250SOL    HW120429   0.720   3.872   4.217 -0.8224 -1.5047  1.4443
 3250SOL    HW220430   0.833   3.848   4.333 -1.7318 -0.9637  2.4542
 3251SOL     OW20431   4.300   6.630   1.897 -0.0187  0.0096  0.5188
 3251SOL    HW120432   4.231   6.557   1.894  0.3069 -0.2609 -0.8668
 3251SOL    HW220433   4.282   6.695   1.822  0.6629  0.4620  0.7502
 3252SOL     OW20434   0.445   1.122   4.356 -0.0902 -0.1230  0.1918
 3252SOL    HW120435   0.357   1.143   4.313  0.2685  0.9568 -0.0344
 3252SOL    HW220436   0.514   1.187   4.324  1.1182 -1.7929 -0.6638
 3253SOL     OW20437   9.250   6.754   0.747 -0.2214 -0.4776  0.2847
 3253SOL    HW120438   9.245   6.853   0.760 -0.9575 -0.5899  0.8746
 3253SOL    HW220439   9.193   6.727   0.670 -0.7026 -0.5423  0.6602
 3254SOL     OW20440   4.653   1.549   1.635  0.1101  0.3812  0.6769
 3254SOL    HW120441   4.608   1.619   1.690 -1.6640 -0.2365  0.0567
 3254SOL    HW220442   4.651   1.575   1.538  0.6079  0.0871  0.5827
 3255SOL     OW20443   6.882   9.682   0.055 -0.6217  0.0279 -0.3484
 3255SOL    HW120444   6.868   9.658   0.151 -0.5685  1.5965  0.0537
 3255SOL    HW220445   6.887   9.781   0.045 -1.0050 -0.1008 -2.0222
 3256SOL     OW20446   0.231   2.804   3.082  0.6446  0.1236 -0.6496
 3256SOL    HW120447   0.145   2.784   3.128  0.8405 -1.0535 -0.7769
 3256SOL    HW220448   0.267   2.721   3.040  1.1678  0.8868 -1.7477
 3257SOL     OW20449   1.608   8.872   4.056 -0.2335  0.2497 -0.0497
 3257SOL    HW120450   1.602   8.806   4.130  2.6262  0.4800  0.4302
 3257SOL    HW220451   1.553   8.840   3.978 -0.4420 -1.6891  0.8697
 3258SOL     OW20452   0.337   1.317   3.076  0.1414  0.0598 -0.5407
 3258SOL    HW120453   0.417   1.263   3.101 -1.1485 -0.7015  2.1727
 3258SOL    HW220454   0.262   1.255   3.053 -0.0561  0.7460 -1.7505
 3259SOL     OW20455   8.539   4.752   1.904  0.7637 -0.2729 -0.6772
 3259SOL    HW120456   8.470   4.682   1.921  0.9549 -0.1290  0.8476
 3259SOL    HW220457   8.627   4.721   1.940  1.1025  0.2746 -1.0147
 3260SOL     OW20458   2.272   7.459   1.975 -0.2167  0.4325  0.1406
 3260SOL    HW120459   2.320   7.482   2.060  2.7498  0.1177 -1.3835
 3260SOL    HW220460   2.307   7.516   1.901 -2.5001  0.4304 -0.9615
 3261SOL     OW20461   7.671   7.259   2.917 -0.0261 -0.2800  0.2283
 3261SOL    HW120462   7.739   7.209   2.863  1.6525  0.2252  1.8070
 3261SOL    HW220463   7.704   7.352   2.935 -0.4772 -0.4612  2.1700
 3262SOL     OW20464   4.775   1.433   4.668 -0.5148  0.1425  0.3496
 3262SOL    HW120465   4.822   1.347   4.651 -1.3221 -0.1410 -0.4726
 3262SOL    HW220466   4.773   1.452   4.766  0.0849 -0.5320  0.4903
 3263SOL     OW20467   0.064   8.481   0.537 -0.2374  0.5658 -0.2881
 3263SOL    HW120468  -0.020   8.430   0.553 -0.0117  0.3134  0.1361
 3263SOL    HW220469   0.072   8.504   0.440  0.3793 -1.5017 -0.7570
 3264SOL     OW20470   6.355   8.302   2.008 -0.3004  0.2485 -0.3109
 3264SOL    HW120471   6.449   8.273   1.994  0.1759  0.8734  1.4380
 3264SOL    HW220472   6.329   8.369   1.939  0.5684  0.1466 -0.7362
 3265SOL     OW20473   2.748   7.296   0.203  0.5429  0.1695 -0.1119
 3265SOL    HW120474   2.751   7.261   0.110  0.2237  0.9958 -0.4468
 3265SOL    HW220475   2.663   7.349   0.216  0.6372  0.1575  0.6077
 3266SOL     OW20476   3.817   3.313   4.193  0.2576 -0.0650 -0.1085
 3266SOL    HW120477   3.911   3.320   4.162 -0.4978  1.0140 -2.2696
 3266SOL    HW220478   3.787   3.217   4.189  0.6140 -0.1278 -1.4455
 3267SOL     OW20479   2.556   8.369   1.941  0.2406 -0.4352  0.4249
 3267SOL    HW120480   2.631   8.332   1.886 -0.9398  0.6634 -2.0534
 3267SOL    HW220481   2.573   8.466   1.960 -0.3883 -0.2472  0.0765
 3268SOL     OW20482   0.704   8.586   1.798  0.0492 -0.1460  0.3508
 3268SOL    HW120483   0.657   8.515   1.851  2.4526 -1.3502  0.9362
 3268SOL    HW220484   0.774   8.629   1.855  0.4677  0.8054 -0.8666
 3269SOL     OW20485   2.396   1.892   2.968  0.5033  0.5288  0.0178
 3269SOL    HW120486   2.444   1.908   2.882 -0.4240 -1.1340 -0.8432
 3269SOL    HW220487   2.411   1.969   3.030  2.0609  1.2514 -1.2260
 3270SOL     OW20488   1.340   5.381   4.053 -0.6164  0.5684  0.3337
 3270SOL    HW120489   1.430   5.347   4.082 -0.3654  0.8485 -0.1063
 3270SOL    HW220490   1.272   5.309   4.066 -0.2928  0.2829  0.4747
 3271SOL     OW20491   3.843   5.367   1.978  0.1236  0.0471  0.0845
 3271SOL    HW120492   3.833   5.335   1.884 -2.8036  0.7870  0.1041
 3271SOL    HW220493   3.899   5.450   1.980 -0.6473  0.6028 -1.1221
 3272SOL     OW20494   1.727   6.338   2.548 -0.0500  0.1350 -0.1788
 3272SOL    HW120495   1.784   6.323   2.628 -1.3443 -1.5336  0.4618
 3272SOL    HW220496   1.782   6.382   2.476  1.0258  1.9782  1.6980
 3273SOL     OW20497   1.521   9.959   1.048  0.7076 -0.0899  0.5340
 3273SOL    HW120498   1.503   9.957   0.950 -0.1285  0.2413  0.6716
 3273SOL    HW220499   1.439   9.990   1.096  1.4818  0.8789  1.2543
 3274SOL     OW20500   3.735   3.218   1.349  0.0355 -0.3649  0.4245
 3274SOL    HW120501   3.735   3.197   1.251 -1.6605  0.3368  0.2613
 3274SOL    HW220502   3.719   3.135   1.402 -0.7058 -0.4707  0.0323
 3275SOL     OW20503   1.563   8.137   0.155  0.2304  0.0552  0.3444
 3275SOL    HW120504   1.483   8.104   0.205  0.5240 -0.3149  0.5774
 3275SOL    HW220505   1.645   8.089   0.188  0.5451  0.4192  0.0986
 3276SOL     OW20506   2.399   5.416   0.646  0.1913 -0.7358 -0.1945
 3276SOL    HW120507   2.377   5.344   0.581 -0.5451  0.7282 -1.5914
 3276SOL    HW220508   2.498   5.415   0.665  0.4656 -0.9606 -1.6067
 3277SOL     OW20509   9.514   7.337   2.283  0.0092 -0.0285 -0.1923
 3277SOL    HW120510   9.466   7.401   2.224  1.5326 -1.1807 -2.7496
 3277SOL    HW220511   9.578   7.387   2.341 -0.7384  1.0211 -0.2679
 3278SOL     OW20512   9.872   7.912   4.095 -0.1409  0.1932 -0.0504
 3278SOL    HW120513   9.778   7.878   4.103  0.3490 -1.1136  0.3636
 3278SOL    HW220514   9.924   7.850   4.036  0.5322  0.7412 -0.0257
 3279SOL     OW20515   8.936   2.931   0.625  0.5939  0.1244  0.1893
 3279SOL    HW120516   8.956   3.011   0.568  0.7849 -0.3404 -0.3959
 3279SOL    HW220517   9.005   2.860   0.610  0.6050 -0.0377  0.9441
 3280SOL     OW20518   4.250   4.043   0.051 -0.0091 -0.3188  0.0253
 3280SOL    HW120519   4.192   4.094   0.113 -0.2536  1.8697 -1.9345
 3280SOL    HW220520   4.238   3.945   0.067 -1.8393  0.1556  1.7688
 3281SOL     OW20521   3.065   8.576   4.505 -0.5299 -0.5213 -0.0135
 3281SOL    HW120522   2.985   8.558   4.562 -1.2785  0.4400 -0.7467
 3281SOL    HW220523   3.042   8.560   4.409 -0.7584  2.6601 -0.5399
 3282SOL     OW20524   4.270   0.396   1.622 -0.0408 -0.2511  0.1323
 3282SOL    HW120525   4.232   0.398   1.715  0.6259  0.3932  0.3942
 3282SOL    HW220526   4.200   0.365   1.558 -0.9163  0.5914  0.6634
 3283SOL     OW20527   0.542   6.285   1.960  0.2676  0.7489 -0.7052
 3283SOL    HW120528   0.539   6.269   1.861 -1.4388  2.7639 -1.0364
 3283SOL    HW220529   0.467   6.236   2.004  1.0028 -0.1146 -0.3876
 3284SOL     OW20530   2.082   8.788   1.421  0.2482 -0.0010  0.3489
 3284SOL    HW120531   2.104   8.816   1.327 -0.4462  2.8097  0.9937
 3284SOL    HW220532   2.142   8.835   1.485  0.6271 -1.8182  1.3647
 3285SOL     OW20533   1.492   8.653   1.402  0.0810 -0.6223  0.0955
 3285SOL    HW120534   1.441   8.664   1.487 -2.0564 -2.4692 -0.9213
 3285SOL    HW220535   1.513   8.744   1.364 -1.8090  0.1595  0.8665
 3286SOL     OW20536   9.813   2.021   0.072  0.4500 -0.4948  0.2953
 3286SOL    HW120537   9.822   2.105   0.017  0.3256 -0.3424  0.5075
 3286SOL    HW220538   9.886   2.019   0.141 -0.2797  0.0476  1.0951
 3287SOL     OW20539   9.269   2.358   4.674  0.5955 -0.2669  0.1680
 3287SOL    HW120540   9.257   2.274   4.727  1.5235 -0.3169  0.3144
 3287SOL    HW220541   9.355   2.402   4.700  1.4022 -0.6399 -1.7682
 3288SOL     OW20542   8.348   9.791   2.061  0.2353  0.4108 -0.0741
 3288SOL    HW120543   8.426   9.853   2.055 -0.1934  0.8686 -0.9029
 3288SOL    HW220544   8.320   9.782   2.157  1.8082 -0.3893  0.3332
 3289SOL     OW20545   6.351   8.916   1.839  0.1270 -0.0086  0.2902
 3289SOL    HW120546   6.364   8.820   1.816 -0.1707  0.1538 -0.5791
 3289SOL    HW220547   6.293   8.924   1.920  0.3241 -0.5647  0.4853
 3290SOL     OW20548   5.632   0.894   2.057 -0.1040 -0.6797 -0.2137
 3290SOL    HW120549   5.557   0.914   2.120  0.2951 -0.1619  0.1029
 3290SOL    HW220550   5.596   0.870   1.967 -0.5977  1.2853 -0.5571
 3291SOL     OW20551   3.676   9.914   3.202 -0.0025 -0.0338  0.1074
 3291SOL    HW120552   3.723   9.999   3.176 -1.8159  0.8830 -0.2731
 3291SOL    HW220553   3.658   9.914   3.300  0.2589 -0.1085  0.1549
 3292SOL     OW20554   4.446   3.307   2.258  0.6404  0.1354  0.5064
 3292SOL    HW120555   4.462   3.406   2.256 -0.2924  0.3069  1.1189
 3292SOL    HW220556   4.421   3.280   2.351  2.6241 -0.9646  0.7432
 3293SOL     OW20557   9.377   1.119   4.143 -0.1385  0.1597  0.1453
 3293SOL    HW120558   9.402   1.215   4.139 -0.0823  0.1122 -1.0937
 3293SOL    HW220559   9.436   1.067   4.081 -0.3105 -0.6365  0.6372
 3294SOL     OW20560   3.871   4.136   2.535  0.9743 -0.3270  0.8191
 3294SOL    HW120561   3.855   4.199   2.611  1.7015  0.2253  0.5283
 3294SOL    HW220562   3.935   4.065   2.564  1.6324  0.1667  0.5746
 3295SOL     OW20563   2.946   9.459   4.359  0.1274  0.4545  0.1153
 3295SOL    HW120564   3.035   9.438   4.400  0.0575  0.7535  0.4254
 3295SOL    HW220565   2.952   9.449   4.260 -0.1680 -1.9940  0.3188
 3296SOL     OW20566   2.516   0.374   0.981 -0.0091 -0.6228 -0.0025
 3296SOL    HW120567   2.480   0.354   1.072  0.1453 -0.5717  0.0693
 3296SOL    HW220568   2.448   0.426   0.929 -0.0006 -0.4371  0.1692
 3297SOL     OW20569   1.638   7.696   3.054 -0.6022 -0.2337 -0.0574
 3297SOL    HW120570   1.616   7.613   3.104  1.5890 -0.6122  0.3106
 3297SOL    HW220571   1.638   7.774   3.116  0.3333 -0.4256  0.1847
 3298SOL     OW20572   0.629   0.613   2.340 -0.4953  0.1293  0.0308
 3298SOL    HW120573   0.628   0.713   2.339 -1.6685  0.1318  0.1840
 3298SOL    HW220574   0.615   0.581   2.434 -0.4488 -0.1759 -0.0650
 3299SOL     OW20575   1.661   8.576   3.831 -0.2931  0.7320  0.0595
 3299SOL    HW120576   1.651   8.507   3.759  0.7762  0.1059  0.4859
 3299SOL    HW220577   1.584   8.639   3.828 -1.0403 -0.1919 -0.6620
 3300SOL     OW20578   2.203   7.101   0.002  0.0056  0.1561  0.0554
 3300SOL    HW120579   2.261   7.147  -0.066  1.2445 -0.3998  0.7198
 3300SOL    HW220580   2.202   7.154   0.086 -1.0507  0.5339 -0.1855
 3301SOL     OW20581   0.906   9.261   3.781 -0.1549  0.2362  0.4108
 3301SOL    HW120582   0.830   9.201   3.756  0.1194 -0.0108  0.1642
 3301SOL    HW220583   0.992   9.209   3.776  0.4330  1.4512 -2.6882
 3302SOL     OW20584   9.331   4.148   2.475 -0.0090 -0.3619 -0.0682
 3302SOL    HW120585   9.297   4.145   2.381 -0.0639 -1.5920 -0.0218
 3302SOL    HW220586   9.418   4.099   2.481  1.3230  1.9434  0.0179
 3303SOL     OW20587   2.908   6.349   1.289 -0.2952  0.0724 -0.1239
 3303SOL    HW120588   2.905   6.373   1.386 -0.2545  1.2253 -0.3988
 3303SOL    HW220589   2.925   6.431   1.235 -0.5381 -0.5277 -1.1270
 3304SOL     OW20590   6.545   8.692   2.638 -0.5242  0.1589 -0.5366
 3304SOL    HW120591   6.556   8.713   2.735 -0.5219  0.0982 -0.5240
 3304SOL    HW220592   6.612   8.622   2.611  0.0417  0.7776 -0.7690
 3305SOL     OW20593   0.517   2.726   1.468 -0.5625 -0.5549 -0.3663
 3305SOL    HW120594   0.573   2.722   1.385  1.9129  0.6605  1.1919
 3305SOL    HW220595   0.538   2.809   1.519 -1.1522 -1.8650  2.1057
 3306SOL     OW20596   1.409   3.311   4.226  0.2888  0.1656  0.1519
 3306SOL    HW120597   1.355   3.255   4.164  0.7831 -1.7969  1.4421
 3306SOL    HW220598   1.358   3.328   4.310  0.9369 -0.0822  0.6042
 3307SOL     OW20599   3.112   3.846   1.422 -0.3463  0.0503  0.1526
 3307SOL    HW120600   3.085   3.770   1.362  1.1096 -1.2046  1.0468
 3307SOL    HW220601   3.198   3.885   1.390 -0.0162 -0.0486  0.9060
 3308SOL     OW20602   3.774   3.470   1.451 -0.6342  0.7148  0.4522
 3308SOL    HW120603   3.785   3.472   1.551 -1.7762 -0.2047  0.6004
 3308SOL    HW220604   3.780   3.376   1.419 -0.8130  0.9566 -0.2912
 3309SOL     OW20605   2.315   9.699   1.905 -0.2201  0.3202 -0.0840
 3309SOL    HW120606   2.264   9.613   1.910  2.4864 -1.2955  0.5446
 3309SOL    HW220607   2.322   9.728   1.809  0.0986 -0.9412 -0.4476
 3310SOL     OW20608   2.918   1.364   4.721  0.5212 -0.1233 -0.2168
 3310SOL    HW120609   2.872   1.367   4.633 -1.7359 -0.2030  0.9063
 3310SOL    HW220610   2.995   1.427   4.722  0.1595  0.3493 -2.0158
 3311SOL     OW20611   0.444   5.910   3.796  0.1881 -0.4151  0.1561
 3311SOL    HW120612   0.503   5.977   3.842 -1.2496  0.1372  1.2344
 3311SOL    HW220613   0.349   5.931   3.815 -0.3143 -2.3292 -0.1221
 3312SOL     OW20614   2.386   7.845   4.399 -0.0222 -0.1407 -0.7532
 3312SOL    HW120615   2.482   7.864   4.379  0.1241 -1.2661 -1.1419
 3312SOL    HW220616   2.360   7.757   4.359  0.1659 -2.3449  3.6598
 3313SOL     OW20617   9.737   2.479   2.547  0.1328 -0.0430 -0.5827
 3313SOL    HW120618   9.658   2.447   2.493  0.0343 -0.9305  0.0894
 3313SOL    HW220619   9.722   2.457   2.643  1.2445 -0.2744 -0.4662
 3314SOL     OW20620   4.270   1.991   2.923 -0.1358 -0.3535  0.9890
 3314SOL    HW120621   4.324   2.047   2.987  0.0771 -0.1242  0.6128
 3314SOL    HW220622   4.310   1.899   2.919  1.9948  0.6140 -1.4338
 3315SOL     OW20623   1.550   5.127   1.497 -0.3505 -0.2188 -0.2052
 3315SOL    HW120624   1.628   5.176   1.536 -1.1300  0.4418  0.5149
 3315SOL    HW220625   1.580   5.078   1.414 -0.0111  3.1374 -2.1462
 3316SOL     OW20626   8.216   9.856   3.381 -0.5603 -0.3905  0.1626
 3316SOL    HW120627   8.116   9.850   3.377 -0.5146 -0.3515 -1.1880
 3316SOL    HW220628   8.243   9.940   3.428 -1.1550 -0.6599  1.0004
 3317SOL     OW20629   8.146   0.684   4.192  0.1264 -0.6997  0.0609
 3317SOL    HW120630   8.231   0.706   4.239  0.5328  0.3048 -1.1215
 3317SOL    HW220631   8.081   0.760   4.201 -0.8626 -1.6706  1.4071
 3318SOL     OW20632   5.217   2.625   1.705 -0.4448 -0.2910  0.0147
 3318SOL    HW120633   5.300   2.643   1.651 -0.7813  1.4282  0.0486
 3318SOL    HW220634   5.219   2.530   1.739  0.4771 -0.9374 -1.7759
 3319SOL     OW20635   5.104   0.370   4.774 -0.2670  0.4802 -0.9912
 3319SOL    HW120636   5.195   0.386   4.735  0.7752 -0.2854  1.0687
 3319SOL    HW220637   5.074   0.452   4.823  0.2724 -0.0035  0.1678
 3320SOL     OW20638   2.132   8.752   4.267  0.7466 -0.3780  0.3932
 3320SOL    HW120639   2.042   8.718   4.242  0.9566 -1.4250  1.0245
 3320SOL    HW220640   2.146   8.842   4.227 -0.5503 -0.2410  0.2228
 3321SOL     OW20641   6.159   7.603   2.727 -0.2725 -0.0270 -0.2155
 3321SOL    HW120642   6.061   7.606   2.747 -0.5420 -1.9533 -1.1539
 3321SOL    HW220643   6.195   7.697   2.722 -1.9492  0.6818  0.6005
 3322SOL     OW20644   3.292   5.489   3.653  0.0716  0.1999 -0.0706
 3322SOL    HW120645   3.243   5.547   3.719  2.0416  1.2921  0.4861
 3322SOL    HW220646   3.275   5.523   3.561 -0.9644 -0.0062  0.0383
 3323SOL     OW20647   3.119   4.865   2.541 -0.2409 -0.3117  0.1863
 3323SOL    HW120648   3.142   4.915   2.458 -0.5591 -0.9199 -0.2649
 3323SOL    HW220649   3.194   4.874   2.607 -0.6918  1.5398  0.4721
 3324SOL     OW20650   4.626   3.034   1.131  0.0447  0.5207 -0.0063
 3324SOL    HW120651   4.694   3.070   1.066 -0.2860 -0.8358 -1.1268
 3324SOL    HW220652   4.659   2.948   1.170 -0.5341  0.4342  0.2990
 3325SOL     OW20653   2.696   0.144   2.396 -0.1550 -0.0947  0.2766
 3325SOL    HW120654   2.634   0.221   2.382  1.1496  0.6627 -1.4534
 3325SOL    HW220655   2.751   0.159   2.478  0.8528  1.3582 -0.6397
 3326SOL     OW20656   0.536   1.069   3.962  0.7488  0.2067  0.1716
 3326SOL    HW120657   0.567   1.123   4.041  0.8644  0.6267 -0.1603
 3326SOL    HW220658   0.452   1.109   3.926  0.2188 -0.4992  0.6179
 3327SOL     OW20659   1.720   7.391   2.371  0.1564 -0.0056 -0.6871
 3327SOL    HW120660   1.679   7.301   2.360  0.4572 -0.0703 -1.2867
 3327SOL    HW220661   1.715   7.441   2.284  1.4323 -0.0520 -0.7926
 3328SOL     OW20662   6.184   0.076   3.371 -0.6551  0.6295 -0.1867
 3328SOL    HW120663   6.190  -0.004   3.312 -1.7489 -0.3817  1.0661
 3328SOL    HW220664   6.264   0.135   3.354  0.8549 -1.3450 -0.1625
 3329SOL     OW20665   0.826   8.570   0.133  0.2462  0.5117  0.0607
 3329SOL    HW120666   0.761   8.595   0.061 -0.3121 -0.2092  0.3018
 3329SOL    HW220667   0.919   8.592   0.105  0.0914 -0.3523 -1.1493
 3330SOL     OW20668   8.655   5.031   1.982 -0.1359 -0.5511  0.5318
 3330SOL    HW120669   8.555   5.034   1.983 -0.0781  1.3389  0.7138
 3330SOL    HW220670   8.687   5.027   1.888 -0.3470 -0.2176  0.4469
 3331SOL     OW20671   2.932   0.315   4.533  0.2331  0.5081 -0.7480
 3331SOL    HW120672   2.834   0.295   4.527  0.1380  0.5273  0.7191
 3331SOL    HW220673   2.949   0.409   4.504 -0.2151  0.5852 -0.7641
 3332SOL     OW20674   3.670   9.064   1.103  0.5056 -0.1062 -0.3777
 3332SOL    HW120675   3.764   9.076   1.073  0.6789 -0.8932 -0.1644
 3332SOL    HW220676   3.615   9.027   1.029  0.5942 -0.6186 -0.1863
 3333SOL     OW20677   5.452   8.012   2.661  0.3077 -0.1294 -0.4078
 3333SOL    HW120678   5.413   8.037   2.572  0.2774 -0.9382 -0.6199
 3333SOL    HW220679   5.408   8.068   2.732  1.2238  1.4110 -1.0250
 3334SOL     OW20680   4.691   2.200   1.255  0.5107 -0.0259 -0.5823
 3334SOL    HW120681   4.695   2.299   1.270  0.2399 -0.1526  0.3684
 3334SOL    HW220682   4.784   2.164   1.243  0.9154 -0.1573  2.5043
 3335SOL     OW20683   1.691   7.791   2.177  0.1562 -0.0001 -0.1752
 3335SOL    HW120684   1.659   7.823   2.088 -1.4282 -0.3160  0.2620
 3335SOL    HW220685   1.618   7.738   2.221  0.4033  1.3345  1.8954
 3336SOL     OW20686   4.163   6.794   3.313 -0.1122 -0.5319  0.1385
 3336SOL    HW120687   4.261   6.813   3.300  0.2461 -2.8994 -0.8728
 3336SOL    HW220688   4.117   6.878   3.343  2.2420  0.5781  0.8096
 3337SOL     OW20689   8.310   5.975   4.610  0.1697 -0.0206  0.5090
 3337SOL    HW120690   8.383   6.040   4.591 -0.1712 -0.0829 -1.0697
 3337SOL    HW220691   8.279   5.986   4.705  2.0067  0.1972  1.0995
 3338SOL     OW20692   0.292   2.505   2.379  0.2970 -0.1984  0.5239
 3338SOL    HW120693   0.352   2.575   2.340  2.0392 -1.7480  0.3262
 3338SOL    HW220694   0.262   2.532   2.470  1.5476  0.4609  0.7378
 3339SOL     OW20695   0.104   3.494   2.499 -0.4249 -0.2571 -0.0325
 3339SOL    HW120696   0.055   3.445   2.427 -0.0208  0.3579 -0.7289
 3339SOL    HW220697   0.189   3.531   2.462  1.3277 -2.6143  1.5467
 3340SOL     OW20698   0.801   0.633   0.994 -0.0002  0.5429  0.3397
 3340SOL    HW120699   0.781   0.577   1.074  2.2929  0.1498  0.6688
 3340SOL    HW220700   0.811   0.574   0.914 -2.0794  0.9171 -0.2306
 3341SOL     OW20701   2.697   0.797   1.560  0.1911  0.4306 -0.1992
 3341SOL    HW120702   2.732   0.830   1.648 -0.4294  1.3013 -0.2786
 3341SOL    HW220703   2.607   0.835   1.543  0.4711  0.5726 -1.4001
 3342SOL     OW20704   1.010   7.834   2.132 -0.7110  0.1120 -0.0773
 3342SOL    HW120705   0.926   7.834   2.078 -0.7194  1.2492 -0.0782
 3342SOL    HW220706   1.087   7.857   2.073 -0.6066  0.5455  0.2228
 3343SOL     OW20707   4.038   8.787   3.895 -0.7806 -0.2411  0.0902
 3343SOL    HW120708   4.082   8.764   3.809 -0.2650  0.5115  0.1481
 3343SOL    HW220709   3.939   8.773   3.887 -0.5742 -1.5918 -0.1486
 3344SOL     OW20710   6.017   7.259   2.774  0.6626 -0.5518  0.4647
 3344SOL    HW120711   6.090   7.245   2.842  0.8519 -2.8840 -0.1861
 3344SOL    HW220712   5.931   7.224   2.810  0.7543 -1.7632 -0.4771
 3345SOL     OW20713   5.319   8.238   1.864 -0.0631 -0.0031 -0.1912
 3345SOL    HW120714   5.286   8.332   1.853 -0.2474  0.1470  1.5512
 3345SOL    HW220715   5.416   8.239   1.887 -0.3866 -0.1671  1.2236
 3346SOL     OW20716   9.875   6.002   2.714  0.2800 -0.1147 -0.3326
 3346SOL    HW120717   9.816   6.008   2.794  1.1715  1.1629  0.2445
 3346SOL    HW220718   9.871   5.909   2.677  0.2159 -0.8531  1.4709
 3347SOL     OW20719   5.063   6.906   2.395  0.1558  1.1755  0.1643
 3347SOL    HW120720   5.142   6.909   2.456  1.9557 -1.0482 -1.9791
 3347SOL    HW220721   5.089   6.938   2.304 -1.3544  0.1535 -0.6472
 3348SOL     OW20722   9.877   2.582   1.777  0.2602  0.2173  0.1151
 3348SOL    HW120723   9.888   2.616   1.870 -0.1999  3.1646 -0.8454
 3348SOL    HW220724   9.780   2.565   1.759  0.5714 -2.5831  0.8773
 3349SOL     OW20725   2.890   3.366   2.091  0.1054 -0.3022 -0.5385
 3349SOL    HW120726   2.960   3.346   2.023 -0.1250 -1.4610 -0.4553
 3349SOL    HW220727   2.932   3.380   2.180  0.1461 -2.3341 -0.2182
 3350SOL     OW20728   0.389   3.328   3.328  0.5987  0.0828  0.8878
 3350SOL    HW120729   0.365   3.410   3.380 -0.3951  1.4805 -1.6983
 3350SOL    HW220730   0.477   3.341   3.283  0.3920 -0.2382  0.3855
 3351SOL     OW20731   7.483   8.075   2.231 -0.2984 -0.8036  0.6889
 3351SOL    HW120732   7.476   8.173   2.209  4.8014 -0.5893 -0.4474
 3351SOL    HW220733   7.522   8.065   2.323  2.4438 -1.6987 -0.5322
 3352SOL     OW20734   4.473   0.983   2.183 -0.4441  0.1403 -0.0785
 3352SOL    HW120735   4.499   1.078   2.165  0.1501  0.0254  0.1522
 3352SOL    HW220736   4.452   0.937   2.097  1.4309 -0.1424 -0.3897
 3353SOL     OW20737   2.664   9.237   4.278 -0.0899  0.0740 -0.2156
 3353SOL    HW120738   2.728   9.167   4.309 -2.0309 -0.3814  3.0958
 3353SOL    HW220739   2.592   9.195   4.222  1.1690  0.1960 -1.9467
 3354SOL     OW20740   8.139   5.955   0.978 -0.1177  0.1182 -0.6865
 3354SOL    HW120741   8.116   5.898   0.899  0.6957 -2.7132  1.0123
 3354SOL    HW220742   8.224   5.921   1.019 -0.8734  1.0905  1.7693
 3355SOL     OW20743   8.669   8.719   4.619  0.3227  0.1696  0.0875
 3355SOL    HW120744   8.668   8.644   4.686 -0.9978  0.4698  0.4203
 3355SOL    HW220745   8.759   8.724   4.576  1.2837  0.1258  2.0340
 3356SOL     OW20746   2.718   9.069   0.538 -0.0691  0.4231  0.2805
 3356SOL    HW120747   2.798   9.012   0.558 -1.0065 -1.0310 -0.0915
 3356SOL    HW220748   2.725   9.106   0.445 -0.6014 -1.0234 -0.3468
 3357SOL     OW20749   1.456   5.857   0.850  0.4022 -0.0556 -0.1400
 3357SOL    HW120750   1.500   5.846   0.939  1.9379  1.1507 -0.7310
 3357SOL    HW220751   1.361   5.884   0.863  0.0188 -1.8969  1.1397
 3358SOL     OW20752   3.609   7.120   2.226 -0.2565  0.3294  0.4593
 3358SOL    HW120753   3.644   7.140   2.134  0.9296 -1.2085  0.5636
 3358SOL    HW220754   3.644   7.189   2.290  0.1640  0.5222  0.0303
 3359SOL     OW20755   0.701   2.221   0.380  0.2562 -0.0716  0.1584
 3359SOL    HW120756   0.789   2.197   0.341  0.1241 -0.3645  0.0405
 3359SOL    HW220757   0.675   2.313   0.350 -0.6657 -0.9612 -1.9032
 3360SOL     OW20758   8.087   9.843   1.228  0.2365  0.3729 -0.3513
 3360SOL    HW120759   8.145   9.924   1.233  0.3281  0.2744  0.2437
 3360SOL    HW220760   8.012   9.851   1.294  0.0639  0.1211 -0.5153
 3361SOL     OW20761   7.321   8.530   3.252  0.1203 -0.1285 -0.2241
 3361SOL    HW120762   7.360   8.622   3.260  0.2572 -0.1337 -0.7988
 3361SOL    HW220763   7.374   8.467   3.309  0.4570  0.0206 -0.3668
 3362SOL     OW20764   9.457   4.438   0.506  0.0033  0.3908 -0.5264
 3362SOL    HW120765   9.365   4.441   0.544 -0.0505  1.0960 -0.6963
 3362SOL    HW220766   9.457   4.478   0.414  0.8337  2.1705  0.2324
 3363SOL     OW20767   8.310   3.465   1.763 -0.0259 -0.0638 -0.2648
 3363SOL    HW120768   8.274   3.413   1.686 -0.0434  0.0035 -0.3014
 3363SOL    HW220769   8.251   3.544   1.780  0.1315  0.0726 -0.3538
 3364SOL     OW20770   9.260   2.040   3.780 -0.2221 -0.3398  0.9055
 3364SOL    HW120771   9.289   2.115   3.721 -0.4626 -0.2073  0.9530
 3364SOL    HW220772   9.302   1.955   3.749 -0.7251 -0.3554  0.2455
 3365SOL     OW20773   3.243   0.574   4.404  0.1041 -0.1090  0.4350
 3365SOL    HW120774   3.308   0.503   4.433  0.8069 -1.0876 -3.2552
 3365SOL    HW220775   3.293   0.659   4.386 -0.0495 -0.0881  0.1173
 3366SOL     OW20776   2.958   0.252   1.134  0.2006  0.2642  0.5915
 3366SOL    HW120777   2.955   0.235   1.035  1.5460  0.4750  0.5045
 3366SOL    HW220778   2.871   0.224   1.175 -0.8468  1.3510 -0.8344
 3367SOL     OW20779   3.601   9.332   0.526 -0.1209 -0.1251 -0.5430
 3367SOL    HW120780   3.616   9.259   0.460 -1.1664  0.1709 -1.1241
 3367SOL    HW220781   3.565   9.413   0.479 -1.3533 -0.0775  0.4567
 3368SOL     OW20782   4.750   9.851   2.578 -0.3480  0.4170 -0.3627
 3368SOL    HW120783   4.782   9.853   2.673 -1.3842  0.1885 -0.0019
 3368SOL    HW220784   4.721   9.759   2.554 -0.0404  0.4619 -0.9263
 3369SOL     OW20785   8.450   8.547   3.607 -0.2849 -0.9391  0.1727
 3369SOL    HW120786   8.410   8.586   3.690 -1.2409  1.3796 -1.3228
 3369SOL    HW220787   8.546   8.575   3.600 -0.1462 -1.3029  0.5908
 3370SOL     OW20788   0.145   7.342   1.033  0.4761  0.7367 -0.3603
 3370SOL    HW120789   0.106   7.417   1.086 -0.6859  0.3813 -0.7026
 3370SOL    HW220790   0.137   7.257   1.086 -0.9449  0.3282 -1.1892
 3371SOL     OW20791   8.481   7.607   3.489  0.0586 -0.4287  0.2926
 3371SOL    HW120792   8.456   7.512   3.505 -1.2173 -0.2012 -0.2482
 3371SOL    HW220793   8.436   7.665   3.557 -1.5573  0.0627 -1.1472
 3372SOL     OW20794   1.911   5.193   1.448 -0.2125  0.0439 -0.1057
 3372SOL    HW120795   1.971   5.200   1.527 -0.2262 -0.1397 -0.0779
 3372SOL    HW220796   1.921   5.274   1.390 -0.8798  0.6117  0.5588
 3373SOL     OW20797   2.661   3.378   3.899  0.2592  0.2556  0.2240
 3373SOL    HW120798   2.708   3.438   3.833 -0.6800 -1.7894 -2.3811
 3373SOL    HW220799   2.728   3.318   3.943  0.2754 -2.4088 -3.2250
 3374SOL     OW20800   3.263   0.751   2.262 -0.2662  0.0932 -0.3458
 3374SOL    HW120801   3.238   0.836   2.215 -0.2174 -0.0213 -0.5771
 3374SOL    HW220802   3.216   0.674   2.219 -0.8399  0.0799  0.2828
 3375SOL     OW20803   0.760   2.122   0.681 -0.2129 -0.3890 -0.1881
 3375SOL    HW120804   0.681   2.178   0.656 -0.3313 -0.5443 -0.1597
 3375SOL    HW220805   0.734   2.026   0.680  0.3986 -0.5490 -1.7565
 3376SOL     OW20806   9.173   9.144   0.607 -0.1827  0.6978  0.2648
 3376SOL    HW120807   9.249   9.177   0.663 -0.5794  0.5741  0.8859
 3376SOL    HW220808   9.149   9.213   0.539 -0.8344  1.5838  1.3807
 3377SOL     OW20809   9.545   8.264   4.064 -0.4079 -0.2592 -0.3516
 3377SOL    HW120810   9.609   8.250   4.139 -0.1820 -1.0326 -0.6828
 3377SOL    HW220811   9.542   8.182   4.007 -0.6853  0.2640 -1.1003
 3378SOL     OW20812   6.456   9.757   2.953  0.0649  0.3803 -0.1889
 3378SOL    HW120813   6.442   9.658   2.958  0.3996  0.3556  0.3038
 3378SOL    HW220814   6.480   9.782   2.860 -1.2398  0.1598 -0.5947
 3379SOL     OW20815   2.361   0.582   1.638  0.1150 -0.1536  0.4186
 3379SOL    HW120816   2.308   0.544   1.714 -0.9892  0.9369  0.2034
 3379SOL    HW220817   2.335   0.537   1.553  0.7435 -0.7800  0.5502
 3380SOL     OW20818   3.763   9.469   4.265  0.6604  0.2436  0.0689
 3380SOL    HW120819   3.826   9.418   4.324  1.1813  0.2949 -0.4363
 3380SOL    HW220820   3.725   9.547   4.315  0.4292 -0.2152  0.6107
 3381SOL     OW20821   0.277   4.237   4.203  0.1031 -0.1567  0.5597
 3381SOL    HW120822   0.347   4.291   4.250 -0.8675  1.9958 -0.4154
 3381SOL    HW220823   0.320   4.184   4.129  0.9058  0.1067  0.8316
 3382SOL     OW20824   1.141   5.169   3.176  0.3624  0.3148  0.3660
 3382SOL    HW120825   1.227   5.208   3.209  0.7310  0.8090 -1.1274
 3382SOL    HW220826   1.089   5.132   3.253  0.7901  2.2132  1.6003
 3383SOL     OW20827   1.657   4.847   1.806  0.0870  0.0974 -0.0078
 3383SOL    HW120828   1.601   4.768   1.782 -1.2540  1.0886 -0.1967
 3383SOL    HW220829   1.714   4.825   1.885 -0.5311 -0.9278  0.1601
 3384SOL     OW20830   8.924   9.211   2.284  0.5001  0.6028  0.2996
 3384SOL    HW120831   8.969   9.129   2.321  0.7732  0.5712 -0.1022
 3384SOL    HW220832   8.828   9.213   2.314  0.7524  0.6480  1.1246
 3385SOL     OW20833   8.611   3.975   4.657 -0.1195 -0.0341  0.0785
 3385SOL    HW120834   8.571   3.950   4.569 -0.7490  2.7847 -0.5034
 3385SOL    HW220835   8.538   3.990   4.724  0.2710 -0.4361  0.5990
 3386SOL     OW20836   3.886   8.670   0.722  0.2651  0.2884 -0.7712
 3386SOL    HW120837   3.880   8.571   0.714 -0.0490  0.3862 -1.8192
 3386SOL    HW220838   3.918   8.695   0.814 -1.7427 -0.7123  0.2122
 3387SOL     OW20839   7.815   2.129   0.044  0.4713  0.7545  0.3403
 3387SOL    HW120840   7.725   2.094   0.070  0.4694  1.3334  1.1452
 3387SOL    HW220841   7.819   2.142  -0.055  0.1716 -0.6693  0.1262
 3388SOL     OW20842   4.317   1.156   0.884 -0.2611 -0.0031  0.1183
 3388SOL    HW120843   4.270   1.095   0.948  1.8861 -0.9806  0.8445
 3388SOL    HW220844   4.346   1.104   0.804 -0.2609  0.5389 -0.2351
 3389SOL     OW20845   2.250   3.059   3.514  0.5712  0.4783  0.5280
 3389SOL    HW120846   2.330   3.055   3.574  1.2045  0.6056 -0.3171
 3389SOL    HW220847   2.229   2.967   3.480 -0.1394  0.3087  1.3962
 3390SOL     OW20848   0.323   3.053   4.606 -0.1850  0.4707  0.2428
 3390SOL    HW120849   0.240   2.999   4.616 -1.4477  2.4453  0.6355
 3390SOL    HW220850   0.381   3.040   4.686 -0.1547 -0.8373  0.0141
 3391SOL     OW20851   3.278   9.079   3.303  0.5038 -0.1128  0.3970
 3391SOL    HW120852   3.226   9.110   3.382  0.6735  2.2935 -0.3869
 3391SOL    HW220853   3.278   8.980   3.299 -0.3869 -0.2226  2.8214
 3392SOL     OW20854   1.438   7.088   4.449  0.0904  0.0535 -0.1576
 3392SOL    HW120855   1.505   7.139   4.395 -0.4545 -0.1164 -1.0077
 3392SOL    HW220856   1.356   7.143   4.460 -0.3394 -0.4745 -0.7223
 3393SOL     OW20857   0.523   4.417   0.684 -0.5496 -0.1471  0.1292
 3393SOL    HW120858   0.521   4.318   0.672 -1.8429 -0.3165  1.5924
 3393SOL    HW220859   0.542   4.438   0.780  1.1087  1.0524 -0.4410
 3394SOL     OW20860   2.302   9.951   2.000  0.2866  0.2593 -0.1330
 3394SOL    HW120861   2.363   9.964   2.077 -0.0596  0.2259  0.1488
 3394SOL    HW220862   2.313   9.858   1.964 -1.4899 -0.6382  1.5837
 3395SOL     OW20863   7.194   0.259   1.187 -0.2458  0.2874  0.0444
 3395SOL    HW120864   7.286   0.273   1.221 -0.1953 -2.4480  1.1901
 3395SOL    HW220865   7.191   0.278   1.089  2.0755 -1.7191 -0.4413
 3396SOL     OW20866   1.007   3.264   1.619  0.4813 -0.1350  0.5271
 3396SOL    HW120867   0.928   3.289   1.674  0.5517  1.6762 -0.1511
 3396SOL    HW220868   0.981   3.195   1.551 -0.4153  0.1872  0.5461
 3397SOL     OW20869   8.462   9.098   3.151  0.2966 -0.3017  1.2214
 3397SOL    HW120870   8.504   9.139   3.232  0.1214  1.5438  0.3957
 3397SOL    HW220871   8.363   9.093   3.164  0.2710 -0.0310  1.1274
 3398SOL     OW20872   9.961   9.197   0.522 -0.0318 -0.2469  0.2288
 3398SOL    HW120873  10.027   9.163   0.456  1.0671  1.6507  0.3117
 3398SOL    HW220874   9.971   9.146   0.608  0.7401 -0.5569 -0.0366
 3399SOL     OW20875   2.524   7.142   3.741 -0.3341 -0.6046 -0.3912
 3399SOL    HW120876   2.446   7.080   3.731  0.9041 -2.3843  0.6941
 3399SOL    HW220877   2.563   7.131   3.833  2.1831 -0.9432 -1.4747
 3400SOL     OW20878   6.333   0.306   3.284  0.3190 -0.6255 -0.5167
 3400SOL    HW120879   6.341   0.370   3.360 -0.1091 -0.8449 -0.2811
 3400SOL    HW220880   6.285   0.349   3.208  0.9725 -0.3224 -0.7605
 3401SOL     OW20881   9.765   9.960   1.972 -0.7537 -0.2242 -0.0115
 3401SOL    HW120882   9.768  10.060   1.982 -1.5717 -0.2785  0.8905
 3401SOL    HW220883   9.719   9.920   2.052  1.9970 -1.5313  0.9816
 3402SOL     OW20884   3.148   6.134   3.926 -0.2565 -0.2315  0.4887
 3402SOL    HW120885   3.151   6.065   3.854  0.5151 -0.3451  0.6303
 3402SOL    HW220886   3.128   6.223   3.885 -1.0938 -0.5113  0.2875
 3403SOL     OW20887   0.107   9.544   1.569  0.1226 -0.2820 -0.4149
 3403SOL    HW120888   0.034   9.477   1.576  0.8816 -1.2709 -1.5841
 3403SOL    HW220889   0.127   9.561   1.472  0.9606  0.4906 -0.1140
 3404SOL     OW20890   2.560   8.150   4.122 -0.3172 -0.1074  0.5013
 3404SOL    HW120891   2.585   8.144   4.219  0.9929 -2.8416  0.0163
 3404SOL    HW220892   2.642   8.170   4.068 -0.6540 -0.8376 -0.2763
 3405SOL     OW20893   7.558   7.213   2.662 -0.0392  0.2338 -0.3718
 3405SOL    HW120894   7.561   7.116   2.686  0.5637 -0.0947 -1.7226
 3405SOL    HW220895   7.596   7.267   2.737 -1.1124 -0.5107  0.7128
 3406SOL     OW20896   0.624   8.430   3.864 -0.7725  0.3809  0.4430
 3406SOL    HW120897   0.676   8.368   3.923 -0.4938 -0.1768 -0.3874
 3406SOL    HW220898   0.611   8.388   3.774 -2.6376  0.5362  0.6261
 3407SOL     OW20899   1.426   1.546   1.084  0.0052 -0.7349 -0.2587
 3407SOL    HW120900   1.453   1.571   1.177 -2.3670  0.5116  0.1323
 3407SOL    HW220901   1.445   1.623   1.023  0.5456 -1.1494 -0.6145
 3408SOL     OW20902   2.520   3.996   1.842  0.2873  0.3340 -0.1360
 3408SOL    HW120903   2.591   4.012   1.774 -0.8368 -0.1832 -1.4511
 3408SOL    HW220904   2.550   3.924   1.905  0.1410 -1.3510 -1.9161
 3409SOL     OW20905   9.215   3.622   4.572  0.0702 -0.4523 -0.4233
 3409SOL    HW120906   9.181   3.703   4.524 -0.7086 -0.4028  0.2064
 3409SOL    HW220907   9.149   3.547   4.562 -0.6498 -0.1043  1.5119
 3410SOL     OW20908   9.911   9.840   1.033  0.3147 -0.3876 -0.0658
 3410SOL    HW120909   9.920   9.765   0.967 -0.9537 -0.1106 -0.5682
 3410SOL    HW220910   9.920   9.804   1.126  1.5780 -0.8660 -0.3734
 3411SOL     OW20911   3.143   3.515   2.631 -0.3610  0.1958 -0.4423
 3411SOL    HW120912   3.152   3.472   2.541 -2.1476  1.2220 -1.1461
 3411SOL    HW220913   3.103   3.606   2.620  0.0843  0.6170  1.3334
 3412SOL     OW20914   1.987   6.294   2.870  0.2728  0.5271 -0.1767
 3412SOL    HW120915   2.036   6.370   2.914 -0.5000  0.9143  0.0221
 3412SOL    HW220916   1.889   6.312   2.873  0.0103 -1.0388  0.8964
 3413SOL     OW20917   4.107   8.555   1.357 -0.3141  0.3270  0.2418
 3413SOL    HW120918   4.146   8.644   1.332  1.7497 -1.0489 -1.5869
 3413SOL    HW220919   4.017   8.545   1.313 -0.7336  1.6652  0.7818
 3414SOL     OW20920   8.088   4.037   4.776 -0.5052 -0.2965  0.0679
 3414SOL    HW120921   8.158   4.051   4.706 -0.2021  0.6562  0.5548
 3414SOL    HW220922   8.126   4.060   4.866 -0.8556 -1.6114  0.5730
 3415SOL     OW20923   1.545   3.366   2.807 -0.2166  0.7147  0.3377
 3415SOL    HW120924   1.513   3.457   2.836  0.4897  1.5932 -1.5364
 3415SOL    HW220925   1.636   3.375   2.765  0.0140 -0.9242  0.4744
 3416SOL     OW20926   4.329   4.104   0.661  0.0037  0.2501  0.6489
 3416SOL    HW120927   4.331   4.009   0.694  1.0075  0.3893  1.0319
 3416SOL    HW220928   4.355   4.106   0.565 -1.1951  0.0170  0.3163
 3417SOL     OW20929   4.896   1.192   4.622  0.1506  0.0465  0.1592
 3417SOL    HW120930   4.933   1.106   4.657 -0.3316 -0.1892  0.1059
 3417SOL    HW220931   4.887   1.185   4.522  1.0808  0.5412  0.0344
 3418SOL     OW20932   6.687   9.600   1.193 -0.3602 -0.3693 -0.1614
 3418SOL    HW120933   6.676   9.607   1.292 -2.0435  0.2939 -0.3822
 3418SOL    HW220934   6.654   9.510   1.162 -1.5178  0.1092 -0.3346
 3419SOL     OW20935   8.180   3.450   2.370 -0.2719  0.1482  0.3277
 3419SOL    HW120936   8.113   3.519   2.393  1.4260  1.0118  2.9059
 3419SOL    HW220937   8.143   3.359   2.388 -0.8490  0.6107  1.4878
 3420SOL     OW20938   9.766   3.538   1.365  0.2374  0.2729 -0.1081
 3420SOL    HW120939   9.861   3.549   1.395  0.8370 -0.9647 -1.4744
 3420SOL    HW220940   9.742   3.441   1.365 -0.1284  0.3237 -2.3360
 3421SOL     OW20941   7.585   7.247   4.095  0.2011  1.0050  0.1311
 3421SOL    HW120942   7.570   7.330   4.149 -0.5223  0.9465  0.0233
 3421SOL    HW220943   7.683   7.228   4.091  0.2068  0.3174  2.5063
 3422SOL     OW20944   2.741   1.453   0.776 -0.2899 -0.3011  0.0770
 3422SOL    HW120945   2.651   1.470   0.735 -0.7694  1.0805  1.6788
 3422SOL    HW220946   2.804   1.525   0.749 -0.7949  0.9993  2.2999
 3423SOL     OW20947   6.168   8.095   1.837 -0.1440  0.8052  0.1674
 3423SOL    HW120948   6.237   8.163   1.809 -0.9341  0.8974 -1.5547
 3423SOL    HW220949   6.198   8.052   1.922  1.6335  1.4552 -0.1044
 3424SOL     OW20950   8.789   5.714   2.265  0.1583  0.1911  0.7673
 3424SOL    HW120951   8.739   5.708   2.179 -0.3977  0.4575  1.0709
 3424SOL    HW220952   8.860   5.784   2.258  0.4014 -0.0906  0.3834
 3425SOL     OW20953   8.889   1.754   3.980 -0.1696  0.3370 -0.2439
 3425SOL    HW120954   8.864   1.717   3.890  0.4456 -1.1742  0.1837
 3425SOL    HW220955   8.816   1.734   4.045 -0.4924  1.1882 -0.3454
 3426SOL     OW20956   9.169   1.378   3.145  0.3388 -0.4762 -0.2776
 3426SOL    HW120957   9.154   1.473   3.169  0.0317 -0.5437 -0.2101
 3426SOL    HW220958   9.191   1.325   3.227 -0.3896 -0.6422 -0.1901
 3427SOL     OW20959   8.779   5.931   4.071  0.2377 -0.0750  0.2399
 3427SOL    HW120960   8.815   6.024   4.067  1.6388 -0.5235  1.6769
 3427SOL    HW220961   8.700   5.928   4.131  0.3877  0.1349  0.4488
 3428SOL     OW20962   8.449   3.445   0.466  0.0417 -0.4875 -0.7301
 3428SOL    HW120963   8.397   3.360   0.462 -0.2978 -0.2363 -1.9847
 3428SOL    HW220964   8.509   3.444   0.546 -0.6362 -1.5061 -0.2179
 3429SOL     OW20965   0.726   1.205   3.270  0.0170 -0.1941 -0.7278
 3429SOL    HW120966   0.759   1.178   3.179  0.9684 -0.1855 -0.3911
 3429SOL    HW220967   0.784   1.277   3.307 -0.8901  0.4097 -0.4686
 3430SOL     OW20968   1.569   3.971   2.011 -0.5676  0.0628 -0.0562
 3430SOL    HW120969   1.640   3.965   2.081 -0.4578  0.8444 -0.1049
 3430SOL    HW220970   1.607   3.945   1.923 -1.0749 -2.4134  0.4131
 3431SOL     OW20971   4.305   0.660   3.331  0.0521  0.3856 -0.6742
 3431SOL    HW120972   4.253   0.579   3.359 -0.2686  1.1793  1.0144
 3431SOL    HW220973   4.247   0.720   3.277  0.4489 -0.7528 -2.4409
 3432SOL     OW20974   3.433   7.711   0.841  0.0766 -0.0247  0.3818
 3432SOL    HW120975   3.389   7.657   0.913  1.1774 -0.2922  0.8729
 3432SOL    HW220976   3.460   7.652   0.766 -1.1014  0.2617 -0.2733
 3433SOL     OW20977   4.104   3.149   0.564 -0.0021 -0.2548 -0.1006
 3433SOL    HW120978   4.185   3.117   0.514 -0.3467 -1.6331  0.2118
 3433SOL    HW220979   4.133   3.208   0.640  0.8442 -2.2085  1.1338
 3434SOL     OW20980   0.077   4.577   2.875 -0.0011 -0.5151 -0.5091
 3434SOL    HW120981   0.147   4.523   2.827  0.2328  1.0807 -2.0028
 3434SOL    HW220982   0.065   4.665   2.829 -2.6040 -0.5296  0.0633
 3435SOL     OW20983   5.535   9.532   1.817  0.3182  0.5071  0.3887
 3435SOL    HW120984   5.603   9.603   1.798  1.4696 -0.2331  1.6098
 3435SOL    HW220985   5.465   9.569   1.878  1.3092  0.4037  1.6095
 3436SOL     OW20986   0.428   4.675   2.018 -0.2724 -0.3806  0.4156
 3436SOL    HW120987   0.456   4.672   2.114 -0.1429  0.5503  0.4068
 3436SOL    HW220988   0.480   4.746   1.970 -2.6083  1.3576  0.3799
 3437SOL     OW20989   1.555   7.239   1.560 -0.1710  0.3022 -0.3270
 3437SOL    HW120990   1.492   7.232   1.482  1.0114 -1.7238 -1.1161
 3437SOL    HW220991   1.533   7.169   1.628 -0.8602  1.7234  0.9527
 3438SOL     OW20992   0.538   3.216   1.474  0.4333 -0.3827  0.0846
 3438SOL    HW120993   0.588   3.151   1.531 -0.4081 -0.2564  0.9862
 3438SOL    HW220994   0.551   3.308   1.510 -0.2686 -0.3253  0.2084
 3439SOL     OW20995   1.244   6.306   4.666 -0.0978 -0.6704  1.0709
 3439SOL    HW120996   1.280   6.394   4.698 -0.8296  0.1916 -0.4184
 3439SOL    HW220997   1.279   6.287   4.575 -3.6531  0.3973 -0.6013
 3440SOL     OW20998   7.430   4.299   4.367  0.7315  0.0057 -0.2561
 3440SOL    HW120999   7.332   4.315   4.373  0.9930  1.1427  1.3123
 3440SOL    HW221000   7.477   4.386   4.349  1.4172 -0.6110 -1.5222
 3441SOL     OW21001   9.525   4.172   0.484 -0.1344  0.3125 -0.3944
 3441SOL    HW121002   9.443   4.127   0.447  0.1901  0.5727 -1.4336
 3441SOL    HW221003   9.513   4.271   0.482 -0.1306  0.3328  0.2555
 3442SOL     OW21004   2.221   0.154   2.216 -0.6534 -0.1913 -0.0080
 3442SOL    HW121005   2.285   0.203   2.157 -1.3036 -0.1334 -0.6651
 3442SOL    HW221006   2.129   0.161   2.179 -0.9713 -0.6880  0.6769
 3443SOL     OW21007   8.618   3.551   1.359  0.0592 -0.5627 -0.1411
 3443SOL    HW121008   8.682   3.625   1.337  0.7000 -0.8054  0.8956
 3443SOL    HW221009   8.525   3.586   1.356  0.3666  0.3246  0.5045
 3444SOL     OW21010   8.588   9.586   3.500 -0.6092  0.0315  0.1567
 3444SOL    HW121011   8.601   9.655   3.429  3.6070 -0.7352  0.0339
 3444SOL    HW221012   8.571   9.497   3.457  0.7794 -0.2171  0.0875
 3445SOL     OW21013   7.725   8.865   3.848 -0.4283  0.4273 -0.4125
 3445SOL    HW121014   7.805   8.871   3.789 -1.1576 -0.3186 -1.5017
 3445SOL    HW221015   7.736   8.926   3.926  0.3620  1.7338 -1.5371
 3446SOL     OW21016   1.393   9.069   3.515 -0.3680 -0.3518 -0.5734
 3446SOL    HW121017   1.429   9.089   3.424  4.5700  0.0865  1.3211
 3446SOL    HW221018   1.346   9.150   3.551 -1.4721 -0.2072 -2.3299
 3447SOL     OW21019   3.814   5.230   1.734 -0.3043 -0.0336  0.3395
 3447SOL    HW121020   3.781   5.181   1.654  1.8100  0.8609 -1.1596
 3447SOL    HW221021   3.914   5.234   1.731 -0.3469  2.9356  1.2340
 3448SOL     OW21022   3.170   2.094   1.805 -0.1002 -0.1662  0.0338
 3448SOL    HW121023   3.250   2.077   1.862 -1.1417 -1.3661  1.1645
 3448SOL    HW221024   3.186   2.175   1.748  2.4544 -1.1700 -0.7539
 3449SOL     OW21025   4.509   8.281   3.593 -0.2681 -0.2339 -0.3153
 3449SOL    HW121026   4.602   8.281   3.555  0.8554 -3.2068  2.1846
 3449SOL    HW221027   4.514   8.299   3.692 -2.2408 -1.3563  0.0054
 3450SOL     OW21028   9.790   8.174   0.815  0.1159  0.0083  0.4497
 3450SOL    HW121029   9.855   8.126   0.873 -1.0444  1.0976  2.6980
 3450SOL    HW221030   9.710   8.200   0.869 -2.1559 -1.1799 -2.1940
 3451SOL     OW21031   8.628   1.338   2.333 -0.2284  0.0136 -0.0708
 3451SOL    HW121032   8.634   1.389   2.247 -1.9817  1.4389  0.5999
 3451SOL    HW221033   8.533   1.309   2.347  0.1491 -0.6470  1.1310
 3452SOL     OW21034   1.227   2.959   2.698 -0.1690  0.5684  0.7395
 3452SOL    HW121035   1.212   2.912   2.611  1.4149  2.4674 -0.6083
 3452SOL    HW221036   1.300   2.912   2.749 -1.9151 -1.2542  1.6364
 3453SOL     OW21037   1.588   8.286   4.364 -0.3360  0.3557 -0.5379
 3453SOL    HW121038   1.558   8.289   4.459 -1.3102 -0.2432 -0.8243
 3453SOL    HW221039   1.686   8.306   4.360  0.2545 -2.1063  0.8383
 3454SOL     OW21040   3.310   4.402   2.394  1.0985 -0.6123  0.6287
 3454SOL    HW121041   3.262   4.413   2.480  0.1598 -1.5124  0.2403
 3454SOL    HW221042   3.274   4.467   2.327  0.7892 -0.9161  0.4962
 3455SOL     OW21043   1.486   6.683   4.252 -0.5663  0.0573  0.0519
 3455SOL    HW121044   1.507   6.729   4.338 -3.9004 -0.2089  1.0799
 3455SOL    HW221045   1.532   6.730   4.177  2.1584  0.4756  1.8831
 3456SOL     OW21046   9.585   7.795   4.130 -0.0014 -0.1120 -0.2220
 3456SOL    HW121047   9.579   7.696   4.117 -1.5965  0.0046 -0.5392
 3456SOL    HW221048   9.500   7.837   4.097  0.3706  1.2838  0.5867
 3457SOL     OW21049   1.107   2.706   0.384 -0.3263 -0.3947  0.2769
 3457SOL    HW121050   1.088   2.781   0.448 -0.3749 -0.1061 -0.0751
 3457SOL    HW221051   1.204   2.683   0.389 -0.2019  0.0545 -0.0029
 3458SOL     OW21052   4.969   0.288   1.760  0.3081 -0.1432  0.0143
 3458SOL    HW121053   5.056   0.301   1.713  0.7151 -2.1506  0.1732
 3458SOL    HW221054   4.898   0.341   1.713  1.2488  0.1116 -1.1615
 3459SOL     OW21055   3.232   5.096   2.387 -0.1031  0.6446  0.4773
 3459SOL    HW121056   3.191   5.145   2.464  0.3943  1.8318 -0.0088
 3459SOL    HW221057   3.300   5.154   2.343 -1.9732  0.8759 -2.2607
 3460SOL     OW21058   8.711   4.517   3.063  0.2249  0.4627 -0.1355
 3460SOL    HW121059   8.695   4.423   3.096  1.2656  0.2710 -0.1514
 3460SOL    HW221060   8.767   4.566   3.130  0.0908  0.9183 -0.3595
 3461SOL     OW21061   9.027   9.349   3.545  0.6079 -0.2031 -0.2545
 3461SOL    HW121062   8.983   9.380   3.461 -0.1428 -0.7005 -0.0561
 3461SOL    HW221063   8.961   9.295   3.598  1.9559 -2.3790 -0.7380
 3462SOL     OW21064   8.097   2.375   0.842 -0.3524 -0.6123  0.3992
 3462SOL    HW121065   8.147   2.322   0.773  0.0397 -0.0104  0.2157
 3462SOL    HW221066   8.005   2.393   0.809 -0.4778 -1.1544  0.4485
 3463SOL     OW21067   2.017   1.899   0.552  0.0661 -0.2673  0.2523
 3463SOL    HW121068   1.980   1.991   0.566 -0.0317 -0.1169 -0.8838
 3463SOL    HW221069   1.941   1.833   0.544  0.1437 -0.4914  1.3461
 3464SOL     OW21070   2.498   4.834   2.612  0.4113 -0.1223 -0.6031
 3464SOL    HW121071   2.427   4.821   2.543 -0.5457  4.5767 -0.6853
 3464SOL    HW221072   2.465   4.801   2.701 -0.4050 -1.3194 -1.3447
 3465SOL     OW21073   5.336   0.023   4.415 -0.4091  0.4065 -0.0608
 3465SOL    HW121074   5.342   0.090   4.341 -0.2678  0.4653  0.0032
 3465SOL    HW221075   5.243   0.019   4.450 -0.3602  0.7539  0.1079
 3466SOL     OW21076   8.490   4.160   0.536  0.1601 -0.0737  0.2841
 3466SOL    HW121077   8.584   4.166   0.504 -0.2386 -0.1461 -0.9213
 3466SOL    HW221078   8.442   4.087   0.488 -0.9654  1.0321 -0.3217
 3467SOL     OW21079   0.116   2.798   0.584 -0.8934 -0.7377  0.2570
 3467SOL    HW121080   0.062   2.848   0.517 -1.7865  0.1750  1.6261
 3467SOL    HW221081   0.212   2.825   0.578 -0.9858 -0.5954 -0.5811
 3468SOL     OW21082   8.529   1.495   4.450  0.6276 -0.2595 -0.2090
 3468SOL    HW121083   8.454   1.488   4.515  0.7899 -1.2885 -0.1247
 3468SOL    HW221084   8.616   1.496   4.499  0.8126 -2.3548 -0.4555
 3469SOL     OW21085   0.919   8.747   1.188 -0.5669  0.3865 -0.5710
 3469SOL    HW121086   0.925   8.841   1.221 -1.5326  1.2347 -2.7254
 3469SOL    HW221087   0.943   8.744   1.091 -0.9244 -1.5203 -0.6155
 3470SOL     OW21088   2.436   6.604   4.430 -0.1361 -0.3326 -0.4078
 3470SOL    HW121089   2.376   6.648   4.497 -1.4154 -1.8613 -0.5359
 3470SOL    HW221090   2.387   6.592   4.343  0.8845 -0.1168 -1.0258
 3471SOL     OW21091   9.857   7.255   1.686  0.4830 -0.1164  0.2329
 3471SOL    HW121092   9.809   7.297   1.764 -2.5391 -0.2614 -1.4901
 3471SOL    HW221093   9.850   7.315   1.606  0.4725 -1.6155 -0.9046
 3472SOL     OW21094   2.499   4.413   4.236  0.2328  0.1525 -0.2094
 3472SOL    HW121095   2.456   4.494   4.276  0.5163  1.2889 -2.1429
 3472SOL    HW221096   2.585   4.394   4.282 -0.1250  0.5842  0.6487
 3473SOL     OW21097   2.544   7.321   2.056  0.2321 -0.0206 -0.0532
 3473SOL    HW121098   2.498   7.409   2.063 -1.0297 -0.5484 -1.4408
 3473SOL    HW221099   2.604   7.322   1.976  1.9670  0.3499  1.2274
 3474SOL     OW21100   1.100   5.839   0.128 -0.0941 -0.3215  0.1065
 3474SOL    HW121101   1.157   5.829   0.209 -0.0222 -0.1161  0.0821
 3474SOL    HW221102   1.123   5.924   0.081 -1.3714  0.4467  0.8557
 3475SOL     OW21103   0.130   4.951   0.549 -0.2371  0.4687  0.0873
 3475SOL    HW121104   0.209   4.955   0.611  0.3761  0.1437 -0.6619
 3475SOL    HW221105   0.150   5.003   0.466 -1.4898  1.8593  0.6422
 3476SOL     OW21106   1.880   8.447   3.398  0.0336  0.5649 -0.3917
 3476SOL    HW121107   1.873   8.527   3.457  0.5384  0.8789 -0.7529
 3476SOL    HW221108   1.794   8.434   3.348 -1.6176 -1.5839  2.7780
 3477SOL     OW21109   5.665   0.664   3.364 -0.2604  0.3064  0.1222
 3477SOL    HW121110   5.617   0.607   3.298  1.5772  0.4568 -1.4096
 3477SOL    HW221111   5.698   0.608   3.440 -1.4988 -0.0507  0.3969
 3478SOL     OW21112   0.148   1.328   1.680  0.0612 -0.4284  0.3917
 3478SOL    HW121113   0.218   1.400   1.685  1.9937 -2.1606 -0.9787
 3478SOL    HW221114   0.168   1.256   1.745 -0.9343 -0.5434  0.5828
 3479SOL     OW21115   1.470   3.641   2.931  0.1318  0.5154  0.6886
 3479SOL    HW121116   1.382   3.671   2.893 -0.7660 -0.7371  1.7015
 3479SOL    HW221117   1.490   3.692   3.014 -0.4549 -0.3062  1.3515
 3480SOL     OW21118   8.981   8.185   3.327 -0.0931 -0.0379  0.4722
 3480SOL    HW121119   9.035   8.134   3.394 -0.2233 -0.5215  0.2089
 3480SOL    HW221120   8.889   8.146   3.322 -0.4444  0.7255  0.8528
 3481SOL     OW21121   7.511   9.372   2.734 -0.1420 -0.1079  0.2229
 3481SOL    HW121122   7.576   9.351   2.807  1.4530 -0.0825 -1.1413
 3481SOL    HW221123   7.423   9.398   2.773  1.1793  1.5500  2.1599
 3482SOL     OW21124   1.900   0.905   2.099 -0.3649 -0.3048 -0.5937
 3482SOL    HW121125   1.932   0.811   2.111  1.2246  0.2347 -0.4467
 3482SOL    HW221126   1.800   0.906   2.089 -0.4588 -1.9323  0.0988
 3483SOL     OW21127   4.816   9.051   1.876  0.1948  0.1195 -0.2025
 3483SOL    HW121128   4.853   9.019   1.963  0.0144  0.9755  0.1928
 3483SOL    HW221129   4.718   9.032   1.872  0.0965  0.5970  0.0134
 3484SOL     OW21130   3.672   5.113   4.670 -0.4909  0.6533  0.0093
 3484SOL    HW121131   3.764   5.118   4.632 -0.1671  0.6570  0.7845
 3484SOL    HW221132   3.616   5.053   4.614  1.3468 -3.3288  2.2211
 3485SOL     OW21133   2.304   8.958   2.496  0.8864  0.3402 -0.2675
 3485SOL    HW121134   2.327   8.915   2.583 -0.6432  2.0467  1.0059
 3485SOL    HW221135   2.249   8.894   2.442  0.1571  0.0060  0.8527
 3486SOL     OW21136   5.270   7.517   2.939  0.0608  0.5311  0.2483
 3486SOL    HW121137   5.199   7.559   2.994 -0.5993 -0.5797  0.2641
 3486SOL    HW221138   5.341   7.584   2.917 -0.1448  1.2073  1.6550
 3487SOL     OW21139   0.187   2.187   3.227  0.8505  0.0599  0.6651
 3487SOL    HW121140   0.225   2.240   3.151  0.5691 -0.9871 -0.2128
 3487SOL    HW221141   0.244   2.107   3.245  0.0332 -0.5672  0.4896
 3488SOL     OW21142   3.428   4.008   2.949 -0.0024 -0.0184 -0.1048
 3488SOL    HW121143   3.454   3.958   3.031  1.2129  1.9717  0.7648
 3488SOL    HW221144   3.441   4.106   2.964  2.1580  0.2738 -3.3203
 3489SOL     OW21145   8.662   0.458   4.630 -0.1972 -0.0909  0.4502
 3489SOL    HW121146   8.636   0.425   4.539  0.3781  0.1642  0.1939
 3489SOL    HW221147   8.623   0.549   4.646  0.6919  0.3683 -0.0042
 3490SOL     OW21148   2.943   5.599   1.074  0.0488  0.1529  0.1530
 3490SOL    HW121149   2.896   5.526   1.124 -0.2418  0.3242  0.1364
 3490SOL    HW221150   2.885   5.681   1.074  0.2140  0.2681 -0.1406
 3491SOL     OW21151   1.364   2.633   0.339 -0.7034  0.4842  0.0487
 3491SOL    HW121152   1.324   2.542   0.350  1.8767 -0.7567 -0.4485
 3491SOL    HW221153   1.393   2.668   0.429 -1.7336  0.8522  0.2446
 3492SOL     OW21154   3.045   8.969   1.825  0.0188  0.1578 -0.3890
 3492SOL    HW121155   3.036   8.992   1.921 -0.4747  0.3227 -0.4736
 3492SOL    HW221156   2.956   8.978   1.780  0.6861  2.2921 -1.3516
 3493SOL     OW21157   3.296   6.225   2.235  1.0599 -0.0280  0.0009
 3493SOL    HW121158   3.305   6.324   2.231  0.7270 -0.0017 -0.0343
 3493SOL    HW221159   3.233   6.193   2.165 -1.1551  0.0258  1.8993
 3494SOL     OW21160   2.855   4.211   3.371 -0.7380  0.4716 -0.1095
 3494SOL    HW121161   2.935   4.262   3.339  0.1604 -1.0488 -0.3466
 3494SOL    HW221162   2.885   4.134   3.428 -2.0445 -0.0003 -0.0403
 3495SOL     OW21163   5.085   8.215   3.311  0.7455 -0.2382  0.1024
 3495SOL    HW121164   5.067   8.288   3.245  1.2137 -0.1979  0.0183
 3495SOL    HW221165   4.998   8.175   3.341  0.5867 -1.1414 -1.5330
 3496SOL     OW21166   2.391   0.334   0.496 -0.2031 -0.1105 -0.4173
 3496SOL    HW121167   2.337   0.341   0.580 -0.9417  1.9959 -1.0282
 3496SOL    HW221168   2.417   0.426   0.466 -0.1789 -0.8235 -2.6595
 3497SOL     OW21169   1.005   3.696   3.073  0.0768 -0.0505  0.0381
 3497SOL    HW121170   0.999   3.731   2.979 -0.8613 -0.1686  0.0463
 3497SOL    HW221171   1.093   3.722   3.112 -0.1125  1.2861 -0.3736
 3498SOL     OW21172   1.454   3.278   2.367 -0.2952 -0.9744  0.4073
 3498SOL    HW121173   1.545   3.307   2.396 -0.7624  3.4850 -2.1666
 3498SOL    HW221174   1.385   3.324   2.422 -1.0484 -2.0148  0.3515
 3499SOL     OW21175   4.761   8.071   0.219  0.8539 -0.1271 -0.0480
 3499SOL    HW121176   4.693   8.073   0.292  1.5118  1.0072  0.5463
 3499SOL    HW221177   4.718   8.038   0.135 -0.8921  2.2304 -0.1341
 3500SOL     OW21178   8.491   6.051   3.542 -0.2549  0.1340 -0.3548
 3500SOL    HW121179   8.486   6.090   3.634  0.0623  0.5147 -0.5014
 3500SOL    HW221180   8.417   6.089   3.486  0.0917  0.5716 -0.5156
 3501SOL     OW21181   9.304   9.308   2.257  0.0369  0.0375  0.1428
 3501SOL    HW121182   9.314   9.225   2.203  0.0633 -0.8758  1.5260
 3501SOL    HW221183   9.215   9.307   2.303 -0.8216  1.7334 -1.4302
 3502SOL     OW21184   8.629   1.788   4.395 -0.3560  0.0403 -0.1725
 3502SOL    HW121185   8.654   1.734   4.314  1.0341 -0.1690  0.3868
 3502SOL    HW221186   8.602   1.726   4.469  0.3155  0.1380  0.1608
 3503SOL     OW21187   8.154   4.211   0.692 -0.4736 -0.0980 -0.2092
 3503SOL    HW121188   8.215   4.132   0.684  0.4198  0.5598  0.0263
 3503SOL    HW221189   8.085   4.208   0.620  1.1471  0.2748 -1.7952
 3504SOL     OW21190   7.900   2.623   0.412 -0.0687 -0.0630 -0.2636
 3504SOL    HW121191   7.831   2.578   0.469 -0.7532 -0.9079 -1.7141
 3504SOL    HW221192   7.880   2.605   0.316  3.1120 -1.6569 -0.6712
 3505SOL     OW21193   5.679   8.081   2.915 -0.4887 -0.9876  0.2828
 3505SOL    HW121194   5.779   8.086   2.914 -0.5658  1.8561  0.2865
 3505SOL    HW221195   5.649   8.025   2.992  1.1101 -1.6841  0.4148
 3506SOL     OW21196   8.532   9.127   3.395  0.4190  0.2804  0.5915
 3506SOL    HW121197   8.614   9.075   3.421 -0.5633 -1.4458  0.3689
 3506SOL    HW221198   8.469   9.129   3.473 -0.8497 -1.5233 -0.3498
 3507SOL     OW21199   9.465   4.758   4.194  0.0947  0.9998 -0.0850
 3507SOL    HW121200   9.503   4.748   4.102 -0.0024  0.3318 -0.0592
 3507SOL    HW221201   9.538   4.741   4.261 -0.0285  0.6603 -0.0374
 3508SOL     OW21202   4.205   0.065   0.268 -0.0851 -0.6484  0.4881
 3508SOL    HW121203   4.123   0.057   0.324 -0.4910 -0.3227 -0.0592
 3508SOL    HW221204   4.180   0.071   0.171  0.4656  1.2368  0.4373
 3509SOL     OW21205   0.191   7.410   4.278 -0.1153  0.0347  0.0864
 3509SOL    HW121206   0.198   7.428   4.180  1.1722  0.3341  0.2180
 3509SOL    HW221207   0.237   7.483   4.329  2.3125 -1.9002  0.7650
 3510SOL     OW21208   2.896   1.319   4.457 -0.3077  0.1274  0.5463
 3510SOL    HW121209   2.973   1.257   4.472 -0.2951  0.4187  1.7261
 3510SOL    HW221210   2.897   1.351   4.362  0.4387 -0.6533  0.2837
 3511SOL     OW21211   1.888   1.395   4.593  0.0375 -0.0542 -0.0901
 3511SOL    HW121212   1.859   1.448   4.671 -1.4425 -1.3486  0.2570
 3511SOL    HW221213   1.962   1.333   4.621  0.0089 -0.0032  0.0980
 3512SOL     OW21214   3.894   9.089   4.444  0.5369  0.7127 -0.5796
 3512SOL    HW121215   3.930   9.003   4.481 -0.3943  0.5853  0.0696
 3512SOL    HW221216   3.827   9.069   4.373 -1.0151  0.8381  0.8190
 3513SOL     OW21217   2.674   4.094   2.437 -0.3841  0.1407  0.1199
 3513SOL    HW121218   2.700   4.145   2.519  0.5237 -0.1568  0.0213
 3513SOL    HW221219   2.692   3.996   2.453  0.9788  0.2147 -0.8812
 3514SOL     OW21220   6.739   9.582   3.038  0.4702  0.2901  0.1937
 3514SOL    HW121221   6.662   9.643   3.053 -0.2760 -0.3164 -0.9924
 3514SOL    HW221222   6.737   9.549   2.943  2.9153  1.2490 -0.2182
 3515SOL     OW21223   0.176   6.545   4.684  0.1616 -0.6637  0.1974
 3515SOL    HW121224   0.126   6.458   4.680  0.0341 -0.5610 -0.4577
 3515SOL    HW221225   0.261   6.531   4.734  0.0059 -1.1011  0.3494
 3516SOL     OW21226   2.690   1.101   0.394 -0.7747 -0.4038  0.5206
 3516SOL    HW121227   2.657   1.101   0.488 -1.0812 -0.5145  0.4152
 3516SOL    HW221228   2.676   1.010   0.353  2.6376 -1.4235  1.4924
 3517SOL     OW21229   1.752   0.792   4.271  0.1027  0.2141  0.4651
 3517SOL    HW121230   1.700   0.711   4.245 -0.0904  0.0678  1.2994
 3517SOL    HW221231   1.846   0.766   4.295  0.1097  0.2706  0.5000
 3518SOL     OW21232   0.037   1.966   1.442 -0.3435 -0.1860 -0.2606
 3518SOL    HW121233   0.096   1.956   1.522  0.8359  1.6583 -0.8494
 3518SOL    HW221234   0.081   2.028   1.377 -1.6621 -1.0270 -1.9789
 3519SOL     OW21235   1.446   6.108   1.138  0.0414 -0.3693 -0.0617
 3519SOL    HW121236   1.443   6.207   1.123 -0.0213 -0.6260 -1.8599
 3519SOL    HW221237   1.356   6.076   1.167  0.6277  0.4128  2.7275
 3520SOL     OW21238   7.701   8.727   3.513 -0.0864  0.2374  0.3104
 3520SOL    HW121239   7.747   8.815   3.501 -0.4072  0.2628 -0.7405
 3520SOL    HW221240   7.619   8.739   3.568 -0.5768  0.7363 -0.5241
 3521SOL     OW21241   1.498   1.957   0.238  0.5922  0.0861 -0.4816
 3521SOL    HW121242   1.522   1.915   0.150 -0.6172  1.0029 -1.2770
 3521SOL    HW221243   1.440   2.037   0.221  1.3738  1.0174  1.0864
 3522SOL     OW21244   8.745   6.256   4.268  0.0671  0.5661  0.5178
 3522SOL    HW121245   8.815   6.236   4.200  0.3311  1.2606  0.5750
 3522SOL    HW221246   8.665   6.296   4.223 -1.1197 -2.0980  0.1910
 3523SOL     OW21247   3.087   0.146   4.381  0.2121  0.0610 -0.1071
 3523SOL    HW121248   3.034   0.215   4.431 -0.7228 -0.1864 -0.7403
 3523SOL    HW221249   3.165   0.190   4.337  0.1057  0.5687  0.1972
 3524SOL     OW21250   6.119   9.513   3.004  0.0545 -0.1190  0.9988
 3524SOL    HW121251   6.145   9.589   2.944 -1.2343 -0.4712 -0.0380
 3524SOL    HW221252   6.200   9.481   3.053  0.9804  0.7152  0.0705
 3525SOL     OW21253   9.769   0.518   1.774 -0.1787  0.2199 -0.2705
 3525SOL    HW121254   9.675   0.508   1.742 -0.0716  0.6908 -0.7395
 3525SOL    HW221255   9.815   0.590   1.721  0.2508  0.4300  0.3782
 3526SOL     OW21256   1.890   8.897   4.093  0.5277 -0.2987  0.1443
 3526SOL    HW121257   1.883   8.811   4.043 -0.1364  0.6735 -1.4786
 3526SOL    HW221258   1.799   8.927   4.121  0.8108 -0.3782  1.1828
 3527SOL     OW21259   9.573   4.997   1.364 -0.2917 -0.2548  0.0442
 3527SOL    HW121260   9.602   4.945   1.445  1.0077 -0.3565 -0.4764
 3527SOL    HW221261   9.475   4.985   1.350 -0.3057 -1.2128  0.9059
 3528SOL     OW21262   2.698   8.744   1.235 -0.1111 -0.5335 -0.0696
 3528SOL    HW121263   2.614   8.695   1.260  0.5155 -3.2950 -2.9536
 3528SOL    HW221264   2.680   8.801   1.154  0.1034  1.1621  1.0580
 3529SOL     OW21265   1.255   9.889   4.531 -0.0947  0.1311 -0.4989
 3529SOL    HW121266   1.197   9.891   4.449 -1.3767 -1.7784  0.3248
 3529SOL    HW221267   1.350   9.873   4.503 -0.4824 -0.2997 -1.6372
 3530SOL     OW21268   9.816   5.855   3.557  0.2830 -0.2210 -0.0785
 3530SOL    HW121269   9.862   5.803   3.629 -0.7133 -1.9175 -0.6183
 3530SOL    HW221270   9.879   5.922   3.518  1.9433 -1.7326 -0.0606
 3531SOL     OW21271   3.618   2.984   3.121 -0.1657  0.4182 -0.1835
 3531SOL    HW121272   3.628   2.943   3.212 -2.9352 -1.9591 -0.8908
 3531SOL    HW221273   3.561   3.067   3.129  0.9159  1.1070  0.4672
 3532SOL     OW21274   0.917   3.120   2.420  0.7269  0.6065 -0.4107
 3532SOL    HW121275   0.831   3.082   2.384  0.8216  0.0241 -0.0216
 3532SOL    HW221276   0.942   3.200   2.366 -0.2450  0.9906 -0.3126
 3533SOL     OW21277   0.743   0.796   1.439 -0.0177  0.1557  0.4058
 3533SOL    HW121278   0.822   0.735   1.449  0.3344  0.7468  1.3368
 3533SOL    HW221279   0.666   0.760   1.491 -0.1649 -0.0954  0.0121
 3534SOL     OW21280   4.552   8.991   1.733  0.7621 -0.0857 -0.1402
 3534SOL    HW121281   4.538   8.910   1.677  0.8243 -1.3009  1.5495
 3534SOL    HW221282   4.468   9.046   1.734  0.0558 -1.1567  0.3023
 3535SOL     OW21283   9.518   3.304   0.941 -0.4706 -0.2668 -0.2627
 3535SOL    HW121284   9.426   3.317   0.975 -1.0138  0.6285 -1.9968
 3535SOL    HW221285   9.541   3.378   0.877  1.5413 -0.3235  0.3529
 3536SOL     OW21286   3.458   6.252   2.501 -0.3965 -0.4374  0.7042
 3536SOL    HW121287   3.395   6.299   2.439 -0.1948 -0.5641  0.4011
 3536SOL    HW221288   3.474   6.308   2.582 -0.8556 -0.3799  0.7581
 3537SOL     OW21289   4.494   8.885   3.483 -0.4754 -0.8946  0.4701
 3537SOL    HW121290   4.430   8.903   3.408  0.0567 -0.3263  0.1436
 3537SOL    HW221291   4.491   8.961   3.548  2.3403  0.8656 -1.3085
 3538SOL     OW21292   1.561   2.589   2.730  0.2932 -0.4525  0.1758
 3538SOL    HW121293   1.511   2.539   2.659  0.8981 -0.1109 -0.5003
 3538SOL    HW221294   1.659   2.579   2.715  0.4229  0.7420  0.1687
 3539SOL     OW21295   1.173   5.333   3.502  0.3093 -0.4472  0.2605
 3539SOL    HW121296   1.077   5.350   3.482  0.1826 -1.4431 -0.0479
 3539SOL    HW221297   1.227   5.415   3.483 -0.7431  0.7563  2.3729
 3540SOL     OW21298   2.505   5.681   2.273 -0.0904 -0.3673 -0.3157
 3540SOL    HW121299   2.538   5.768   2.310  0.1546 -0.1931 -0.9359
 3540SOL    HW221300   2.526   5.607   2.337 -2.0845  0.2985  1.1573
 3541SOL     OW21301   0.919   0.057   1.994 -0.2649 -0.5213 -0.3033
 3541SOL    HW121302   0.850   0.095   1.932  0.6794  0.5327 -0.7179
 3541SOL    HW221303   1.002   0.035   1.942 -0.1488 -1.4304  0.2599
 3542SOL     OW21304   9.263   5.964   2.302  0.4607  0.2860  0.3061
 3542SOL    HW121305   9.278   6.062   2.307  0.1916  0.2740  1.4825
 3542SOL    HW221306   9.243   5.928   2.393 -0.2162 -0.7374 -0.2297
 3543SOL     OW21307   2.649   7.958   1.401  0.1041  0.7546 -0.6987
 3543SOL    HW121308   2.665   7.935   1.304 -0.3888  1.8354 -1.0426
 3543SOL    HW221309   2.662   7.876   1.457 -0.1168 -0.0079 -1.7409
 3544SOL     OW21310   2.408   1.415   1.309  0.0919  0.3734  0.1734
 3544SOL    HW121311   2.326   1.471   1.302  0.1618  0.8595  2.6774
 3544SOL    HW221312   2.489   1.474   1.306  0.4894 -0.2282 -3.8328
 3545SOL     OW21313   8.460   9.867   1.257  0.8311 -0.7793  0.7867
 3545SOL    HW121314   8.406   9.784   1.269 -0.3032 -0.2669 -0.5815
 3545SOL    HW221315   8.527   9.852   1.184 -0.2047 -0.1341 -0.3333
 3546SOL     OW21316   7.692   6.579   3.476  0.2746 -0.0554  0.1183
 3546SOL    HW121317   7.740   6.505   3.429  1.5678  0.0340  1.2477
 3546SOL    HW221318   7.757   6.630   3.532 -0.3676  2.6634 -1.5132
 3547SOL     OW21319   9.732   6.667   0.602 -0.0950 -0.0198  0.3888
 3547SOL    HW121320   9.821   6.660   0.557  0.0322  0.7128  0.5156
 3547SOL    HW221321   9.665   6.613   0.552 -0.3442  2.1073 -1.6942
 3548SOL     OW21322   7.152   8.681   2.111  0.0475 -0.5272 -0.1116
 3548SOL    HW121323   7.116   8.642   2.196 -0.8805  0.5856  0.0249
 3548SOL    HW221324   7.089   8.751   2.077  0.9417 -0.2021 -1.1469
 3549SOL     OW21325   5.110   0.203   2.351 -0.0513  0.8391  0.1028
 3549SOL    HW121326   5.088   0.278   2.413  0.8932  1.7703 -0.6745
 3549SOL    HW221327   5.210   0.195   2.342 -0.1593 -0.0332 -0.3906
 3550SOL     OW21328   1.660   4.124   4.282 -0.1197  0.4162 -0.5643
 3550SOL    HW121329   1.722   4.059   4.326 -1.7060  0.1609  1.3483
 3550SOL    HW221330   1.637   4.091   4.191  1.9260  0.1352 -1.0126
 3551SOL     OW21331   2.145   5.873   3.573 -0.8681  0.3136  0.4043
 3551SOL    HW121332   2.098   5.941   3.516 -0.4052 -1.2443 -1.8872
 3551SOL    HW221333   2.102   5.784   3.562 -0.3072 -0.1714  1.9562
 3552SOL     OW21334   0.882   9.489   1.594 -0.0101  0.1887 -0.2210
 3552SOL    HW121335   0.790   9.515   1.566  0.2645  0.2282 -1.1018
 3552SOL    HW221336   0.877   9.434   1.677 -0.9484 -1.1756 -1.1614
 3553SOL     OW21337   6.968   9.405   3.601  0.2299 -0.1913 -0.6142
 3553SOL    HW121338   7.051   9.449   3.565  1.2448 -0.7462  0.9779
 3553SOL    HW221339   6.993   9.319   3.645 -1.2103 -0.3834 -0.1672
 3554SOL     OW21340   6.131   8.906   3.836  0.2002 -0.2080 -0.1179
 3554SOL    HW121341   6.044   8.887   3.792 -0.1218  1.3914 -0.2009
 3554SOL    HW221342   6.116   8.934   3.931  0.5495  0.8920 -0.3792
 3555SOL     OW21343   1.141   5.798   3.203 -0.0984  0.5387  0.2203
 3555SOL    HW121344   1.179   5.708   3.221 -0.2679  0.9395  2.7267
 3555SOL    HW221345   1.149   5.855   3.285 -1.6376  2.2126 -0.7488
 3556SOL     OW21346   7.777   1.944   4.349 -0.2636  0.3694 -0.1324
 3556SOL    HW121347   7.734   1.952   4.260 -1.6785  1.0524  0.6021
 3556SOL    HW221348   7.857   1.883   4.342  0.2867  1.2714 -2.0668
 3557SOL     OW21349   1.325   9.396   2.572 -0.4534 -0.2825 -0.0244
 3557SOL    HW121350   1.241   9.402   2.518 -1.0437  0.3985  0.9569
 3557SOL    HW221351   1.350   9.487   2.604 -0.9141 -0.8564  2.0555
 3558SOL     OW21352   2.360   6.934   3.132 -0.0393 -0.1707 -0.0068
 3558SOL    HW121353   2.347   6.840   3.163  0.2268  0.2324  1.3677
 3558SOL    HW221354   2.281   6.989   3.158  0.6950  0.4299  1.0091
 3559SOL     OW21355   7.564   3.287   4.367 -0.2226 -0.0185  0.3755
 3559SOL    HW121356   7.634   3.358   4.370 -0.5985  0.6374 -3.2747
 3559SOL    HW221357   7.473   3.330   4.367 -0.4791 -0.5504 -0.4319
 3560SOL     OW21358   4.692   9.156   2.784 -0.2303 -0.1259 -0.1085
 3560SOL    HW121359   4.714   9.096   2.707  0.2265  1.2402 -1.0630
 3560SOL    HW221360   4.776   9.189   2.826 -0.4786 -0.1728  0.4275
 3561SOL     OW21361   8.793   7.739   2.795  0.1648 -0.1041  0.2919
 3561SOL    HW121362   8.709   7.786   2.771  0.3073  0.0467  0.0862
 3561SOL    HW221363   8.853   7.735   2.715  1.1812  1.5452  0.9542
 3562SOL     OW21364   1.966   9.184   2.961  0.2236 -0.1274  0.2527
 3562SOL    HW121365   1.985   9.129   2.879  0.5090 -0.9378  0.8579
 3562SOL    HW221366   1.969   9.281   2.937  1.8960 -0.3157 -0.3751
 3563SOL     OW21367   1.944   8.224   2.797  0.0136  0.6280 -0.2235
 3563SOL    HW121368   1.948   8.127   2.774  0.5841  0.9380 -1.4616
 3563SOL    HW221369   1.880   8.271   2.736 -0.8670  0.9097  0.8769
 3564SOL     OW21370   3.434   7.956   3.715  0.0911 -0.8674  0.2021
 3564SOL    HW121371   3.396   7.869   3.685  0.3199 -0.4189 -1.4645
 3564SOL    HW221372   3.534   7.949   3.719  0.1777 -0.4204 -0.8801
 3565SOL     OW21373   0.541   3.400   0.827 -0.4092  0.0578 -0.0919
 3565SOL    HW121374   0.571   3.474   0.886  2.9309  0.0776 -1.6792
 3565SOL    HW221375   0.598   3.319   0.844 -1.8548 -1.1161 -0.6875
 3566SOL     OW21376   1.730   2.196   3.082 -0.3325  0.2596 -0.0214
 3566SOL    HW121377   1.744   2.225   3.176  0.4797  2.1154 -0.6924
 3566SOL    HW221378   1.664   2.256   3.037  1.3656  1.1342 -1.4283
 3567SOL     OW21379   8.224   0.115   3.521 -0.1144  0.0155 -0.5100
 3567SOL    HW121380   8.130   0.123   3.556 -0.4378  0.3018 -1.4451
 3567SOL    HW221381   8.284   0.174   3.576 -0.6729  0.6896 -0.6165
 3568SOL     OW21382   5.038   8.962   3.498 -0.1710  0.6129  0.1430
 3568SOL    HW121383   5.046   9.047   3.549  1.0532 -1.3593  3.3936
 3568SOL    HW221384   4.957   8.912   3.529  0.5600 -0.6129  0.1270
 3569SOL     OW21385   8.229   7.847   1.842 -0.0672 -1.1609  0.0328
 3569SOL    HW121386   8.320   7.811   1.863  0.1922 -0.9173 -0.6522
 3569SOL    HW221387   8.175   7.777   1.795  0.1718 -0.9117 -0.6108
 3570SOL     OW21388   2.825   2.241   1.262  0.1105 -0.2504  0.2296
 3570SOL    HW121389   2.847   2.232   1.165  0.2865 -0.1359  0.2580
 3570SOL    HW221390   2.812   2.337   1.284 -4.1113 -0.5339 -0.5817
 3571SOL     OW21391   2.982   5.832   2.850 -0.4394 -0.2803  0.3055
 3571SOL    HW121392   3.036   5.880   2.919  0.8130  1.3086 -1.7440
 3571SOL    HW221393   2.917   5.771   2.896  0.7972  0.2523  2.8670
 3572SOL     OW21394   4.565   8.794   2.483 -0.8961 -0.0004 -0.5093
 3572SOL    HW121395   4.486   8.740   2.513 -0.1602 -0.9697 -0.2945
 3572SOL    HW221396   4.537   8.889   2.470 -1.1800  0.5524  3.5905
 3573SOL     OW21397   3.565   9.754   3.878 -0.0387 -0.5115  0.1145
 3573SOL    HW121398   3.555   9.839   3.826 -0.0427  0.2103  1.2761
 3573SOL    HW221399   3.516   9.680   3.831 -1.7568  0.5810  0.1356
 3574SOL     OW21400   4.499   7.461   2.968  0.3202 -0.1966  0.0339
 3574SOL    HW121401   4.592   7.497   2.958  0.4275 -0.8300 -1.3864
 3574SOL    HW221402   4.502   7.375   3.020  0.6335 -0.6492 -0.7246
 3575SOL     OW21403   9.007   0.305   3.674  0.0955 -0.2465  0.0485
 3575SOL    HW121404   8.925   0.264   3.634 -1.4218 -0.3028  3.0508
 3575SOL    HW221405   9.047   0.370   3.609 -1.1638 -1.6813 -2.2356
 3576SOL     OW21406   7.239   8.704   1.439  0.6676  0.2344 -0.2112
 3576SOL    HW121407   7.157   8.649   1.428  0.6890  0.3658 -1.0256
 3576SOL    HW221408   7.311   8.671   1.378  0.8425  0.8463 -0.3438
 3577SOL     OW21409   2.683   8.312   0.255 -0.3093 -0.4936  0.3881
 3577SOL    HW121410   2.692   8.409   0.276 -1.7174 -0.1507 -0.5148
 3577SOL    HW221411   2.661   8.301   0.158  0.2726 -1.7445  0.3841
 3578SOL     OW21412   2.371   3.240   3.909 -0.4669 -0.1732 -0.0408
 3578SOL    HW121413   2.470   3.251   3.911 -0.1724 -2.2222 -1.2083
 3578SOL    HW221414   2.332   3.300   3.838 -0.0034  0.2623  0.0752
 3579SOL     OW21415   9.546   8.428   1.047  0.0390  0.6351 -0.0263
 3579SOL    HW121416   9.624   8.417   1.108 -1.4842 -0.3728  1.8038
 3579SOL    HW221417   9.534   8.525   1.024 -0.1219  1.2051  2.3340
 3580SOL     OW21418   9.027   2.858   3.007 -0.1499 -0.5893  0.0198
 3580SOL    HW121419   9.113   2.810   2.991 -0.7504 -1.5056 -0.5333
 3580SOL    HW221420   9.010   2.923   2.932  0.7896  0.7003  0.9017
 3581SOL     OW21421   4.684   3.784   3.476 -0.7095  0.3196  0.5933
 3581SOL    HW121422   4.620   3.713   3.445  0.6550  0.1568 -1.9751
 3581SOL    HW221423   4.773   3.742   3.493 -0.4649  1.0629  1.1231
 3582SOL     OW21424   3.352   2.138   3.875  0.0779  0.0208  0.5506
 3582SOL    HW121425   3.266   2.162   3.830  1.0758  2.5110 -0.0783
 3582SOL    HW221426   3.426   2.197   3.841  2.5228 -3.4567 -0.5326
 3583SOL     OW21427   3.191   1.405   0.654  0.1993  0.2160 -0.5278
 3583SOL    HW121428   3.166   1.412   0.751 -0.0655  0.7539 -0.6342
 3583SOL    HW221429   3.119   1.356   0.604 -0.5806  1.5945 -0.7982
 3584SOL     OW21430   3.199   0.305   4.683  0.2952  0.1631 -0.5400
 3584SOL    HW121431   3.110   0.318   4.640  0.3249  0.0214 -0.6466
 3584SOL    HW221432   3.190   0.244   4.761  0.1986  0.6231 -0.1933
 3585SOL     OW21433   3.921   2.286   1.855  0.3998  0.1702  0.0033
 3585SOL    HW121434   3.990   2.337   1.905  1.1407 -0.5376 -0.2718
 3585SOL    HW221435   3.860   2.239   1.919 -0.5457  1.7230  0.2586
 3586SOL     OW21436   9.696   1.519   1.337  0.0068 -0.1230  0.0052
 3586SOL    HW121437   9.680   1.591   1.405  1.1353 -1.0075  1.2370
 3586SOL    HW221438   9.610   1.470   1.320 -0.5115  0.7592  0.0120
 3587SOL     OW21439   8.907   3.086   3.748 -0.8036  0.2630 -0.0405
 3587SOL    HW121440   8.875   3.093   3.653 -1.8033  2.2275  0.4159
 3587SOL    HW221441   9.005   3.105   3.751 -0.8275  0.5013 -0.6410
 3588SOL     OW21442   4.215   0.734   2.488 -0.2212 -0.0337  0.2969
 3588SOL    HW121443   4.187   0.825   2.518 -0.5057 -0.0839  0.1856
 3588SOL    HW221444   4.247   0.682   2.566  0.0841  0.2122  0.3381
 3589SOL     OW21445   0.345   5.896   1.371  0.1201 -0.2841  0.0485
 3589SOL    HW121446   0.290   5.897   1.455 -0.0052 -1.4279 -0.0171
 3589SOL    HW221447   0.441   5.909   1.395 -0.0401  0.5528  0.2648
 3590SOL     OW21448   2.339   6.235   1.859 -0.3440 -0.2564  0.2934
 3590SOL    HW121449   2.296   6.213   1.772 -0.0795 -1.1456  0.3817
 3590SOL    HW221450   2.357   6.151   1.909 -1.2144  0.2984  1.5581
 3591SOL     OW21451   0.489   6.766   0.285  0.0461 -0.2865 -0.2784
 3591SOL    HW121452   0.411   6.787   0.225  0.4333 -0.1420 -0.7402
 3591SOL    HW221453   0.568   6.821   0.256 -0.1935  0.9271  1.3299
 3592SOL     OW21454   9.150   4.154   4.744 -0.9427  0.0679  0.3918
 3592SOL    HW121455   9.217   4.087   4.776 -0.9530  0.4299  1.1715
 3592SOL    HW221456   9.182   4.195   4.659 -1.1757 -1.3013 -0.3778
 3593SOL     OW21457   3.769   3.280   1.661 -0.4127 -0.2234 -0.4642
 3593SOL    HW121458   3.669   3.285   1.662 -0.4157 -0.3158 -0.2836
 3593SOL    HW221459   3.799   3.210   1.596 -0.4564  0.0160 -0.7444
 3594SOL     OW21460   8.187   0.819   1.629  0.1107 -0.9263 -0.3624
 3594SOL    HW121461   8.142   0.734   1.657 -3.3287  1.2795  1.3009
 3594SOL    HW221462   8.271   0.831   1.682 -0.5937 -2.1818  1.1071
 3595SOL     OW21463   9.360   4.661   1.370  0.3925  0.0356  0.5077
 3595SOL    HW121464   9.454   4.650   1.336 -0.4482 -0.2088 -1.7958
 3595SOL    HW221465   9.318   4.571   1.383 -0.3258  0.1874 -0.7542
 3596SOL     OW21466   3.369   5.296   4.588  0.0481  0.6794  0.7546
 3596SOL    HW121467   3.404   5.369   4.529  0.6365  0.3586  0.7138
 3596SOL    HW221468   3.382   5.321   4.684  1.0658  0.2318  0.7383
 3597SOL     OW21469   9.035   2.664   2.435 -0.4052  0.2665 -0.2796
 3597SOL    HW121470   8.988   2.633   2.517  0.0107  1.4056  0.4022
 3597SOL    HW221471   8.998   2.617   2.355 -1.0836 -0.5558  0.5100
 3598SOL     OW21472   0.573   0.538   3.374 -0.5851 -0.3377  0.1490
 3598SOL    HW121473   0.475   0.532   3.358 -0.7856 -1.6259  1.6523
 3598SOL    HW221474   0.591   0.527   3.472  1.1671 -1.7986 -0.3047
 3599SOL     OW21475   7.348   0.561   3.566  0.0998  0.0371  0.2728
 3599SOL    HW121476   7.307   0.594   3.651 -0.3370 -1.2476  0.5760
 3599SOL    HW221477   7.330   0.625   3.492 -2.2879 -0.4107  0.4418
 3600SOL     OW21478   3.895   0.039   4.147  0.4146  0.1153  0.7506
 3600SOL    HW121479   3.817  -0.015   4.112 -0.6253  1.0702  1.5690
 3600SOL    HW221480   3.900   0.125   4.097 -0.2420  0.8914  2.0107
 3601SOL     OW21481   2.713   4.754   1.651  0.0205  0.2538  0.0144
 3601SOL    HW121482   2.650   4.677   1.646 -1.3447  1.4919 -3.1590
 3601SOL    HW221483   2.680   4.818   1.721  0.2314 -1.2024  1.4707
 3602SOL     OW21484   2.048   3.184   3.632  0.1772 -0.3214 -0.1257
 3602SOL    HW121485   2.116   3.139   3.575 -1.0903 -0.3563 -1.6529
 3602SOL    HW221486   1.980   3.117   3.662 -0.2339  0.0571 -0.1980
 3603SOL     OW21487   2.620   6.305   0.744 -0.2820  0.2732  0.9177
 3603SOL    HW121488   2.536   6.256   0.767  0.5676 -2.1438 -0.8107
 3603SOL    HW221489   2.698   6.256   0.783  0.5749  0.4066 -0.5880
 3604SOL     OW21490   2.814   9.511   1.796  0.0836  0.2058  0.0987
 3604SOL    HW121491   2.785   9.422   1.761  0.4627 -0.2473  0.9144
 3604SOL    HW221492   2.891   9.498   1.860  1.3353  1.2796 -1.1679
 3605SOL     OW21493   3.395   1.882   0.561 -0.6251 -0.6218 -0.4564
 3605SOL    HW121494   3.380   1.784   0.575 -1.9589 -0.6527 -1.9593
 3605SOL    HW221495   3.311   1.932   0.581  0.0994  0.2436  0.4718
 3606SOL     OW21496   0.302   5.266   1.994  0.1778  0.0093  0.1164
 3606SOL    HW121497   0.343   5.332   2.056 -0.5027 -0.2316  0.8275
 3606SOL    HW221498   0.214   5.299   1.963 -0.0292 -0.4255  0.2352
 3607SOL     OW21499   0.572   8.313   2.773 -0.2313  0.4055  0.6352
 3607SOL    HW121500   0.636   8.238   2.789 -2.0803 -1.5176 -0.5864
 3607SOL    HW221501   0.508   8.319   2.849  0.5328  1.4291  1.2089
 3608SOL     OW21502   4.473   9.536   0.935  0.7170  0.0848  0.2757
 3608SOL    HW121503   4.463   9.626   0.892  1.2218  0.0953  0.1768
 3608SOL    HW221504   4.569   9.509   0.933  0.0240 -2.5341 -3.8734
 3609SOL     OW21505   2.454   4.608   3.637  0.5894 -0.1185 -0.0681
 3609SOL    HW121506   2.433   4.526   3.690  1.8449 -1.5914 -1.7902
 3609SOL    HW221507   2.462   4.687   3.699  0.0900 -1.4188  1.6789
 3610SOL     OW21508   3.666   7.470   1.130  0.0239 -0.0392  0.0702
 3610SOL    HW121509   3.676   7.444   1.034 -0.4665 -0.4934  0.1375
 3610SOL    HW221510   3.670   7.570   1.138  1.5897 -0.0758 -0.2307
 3611SOL     OW21511   4.347   1.721   2.915 -0.0900 -0.3020 -0.2466
 3611SOL    HW121512   4.438   1.679   2.923  0.9951  1.9425 -0.3459
 3611SOL    HW221513   4.280   1.664   2.962  1.7528 -0.8723  1.7641
 3612SOL     OW21514   0.762   5.679   2.871 -0.4388  0.1887  0.3180
 3612SOL    HW121515   0.710   5.764   2.863 -1.7198 -0.7006 -0.9466
 3612SOL    HW221516   0.858   5.696   2.846 -0.6428  1.2731  0.2299
 3613SOL     OW21517   3.086   7.758   2.036  0.0438  0.6730 -0.2698
 3613SOL    HW121518   3.120   7.851   2.028  1.0099  0.3309 -0.1859
 3613SOL    HW221519   3.143   7.696   1.981  0.0612 -0.0252  0.5177
 3614SOL     OW21520   2.274   2.181   3.746  0.5401 -0.3422 -0.2957
 3614SOL    HW121521   2.285   2.085   3.722  0.7729 -0.4182  0.1166
 3614SOL    HW221522   2.364   2.224   3.751  0.3982  0.0720 -1.2063
 3615SOL     OW21523   1.774   9.016   0.034  0.0887  0.0314 -0.9894
 3615SOL    HW121524   1.768   9.043   0.130  0.6816 -0.1566 -0.8977
 3615SOL    HW221525   1.870   9.010   0.007 -0.0151 -2.1041 -0.9777
 3616SOL     OW21526   2.461   9.850   4.641 -0.3129  0.1019 -0.1556
 3616SOL    HW121527   2.501   9.764   4.671 -0.2393  0.3533  0.4753
 3616SOL    HW221528   2.365   9.835   4.617  0.1585 -0.4996 -1.6870
 3617SOL     OW21529   2.251   9.184   2.342 -0.1272  0.2335 -0.3521
 3617SOL    HW121530   2.290   9.117   2.405  0.5743  1.5343  0.6309
 3617SOL    HW221531   2.193   9.247   2.393 -1.1665  0.0846 -1.3453
 3618SOL     OW21532   4.615   1.746   0.107  0.0159 -0.6753 -0.1167
 3618SOL    HW121533   4.672   1.663   0.105 -0.2724 -0.9786  2.5439
 3618SOL    HW221534   4.651   1.809   0.175 -0.9311  0.5727 -0.7498
 3619SOL     OW21535   8.677   2.418   4.120  0.6606  0.1057 -0.2116
 3619SOL    HW121536   8.749   2.485   4.140  0.4157  0.1069  0.6863
 3619SOL    HW221537   8.654   2.423   4.023  0.1051  1.8781 -0.0076
 3620SOL     OW21538   8.623   8.870   4.167 -0.2804  0.2936 -0.0428
 3620SOL    HW121539   8.564   8.848   4.090  0.6824  0.2562 -0.7754
 3620SOL    HW221540   8.576   8.845   4.252 -1.0445 -0.3711 -0.6423
 3621SOL     OW21541   7.189   7.187   2.151  0.2256  0.2830 -0.4570
 3621SOL    HW121542   7.110   7.248   2.159  0.2526  0.4455 -1.4164
 3621SOL    HW221543   7.238   7.206   2.067  1.4827  0.3865  0.2929
 3622SOL     OW21544   2.224   9.677   0.618  0.0287  0.3381 -0.7087
 3622SOL    HW121545   2.125   9.667   0.627  0.1403 -0.1827 -0.0040
 3622SOL    HW221546   2.267   9.669   0.708  0.7655 -0.0499 -1.0864
 3623SOL     OW21547   9.383   7.995   4.067  0.5052  0.3749  0.3067
 3623SOL    HW121548   9.354   8.090   4.052 -0.4255 -0.0011 -0.2602
 3623SOL    HW221549   9.392   7.949   3.978  1.0584 -0.0427  0.5789
 3624SOL     OW21550   2.217   3.843   0.444 -0.0590 -0.1957  0.1684
 3624SOL    HW121551   2.224   3.943   0.443  1.4355 -0.2776 -0.2496
 3624SOL    HW221552   2.309   3.804   0.445 -0.6370 -1.5734  1.2571
 3625SOL     OW21553   2.288   6.114   4.200  0.2318 -0.4616  0.0868
 3625SOL    HW121554   2.289   6.119   4.300 -0.3167  0.5150  0.0507
 3625SOL    HW221555   2.217   6.050   4.171  2.3877 -3.0791  0.3784
 3626SOL     OW21556   9.058   3.522   2.277 -0.2118 -0.3194  0.1772
 3626SOL    HW121557   8.984   3.549   2.339 -1.4248 -0.3866 -1.2167
 3626SOL    HW221558   9.048   3.571   2.191  0.8254 -1.0478 -0.3594
 3627SOL     OW21559   1.623   8.336   3.351 -0.5155 -0.0723 -0.0324
 3627SOL    HW121560   1.589   8.247   3.319  2.7124 -1.0860 -0.9009
 3627SOL    HW221561   1.586   8.409   3.294 -2.0809 -1.0001 -0.2224
 3628SOL     OW21562   4.296   4.317   3.934  0.2127  0.2759  0.3003
 3628SOL    HW121563   4.259   4.352   4.020 -2.8734  2.3090 -1.7864
 3628SOL    HW221564   4.229   4.259   3.889  2.0895 -1.3980 -0.4465
 3629SOL     OW21565   4.548   0.526   3.256  0.2182 -0.4904 -0.0680
 3629SOL    HW121566   4.525   0.620   3.280  0.0916 -1.0547  2.0600
 3629SOL    HW221567   4.647   0.519   3.240  0.3246 -0.1604  0.4487
 3630SOL     OW21568   4.624   3.439   4.196 -0.3467 -0.4578  0.6324
 3630SOL    HW121569   4.706   3.496   4.194 -1.4000  1.0648  0.2636
 3630SOL    HW221570   4.620   3.391   4.283  1.7630 -1.8080  0.0359
 3631SOL     OW21571   1.674   8.366   2.994 -0.6257 -0.2569  0.1795
 3631SOL    HW121572   1.736   8.444   2.997  1.2538 -1.6735 -0.6195
 3631SOL    HW221573   1.718   8.287   3.036 -2.2352 -1.0740  0.3636
 3632SOL     OW21574   0.825   1.460   4.163  0.5706 -0.4253 -0.2728
 3632SOL    HW121575   0.833   1.539   4.103  1.8480  1.4813  2.3322
 3632SOL    HW221576   0.908   1.405   4.157  1.3900  0.6479  0.9133
 3633SOL     OW21577   3.831   2.142   2.502 -0.2969 -0.4611  0.2541
 3633SOL    HW121578   3.758   2.143   2.570 -1.1379  1.0662 -0.6657
 3633SOL    HW221579   3.811   2.073   2.432 -0.9059 -0.0012 -0.0305
 3634SOL     OW21580   0.441   5.338   3.561  0.0949  0.0788 -0.6426
 3634SOL    HW121581   0.512   5.284   3.515 -1.4144 -1.0751 -1.6679
 3634SOL    HW221582   0.379   5.277   3.611  0.8291  1.2017  1.7400
 3635SOL     OW21583   8.979   7.286   3.897 -0.5790 -0.1605 -0.0169
 3635SOL    HW121584   9.001   7.380   3.869  0.5442 -0.4096  0.0111
 3635SOL    HW221585   8.936   7.238   3.820 -0.3038  0.0907 -0.3304
 3636SOL     OW21586   5.362   0.338   1.990 -0.3905  0.1448 -0.3147
 3636SOL    HW121587   5.365   0.434   2.019  0.2488 -0.0245  0.2090
 3636SOL    HW221588   5.380   0.280   2.069  0.2967 -0.3670 -0.8485
 3637SOL     OW21589   3.647   1.314   1.571 -0.2767  0.0226 -0.2243
 3637SOL    HW121590   3.551   1.320   1.542 -1.2399 -4.2543  1.5033
 3637SOL    HW221591   3.657   1.356   1.661 -0.8302 -0.6308  0.1457
 3638SOL     OW21592   4.905   9.590   3.629 -0.0806 -0.6291  0.4178
 3638SOL    HW121593   5.002   9.612   3.622 -0.0167 -1.3310 -1.0523
 3638SOL    HW221594   4.859   9.609   3.542 -2.0166  3.1591  2.1415
 3639SOL     OW21595   0.927   4.691   4.720 -0.3819 -0.1644 -0.0938
 3639SOL    HW121596   1.012   4.738   4.698 -0.8043  0.1636 -1.0353
 3639SOL    HW221597   0.850   4.751   4.702 -0.8188 -0.4440  0.7961
 3640SOL     OW21598   2.068   2.592   3.723  0.0382 -0.8507 -0.3512
 3640SOL    HW121599   2.051   2.686   3.692 -3.0433 -1.5301 -0.9676
 3640SOL    HW221600   2.109   2.540   3.649 -1.4837 -0.8483 -1.2273
 3641SOL     OW21601   0.861   7.913   3.780 -0.2213  0.0237  0.5578
 3641SOL    HW121602   0.812   7.879   3.700 -1.5244  1.6798  0.6248
 3641SOL    HW221603   0.800   7.969   3.835  1.1542  0.3240  1.8088
 3642SOL     OW21604   8.057   5.657   4.074  0.6173 -0.1769  0.0852
 3642SOL    HW121605   8.148   5.633   4.042  0.5424 -0.3318 -0.0124
 3642SOL    HW221606   8.063   5.736   4.136  0.6280  0.8084 -1.1617
 3643SOL     OW21607   6.590   9.757   4.690  0.3618  0.6750  0.1586
 3643SOL    HW121608   6.659   9.739   4.760  0.1820  2.2217  0.7653
 3643SOL    HW221609   6.565   9.672   4.644  1.2428 -0.1910  1.2648
 3644SOL     OW21610   1.640   1.066   3.285  0.3575 -0.1754  0.0989
 3644SOL    HW121611   1.545   1.058   3.315  0.7883 -1.3549  1.2091
 3644SOL    HW221612   1.697   1.093   3.363  0.9395  0.5163 -0.5581
 3645SOL     OW21613   7.916   6.886   2.209 -0.2627  0.1322 -0.0530
 3645SOL    HW121614   7.920   6.886   2.109  0.2666  0.6764 -0.0350
 3645SOL    HW221615   7.867   6.968   2.240 -1.3295 -0.5464  0.1075
 3646SOL     OW21616   1.788   2.939   0.577 -0.9720 -0.4251 -0.3416
 3646SOL    HW121617   1.804   2.934   0.676 -0.2267 -0.7809 -0.4703
 3646SOL    HW221618   1.817   2.852   0.536 -0.0883  0.1888 -1.0282
 3647SOL     OW21619   4.114   7.940   2.033 -0.2727 -0.2676  0.3739
 3647SOL    HW121620   4.123   7.997   1.952  1.5242 -1.2037 -0.0977
 3647SOL    HW221621   4.030   7.885   2.026 -0.0502 -0.4544 -0.9127
 3648SOL     OW21622   0.955   6.110   4.409 -0.0261  0.2087 -0.3903
 3648SOL    HW121623   0.873   6.052   4.409 -0.7113  1.1358  1.9609
 3648SOL    HW221624   0.969   6.148   4.318 -1.8993 -0.4155 -0.9543
 3649SOL     OW21625   0.503   4.403   3.031 -0.2882 -0.6250 -0.1624
 3649SOL    HW121626   0.530   4.465   2.957  0.8747 -0.4906  0.3578
 3649SOL    HW221627   0.476   4.456   3.111  0.9115 -0.7744  0.3538
 3650SOL     OW21628   0.480   9.253   3.102 -0.1959  0.1670 -0.0390
 3650SOL    HW121629   0.504   9.350   3.098  1.4591 -0.2666 -0.9416
 3650SOL    HW221630   0.385   9.242   3.072 -0.4478  1.5224  0.2130
 3651SOL     OW21631   3.962   1.290   4.166 -0.5274 -0.0157  1.0480
 3651SOL    HW121632   3.866   1.274   4.144 -0.6072  1.7858 -0.0128
 3651SOL    HW221633   3.990   1.379   4.131  1.6987 -0.7602  0.8185
 3652SOL     OW21634   2.512   7.041   0.389  0.4005 -0.2042  0.4704
 3652SOL    HW121635   2.570   6.986   0.449  0.3717 -0.9589 -0.1857
 3652SOL    HW221636   2.489   6.988   0.307  1.2746  1.1655 -0.6787
 3653SOL     OW21637   4.419   8.984   0.871 -0.3165 -0.2115 -0.6521
 3653SOL    HW121638   4.363   8.926   0.930 -1.4197 -1.6489 -3.0654
 3653SOL    HW221639   4.501   8.933   0.844 -0.1360  0.2094 -0.8879
 3654SOL     OW21640   1.059   1.363   4.139  0.1028 -0.3959 -0.4541
 3654SOL    HW121641   1.087   1.276   4.180  1.1083  0.0014 -0.2757
 3654SOL    HW221642   1.140   1.413   4.109 -0.4236  0.7693  0.0367
 3655SOL     OW21643   0.233   0.327   4.534  0.2120  0.1089  0.3816
 3655SOL    HW121644   0.310   0.384   4.563  1.5549 -0.2507 -2.2832
 3655SOL    HW221645   0.226   0.329   4.435 -2.0164 -1.4626  0.4732
 3656SOL     OW21646   3.794   2.466   3.654  0.0887 -0.5766  0.0109
 3656SOL    HW121647   3.747   2.420   3.578  1.0288  0.0830 -0.9842
 3656SOL    HW221648   3.869   2.521   3.618  0.1029  0.3082  1.3615
 3657SOL     OW21649   0.257   4.926   2.729 -0.1336 -0.4004 -0.6383
 3657SOL    HW121650   0.169   4.902   2.769 -0.2969 -1.7611 -1.8040
 3657SOL    HW221651   0.266   5.026   2.725 -1.7601 -0.2592 -0.8343
 3658SOL     OW21652   2.402   0.469   3.677  0.7218 -0.5704 -0.6286
 3658SOL    HW121653   2.470   0.451   3.748  1.1442 -0.7409 -1.0691
 3658SOL    HW221654   2.332   0.531   3.712  0.7790 -0.8685  0.0178
 3659SOL     OW21655   9.556   0.893   1.215 -0.4660  0.0881  0.5378
 3659SOL    HW121656   9.467   0.939   1.220  0.6291  2.4398 -0.6721
 3659SOL    HW221657   9.579   0.876   1.119 -0.5672 -2.5057  0.9438
 3660SOL     OW21658   2.666   5.432   0.721 -0.1375 -0.1007 -0.2700
 3660SOL    HW121659   2.717   5.489   0.656 -0.5410  1.8187  1.0489
 3660SOL    HW221660   2.731   5.385   0.781  0.1779 -0.2002 -0.6865
 3661SOL     OW21661   2.509   9.094   3.854  0.1335 -0.0708 -0.4471
 3661SOL    HW121662   2.555   9.037   3.787  0.1679  0.3367 -0.7718
 3661SOL    HW221663   2.413   9.068   3.860  0.3467 -0.7613  0.0578
 3662SOL     OW21664   2.367   9.861   3.988  0.4002 -0.1295  0.4044
 3662SOL    HW121665   2.392   9.930   3.919  0.4227  0.1830  0.7218
 3662SOL    HW221666   2.274   9.879   4.021  0.9332  0.6097  1.5292
 3663SOL     OW21667   8.349   3.267   2.632 -0.2325  0.0914  0.4074
 3663SOL    HW121668   8.382   3.236   2.543 -0.3958 -1.9897  1.0584
 3663SOL    HW221669   8.399   3.349   2.659  1.2456 -0.4352 -0.6744
 3664SOL     OW21670   9.734   4.259   0.209 -0.0339  0.5026  0.4281
 3664SOL    HW121671   9.642   4.261   0.172  0.3912  1.6844 -0.6110
 3664SOL    HW221672   9.748   4.175   0.261 -1.7965  0.4767  0.8722
 3665SOL     OW21673   3.406   0.697   3.193  0.0691 -0.0660 -0.0750
 3665SOL    HW121674   3.318   0.708   3.239  1.2981  0.2702  2.2730
 3665SOL    HW221675   3.405   0.614   3.137 -1.7978  0.0563 -0.2458
 3666SOL     OW21676   2.242   6.438   1.282 -0.1261 -0.0475 -0.2443
 3666SOL    HW121677   2.303   6.472   1.210 -1.8252 -0.1329 -1.7613
 3666SOL    HW221678   2.152   6.480   1.271 -0.8674 -1.3335  0.8460
 3667SOL     OW21679   9.504   9.605   4.462 -0.1027 -0.2463  0.2673
 3667SOL    HW121680   9.414   9.601   4.506 -0.6188  0.7915 -0.6922
 3667SOL    HW221681   9.535   9.512   4.442 -0.2373 -0.6912  2.0561
 3668SOL     OW21682   9.637   5.076   1.757  0.3426 -0.0138  1.0804
 3668SOL    HW121683   9.654   5.168   1.722 -0.6901 -0.0420  0.4740
 3668SOL    HW221684   9.723   5.031   1.778  0.9403  0.2995 -0.6676
 3669SOL     OW21685   4.545   9.371   0.459  0.1511 -0.4505 -0.0258
 3669SOL    HW121686   4.534   9.327   0.548  1.5760 -0.1632  0.2934
 3669SOL    HW221687   4.566   9.468   0.472  0.3442 -0.4022 -0.6829
 3670SOL     OW21688   4.483   7.746   4.367 -0.0801  0.3165 -0.1296
 3670SOL    HW121689   4.473   7.723   4.271 -1.5441 -0.7658  0.2572
 3670SOL    HW221690   4.409   7.809   4.394 -0.5745 -0.5773  0.6373
 3671SOL     OW21691   2.234   6.590   1.511 -0.3117  0.0406  0.6185
 3671SOL    HW121692   2.262   6.674   1.465  0.2070 -0.6089 -0.2633
 3671SOL    HW221693   2.230   6.515   1.445  3.0398 -1.5050  2.0638
 3672SOL     OW21694   9.734   2.435   3.148  0.1210 -0.2221  0.1396
 3672SOL    HW121695   9.807   2.383   3.193 -0.4073 -0.9486  0.1658
 3672SOL    HW221696   9.708   2.513   3.205  1.5478  0.6124 -0.3158
 3673SOL     OW21697   0.601   0.980   2.614  0.0415 -0.1753 -0.3866
 3673SOL    HW121698   0.701   0.984   2.610  0.0782  1.0379  1.2946
 3673SOL    HW221699   0.573   0.908   2.676 -0.1174  0.1784 -0.0486
 3674SOL     OW21700   8.034   5.635   2.374 -0.1787  0.0968  0.0444
 3674SOL    HW121701   8.048   5.715   2.315 -1.4497  0.4343  0.1836
 3674SOL    HW221702   8.050   5.661   2.469 -0.2488  0.1000  0.0560
 3675SOL     OW21703   0.263   2.031   3.514  0.1031  0.3817  0.0564
 3675SOL    HW121704   0.260   2.126   3.484  2.2390  1.2383  2.4059
 3675SOL    HW221705   0.192   2.015   3.583  0.3632  0.5380  0.3619
 3676SOL     OW21706   1.050   0.978   3.724  0.6027 -0.3709 -0.0860
 3676SOL    HW121707   1.006   1.066   3.739  0.6509 -0.4817  0.7111
 3676SOL    HW221708   1.024   0.943   3.634 -1.1873 -0.5880  0.5134
 3677SOL     OW21709   2.383   3.434   3.200  0.3666  0.2342 -0.0277
 3677SOL    HW121710   2.313   3.500   3.173  0.2053  0.6692  1.3922
 3677SOL    HW221711   2.349   3.379   3.276  1.3362  0.0509  0.2863
 3678SOL     OW21712   1.928   8.598   1.820 -0.2805 -0.2084  0.5529
 3678SOL    HW121713   2.010   8.603   1.877  0.6128  2.3549 -0.8205
 3678SOL    HW221714   1.865   8.671   1.846  0.2329  1.1306 -1.7887
 3679SOL     OW21715   1.424   1.603   4.519  0.5445  0.0796 -0.9240
 3679SOL    HW121716   1.445   1.516   4.475  0.5950 -0.9251  1.0364
 3679SOL    HW221717   1.325   1.610   4.534  0.6381 -0.0511 -0.2431
 3680SOL     OW21718   3.323   4.211   1.511 -0.0684 -0.5891 -0.1525
 3680SOL    HW121719   3.359   4.284   1.569 -0.8306  0.5295 -1.0626
 3680SOL    HW221720   3.225   4.201   1.528 -0.1515 -0.7409 -0.7028
 3681SOL     OW21721   8.715   7.990   2.688 -0.5845  0.0914 -0.3218
 3681SOL    HW121722   8.631   7.938   2.676 -0.5834 -0.0424  0.2614
 3681SOL    HW221723   8.789   7.945   2.639 -0.1867 -1.4250  1.6263
 3682SOL     OW21724   9.497   2.510   4.746 -0.2883  0.4802  0.3406
 3682SOL    HW121725   9.479   2.553   4.834 -1.3915 -1.0233  0.8659
 3682SOL    HW221726   9.518   2.581   4.678 -2.8685  1.9449  0.9862
 3683SOL     OW21727   1.521   2.085   2.536 -0.0333 -0.0863  0.7213
 3683SOL    HW121728   1.512   1.986   2.546 -1.9593 -0.0481 -0.4050
 3683SOL    HW221729   1.499   2.129   2.623 -1.3439 -0.5453  0.6334
 3684SOL     OW21730   2.992   9.446   0.923  0.0989 -0.3894 -0.4781
 3684SOL    HW121731   3.050   9.369   0.894  1.3917  0.6508 -0.6788
 3684SOL    HW221732   2.957   9.429   1.015  0.1332 -1.3477 -0.6356
 3685SOL     OW21733   4.157   5.313   1.387  0.0448 -0.1866  0.5394
 3685SOL    HW121734   4.188   5.380   1.455  0.4831 -0.2529  0.4069
 3685SOL    HW221735   4.236   5.271   1.343 -0.2297 -0.9388  0.7577
 3686SOL     OW21736   4.283   2.437   1.253  0.0980 -0.1818 -0.1554
 3686SOL    HW121737   4.200   2.491   1.258  0.5114  0.5598 -1.1203
 3686SOL    HW221738   4.260   2.339   1.254 -0.6911  0.0099  0.7995
 3687SOL     OW21739   4.250   1.172   2.263  0.0026  0.0994  0.1155
 3687SOL    HW121740   4.192   1.205   2.188  1.3794  2.1233 -0.0992
 3687SOL    HW221741   4.328   1.122   2.226  1.0979  1.7658  0.1393
 3688SOL     OW21742   8.495   5.800   1.505  0.6144 -0.0366 -0.6226
 3688SOL    HW121743   8.580   5.846   1.527 -0.5323  1.9112 -0.1275
 3688SOL    HW221744   8.419   5.864   1.513 -1.0190 -1.9653 -0.1584
 3689SOL     OW21745   2.694   6.633   1.242  0.3128 -0.3216 -0.0365
 3689SOL    HW121746   2.641   6.549   1.248  1.3814 -0.9964  0.1114
 3689SOL    HW221747   2.650   6.696   1.179 -0.5958 -0.9174 -0.0053
 3690SOL     OW21748   3.746   1.836   3.937  0.1734 -0.1622 -0.2987
 3690SOL    HW121749   3.683   1.843   3.860  0.4150  1.6633 -0.3585
 3690SOL    HW221750   3.817   1.768   3.916  0.2378  0.3218 -1.6970
 3691SOL     OW21751   3.909   1.472   1.004 -0.3034 -0.7364  0.6739
 3691SOL    HW121752   3.991   1.464   0.948 -0.5147 -1.2326  0.4389
 3691SOL    HW221753   3.833   1.423   0.961 -0.7147 -0.3159  0.9110
 3692SOL     OW21754   3.161   7.911   1.344 -0.4753  0.1079  0.1990
 3692SOL    HW121755   3.075   7.876   1.307  0.9468 -1.5961 -1.5756
 3692SOL    HW221756   3.225   7.928   1.270 -0.1532  3.9857  1.2605
 3693SOL     OW21757   4.046   4.791   2.746 -0.1776  0.2694  0.0039
 3693SOL    HW121758   4.013   4.878   2.708 -0.3492 -0.4928 -1.6381
 3693SOL    HW221759   4.117   4.754   2.687 -0.8349 -1.2275  0.1359
 3694SOL     OW21760   1.994   5.714   4.503  0.3396 -0.2345  0.6875
 3694SOL    HW121761   1.987   5.653   4.582 -1.1870 -1.4737 -0.3694
 3694SOL    HW221762   2.046   5.670   4.431  0.9195  0.5188  0.6370
 3695SOL     OW21763   9.537   8.135   2.246 -0.3573 -0.2093  0.5049
 3695SOL    HW121764   9.518   8.115   2.150  0.0124  0.4904  0.2815
 3695SOL    HW221765   9.455   8.172   2.289 -0.3899 -0.0805  0.3357
 3696SOL     OW21766   4.532   8.271   0.930 -0.0857 -0.0615  0.3871
 3696SOL    HW121767   4.516   8.173   0.942 -1.3747  0.2024  0.8991
 3696SOL    HW221768   4.619   8.285   0.883  0.1167 -1.4503  0.3287
 3697SOL     OW21769   7.568   1.869   1.913 -0.1895  0.2570 -0.3590
 3697SOL    HW121770   7.630   1.797   1.945  0.4782  0.4643 -1.1744
 3697SOL    HW221771   7.595   1.898   1.821 -2.3565 -0.6334 -1.2947
 3698SOL     OW21772   9.782   4.014   2.803 -0.0702  0.4793  0.2254
 3698SOL    HW121773   9.879   4.032   2.820  0.2529 -0.9274 -0.1409
 3698SOL    HW221774   9.760   3.920   2.829 -1.5058  1.0068  1.0053
 3699SOL     OW21775   9.317   7.271   3.793 -0.1836 -0.4923  0.4558
 3699SOL    HW121776   9.274   7.186   3.822 -0.8440 -0.5435 -0.6670
 3699SOL    HW221777   9.248   7.342   3.783 -0.0881 -0.6673 -1.6847
 3700SOL     OW21778   4.905   1.686   3.888  0.0048  0.4141  0.3562
 3700SOL    HW121779   4.976   1.750   3.860 -1.8015  1.1508 -2.8132
 3700SOL    HW221780   4.897   1.613   3.820 -1.8345  0.0129  0.9552
 3701SOL     OW21781   0.091   1.923   3.700 -0.1594 -0.6753 -0.7681
 3701SOL    HW121782   0.077   1.839   3.648  0.5100 -0.8229 -0.7162
 3701SOL    HW221783   0.104   1.900   3.797  1.4536 -0.6260 -0.9692
 3702SOL     OW21784   5.465   0.705   4.482 -0.2374  0.0167  0.2256
 3702SOL    HW121785   5.425   0.796   4.494  0.1215 -0.0772  2.3186
 3702SOL    HW221786   5.405   0.649   4.425  0.1167  1.9326 -2.0727
 3703SOL     OW21787   3.119   7.499   3.751  0.1237  0.0767 -0.2551
 3703SOL    HW121788   3.134   7.501   3.652 -0.4176  1.6164 -0.3221
 3703SOL    HW221789   3.020   7.504   3.770  0.2677  0.6467  0.3671
 3704SOL     OW21790   9.176   8.146   1.301  0.2627  0.2214  0.9257
 3704SOL    HW121791   9.129   8.211   1.241  0.6098  0.6179  1.0808
 3704SOL    HW221792   9.270   8.177   1.316  0.0723  0.2942  1.9415
 3705SOL     OW21793   7.208   0.443   1.865  0.1749 -0.3411 -0.1705
 3705SOL    HW121794   7.300   0.404   1.873 -0.1890 -1.1523  0.1084
 3705SOL    HW221795   7.200   0.523   1.924  0.5221 -0.6138  0.2458
 3706SOL     OW21796   0.749   1.746   4.378 -0.2794  0.3686  0.0352
 3706SOL    HW121797   0.745   1.846   4.383 -0.1549  0.3436  0.7546
 3706SOL    HW221798   0.700   1.714   4.297  1.6636  1.1411 -1.4584
 3707SOL     OW21799   7.202   9.825   1.012 -0.0224  0.1713  0.0769
 3707SOL    HW121800   7.109   9.862   1.011  0.1337  0.5517 -0.8233
 3707SOL    HW221801   7.211   9.754   0.943  0.4975  0.4898 -0.1872
 3708SOL     OW21802   0.839   5.068   2.383  1.0642  0.1819  0.0383
 3708SOL    HW121803   0.777   5.108   2.315  2.0367 -0.1169 -1.0532
 3708SOL    HW221804   0.787   5.041   2.464 -0.4390 -1.0834 -1.3023
 3709SOL     OW21805   8.287   1.639   0.883  0.5344 -0.3925  0.4561
 3709SOL    HW121806   8.376   1.684   0.874 -0.8404  2.2988 -0.2132
 3709SOL    HW221807   8.287   1.582   0.965  2.8602 -0.4293  0.4640
 3710SOL     OW21808   4.304   4.398   4.237 -0.7363 -0.3560  0.0609
 3710SOL    HW121809   4.375   4.333   4.263 -1.9184 -1.6264  0.1638
 3710SOL    HW221810   4.220   4.378   4.287 -1.4664  0.4909 -0.8054
 3711SOL     OW21811   1.649   6.760   4.464 -0.0490  0.0862 -0.5746
 3711SOL    HW121812   1.652   6.673   4.514  1.0743  0.3242 -0.2211
 3711SOL    HW221813   1.654   6.836   4.529 -0.6056  0.4140 -0.9127
 3712SOL     OW21814   2.074   9.257   3.720 -0.3970  0.4057 -0.3268
 3712SOL    HW121815   2.010   9.253   3.644  0.4192 -0.4905 -0.9682
 3712SOL    HW221816   2.024   9.242   3.806 -1.2518  1.0592 -0.6924
 3713SOL     OW21817   0.949   5.773   3.631  0.4125  0.0274  0.0456
 3713SOL    HW121818   0.946   5.756   3.730 -1.3577 -0.9456 -0.1593
 3713SOL    HW221819   0.888   5.710   3.584  1.3683  0.3702 -1.7121
 3714SOL     OW21820   2.281   4.172   3.895  0.2083  0.1538 -0.2619
 3714SOL    HW121821   2.266   4.263   3.856  2.0144  0.1762 -0.9048
 3714SOL    HW221822   2.263   4.103   3.826 -2.4368 -0.0889  0.5748
 3715SOL     OW21823   7.471   8.536   4.537  0.4719  0.6727  0.1468
 3715SOL    HW121824   7.380   8.518   4.501  0.3061 -1.0230  1.3683
 3715SOL    HW221825   7.504   8.624   4.502 -1.7893  1.4990  0.0355
 3716SOL     OW21826   2.134   4.686   2.862  0.0156  0.5311 -0.2041
 3716SOL    HW121827   2.112   4.599   2.818  0.2885 -0.5157  1.6958
 3716SOL    HW221828   2.231   4.706   2.849 -0.2178  0.9806 -1.3473
 3717SOL     OW21829   9.694   0.403   2.079  0.1475 -0.0009  0.1180
 3717SOL    HW121830   9.674   0.385   1.983 -0.5201 -0.8433  0.4088
 3717SOL    HW221831   9.772   0.347   2.108  1.1465  1.1671 -0.2510
 3718SOL     OW21832   9.300   0.253   1.523  0.0547  0.6236 -0.0765
 3718SOL    HW121833   9.343   0.169   1.557  0.8429  0.9760 -0.1742
 3718SOL    HW221834   9.240   0.232   1.446 -1.3857 -0.1218  1.2218
 3719SOL     OW21835   1.714   4.449   1.453 -0.1406 -0.2262  0.3590
 3719SOL    HW121836   1.673   4.537   1.431  0.8444  0.2999  0.6120
 3719SOL    HW221837   1.806   4.463   1.490  0.2441 -1.3877 -0.1298
 3720SOL     OW21838   9.703   7.985   0.383  0.0249 -0.0187  0.1507
 3720SOL    HW121839   9.677   8.014   0.475 -0.4811 -1.3851  0.4453
 3720SOL    HW221840   9.793   7.941   0.386  0.7978  1.4879 -0.2990
 3721SOL     OW21841   0.546   8.167   2.558  0.1625  0.3162 -0.0119
 3721SOL    HW121842   0.532   8.228   2.636  1.4204 -0.2649  0.6841
 3721SOL    HW221843   0.570   8.076   2.591 -0.1476 -0.1539 -1.0692
 3722SOL     OW21844   2.833   3.432   1.230  0.3027  0.0208 -0.1938
 3722SOL    HW121845   2.818   3.412   1.133 -0.1889 -0.3713 -0.0407
 3722SOL    HW221846   2.929   3.453   1.245  0.1407  1.3988 -0.9988
 3723SOL     OW21847   3.175   8.664   2.373  0.2568 -0.2056 -0.0670
 3723SOL    HW121848   3.094   8.643   2.319  0.3372 -0.4558 -0.0931
 3723SOL    HW221849   3.254   8.616   2.334  0.6408  0.9701 -0.7398
 3724SOL     OW21850   3.378   2.112   3.038  0.0828  0.6314 -0.4275
 3724SOL    HW121851   3.405   2.151   3.126  1.4556 -0.1809 -0.4781
 3724SOL    HW221852   3.297   2.054   3.050  0.5870  0.0918  0.3982
 3725SOL     OW21853   3.161   3.238   1.215 -0.3454 -0.0225  0.7648
 3725SOL    HW121854   3.235   3.237   1.148 -0.2937  0.5469  0.8103
 3725SOL    HW221855   3.108   3.153   1.208 -0.3008  0.0061  0.0464
 3726SOL     OW21856   4.112   9.398   3.040 -0.2113 -0.9085  0.3785
 3726SOL    HW121857   4.194   9.345   3.022 -0.0647 -0.6712  0.3445
 3726SOL    HW221858   4.075   9.374   3.129  1.7866  1.3763  1.9044
 3727SOL     OW21859   9.757   7.511   3.209  0.3410  0.4029  0.5377
 3727SOL    HW121860   9.758   7.602   3.168  1.2609  0.1507 -0.0212
 3727SOL    HW221861   9.663   7.485   3.231 -0.1655  0.5640 -1.3643
 3728SOL     OW21862   3.506   8.610   3.141  0.6239  0.2675  0.0432
 3728SOL    HW121863   3.421   8.612   3.089  1.3625 -1.8574 -1.2747
 3728SOL    HW221864   3.487   8.582   3.235 -0.2584  0.9260  0.0723
 3729SOL     OW21865   0.549   5.554   3.329  0.0717  0.6820 -0.8609
 3729SOL    HW121866   0.503   5.640   3.351  0.7847  0.9683 -0.4547
 3729SOL    HW221867   0.586   5.514   3.413 -0.8759 -0.3824 -0.9532
 3730SOL     OW21868   0.834   8.817   4.621 -0.3766  0.1770  0.2251
 3730SOL    HW121869   0.749   8.767   4.639 -0.7786  0.0620 -1.8023
 3730SOL    HW221870   0.812   8.911   4.594  0.1938  0.3864  0.4769
 3731SOL     OW21871   5.309   9.938   1.894 -0.1120  0.1651  0.0256
 3731SOL    HW121872   5.365   9.927   1.976 -0.8668 -0.0504  0.5138
 3731SOL    HW221873   5.251  10.019   1.904 -0.5614 -0.1416 -0.0837
 3732SOL     OW21874   2.995   9.048   1.012 -0.0065  0.7153 -0.2965
 3732SOL    HW121875   3.024   9.082   0.922  0.1334  2.6551  0.4679
 3732SOL    HW221876   2.999   8.948   1.012 -0.8519  0.6429 -2.7291
 3733SOL     OW21877   5.038   0.981   2.320  0.1117  0.1503  0.4052
 3733SOL    HW121878   4.954   0.936   2.290  0.3233 -0.2574  0.4215
 3733SOL    HW221879   5.067   1.046   2.250  0.1421 -0.1880  0.1002
 3734SOL     OW21880   2.615   9.821   2.096 -0.5408  0.0205 -0.1976
 3734SOL    HW121881   2.562   9.745   2.133  0.4190 -0.1438  0.8519
 3734SOL    HW221882   2.666   9.791   2.016  0.1591 -0.5514  0.4601
 3735SOL     OW21883   3.113   7.667   0.334  0.3281 -0.6504  0.3416
 3735SOL    HW121884   3.120   7.568   0.339  0.4599 -0.6107  0.9033
 3735SOL    HW221885   3.202   7.708   0.354  0.1415 -0.4008  0.6650
 3736SOL     OW21886   1.408   4.724   1.189 -0.0206 -0.0294 -0.3020
 3736SOL    HW121887   1.425   4.696   1.094  2.0859 -0.6640  0.2346
 3736SOL    HW221888   1.495   4.730   1.238 -0.9827  1.4710  1.2790
 3737SOL     OW21889   0.072   3.711   3.528  0.3230 -0.0185  0.3357
 3737SOL    HW121890   0.097   3.614   3.530 -0.7618 -0.2902  1.8044
 3737SOL    HW221891   0.033   3.733   3.438  1.0841 -0.8122 -0.1964
 3738SOL     OW21892   4.111   7.687   3.844  0.5064  0.2858  0.9066
 3738SOL    HW121893   4.187   7.751   3.832  0.6480 -0.2719 -1.4599
 3738SOL    HW221894   4.146   7.594   3.842 -0.3188 -0.0160 -1.3206
 3739SOL     OW21895   0.510   3.945   4.457 -0.1998 -0.1168  0.1926
 3739SOL    HW121896   0.485   3.866   4.514 -0.7091 -0.1564 -0.0788
 3739SOL    HW221897   0.595   3.925   4.408  0.2461 -0.0787  0.9408
 3740SOL     OW21898   2.304   1.518   1.655 -0.0102 -0.0724 -0.3297
 3740SOL    HW121899   2.356   1.591   1.610 -0.2213  1.2371  1.5196
 3740SOL    HW221900   2.290   1.541   1.751 -2.5733 -1.1969 -0.3906
 3741SOL     OW21901   1.918   1.023   3.945  1.0888  0.1902 -0.7408
 3741SOL    HW121902   1.914   0.925   3.963  2.7103  0.1295 -0.6344
 3741SOL    HW221903   1.966   1.069   4.020  1.8581  0.8298 -1.6034
 3742SOL     OW21904   4.307   0.359   0.284  0.0263  0.4604  0.3933
 3742SOL    HW121905   4.309   0.260   0.297  4.2347  0.6302  1.6998
 3742SOL    HW221906   4.343   0.380   0.193 -2.6132  0.7719 -0.6334
 3743SOL     OW21907   9.280   4.022   1.584 -0.6914 -0.2719 -0.3287
 3743SOL    HW121908   9.188   4.058   1.566  0.4750  1.9082 -2.3287
 3743SOL    HW221909   9.277   3.958   1.660 -3.4189  1.8031  1.3989
 3744SOL     OW21910   3.043   8.274   2.098  0.8510  0.0471 -0.3096
 3744SOL    HW121911   3.052   8.317   2.008 -1.1528  0.7345 -0.2125
 3744SOL    HW221912   2.959   8.220   2.100  1.0723 -0.2519  1.0306
 3745SOL     OW21913   8.126   8.323   4.774 -0.6885 -0.1000  0.3266
 3745SOL    HW121914   8.080   8.404   4.809 -0.4084  0.3301 -0.2842
 3745SOL    HW221915   8.092   8.302   4.683 -2.3530 -1.9810  1.3423
 3746SOL     OW21916   9.920   1.154   4.056 -0.0765  0.2634  0.0310
 3746SOL    HW121917   9.839   1.171   4.113 -0.6355 -4.0913  0.6855
 3746SOL    HW221918   9.993   1.116   4.113  0.6256 -0.6734 -1.4788
 3747SOL     OW21919   2.408   8.803   2.715 -0.3848 -0.4758 -0.0932
 3747SOL    HW121920   2.404   8.743   2.796 -0.8878 -1.4749 -0.8498
 3747SOL    HW221921   2.488   8.778   2.660 -0.4437 -0.2672 -0.2718
 3748SOL     OW21922   8.220   3.888   1.369 -0.3482  0.0408 -0.5885
 3748SOL    HW121923   8.277   3.938   1.434  0.5925 -0.6560 -0.8679
 3748SOL    HW221924   8.124   3.896   1.396 -0.1747  1.5926 -0.3608
 3749SOL     OW21925   0.801   3.216   1.796  0.8274  0.5602 -0.0699
 3749SOL    HW121926   0.774   3.167   1.713 -2.6859  0.3919  1.1185
 3749SOL    HW221927   0.824   3.149   1.867 -2.0238  0.5938  0.9281
 3750SOL     OW21928   3.466   7.772   1.916 -0.8153 -0.0442  0.4417
 3750SOL    HW121929   3.468   7.818   1.827 -1.3346 -1.2850 -0.2250
 3750SOL    HW221930   3.458   7.673   1.902 -1.7056 -0.1875  1.8790
 3751SOL     OW21931   4.151   4.454   2.078 -0.7542 -0.0762  0.5317
 3751SOL    HW121932   4.070   4.448   2.020 -0.2360  2.8164 -0.5845
 3751SOL    HW221933   4.137   4.524   2.148  1.1517  1.2659 -0.3755
 3752SOL     OW21934   2.551   1.874   1.042  0.1323  0.5397  0.5165
 3752SOL    HW121935   2.543   1.878   1.142 -2.5528  1.0051  0.3183
 3752SOL    HW221936   2.608   1.951   1.011 -0.3356  1.3365  1.5782
 3753SOL     OW21937   0.310   4.107   1.092 -0.5707  0.5343 -0.4609
 3753SOL    HW121938   0.381   4.038   1.102 -0.4680  0.7192  0.0864
 3753SOL    HW221939   0.263   4.120   1.179  0.8664  2.7479  0.0003
 3754SOL     OW21940   0.919   3.020   1.956  0.0387 -0.1939  0.2338
 3754SOL    HW121941   0.872   2.949   2.008 -0.3460 -1.0170 -1.2149
 3754SOL    HW221942   0.977   3.074   2.017 -0.9375 -0.7068  1.6197
 3755SOL     OW21943   7.355   6.385   3.563  0.1418  0.4783  0.1248
 3755SOL    HW121944   7.305   6.301   3.587  0.5168 -0.1602 -1.2733
 3755SOL    HW221945   7.301   6.438   3.498  2.0343 -1.1257 -2.8474
 3756SOL     OW21946   8.530   6.697   3.064 -0.7025 -0.5793  0.4927
 3756SOL    HW121947   8.537   6.606   3.105 -1.3783 -0.8599 -0.0091
 3756SOL    HW221948   8.452   6.700   3.002  0.1867 -0.1224 -0.6441
 3757SOL     OW21949   2.528   6.855   4.312 -0.3424 -0.3433 -0.4904
 3757SOL    HW121950   2.498   6.761   4.323 -0.8877 -0.1026  0.0634
 3757SOL    HW221951   2.605   6.873   4.373 -1.5068  0.1463  0.8408
 3758SOL     OW21952   6.967   9.644   3.978  0.1049 -0.1527  0.2921
 3758SOL    HW121953   7.025   9.695   3.915 -0.2023  1.6409  1.4197
 3758SOL    HW221954   7.022   9.611   4.054  0.2270 -1.1710 -0.2319
 3759SOL     OW21955   0.470   1.806   2.276 -0.2917 -0.1217  0.4802
 3759SOL    HW121956   0.569   1.798   2.260 -0.3361  1.1377 -0.5028
 3759SOL    HW221957   0.439   1.729   2.331  1.3947 -0.1031  1.4981
 3760SOL     OW21958   7.575   7.999   3.660 -0.3057  0.3603  0.0876
 3760SOL    HW121959   7.546   8.080   3.709 -2.3715 -0.4524  0.2522
 3760SOL    HW221960   7.539   8.001   3.567  0.8792  0.3254 -0.3919
 3761SOL     OW21961   7.960   0.018   1.452  0.0918  0.6710 -0.0680
 3761SOL    HW121962   7.877   0.073   1.455  1.1810  2.4597 -1.4069
 3761SOL    HW221963   8.039   0.079   1.442  1.4166 -1.1076 -0.5443
 3762SOL     OW21964   9.033   9.065   3.860 -0.1396  0.1095  0.1539
 3762SOL    HW121965   9.117   9.104   3.822  0.7672  0.0816  2.0735
 3762SOL    HW221966   9.044   9.052   3.958 -3.3507  2.5981  0.9312
 3763SOL     OW21967   2.867   6.104   1.541  0.1731  0.3081 -0.4227
 3763SOL    HW121968   2.824   6.041   1.476 -0.3880 -2.3045  2.3717
 3763SOL    HW221969   2.946   6.060   1.583  1.0238  2.2776  0.1063
 3764SOL     OW21970   2.567   9.310   3.703 -0.1260  0.3333 -0.3174
 3764SOL    HW121971   2.528   9.248   3.770 -0.5565  1.6023  0.6106
 3764SOL    HW221972   2.658   9.276   3.677  0.2351  0.0669  1.2213
 3765SOL     OW21973   1.843   3.546   2.932  0.7851  0.2233 -0.4125
 3765SOL    HW121974   1.899   3.464   2.938 -0.4861 -0.5175  2.7917
 3765SOL    HW221975   1.899   3.623   2.902  2.8740 -1.0373  0.1463
 3766SOL     OW21976   9.639   5.216   3.840  0.4081  0.4196 -0.6285
 3766SOL    HW121977   9.634   5.139   3.776  0.0335 -0.1673  0.0918
 3766SOL    HW221978   9.714   5.199   3.905  0.2277  0.5876 -0.3771
 3767SOL     OW21979   9.978   0.360   0.639 -0.0643 -0.0931 -0.9448
 3767SOL    HW121980  10.003   0.281   0.696  0.7164 -0.6482 -2.0306
 3767SOL    HW221981   9.911   0.332   0.571 -1.1192  0.6088 -0.2040
 3768SOL     OW21982   0.755   5.867   0.331  0.0519  0.3071  0.4669
 3768SOL    HW121983   0.727   5.910   0.417  1.9347  0.7967  0.8601
 3768SOL    HW221984   0.792   5.936   0.269  1.3925 -0.4451  0.3956
 3769SOL     OW21985   7.638   8.028   4.144 -0.2738 -0.1783  0.0575
 3769SOL    HW121986   7.717   7.982   4.104 -0.4607  0.1675 -0.7251
 3769SOL    HW221987   7.669   8.084   4.221  0.1097 -0.7500  0.3240
 3770SOL     OW21988   2.966   7.843   1.175  0.4095  0.1176 -0.1791
 3770SOL    HW121989   2.998   7.748   1.167  1.1811  0.5344 -2.2233
 3770SOL    HW221990   2.866   7.844   1.173  0.3057 -0.8766  2.6306
 3771SOL     OW21991   3.885   3.073   3.669 -0.2131 -0.2286  0.2865
 3771SOL    HW121992   3.864   3.004   3.599 -0.6138  0.1186  0.0634
 3771SOL    HW221993   3.964   3.126   3.641 -1.1559  0.7693 -0.5211
 3772SOL     OW21994   9.286   0.288   0.468 -0.4768  0.5900 -0.0911
 3772SOL    HW121995   9.375   0.321   0.435  0.4958 -0.5063  1.3872
 3772SOL    HW221996   9.223   0.365   0.474  0.5555  1.4893 -0.5520
 3773SOL     OW21997   0.412   5.367   0.741  0.3372  0.2474  0.4826
 3773SOL    HW121998   0.441   5.294   0.803  2.0291  0.0307 -0.5586
 3773SOL    HW221999   0.364   5.438   0.794 -3.4009 -2.6600  1.1874
 3774SOL     OW22000   0.011   2.907   2.219  0.3158 -0.0125  0.1131
 3774SOL    HW122001   0.012   2.814   2.254 -0.9983 -0.2698 -0.4952
 3774SOL    HW222002   0.058   2.911   2.131  0.5159 -0.0746  0.2194
 3775SOL     OW22003   8.954   9.984   1.648  0.4132  0.1250  0.5015
 3775SOL    HW122004   8.949   9.887   1.672 -0.5594  0.0791  0.1086
 3775SOL    HW222005   9.014  10.031   1.713  2.8358 -1.1788 -0.6962
 3776SOL     OW22006   0.725   6.830   0.686  0.3924 -0.3146 -0.1305
 3776SOL    HW122007   0.765   6.762   0.624  0.6084 -0.6711  0.3929
 3776SOL    HW222008   0.781   6.913   0.685 -0.5405  0.3144 -1.6871
 3777SOL     OW22009   9.774   6.065   0.096 -0.1597 -0.4074 -0.7829
 3777SOL    HW122010   9.786   5.969   0.121 -0.3966 -0.4408 -0.7991
 3777SOL    HW222011   9.698   6.104   0.148  0.6533  0.0794  0.0518
 3778SOL     OW22012   0.257   6.785   1.880  0.7826  0.0180  0.0488
 3778SOL    HW122013   0.309   6.748   1.958 -0.1760 -1.5297 -0.0407
 3778SOL    HW222014   0.193   6.854   1.913 -0.5183 -1.5361  0.8324
 3779SOL     OW22015   8.609   1.394   0.627 -0.5321  0.0373 -0.2826
 3779SOL    HW122016   8.638   1.463   0.561  0.9589 -1.2982 -1.0620
 3779SOL    HW222017   8.534   1.341   0.589 -0.2358 -0.1811 -0.5616
 3780SOL     OW22018   2.752   7.726   4.527 -0.1831 -0.0416 -0.0510
 3780SOL    HW122019   2.688   7.669   4.475  0.0541 -0.2033 -0.1654
 3780SOL    HW222020   2.815   7.668   4.578 -0.4171  0.1173  0.4250
 3781SOL     OW22021   9.589   6.006   2.436 -0.5866  0.4836 -0.9785
 3781SOL    HW122022   9.537   6.047   2.511 -1.0472  0.3511 -1.2242
 3781SOL    HW222023   9.527   5.956   2.376 -0.1963  0.4508 -1.3572
 3782SOL     OW22024   8.541   0.515   3.395 -0.4300 -0.0127 -0.1522
 3782SOL    HW122025   8.509   0.544   3.304 -1.1574 -1.4444 -0.3807
 3782SOL    HW222026   8.614   0.448   3.384 -0.5848 -0.2599  0.3195
 3783SOL     OW22027   9.484   6.303   3.933 -0.3152  0.3210  0.5570
 3783SOL    HW122028   9.554   6.345   3.874 -0.4312 -0.7491 -0.3449
 3783SOL    HW222029   9.485   6.204   3.921 -1.6704  0.2604  0.9091
 3784SOL     OW22030   1.385   3.854   0.261  0.2976  0.4567  0.3132
 3784SOL    HW122031   1.301   3.845   0.315 -1.5041 -1.9010 -2.6492
 3784SOL    HW222032   1.365   3.905   0.177  1.2371 -1.9457 -1.4334
 3785SOL     OW22033   2.553   3.152   0.063  0.2051 -0.0311 -0.7724
 3785SOL    HW122034   2.560   3.061   0.106  1.3674 -0.1762 -1.2481
 3785SOL    HW222035   2.641   3.199   0.072  0.0132  0.5111 -1.7124
 3786SOL     OW22036   5.107   3.075   2.301  0.0509 -0.0981 -0.1658
 3786SOL    HW122037   5.200   3.099   2.272 -1.2609  3.0714 -2.0061
 3786SOL    HW222038   5.100   3.084   2.400  1.7485 -0.6236  0.0195
 3787SOL     OW22039   2.296   9.885   3.297  0.5341 -0.2765 -0.1253
 3787SOL    HW122040   2.364   9.936   3.243  0.0158 -1.6175 -2.0963
 3787SOL    HW222041   2.341   9.840   3.373  1.8623 -1.0345 -1.3348
 3788SOL     OW22042   0.458   7.136   0.189 -0.2286  0.2201 -0.0220
 3788SOL    HW122043   0.461   7.202   0.114 -0.2600 -0.3324 -0.5106
 3788SOL    HW222044   0.531   7.069   0.178  1.5916  1.8212  2.0123
 3789SOL     OW22045   9.091   3.763   3.186 -0.2757  0.6189  0.2598
 3789SOL    HW122046   8.997   3.765   3.220 -0.3310 -1.1475  0.2344
 3789SOL    HW222047   9.118   3.855   3.158 -1.5639  1.3695  1.4350
 3790SOL     OW22048   2.304   2.203   1.613  0.0641 -0.1148 -0.0328
 3790SOL    HW122049   2.371   2.265   1.572  0.6644 -0.9466 -0.3079
 3790SOL    HW222050   2.220   2.254   1.634 -0.0079  0.4488 -1.6768
 3791SOL     OW22051   8.732   1.284   2.955 -0.4409  0.3060  0.6188
 3791SOL    HW122052   8.692   1.297   3.046  0.8268  3.1058  0.8543
 3791SOL    HW222053   8.798   1.358   2.937  2.7331 -2.7211 -0.7554
 3792SOL     OW22054   9.852   2.029   4.385  0.0130 -0.1473  0.0003
 3792SOL    HW122055   9.798   2.038   4.302  1.2796  2.0331 -0.6348
 3792SOL    HW222056   9.794   1.996   4.459 -1.8762  0.8456 -0.9983
 3793SOL     OW22057   0.167   5.137   0.952  0.0598  0.0876 -0.0970
 3793SOL    HW122058   0.126   5.228   0.947 -0.1384  0.0198  0.3346
 3793SOL    HW222059   0.103   5.072   0.992  0.0797 -0.3194 -0.7142
 3794SOL     OW22060   9.661   8.306   2.951 -0.0349  0.0464  0.2359
 3794SOL    HW122061   9.606   8.230   2.917 -1.4993  0.7956  0.8874
 3794SOL    HW222062   9.672   8.375   2.879  1.2535 -0.7476 -0.3391
 3795SOL     OW22063   0.231   2.257   0.875 -0.1804  0.0531 -0.0770
 3795SOL    HW122064   0.132   2.271   0.885 -0.1880  1.6174 -1.9033
 3795SOL    HW222065   0.250   2.216   0.786  0.9935  2.6748 -1.1064
 3796SOL     OW22066   1.303   7.862   3.710 -0.0366  0.2372 -0.5025
 3796SOL    HW122067   1.237   7.824   3.776 -1.1605  1.1962 -1.0573
 3796SOL    HW222068   1.327   7.791   3.643 -1.1136  0.1088 -0.7619
 3797SOL     OW22069   1.209   5.582   3.601  0.1756 -0.5029 -0.0458
 3797SOL    HW122070   1.120   5.573   3.556 -1.0120 -2.1317  2.4980
 3797SOL    HW222071   1.237   5.678   3.599 -1.7481  0.0770 -0.6769
 3798SOL     OW22072   8.443   5.728   4.666  0.2821  0.1772 -0.0705
 3798SOL    HW122073   8.380   5.795   4.627  1.6365  2.7993  2.0637
 3798SOL    HW222074   8.417   5.710   4.761  0.8766 -1.1667 -0.1529
 3799SOL     OW22075   7.636   1.593   1.399 -0.4862 -0.0316  0.4230
 3799SOL    HW122076   7.548   1.631   1.426 -0.8128 -1.3043  1.2243
 3799SOL    HW222077   7.706   1.621   1.465 -0.5459 -0.0446  0.4925
 3800SOL     OW22078   1.098   6.499   2.379  0.5139  0.1260  0.3935
 3800SOL    HW122079   1.044   6.543   2.451  2.2102  1.9756  0.5650
 3800SOL    HW222080   1.136   6.568   2.318 -0.7181 -1.4169 -2.2087
 3801SOL     OW22081   8.613   4.517   2.272 -0.0722  0.5887  0.6635
 3801SOL    HW122082   8.639   4.564   2.188  2.9861 -0.1480  1.1607
 3801SOL    HW222083   8.567   4.582   2.333 -1.0863  1.4622 -0.9865
 3802SOL     OW22084   9.462   8.876   3.442  0.2350 -0.2085 -0.1580
 3802SOL    HW122085   9.536   8.917   3.496  0.4705 -0.5604 -0.2111
 3802SOL    HW222086   9.431   8.792   3.487 -0.4303  0.1717  0.0932
 3803SOL     OW22087   2.437   1.037   0.981  0.2848 -0.5958  0.1730
 3803SOL    HW122088   2.504   1.026   0.908 -0.0244  0.7019 -0.3326
 3803SOL    HW222089   2.448   1.127   1.023 -0.0742 -1.0122  1.1767
 3804SOL     OW22090   8.769   3.821   3.751 -0.4114 -0.5332 -0.5261
 3804SOL    HW122091   8.840   3.823   3.822 -0.8354 -0.2929 -0.1033
 3804SOL    HW222092   8.690   3.770   3.785 -1.5074  1.4895  0.0314
 3805SOL     OW22093   0.077   2.581   4.119 -0.3778  0.5809  0.4602
 3805SOL    HW122094   0.086   2.625   4.209  0.7544  1.1025  0.0953
 3805SOL    HW222095   0.046   2.649   4.052  0.2535  0.5497  0.1385
 3806SOL     OW22096   2.906   0.677   3.047  0.2692 -0.3886  0.0667
 3806SOL    HW122097   2.875   0.704   3.138  0.1653  0.7898 -0.3145
 3806SOL    HW222098   2.978   0.608   3.056  1.2203  0.7306  1.0671
 3807SOL     OW22099   1.091   0.379   1.508  0.1476  0.6401  0.1279
 3807SOL    HW122100   1.137   0.400   1.594 -2.5652 -0.7951  2.0272
 3807SOL    HW222101   1.086   0.279   1.496 -1.2467  0.7862 -0.6712
 3808SOL     OW22102   2.657   2.076   1.436  0.0113 -0.3672  0.4908
 3808SOL    HW122103   2.570   2.081   1.386  0.4657 -1.1730 -0.4090
 3808SOL    HW222104   2.732   2.105   1.376  0.3615  0.4160  1.2934
 3809SOL     OW22105   0.542   1.969   3.462  0.6752  0.4290 -0.2956
 3809SOL    HW122106   0.584   1.997   3.548  0.4872 -2.1537  0.6910
 3809SOL    HW222107   0.443   1.959   3.474  0.7945 -1.1007 -0.4546
 3810SOL     OW22108   7.878   5.720   0.598 -0.0659 -0.0591  0.7731
 3810SOL    HW122109   7.825   5.728   0.514  2.2103  0.5812 -0.6573
 3810SOL    HW222110   7.919   5.809   0.620  1.1000 -0.7249  1.3363
 3811SOL     OW22111   0.785   0.237   4.453 -0.2383 -0.2163  0.3038
 3811SOL    HW122112   0.864   0.181   4.480  0.1126  0.0527 -0.1580
 3811SOL    HW222113   0.726   0.251   4.532  0.5213  0.1362  0.8140
 3812SOL     OW22114   0.433   9.275   2.711 -0.2274 -0.0618 -0.0085
 3812SOL    HW122115   0.422   9.317   2.801 -0.8481 -3.8263  1.7706
 3812SOL    HW222116   0.350   9.290   2.657 -0.5908  0.6185  0.7197
 3813SOL     OW22117   2.427   2.717   0.828  0.6065 -0.2760 -1.1015
 3813SOL    HW122118   2.477   2.632   0.812 -1.0721 -1.1451 -1.7915
 3813SOL    HW222119   2.339   2.714   0.780 -1.4010  0.0272  2.4390
 3814SOL     OW22120   0.234   8.229   0.573  0.1825  0.0565  0.0275
 3814SOL    HW122121   0.200   8.315   0.535 -1.8733 -1.2968 -1.3005
 3814SOL    HW222122   0.282   8.177   0.501 -0.2413 -0.7480  0.3225
 3815SOL     OW22123   2.983   1.489   2.347 -0.5461  0.1821  0.3009
 3815SOL    HW122124   2.996   1.398   2.386 -0.7072  0.9138  2.1091
 3815SOL    HW222125   2.885   1.504   2.330 -0.4851 -0.1042 -0.3057
 3816SOL     OW22126   4.628   3.852   0.213  0.0760 -0.2079 -0.7797
 3816SOL    HW122127   4.575   3.935   0.228  1.1752  0.3436  0.0684
 3816SOL    HW222128   4.574   3.788   0.157 -1.0796  0.7403 -0.7693
 3817SOL     OW22129   2.094   4.531   4.138  0.6929  0.3981  0.0557
 3817SOL    HW122130   2.182   4.552   4.181  0.9121  0.1807 -0.2910
 3817SOL    HW222131   2.085   4.583   4.053  0.2719  0.8026  0.3404
 3818SOL     OW22132   3.045   7.922   2.864  1.1106 -0.0835 -0.0757
 3818SOL    HW122133   3.060   8.018   2.888  1.0280  0.2221 -1.2316
 3818SOL    HW222134   3.114   7.892   2.799  0.1001 -0.3029 -1.0593
 3819SOL     OW22135   4.674   9.053   3.283 -0.6812  0.1948  0.0423
 3819SOL    HW122136   4.675   9.024   3.379 -0.7243 -0.1660 -0.0637
 3819SOL    HW222137   4.626   9.140   3.275 -0.0533  0.5811  0.4466
 3820SOL     OW22138   4.839   2.297   0.334  1.0695  0.1107  0.1267
 3820SOL    HW122139   4.871   2.236   0.262 -3.4518 -0.4683 -1.5631
 3820SOL    HW222140   4.795   2.243   0.406 -1.4590  1.1529 -0.5655
 3821SOL     OW22141   8.075   4.880   1.228 -0.5728 -0.2104  0.1024
 3821SOL    HW122142   8.094   4.786   1.259 -3.0883 -0.6913  0.2968
 3821SOL    HW222143   8.077   4.942   1.307  0.8807 -0.1176  0.0063
 3822SOL     OW22144   5.256   1.770   1.033 -0.3206 -0.3405 -0.1407
 3822SOL    HW122145   5.295   1.859   1.054  0.0644 -0.4185 -0.5132
 3822SOL    HW222146   5.204   1.776   0.948  1.0621 -0.8515 -1.0290
 3823SOL     OW22147   9.318   2.458   3.822  0.5655  0.3934 -0.2944
 3823SOL    HW122148   9.359   2.549   3.819 -0.6569  0.9560 -0.3622
 3823SOL    HW222149   9.320   2.417   3.731  1.4918  0.1717 -0.1810
 3824SOL     OW22150   3.428   7.421   3.479  0.3701 -0.3598 -0.1517
 3824SOL    HW122151   3.353   7.483   3.504  0.9332 -0.5766  2.1385
 3824SOL    HW222152   3.504   7.475   3.443 -0.5985 -0.0828 -1.8525
 3825SOL     OW22153   1.991   8.344   0.393  0.4427  0.0307  0.1208
 3825SOL    HW122154   1.991   8.361   0.491 -1.1934  0.6346  0.0274
 3825SOL    HW222155   1.971   8.247   0.376 -0.4463  0.1683  0.3573
 3826SOL     OW22156   2.453   7.263   4.606 -0.1896  0.2873  0.5887
 3826SOL    HW122157   2.520   7.333   4.630  0.1665 -0.1924  0.9931
 3826SOL    HW222158   2.473   7.179   4.656 -1.5721  0.3873  1.3565
 3827SOL     OW22159   4.239   9.135   2.157 -0.0581  0.1285  0.0751
 3827SOL    HW122160   4.216   9.041   2.133 -2.4360  0.9172 -0.8274
 3827SOL    HW222161   4.330   9.157   2.120  0.1025 -1.4752 -0.5387
 3828SOL     OW22162   9.921   9.359   1.606  0.0494  0.0323 -0.1149
 3828SOL    HW122163   9.841   9.418   1.601 -2.0331 -2.5366  1.7546
 3828SOL    HW222164   9.914   9.299   1.685  3.1650 -1.2473 -0.7143
 3829SOL     OW22165   9.218   6.598   3.032  0.5638  0.2249  0.4420
 3829SOL    HW122166   9.211   6.692   3.067 -0.4410 -0.1548  1.2982
 3829SOL    HW222167   9.273   6.544   3.095  0.6479  0.1004  0.2590
 3830SOL     OW22168   3.729   3.338   2.689 -0.1405 -0.0727  0.3602
 3830SOL    HW122169   3.659   3.410   2.695  0.4737  0.5801 -0.2312
 3830SOL    HW222170   3.792   3.360   2.615 -0.4864 -1.7162 -0.4308
 3831SOL     OW22171   5.204   9.345   1.389  0.0991  0.1274 -0.4741
 3831SOL    HW122172   5.257   9.407   1.332 -0.5875  2.0234  0.8856
 3831SOL    HW222173   5.265   9.280   1.434  1.1871  1.6451  0.2847
 3832SOL     OW22174   0.398   8.297   1.955  0.0353 -0.1598 -0.0062
 3832SOL    HW122175   0.341   8.365   1.910 -0.3690  0.4310  1.3765
 3832SOL    HW222176   0.351   8.208   1.953 -0.6013  0.1594  0.4547
 3833SOL     OW22177   5.302   9.304   3.694  0.1823 -0.2979  0.7538
 3833SOL    HW122178   5.331   9.396   3.721 -0.2956  0.0989 -0.0659
 3833SOL    HW222179   5.373   9.263   3.637  0.1505 -0.2247  0.6616
 3834SOL     OW22180   1.303   5.581   2.699 -0.2883 -0.0918  0.3824
 3834SOL    HW122181   1.376   5.650   2.696  0.5244 -0.8301  2.5065
 3834SOL    HW222182   1.265   5.569   2.607  1.5434  1.0700 -0.5572
 3835SOL     OW22183   9.888   2.172   1.259 -0.6997 -0.2219  0.0782
 3835SOL    HW122184   9.965   2.178   1.322  0.0457 -1.0930 -0.7328
 3835SOL    HW222185   9.802   2.169   1.311 -0.0264 -2.3461  1.1268
 3836SOL     OW22186   0.788   2.626   4.096 -0.1962  0.5392  0.3081
 3836SOL    HW122187   0.816   2.531   4.093  1.4445  1.0329 -0.7116
 3836SOL    HW222188   0.791   2.665   4.003  0.4070  1.9161  0.8824
 3837SOL     OW22189   1.939   3.675   1.879  0.0392  0.1573  0.5962
 3837SOL    HW122190   1.962   3.759   1.929 -1.2566  1.1767 -0.5049
 3837SOL    HW222191   1.965   3.685   1.783 -1.0700 -0.3166  0.2469
 3838SOL     OW22192   0.641   6.544   4.138 -0.2561 -0.0910  0.2958
 3838SOL    HW122193   0.734   6.580   4.125 -0.3248 -0.4204 -1.0660
 3838SOL    HW222194   0.626   6.530   4.236  0.3493  2.0522  0.7375
 3839SOL     OW22195   7.474   9.608   1.658  0.0467 -1.0093  0.4119
 3839SOL    HW122196   7.562   9.599   1.705 -0.1345 -2.2553  0.5273
 3839SOL    HW222197   7.400   9.607   1.725 -0.1071 -0.9829  0.2435
 3840SOL     OW22198   4.649   1.197   3.974 -0.4879  0.5936  0.0399
 3840SOL    HW122199   4.747   1.213   3.960 -0.7290  0.5169 -2.0160
 3840SOL    HW222200   4.599   1.225   3.892 -1.8333 -2.4007 -0.2498
 3841SOL     OW22201   3.199   5.263   2.627 -0.2564  0.4003 -0.5619
 3841SOL    HW122202   3.255   5.338   2.592 -0.4643  1.4007  1.2061
 3841SOL    HW222203   3.138   5.297   2.698 -0.2920 -1.4619  0.3208
 3842SOL     OW22204   1.154   7.789   3.918  0.3377  0.0328  0.4592
 3842SOL    HW122205   1.199   7.797   4.007  1.2333 -3.4906  0.4052
 3842SOL    HW222206   1.055   7.788   3.931  0.3816  2.4077  1.1115
 3843SOL     OW22207   9.900   2.902   1.539  0.3487  0.0563  0.2128
 3843SOL    HW122208   9.982   2.868   1.586  0.1711  1.4613  1.5980
 3843SOL    HW222209   9.846   2.825   1.506  2.1183 -0.8991 -0.5552
 3844SOL     OW22210   1.536   3.314   0.897 -0.1788  0.0534  0.0025
 3844SOL    HW122211   1.607   3.285   0.832  1.1062  0.2790  1.2778
 3844SOL    HW222212   1.468   3.369   0.849  1.2240  0.9719 -0.9780
 3845SOL     OW22213   1.826   7.366   1.260  0.3548 -0.3076  0.1542
 3845SOL    HW122214   1.920   7.392   1.239  0.5213  0.2328  1.5670
 3845SOL    HW222215   1.789   7.426   1.331  0.1347 -2.7808  2.1562
 3846SOL     OW22216   3.648   2.262   0.607  0.2773  0.0087  0.3910
 3846SOL    HW122217   3.568   2.258   0.547  0.1222  1.7701  0.4335
 3846SOL    HW222218   3.672   2.358   0.623  0.9343 -0.4604  2.3226
 3847SOL     OW22219   0.892   1.023   4.636 -0.0438 -0.1669 -0.1132
 3847SOL    HW122220   0.852   1.109   4.602  0.7657  0.7193  1.1349
 3847SOL    HW222221   0.828   0.948   4.619 -0.8161  0.6920 -1.1208
 3848SOL     OW22222   3.724   1.501   0.705 -0.3330  0.0399 -0.5462
 3848SOL    HW122223   3.674   1.518   0.790  0.2182 -0.2143 -0.1642
 3848SOL    HW222224   3.704   1.574   0.640 -1.4910 -0.2737 -0.5353
 3849SOL     OW22225   0.900   3.518   3.816 -0.4262  0.0117  0.2435
 3849SOL    HW122226   0.826   3.538   3.751 -0.3332 -0.6361 -0.0601
 3849SOL    HW222227   0.980   3.574   3.792 -0.9429  1.0222  0.8200
 3850SOL     OW22228   8.569   4.387   4.053 -0.0708 -0.0663 -0.2350
 3850SOL    HW122229   8.622   4.471   4.065 -1.3357  0.9296 -1.4701
 3850SOL    HW222230   8.537   4.355   4.142  0.8193  0.4815  0.2931
 3851SOL     OW22231   8.069   8.922   0.938 -0.2788 -0.1383  0.1887
 3851SOL    HW122232   8.021   8.835   0.938 -0.7058  0.0949 -0.4613
 3851SOL    HW222233   8.152   8.915   0.993 -0.2400 -0.9910  0.0179
 3852SOL     OW22234   0.452   8.245   0.735  0.6100 -0.1381  0.2481
 3852SOL    HW122235   0.366   8.250   0.684 -0.3910  0.8626  1.9863
 3852SOL    HW222236   0.528   8.269   0.674 -0.3901 -0.3990 -1.1435
 3853SOL     OW22237   9.458   7.225   0.967  0.2097 -0.5525  0.2207
 3853SOL    HW122238   9.395   7.297   0.939  1.2450 -0.5008 -2.0565
 3853SOL    HW222239   9.408   7.139   0.978 -0.3524 -0.3875 -1.0157
 3854SOL     OW22240   2.964   9.616   3.677  0.0303  0.3579 -0.5466
 3854SOL    HW122241   2.989   9.550   3.607  0.0545  1.5382 -1.6552
 3854SOL    HW222242   3.042   9.677   3.696  0.4108 -0.6565  1.3240
 3855SOL     OW22243   0.341   1.094   2.616 -0.1701 -0.2775  0.3346
 3855SOL    HW122244   0.341   1.194   2.616 -1.0252 -0.2652  1.0571
 3855SOL    HW222245   0.435   1.060   2.619  0.0929  0.5275  2.4892
 3856SOL     OW22246   8.849   2.357   2.727 -0.0550  0.4747  0.3717
 3856SOL    HW122247   8.946   2.377   2.741 -0.0566  1.5702 -1.0913
 3856SOL    HW222248   8.796   2.401   2.799  0.5050  0.0560  1.0525
 3857SOL     OW22249   5.583   9.348   2.251  0.0067  0.5754  0.1397
 3857SOL    HW122250   5.521   9.367   2.175  1.1157 -1.8866 -1.4842
 3857SOL    HW222251   5.645   9.425   2.264 -0.9219  1.4799 -0.7124
 3858SOL     OW22252   1.769   3.206   0.714 -0.1455 -0.5209  0.1276
 3858SOL    HW122253   1.833   3.130   0.727  1.1740  0.6387  0.5095
 3858SOL    HW222254   1.701   3.180   0.646  0.9637 -1.6458 -0.5893
 3859SOL     OW22255   1.207   5.972   4.451  0.4768 -0.2537  0.3984
 3859SOL    HW122256   1.122   6.024   4.451  0.5929 -0.0626  1.7421
 3859SOL    HW222257   1.284   6.033   4.468  1.0487 -0.2103 -2.0628
 3860SOL     OW22258   3.153   4.123   4.552  0.5061 -0.3940 -0.1562
 3860SOL    HW122259   3.245   4.110   4.515  0.2021 -1.6087 -0.4923
 3860SOL    HW222260   3.126   4.041   4.602 -0.4095 -0.0456 -0.0822
 3861SOL     OW22261   5.268   8.537   3.990  0.1747 -0.4003 -0.6493
 3861SOL    HW122262   5.355   8.538   4.040  0.1130 -0.9552 -0.5277
 3861SOL    HW222263   5.262   8.619   3.933  0.6540 -0.2184 -0.4420
 3862SOL     OW22264   3.691   2.472   2.619 -0.4658 -0.6527 -0.1246
 3862SOL    HW122265   3.760   2.457   2.548 -0.5367 -0.4429 -0.2402
 3862SOL    HW222266   3.648   2.385   2.643 -2.9792 -0.2569 -2.9189
 3863SOL     OW22267   4.555   8.900   0.534  0.2697  0.7416 -0.7447
 3863SOL    HW122268   4.591   8.899   0.441 -0.0737  2.8192 -0.9090
 3863SOL    HW222269   4.504   8.985   0.550 -0.5391 -0.0416  1.0123
 3864SOL     OW22270   9.104   5.808   1.622  0.1186 -0.4012  0.3163
 3864SOL    HW122271   9.018   5.785   1.578 -0.5508  2.5965 -0.0041
 3864SOL    HW222272   9.087   5.860   1.706  1.5181 -2.8694  2.2177
 3865SOL     OW22273   3.230   3.303   2.424 -0.0581  0.2064 -0.2505
 3865SOL    HW122274   3.258   3.210   2.400 -1.8289  0.0390 -1.7277
 3865SOL    HW222275   3.311   3.355   2.452  0.9898 -1.6943  0.3967
 3866SOL     OW22276   8.243   1.315   0.912  0.7516  0.7913 -0.1012
 3866SOL    HW122277   8.149   1.285   0.900  1.1801 -0.8060  0.3448
 3866SOL    HW222278   8.248   1.385   0.982  0.0229  0.1143  0.6300
 3867SOL     OW22279   6.075   9.921   2.013  0.0242 -0.3689  0.7671
 3867SOL    HW122280   6.037   9.870   1.937  0.1217  0.5191  0.1069
 3867SOL    HW222281   6.156   9.874   2.048 -0.5355 -1.2395  0.9060
 3868SOL     OW22282   3.376   7.552   4.573  0.4997  0.0066 -0.1412
 3868SOL    HW122283   3.351   7.461   4.539  0.1813 -0.0687  0.2880
 3868SOL    HW222284   3.468   7.549   4.612  0.3166 -0.2363  0.2734
 3869SOL     OW22285   8.817   1.679   0.936 -0.0549 -0.7754 -0.0501
 3869SOL    HW122286   8.805   1.597   0.880 -1.1755  0.0046 -0.9935
 3869SOL    HW222287   8.789   1.759   0.883  1.7679  0.3087  0.5834
 3870SOL     OW22288   9.299   3.668   0.048  0.1223 -0.0134  0.1975
 3870SOL    HW122289   9.265   3.673  -0.046  1.5556  1.5275 -0.2635
 3870SOL    HW222290   9.388   3.622   0.048  1.3026  2.2114  0.4420
 3871SOL     OW22291   3.023   5.273   0.646 -0.5888 -0.2778  0.1189
 3871SOL    HW122292   3.070   5.236   0.566 -0.0811 -0.9864  0.7318
 3871SOL    HW222293   3.045   5.370   0.656  1.0852 -0.6936  0.6219
 3872SOL     OW22294   4.253   8.499   3.237  0.4548  0.4201 -1.1530
 3872SOL    HW122295   4.235   8.417   3.291  1.8268  0.0568 -1.2270
 3872SOL    HW222296   4.347   8.530   3.254 -0.6825  3.1568  0.4176
 3873SOL     OW22297   2.095   2.425   2.164  0.0586 -0.2264  0.0382
 3873SOL    HW122298   2.163   2.429   2.090  0.8156 -0.1893  0.7221
 3873SOL    HW222299   2.114   2.498   2.230 -0.4687 -0.4116  0.3928
 3874SOL     OW22300   7.394   9.105   2.611  0.7563 -0.1526  0.0486
 3874SOL    HW122301   7.405   9.038   2.538  0.2750  0.5365 -0.6687
 3874SOL    HW222302   7.470   9.170   2.608 -0.1921  0.9367 -0.9886
 3875SOL     OW22303   0.860   6.134   2.399  0.1451  0.6470 -0.2579
 3875SOL    HW122304   0.889   6.208   2.339  3.9800  1.2324  2.0730
 3875SOL    HW222305   0.915   6.052   2.380  0.8284  0.5946  1.7832
 3876SOL     OW22306   0.580   7.943   0.173 -0.0160 -0.0012 -0.1301
 3876SOL    HW122307   0.499   7.889   0.152  0.2920 -1.6260  2.5417
 3876SOL    HW222308   0.592   8.014   0.105 -4.1693  0.8116 -0.0987
 3877SOL     OW22309   6.818   0.075   4.020  0.2392 -0.4474 -0.0153
 3877SOL    HW122310   6.832   0.119   3.932 -0.3052 -1.4293 -0.6103
 3877SOL    HW222311   6.765   0.135   4.080  1.7934  0.7857  0.1382
 3878SOL     OW22312   3.939   4.475   1.907  0.0678  0.1658 -0.8182
 3878SOL    HW122313   3.889   4.556   1.877  0.9569  1.1259  0.2105
 3878SOL    HW222314   3.886   4.393   1.888 -1.6095  1.1162 -0.3105
 3879SOL     OW22315   9.399   6.105   3.574 -0.9870 -0.4403 -0.1651
 3879SOL    HW122316   9.357   6.190   3.604 -0.9659 -0.6654  0.5066
 3879SOL    HW222317   9.374   6.031   3.637 -0.0532 -0.6943 -0.0805
 3880SOL     OW22318   5.454   7.839   2.061  0.1390 -0.0613 -0.5459
 3880SOL    HW122319   5.366   7.793   2.066 -0.0586  0.3113 -0.5945
 3880SOL    HW222320   5.493   7.846   2.153  0.5270 -1.0090 -0.6300
 3881SOL     OW22321   1.580   1.369   0.938  0.0929 -0.1400  0.3064
 3881SOL    HW122322   1.490   1.351   0.899  0.3532  0.3479 -0.5214
 3881SOL    HW222323   1.586   1.465   0.964  0.8969  0.1736 -1.0094
 3882SOL     OW22324   9.103   7.923   2.325  0.0364 -0.3025 -0.2668
 3882SOL    HW122325   9.179   7.973   2.285  0.8365 -1.1751  0.1453
 3882SOL    HW222326   9.098   7.831   2.285 -0.1802 -0.5907  0.4104
 3883SOL     OW22327   3.653   1.702   3.628 -0.4018 -0.4583  0.6136
 3883SOL    HW122328   3.694   1.613   3.647  1.5840  0.8381  2.7402
 3883SOL    HW222329   3.603   1.735   3.708  0.9592  1.3837  0.7589
 3884SOL     OW22330   4.092   0.773   2.886  0.1971 -0.3484  0.0851
 3884SOL    HW122331   4.016   0.709   2.872  0.9042 -1.1258 -0.2661
 3884SOL    HW222332   4.079   0.854   2.828 -0.8962  0.0062  0.8148
 3885SOL     OW22333   9.419   9.554   2.239  0.3265  0.1198  0.1043
 3885SOL    HW122334   9.372   9.468   2.259 -0.1829  0.2454 -0.5268
 3885SOL    HW222335   9.366   9.630   2.278 -0.5412  0.3450 -1.4702
 3886SOL     OW22336   9.262   5.429   3.249 -0.4638 -0.0202 -0.5100
 3886SOL    HW122337   9.249   5.523   3.218  0.2979 -0.6301 -2.7453
 3886SOL    HW222338   9.358   5.415   3.274 -0.8517  0.1592  1.1495
 3887SOL     OW22339   4.789   3.544   3.903  0.3932 -0.5734 -0.0372
 3887SOL    HW122340   4.770   3.447   3.886  1.1841 -0.6270 -0.6408
 3887SOL    HW222341   4.704   3.596   3.895 -0.0217 -1.2079  0.2174
 3888SOL     OW22342   4.629   4.173   4.700  0.0302  0.5034  0.0030
 3888SOL    HW122343   4.706   4.115   4.673 -0.7746 -0.1453 -0.9371
 3888SOL    HW222344   4.572   4.192   4.621  0.7733  3.3737  0.1208
 3889SOL     OW22345   1.574   8.405   0.230  0.3280  0.5967  0.2334
 3889SOL    HW122346   1.567   8.310   0.200 -1.1095  0.0021  2.3866
 3889SOL    HW222347   1.668   8.424   0.259  0.6125 -0.1526 -0.1779
 3890SOL     OW22348   7.775   0.298   0.964 -0.7859 -0.0461 -0.2738
 3890SOL    HW122349   7.728   0.305   1.052  0.7407 -2.2628  0.7665
 3890SOL    HW222350   7.824   0.383   0.946 -0.5063  0.1646  1.3959
 3891SOL     OW22351   3.925   7.489   2.219  0.1206  0.7109 -0.8314
 3891SOL    HW122352   3.881   7.579   2.216 -0.5041  0.4073 -0.7649
 3891SOL    HW222353   3.947   7.459   2.126 -0.8862  0.3347 -0.9523
 3892SOL     OW22354   3.990   8.354   4.519 -0.2465 -0.3071  0.2013
 3892SOL    HW122355   3.898   8.351   4.559 -0.4607 -0.3065 -0.2736
 3892SOL    HW222356   4.047   8.284   4.561 -1.3140 -2.2715 -1.4836
 3893SOL     OW22357   2.690   4.896   2.346 -0.4687 -0.1802 -0.0516
 3893SOL    HW122358   2.633   4.970   2.382 -1.0416  0.3411 -1.9646
 3893SOL    HW222359   2.785   4.926   2.341 -0.6049  0.2286 -0.2474
 3894SOL     OW22360   8.201   0.993   3.879 -0.3079 -0.1292 -0.0076
 3894SOL    HW122361   8.278   0.943   3.839  0.3804 -1.2397  2.5935
 3894SOL    HW222362   8.123   0.932   3.889 -0.1158 -0.1616  1.3289
 3895SOL     OW22363   4.494   8.577   2.084  0.0657 -0.0733 -0.1504
 3895SOL    HW122364   4.543   8.558   2.169 -1.3980  0.4127  0.8069
 3895SOL    HW222365   4.469   8.673   2.080 -1.3740 -0.4407 -0.3300
 3896SOL     OW22366   9.733   2.809   3.797 -0.5188  0.0928 -0.2476
 3896SOL    HW122367   9.750   2.788   3.894  0.2958 -0.3754 -0.4862
 3896SOL    HW222368   9.653   2.759   3.765  0.4546 -1.4098 -0.3771
 3897SOL     OW22369   2.352   2.342   2.431  0.2662 -0.2619 -0.4474
 3897SOL    HW122370   2.368   2.247   2.402  0.7559 -0.7903  1.5163
 3897SOL    HW222371   2.293   2.343   2.512  1.2528  1.0633  0.2701
 3898SOL     OW22372   9.308   0.267   2.183 -0.0711  0.1543 -0.1772
 3898SOL    HW122373   9.370   0.189   2.198  0.0564 -0.0817 -1.8026
 3898SOL    HW222374   9.298   0.318   2.268  2.3038  0.1551  0.1518
 3899SOL     OW22375   3.699   1.092   4.377  0.5756  0.3138 -0.0223
 3899SOL    HW122376   3.738   1.131   4.460 -0.3385 -2.5427  1.8020
 3899SOL    HW222377   3.737   1.001   4.361 -0.3919  0.2121 -1.9009
 3900SOL     OW22378   4.645   3.707   0.459  0.1343  0.3811  0.6979
 3900SOL    HW122379   4.634   3.755   0.372 -2.2095  1.0672  1.3477
 3900SOL    HW222380   4.555   3.683   0.496  1.2111 -3.8552  0.7741
 3901SOL     OW22381   4.030   7.435   3.025 -0.4453 -0.2476 -0.7091
 3901SOL    HW122382   4.116   7.484   3.040  0.6370 -2.3142  0.1322
 3901SOL    HW222383   3.980   7.429   3.111 -1.4289  0.9101 -1.1899
 3902SOL     OW22384   1.189   2.755   0.955 -0.6539  0.4631 -0.0068
 3902SOL    HW122385   1.098   2.785   0.983 -0.5178  0.0758  0.8823
 3902SOL    HW222386   1.258   2.812   1.000 -0.4550  0.7453 -0.6639
 3903SOL     OW22387   2.414   0.194   4.000 -0.2806 -0.0873 -0.1896
 3903SOL    HW122388   2.337   0.137   4.027  1.7621 -3.1806 -0.6018
 3903SOL    HW222389   2.499   0.142   4.009  1.6749  2.8469 -0.8324
 3904SOL     OW22390   1.230   0.904   0.954  0.4468 -0.0557 -0.3179
 3904SOL    HW122391   1.222   0.817   1.002  0.1986  0.1983  0.0952
 3904SOL    HW222392   1.183   0.975   1.005  0.0832  0.1880 -0.9936
 3905SOL     OW22393   4.962   7.178   2.080 -0.6346 -0.0042 -1.2208
 3905SOL    HW122394   4.870   7.158   2.114 -1.1863  3.4942 -0.4150
 3905SOL    HW222395   4.960   7.190   1.981 -0.5285 -2.3873 -1.5405
 3906SOL     OW22396   6.528   7.835   3.286 -0.1638  0.3007 -0.2223
 3906SOL    HW122397   6.496   7.867   3.375 -1.1648  1.1129 -0.8666
 3906SOL    HW222398   6.468   7.869   3.214  0.5424 -0.4820 -1.2060
 3907SOL     OW22399   2.763   8.225   0.732 -0.1391  0.3585  0.5012
 3907SOL    HW122400   2.735   8.192   0.642 -0.3203  1.4164  0.1650
 3907SOL    HW222401   2.835   8.165   0.769 -0.5038 -0.4396 -0.0626
 3908SOL     OW22402   2.433   6.589   4.153 -0.0257  0.1553  0.0171
 3908SOL    HW122403   2.417   6.494   4.128 -1.7038  0.6948 -1.0186
 3908SOL    HW222404   2.531   6.604   4.164  0.1365 -2.1801  2.2490
 3909SOL     OW22405   0.892   6.612   2.035 -0.6986 -0.1393 -0.0335
 3909SOL    HW122406   0.975   6.564   2.004 -1.6862 -0.6370 -1.9402
 3909SOL    HW222407   0.919   6.689   2.093  1.0217 -1.3795  0.8954
 3910SOL     OW22408   8.723   1.093   0.824 -0.1394  0.2183  0.0359
 3910SOL    HW122409   8.634   1.137   0.813  0.2963  0.8267 -1.1437
 3910SOL    HW222410   8.781   1.116   0.746  0.2778 -2.0146 -0.3546
 3911SOL     OW22411   7.548   8.150   2.802  0.4026 -0.0781 -0.4765
 3911SOL    HW122412   7.496   8.067   2.783 -0.8759  0.9114 -1.3933
 3911SOL    HW222413   7.552   8.165   2.901 -0.8335 -0.3168 -0.3811
 3912SOL     OW22414   1.843   8.039   2.445 -0.8782 -0.2631  0.0747
 3912SOL    HW122415   1.839   7.989   2.532 -2.8285  0.9425  0.6975
 3912SOL    HW222416   1.754   8.035   2.401  0.0555 -0.7076 -1.8137
 3913SOL     OW22417   7.342   9.641   3.905 -0.1716 -0.3619 -0.3300
 3913SOL    HW122418   7.365   9.706   3.977 -0.4382 -1.2587  0.5715
 3913SOL    HW222419   7.255   9.666   3.863 -0.1079  0.0514 -0.2176
 3914SOL     OW22420   9.696   7.415   3.937 -0.3169 -0.1276  0.1332
 3914SOL    HW122421   9.637   7.338   3.963  0.8560 -1.4240 -1.0031
 3914SOL    HW222422   9.724   7.405   3.842  4.0757 -1.0776  1.4274
 3915SOL     OW22423   0.026   9.577   2.896  0.0682 -0.1756  0.1501
 3915SOL    HW122424   0.090   9.652   2.910 -0.3495  0.2187 -0.0311
 3915SOL    HW222425  -0.063   9.614   2.869  0.2639 -0.8041 -1.4453
 3916SOL     OW22426   8.402   0.960   2.034 -0.3173  0.4965 -0.5231
 3916SOL    HW122427   8.476   0.893   2.020 -0.1042  0.7203 -0.4853
 3916SOL    HW222428   8.372   0.956   2.129 -1.0740 -0.3254 -0.7923
 3917SOL     OW22429   8.394   8.346   3.056  0.6671  0.0228  0.1171
 3917SOL    HW122430   8.488   8.330   3.088  0.1906  0.6469  1.8789
 3917SOL    HW222431   8.334   8.274   3.092  0.3225  0.0795 -0.3415
 3918SOL     OW22432   0.643   1.845   0.671 -0.0057 -0.3272  0.1804
 3918SOL    HW122433   0.547   1.821   0.688  0.0676 -0.2691  0.6971
 3918SOL    HW222434   0.702   1.791   0.731  0.4015 -1.6459 -1.3809
 3919SOL     OW22435   0.594   3.600   1.009 -0.0115  0.4707 -0.0267
 3919SOL    HW122436   0.564   3.690   1.040  1.3793  0.3509  1.7194
 3919SOL    HW222437   0.690   3.603   0.984  0.0285 -0.4974 -0.0217
 3920SOL     OW22438   0.647   2.448   0.214 -0.0774 -0.1433  0.5248
 3920SOL    HW122439   0.592   2.482   0.137 -0.7182  0.1351  1.1098
 3920SOL    HW222440   0.744   2.469   0.197 -0.2590  0.2519 -0.0299
 3921SOL     OW22441   8.586   3.658   2.871  0.4995 -0.2441  1.0088
 3921SOL    HW122442   8.599   3.757   2.878  3.4600 -0.2732 -2.5451
 3921SOL    HW222443   8.646   3.613   2.938 -0.8672  0.3145  2.6489
 3922SOL     OW22444   8.915   6.024   3.013 -0.1954 -0.4959 -0.1251
 3922SOL    HW122445   8.899   6.121   3.028 -0.1201 -0.5226  0.1493
 3922SOL    HW222446   8.979   6.012   2.938 -0.4427 -0.3439 -0.3587
 3923SOL     OW22447   9.439   6.459   2.839 -0.1320  0.4269 -0.0231
 3923SOL    HW122448   9.487   6.391   2.784  0.9076  0.5153  0.7349
 3923SOL    HW222449   9.361   6.417   2.885  0.2830 -0.1715  0.1399
 3924SOL     OW22450   8.476   8.221   2.353  0.1350  0.1254 -0.4807
 3924SOL    HW122451   8.507   8.273   2.433  1.0629  1.5407 -1.7451
 3924SOL    HW222452   8.554   8.201   2.294 -0.3846 -1.8015 -0.5641
 3925SOL     OW22453   8.280   8.068   1.700 -0.3556 -0.4181 -0.3586
 3925SOL    HW122454   8.251   7.998   1.766 -0.7804 -0.2101 -0.3253
 3925SOL    HW222455   8.310   8.150   1.748  1.2518 -0.9900 -0.3563
 3926SOL     OW22456   1.108   0.032   3.182  0.0530  0.1300 -0.5823
 3926SOL    HW122457   1.059   0.089   3.116 -0.2725  1.3090  0.6736
 3926SOL    HW222458   1.054   0.024   3.266  0.1332 -1.9496 -0.6896
 3927SOL     OW22459   3.066   7.168   3.511 -0.0946 -0.5414  0.6827
 3927SOL    HW122460   2.998   7.211   3.571  0.5952  1.0922  0.3155
 3927SOL    HW222461   3.043   7.072   3.500 -2.2260 -0.0764  0.7639
 3928SOL     OW22462   1.741   4.131   3.280 -0.1629  1.3460 -0.0799
 3928SOL    HW122463   1.682   4.148   3.201 -1.4277 -1.8547  0.1288
 3928SOL    HW222464   1.772   4.219   3.318 -1.8145  2.9810 -2.3992
 3929SOL     OW22465   7.909   1.740   2.823 -0.0366 -0.3152 -0.7905
 3929SOL    HW122466   7.976   1.787   2.882  1.4256 -0.4655 -2.3012
 3929SOL    HW222467   7.820   1.741   2.868  0.9853 -0.1891  1.3116
 3930SOL     OW22468   8.166   5.710   0.319 -0.0951  0.3653 -0.0749
 3930SOL    HW122469   8.078   5.664   0.320  0.1042 -0.0852  3.4364
 3930SOL    HW222470   8.154   5.805   0.291 -1.3967 -0.1551 -1.3514
 3931SOL     OW22471   1.039   5.035   3.665 -0.3265 -0.0170  0.4571
 3931SOL    HW122472   1.023   5.133   3.676 -2.6444 -0.3839  0.5796
 3931SOL    HW222473   1.138   5.017   3.667  0.2132  2.4791 -1.0729
 3932SOL     OW22474   0.926   1.681   1.119  0.0950  0.1173  0.8537
 3932SOL    HW122475   0.876   1.694   1.204 -2.1087  0.6641 -0.4713
 3932SOL    HW222476   0.926   1.766   1.067  1.5142 -0.1760  0.3495
 3933SOL     OW22477   9.614   9.088   0.298  0.0847  0.0319 -0.7093
 3933SOL    HW122478   9.610   8.989   0.290 -2.5183  0.1369 -1.1160
 3933SOL    HW222479   9.542   9.129   0.241  0.9050  2.1326 -0.2767
 3934SOL     OW22480   2.400   8.264   0.323  0.3491  0.1306 -0.1709
 3934SOL    HW122481   2.496   8.285   0.309  0.3133 -0.1085 -0.8312
 3934SOL    HW222482   2.380   8.174   0.284 -0.4944  0.8861 -1.5370
 3935SOL     OW22483   7.607   6.806   2.531 -0.2661 -0.1573  0.1860
 3935SOL    HW122484   7.574   6.786   2.439 -1.3996 -2.8809  1.1481
 3935SOL    HW222485   7.669   6.734   2.561  3.1049  2.5898  0.1840
 3936SOL     OW22486   4.528   6.772   3.022 -0.0247 -1.1089  0.6216
 3936SOL    HW122487   4.575   6.751   3.107  1.5802 -1.6868 -0.3888
 3936SOL    HW222488   4.515   6.688   2.969 -0.2832 -0.6338 -0.0787
 3937SOL     OW22489   8.606   0.799   3.474 -0.2693  0.1023 -0.1406
 3937SOL    HW122490   8.589   0.702   3.455  0.9434  0.0142 -0.8035
 3937SOL    HW222491   8.657   0.808   3.559 -0.4808  0.1771 -0.0193
 3938SOL     OW22492   7.134   3.299   0.186  0.0779  0.3991  0.3576
 3938SOL    HW122493   7.158   3.276   0.092 -3.4577 -1.3420 -0.2049
 3938SOL    HW222494   7.045   3.346   0.187  1.0741  2.3086  2.6676
 3939SOL     OW22495   1.854   3.667   1.577  0.2318  0.2190  0.4313
 3939SOL    HW122496   1.819   3.620   1.496 -0.2310  3.2676 -1.2148
 3939SOL    HW222497   1.940   3.713   1.554  0.0667  1.1589  1.6256
 3940SOL     OW22498   8.149   6.959   2.698 -0.3428  0.2179 -0.0731
 3940SOL    HW122499   8.145   6.970   2.798 -0.1299 -1.5498  0.1356
 3940SOL    HW222500   8.236   6.917   2.673  0.4435  2.4325 -1.2035
 3941SOL     OW22501   0.172   4.657   1.094 -0.5319 -0.2876 -0.4394
 3941SOL    HW122502   0.074   4.658   1.073 -0.6602 -0.8943  0.1054
 3941SOL    HW222503   0.199   4.564   1.119 -0.2899  0.2991  1.6156
 3942SOL     OW22504   1.142   1.348   3.321 -0.2638 -0.1679  0.3683
 3942SOL    HW122505   1.117   1.275   3.385  1.5641  1.5537  3.1531
 3942SOL    HW222506   1.219   1.400   3.358 -0.7996  2.4865 -2.0864
 3943SOL     OW22507   2.256   1.539   0.862 -0.1345 -0.2385 -0.5170
 3943SOL    HW122508   2.160   1.514   0.873 -0.8153  2.3269 -0.4564
 3943SOL    HW222509   2.296   1.560   0.951 -0.0285  0.4772 -0.7291
 3944SOL     OW22510   0.864   1.461   0.878  0.2208 -0.0936  0.2545
 3944SOL    HW122511   0.845   1.558   0.893  0.3895  0.2204 -1.4894
 3944SOL    HW222512   0.818   1.407   0.948 -2.0644  1.0640 -0.2865
 3945SOL     OW22513   1.938   8.709   4.686 -1.1655  0.2556  0.0338
 3945SOL    HW122514   1.847   8.709   4.646 -0.9831 -1.2872 -0.4101
 3945SOL    HW222515   1.931   8.694   4.785 -1.3357 -0.8115 -0.1401
 3946SOL     OW22516   3.981   1.720   3.147 -0.3198  0.0814  1.3167
 3946SOL    HW122517   3.901   1.676   3.107  1.0702 -0.4091 -1.0721
 3946SOL    HW222518   4.024   1.659   3.213 -0.7370 -0.5086  1.0435
 3947SOL     OW22519   4.676   6.957   3.616 -0.4573  0.1147  0.0170
 3947SOL    HW122520   4.653   6.965   3.519 -0.6027 -1.0289 -0.0409
 3947SOL    HW222521   4.730   6.874   3.632 -1.7420 -0.5296  1.1528
 3948SOL     OW22522   9.706   9.292   0.489 -0.0220  0.7752 -0.8436
 3948SOL    HW122523   9.797   9.251   0.497 -0.5374 -0.2617 -0.2526
 3948SOL    HW222524   9.654   9.244   0.419 -1.1754 -0.6397  0.9399
 3949SOL     OW22525   3.265   6.987   2.143  0.7329 -0.2133 -0.0668
 3949SOL    HW122526   3.284   6.940   2.229  1.4555 -0.6855 -0.4785
 3949SOL    HW222527   3.346   7.037   2.113  0.4984 -0.0807 -0.4903
 3950SOL     OW22528   2.538   4.391   0.618 -0.1086  0.0025 -0.2127
 3950SOL    HW122529   2.637   4.382   0.626 -0.0363  0.9373 -0.0502
 3950SOL    HW222530   2.515   4.485   0.592 -0.9663 -0.1334  0.0463
 3951SOL     OW22531   3.273   2.009   3.641 -0.0246 -0.5470  0.0076
 3951SOL    HW122532   3.319   2.036   3.725 -0.0971 -1.2984  0.2957
 3951SOL    HW222533   3.237   1.916   3.651  0.4260 -0.8444 -1.0362
 3952SOL     OW22534   0.161   9.193   3.427  0.0912  0.2061 -0.2521
 3952SOL    HW122535   0.099   9.236   3.493 -1.3453  0.3078 -1.6543
 3952SOL    HW222536   0.177   9.098   3.453  0.5584  0.6007  0.9476
 3953SOL     OW22537   3.736   3.853   0.060 -0.4278  0.5999  0.2480
 3953SOL    HW122538   3.805   3.806   0.116 -0.8762 -0.6494 -0.2207
 3953SOL    HW222539   3.782   3.909  -0.009  0.1275  0.3797  0.4345
 3954SOL     OW22540   4.053   0.141   0.753 -0.1541 -0.1784 -0.3573
 3954SOL    HW122541   3.982   0.208   0.732  1.3427  1.3674 -0.6211
 3954SOL    HW222542   4.102   0.169   0.836  0.3054 -1.1020 -0.3067
 3955SOL     OW22543   4.418   8.037   3.790  0.4500 -0.0813 -0.3953
 3955SOL    HW122544   4.505   8.020   3.837  0.6299 -2.6329 -1.5836
 3955SOL    HW222545   4.431   8.023   3.691 -1.5466 -1.5273 -0.4754
 3956SOL     OW22546   8.280   1.965   4.388  0.0409 -0.1340  0.1881
 3956SOL    HW122547   8.335   1.881   4.390  2.4715  1.4291  2.0102
 3956SOL    HW222548   8.265   1.997   4.481 -3.3073 -0.0280 -0.3277
 3957SOL     OW22549   7.501   1.860   2.452 -0.2755  0.0345 -0.2867
 3957SOL    HW122550   7.430   1.794   2.478  1.5080 -1.8890 -0.1132
 3957SOL    HW222551   7.531   1.842   2.359  0.7191  0.1580  0.0074
 3958SOL     OW22552   5.064   6.844   2.815  0.2931 -0.5128 -0.1044
 3958SOL    HW122553   5.076   6.899   2.897 -1.0127 -0.7248  0.2567
 3958SOL    HW222554   5.120   6.880   2.741 -2.1416  2.6656 -0.5199
 3959SOL     OW22555   3.213   9.206   1.339 -0.0797 -0.1818 -0.0867
 3959SOL    HW122556   3.255   9.212   1.248 -0.2653  1.4368 -0.0793
 3959SOL    HW222557   3.145   9.132   1.339 -0.4444  0.1390 -1.4205
 3960SOL     OW22558   3.547   0.340   4.734 -0.0008 -0.5377  0.5963
 3960SOL    HW122559   3.646   0.334   4.740 -0.0585 -0.8292  1.4003
 3960SOL    HW222560   3.506   0.273   4.795 -0.6834  1.4118  2.3504
 3961SOL     OW22561   7.889   5.953   2.399 -0.0978 -0.5038  0.7425
 3961SOL    HW122562   7.889   5.945   2.300  0.2461 -1.5574  0.8179
 3961SOL    HW222563   7.959   6.019   2.428  0.7335 -1.1981  0.3484
 3962SOL     OW22564   4.378   7.750   0.447 -0.6331  0.4477  0.7458
 3962SOL    HW122565   4.302   7.701   0.405  0.0148 -0.6204  0.8201
 3962SOL    HW222566   4.397   7.833   0.394 -2.8381  1.5373  1.6032
 3963SOL     OW22567   8.901   9.909   2.126  0.2919 -0.0392  0.0223
 3963SOL    HW122568   8.846   9.890   2.207 -0.9999 -2.0497 -1.2940
 3963SOL    HW222569   8.851   9.971   2.065  1.3609  1.6658  0.8153
 3964SOL     OW22570   3.291   9.189   4.165  0.0054  0.7438 -0.3622
 3964SOL    HW122571   3.364   9.257   4.154 -0.7003  1.4766 -0.6022
 3964SOL    HW222572   3.277   9.171   4.263  0.4790  0.6262 -0.3140
 3965SOL     OW22573   0.192   1.183   4.256  0.0086 -0.2251  0.0367
 3965SOL    HW122574   0.186   1.092   4.213  1.4360 -0.9547  1.3217
 3965SOL    HW222575   0.161   1.177   4.351  0.4081  0.5582  0.2228
 3966SOL     OW22576   4.405   9.687   3.318 -0.4060 -0.0095  0.7503
 3966SOL    HW122577   4.383   9.591   3.299  0.1384 -0.4306  2.1978
 3966SOL    HW222578   4.395   9.704   3.416 -1.0817  1.5694  0.4141
 3967SOL     OW22579   5.544   0.423   4.251  0.1413  0.0076  0.1965
 3967SOL    HW122580   5.534   0.330   4.287  2.3333  0.3141  1.7291
 3967SOL    HW222581   5.520   0.489   4.322  0.0430  0.6244 -0.4041
 3968SOL     OW22582   1.276   4.870   0.815  0.8086  0.0271 -0.1775
 3968SOL    HW122583   1.280   4.922   0.729 -2.1535  1.3905  0.4174
 3968SOL    HW222584   1.227   4.785   0.800  1.2657 -0.2549 -0.0765
 3969SOL     OW22585   9.944   8.917   3.209  0.3201 -0.5913  0.4989
 3969SOL    HW122586   9.938   8.844   3.277 -1.5997  0.0293  1.0222
 3969SOL    HW222587   9.924   8.880   3.118 -1.1074 -0.6578  0.8227
 3970SOL     OW22588   9.289   2.993   0.684 -0.1748  0.2536  0.1624
 3970SOL    HW122589   9.323   3.005   0.590  0.6094 -0.2499  0.3825
 3970SOL    HW222590   9.293   3.080   0.732 -1.5177  0.7455 -0.5752
 3971SOL     OW22591   3.982   1.694   1.892 -0.1722 -0.2547 -0.4785
 3971SOL    HW122592   3.889   1.672   1.922  0.0837  0.7049  1.0851
 3971SOL    HW222593   4.047   1.654   1.957  0.4506  0.7106 -0.5106
 3972SOL     OW22594   7.655   2.562   0.604 -0.1344  0.3216  0.2640
 3972SOL    HW122595   7.614   2.633   0.547 -0.2014  0.3429  0.3388
 3972SOL    HW222596   7.584   2.506   0.645 -0.1183  0.8750  1.0521
 3973SOL     OW22597   1.607   9.385   3.005  0.0574 -0.2253  0.0189
 3973SOL    HW122598   1.588   9.328   3.085  4.7311 -1.7416  0.2214
 3973SOL    HW222599   1.672   9.457   3.030  0.1608  0.4302 -2.0314
 3974SOL     OW22600   4.389   9.861   4.051  0.0986  0.0562 -0.4135
 3974SOL    HW122601   4.462   9.846   3.985 -0.4122 -1.5183 -0.6429
 3974SOL    HW222602   4.302   9.832   4.011 -0.3189 -0.2498  0.6999
 3975SOL     OW22603   4.395   2.264   2.997  0.3115  0.2175  0.4242
 3975SOL    HW122604   4.424   2.206   2.920 -0.5624 -0.8648  0.8838
 3975SOL    HW222605   4.422   2.358   2.980 -1.4393  0.3092 -2.0681
 3976SOL     OW22606   1.626   6.813   4.057  0.5879 -0.2578 -0.2890
 3976SOL    HW122607   1.679   6.769   3.984  0.7176 -0.3277 -0.1517
 3976SOL    HW222608   1.672   6.896   4.087  0.5906 -0.2880 -0.2088
 3977SOL     OW22609   1.938   2.901   3.286 -0.5527 -0.0407 -0.7253
 3977SOL    HW122610   1.961   2.847   3.205  0.0762 -1.3973  0.3602
 3977SOL    HW222611   1.930   2.842   3.365  0.8830  1.5387  0.6404
 3978SOL     OW22612   9.769   5.172   1.389  0.2361 -0.9609 -0.2037
 3978SOL    HW122613   9.766   5.254   1.331  0.8489 -2.3194 -2.1846
 3978SOL    HW222614   9.690   5.114   1.369 -0.1512 -0.9125  1.1369
 3979SOL     OW22615   9.848   6.443   2.248 -0.0653  0.6027 -0.2234
 3979SOL    HW122616   9.838   6.360   2.193 -2.1848  1.9677 -2.0117
 3979SOL    HW222617   9.842   6.420   2.345 -0.3964 -1.3340 -0.6806
 3980SOL     OW22618   8.994   2.685   4.772 -0.6221 -0.2924  0.6513
 3980SOL    HW122619   8.976   2.762   4.711  0.2592  0.2975  1.1259
 3980SOL    HW222620   8.984   2.599   4.720 -1.4525  0.1369  0.0871
 3981SOL     OW22621   2.315   5.465   3.665 -0.7864  0.1811 -0.2918
 3981SOL    HW122622   2.321   5.537   3.734  0.2257 -0.2125  0.0459
 3981SOL    HW222623   2.405   5.422   3.654 -1.4951 -1.3946 -0.0864
 3982SOL     OW22624   0.879   8.964   3.287 -0.2590  0.0317  0.3332
 3982SOL    HW122625   0.799   8.935   3.235 -0.5944  0.6553  0.5089
 3982SOL    HW222626   0.852   9.026   3.360  0.5010  1.0204 -0.2088
 3983SOL     OW22627   5.340   7.177   1.911 -0.5780  0.1555 -0.0358
 3983SOL    HW122628   5.365   7.081   1.921 -0.2089  0.0608 -1.7526
 3983SOL    HW222629   5.423   7.234   1.907 -0.7282  0.3179 -1.0903
 3984SOL     OW22630   9.636   1.300   1.537  0.3192 -0.7588 -0.2953
 3984SOL    HW122631   9.622   1.329   1.631  1.9437  2.0739 -0.8731
 3984SOL    HW222632   9.549   1.307   1.487  0.1975  0.9879  0.1426
 3985SOL     OW22633   2.303   5.740   4.280 -0.1957 -0.0076 -0.0996
 3985SOL    HW122634   2.204   5.724   4.274 -1.0247  4.0177  1.1196
 3985SOL    HW222635   2.330   5.747   4.376  0.9696  0.4207 -0.4533
 3986SOL     OW22636   1.545   3.059   3.692  0.0440 -0.5073  0.3464
 3986SOL    HW122637   1.549   3.148   3.737  1.9077 -0.9850  1.1754
 3986SOL    HW222638   1.484   2.999   3.743 -2.3670  0.6965 -1.0207
 3987SOL     OW22639   8.724   7.256   2.947 -0.0097  0.3734  0.1545
 3987SOL    HW122640   8.751   7.348   2.921 -0.9153  0.1766 -1.5699
 3987SOL    HW222641   8.627   7.243   2.927  0.7629 -1.8872 -2.3730
 3988SOL     OW22642   2.761   7.199   3.916 -0.0715 -0.0028 -0.6182
 3988SOL    HW122643   2.706   7.178   3.998  2.4992 -0.7805  0.9753
 3988SOL    HW222644   2.786   7.114   3.871  0.6822  0.2921 -0.7549
 3989SOL     OW22645   8.043   1.085   3.590 -0.4607 -0.5175  0.1881
 3989SOL    HW122646   8.030   1.158   3.656  0.4666  0.5669 -0.8043
 3989SOL    HW222647   8.051   1.124   3.498 -1.4687 -1.9779 -0.5359
 3990SOL     OW22648   9.939   0.769   4.117 -0.3082  0.1007 -0.0555
 3990SOL    HW122649   9.840   0.787   4.124 -0.5756 -1.1434 -0.5429
 3990SOL    HW222650   9.954   0.675   4.088  1.0341  0.3286 -0.1361
 3991SOL     OW22651   8.057   2.194   4.532 -0.2969  0.5679 -0.2203
 3991SOL    HW122652   8.096   2.226   4.446 -0.9499  1.5188 -0.1696
 3991SOL    HW222653   8.129   2.153   4.588  0.2678  0.6106 -0.9084
 3992SOL     OW22654   7.163   9.183   0.719 -0.3492  0.0710 -0.4686
 3992SOL    HW122655   7.227   9.224   0.654  0.3888  0.9467  0.7623
 3992SOL    HW222656   7.084   9.244   0.731  1.2474  1.7351  2.1534
 3993SOL     OW22657   9.182   4.645   2.872  0.0129  0.0939  0.6785
 3993SOL    HW122658   9.165   4.556   2.915 -0.8094 -0.5628 -0.9463
 3993SOL    HW222659   9.204   4.631   2.776 -1.6474  1.7390  0.0332
 3994SOL     OW22660   8.635   8.335   1.730  0.2734  0.2250  0.1527
 3994SOL    HW122661   8.704   8.364   1.664  1.1273 -2.5130 -0.1995
 3994SOL    HW222662   8.654   8.379   1.818  0.9421  1.4760 -0.5867
 3995SOL     OW22663   3.557   2.301   3.817 -0.4735 -0.9299 -0.3528
 3995SOL    HW122664   3.560   2.273   3.721  1.2335  1.7092 -1.1285
 3995SOL    HW222665   3.646   2.340   3.843 -1.8137  1.0322  1.4509
 3996SOL     OW22666   0.355   0.518   1.539  0.5636 -0.4542 -0.2091
 3996SOL    HW122667   0.270   0.552   1.500  0.6821 -0.5082 -0.5202
 3996SOL    HW222668   0.335   0.457   1.616  0.3328 -0.2214 -0.0847
 3997SOL     OW22669   1.532   4.761   0.538  0.3331  0.0093  0.1294
 3997SOL    HW122670   1.517   4.682   0.596 -0.0277  1.0351  1.4534
 3997SOL    HW222671   1.631   4.779   0.532  0.4332 -0.6862 -0.3885
 3998SOL     OW22672   3.624   2.007   2.353  0.3577  0.3903 -0.3095
 3998SOL    HW122673   3.685   1.951   2.297 -0.5837 -0.9869  0.0070
 3998SOL    HW222674   3.531   1.969   2.348 -0.2491  1.7924  0.1075
 3999SOL     OW22675   9.613   9.330   4.368  0.3340  0.0032  0.3005
 3999SOL    HW122676   9.549   9.370   4.303  1.0331 -0.2649 -0.5637
 3999SOL    HW222677   9.596   9.231   4.375 -0.1442  0.1284  0.9966
 4000SOL     OW22678   9.102   2.734   4.220 -0.3399  0.7734  0.9894
 4000SOL    HW122679   9.079   2.640   4.246  2.9153 -0.1200  0.8939
 4000SOL    HW222680   9.138   2.783   4.299  1.0972  0.8735  0.2926
 4001SOL     OW22681   6.431   9.928   3.552 -0.6984  0.0759 -0.5282
 4001SOL    HW122682   6.436  10.021   3.591  1.9909  0.2810 -1.2631
 4001SOL    HW222683   6.414   9.862   3.625 -0.3379  0.9212  0.3273
 4002SOL     OW22684   7.913   5.006   1.022 -0.1053 -0.1783 -0.8478
 4002SOL    HW122685   7.969   4.966   1.095 -1.9894 -0.8927  0.2267
 4002SOL    HW222686   7.969   5.017   0.940  1.5366 -1.1461  0.1135
 4003SOL     OW22687   4.091   0.858   0.803  0.4459 -0.2896 -0.3817
 4003SOL    HW122688   4.071   0.780   0.862  0.0158 -0.3466 -0.6061
 4003SOL    HW222689   4.147   0.924   0.854  0.4540 -0.5459 -0.0557
 4004SOL     OW22690   0.021   3.541   4.285  0.5628 -0.7708  0.6498
 4004SOL    HW122691   0.014   3.461   4.225  1.2219 -1.4290  1.4285
 4004SOL    HW222692   0.104   3.592   4.263  0.2587 -0.4213  0.3050
 4005SOL     OW22693   2.238   4.366   2.951 -0.3472  0.4992 -0.3579
 4005SOL    HW122694   2.311   4.418   2.996 -1.4981  1.2601  0.6594
 4005SOL    HW222695   2.227   4.400   2.857 -0.1350  1.1475 -0.1545
 4006SOL     OW22696   0.893   9.372   0.251 -0.2239  0.0808 -0.1143
 4006SOL    HW122697   0.929   9.351   0.160  0.3508  0.1779  0.0850
 4006SOL    HW222698   0.907   9.469   0.271 -0.4924  0.0929  0.0134
 4007SOL     OW22699   2.009   7.505   1.682 -0.1813 -0.5395 -0.8874
 4007SOL    HW122700   1.969   7.530   1.770  1.8102 -0.2435 -0.0177
 4007SOL    HW222701   1.984   7.411   1.659 -1.0505 -0.4791 -0.1995
 4008SOL     OW22702   8.511   4.281   3.694  0.1205  0.2949 -0.2327
 4008SOL    HW122703   8.548   4.230   3.772  2.2507  2.2697  0.0976
 4008SOL    HW222704   8.584   4.333   3.651 -2.0242  3.2130 -0.4619
 4009SOL     OW22705   8.925   7.206   1.411 -0.2134  0.1042  0.3404
 4009SOL    HW122706   9.025   7.210   1.411 -0.2226  0.3399  0.7165
 4009SOL    HW222707   8.894   7.163   1.326  0.1442  1.7744 -0.6612
 4010SOL     OW22708   9.630   7.471   2.508  0.3383  0.0622 -0.3613
 4010SOL    HW122709   9.646   7.406   2.583  1.0002  0.8758  0.2183
 4010SOL    HW222710   9.662   7.562   2.536 -1.6384  0.8920 -0.7089
 4011SOL     OW22711   1.665   0.757   3.811  0.6942  0.0016 -0.3037
 4011SOL    HW122712   1.591   0.781   3.874  0.0201 -1.0677 -0.6663
 4011SOL    HW222713   1.687   0.660   3.823  1.8237  0.2476 -0.4161
 4012SOL     OW22714   8.938   3.837   0.804  0.3851  0.1448  0.1815
 4012SOL    HW122715   8.852   3.787   0.790  1.1765 -1.8965  2.2306
 4012SOL    HW222716   9.004   3.810   0.734 -0.3432  1.0714 -0.8821
 4013SOL     OW22717   7.399   7.364   2.917 -0.7372 -0.0849  0.6427
 4013SOL    HW122718   7.491   7.324   2.919 -0.4734  0.4965  0.2867
 4013SOL    HW222719   7.338   7.311   2.976 -0.2263 -0.6021  0.7121
 4014SOL     OW22720   2.333   9.088   0.286  0.2149 -0.0010 -0.7371
 4014SOL    HW122721   2.235   9.101   0.274  0.1202 -0.4350 -0.4268
 4014SOL    HW222722   2.354   9.070   0.382  0.9299  2.9913 -0.2903
 4015SOL     OW22723   0.610   3.045   4.209  0.5603 -0.2535 -0.1634
 4015SOL    HW122724   0.571   3.075   4.296 -1.5693 -0.8996 -0.8713
 4015SOL    HW222725   0.665   2.963   4.224 -0.8176 -1.0995  0.3993
 4016SOL     OW22726   3.899   9.459   1.906 -0.3891 -0.0255  0.2188
 4016SOL    HW122727   3.810   9.414   1.899 -1.0337  1.3394 -0.6818
 4016SOL    HW222728   3.972   9.393   1.888 -1.2448 -1.0199  0.3698
 4017SOL     OW22729   1.588   2.420   0.928  0.0730  0.3799  0.6272
 4017SOL    HW122730   1.499   2.431   0.972  0.3021  3.0729  0.4701
 4017SOL    HW222731   1.653   2.379   0.993 -0.6963  0.4241  1.4308
 4018SOL     OW22732   9.928   0.825   3.754 -0.1736 -0.1582 -0.6856
 4018SOL    HW122733   9.900   0.868   3.840  1.9426 -1.1293  0.5193
 4018SOL    HW222734   9.954   0.896   3.688 -3.1136  0.6557 -1.0373
 4019SOL     OW22735   5.747   9.868   4.003 -0.3355 -0.1826 -0.0417
 4019SOL    HW122736   5.810   9.903   4.073 -1.3367 -2.0503  1.8371
 4019SOL    HW222737   5.785   9.887   3.912  2.1682  0.1404  1.0242
 4020SOL     OW22738   5.153   6.953   3.058 -0.0276  0.2908  0.7157
 4020SOL    HW122739   5.170   7.044   3.094  1.1320 -0.1371  1.2711
 4020SOL    HW222740   5.228   6.892   3.084 -0.3219 -0.5892 -0.4571
 4021SOL     OW22741   5.958   8.039   3.441 -0.2572  0.3063 -0.1520
 4021SOL    HW122742   5.885   8.071   3.380 -0.3652 -1.2173 -0.8357
 4021SOL    HW222743   5.938   8.068   3.535 -1.2871  0.6540 -0.4665
 4022SOL     OW22744   7.722   7.797   3.153 -0.1920 -0.2169 -0.1835
 4022SOL    HW122745   7.815   7.803   3.117 -0.6823  2.0317 -1.1609
 4022SOL    HW222746   7.670   7.729   3.101  0.5077 -0.4639 -0.5622
 4023SOL     OW22747   3.241   5.081   3.963 -0.1316 -0.1999  0.0053
 4023SOL    HW122748   3.219   5.035   4.049 -2.1519 -0.0890 -0.4255
 4023SOL    HW222749   3.290   5.166   3.983  2.2328 -1.7329  0.8763
 4024SOL     OW22750   2.861   2.786   3.690 -0.0068 -0.1860  0.4236
 4024SOL    HW122751   2.960   2.778   3.698 -0.1288 -1.5839  0.6711
 4024SOL    HW222752   2.818   2.701   3.720 -1.3199  0.6385  0.9385
 4025SOL     OW22753   8.646   4.989   1.500  0.4458 -0.0732 -0.0972
 4025SOL    HW122754   8.611   4.911   1.449 -0.6448  1.1204 -1.2158
 4025SOL    HW222755   8.581   5.013   1.573  1.3571 -0.9462  1.0134
 4026SOL     OW22756   1.564   6.232   2.274 -0.3815 -0.2481 -0.0799
 4026SOL    HW122757   1.620   6.264   2.198 -0.1500  0.2192  0.2891
 4026SOL    HW222758   1.491   6.298   2.293 -1.4337 -1.1421 -0.9537
 4027SOL     OW22759   9.464   0.871   3.228  0.2512 -0.3037 -0.0048
 4027SOL    HW122760   9.527   0.809   3.182 -0.6704 -0.7940 -0.6065
 4027SOL    HW222761   9.415   0.926   3.160  0.5533  0.5974  0.4913
 4028SOL     OW22762   3.572   4.071   2.724 -0.0650 -0.3369 -0.5201
 4028SOL    HW122763   3.569   3.995   2.659  0.1826 -0.5329 -0.2988
 4028SOL    HW222764   3.520   4.047   2.806 -1.2285  0.2889 -1.0512
 4029SOL     OW22765   9.052   9.479   2.989  0.3198 -0.5398 -0.2583
 4029SOL    HW122766   9.126   9.543   3.006  0.3043 -0.5851 -0.0114
 4029SOL    HW222767   9.080   9.387   3.016 -0.3231 -0.3274  1.1838
 4030SOL     OW22768   3.624   8.521   2.423 -0.1768  0.0554 -0.2728
 4030SOL    HW122769   3.718   8.495   2.401  0.0906  0.0613  0.8174
 4030SOL    HW222770   3.602   8.492   2.516 -0.1549  2.8595  0.6772
 4031SOL     OW22771   7.990   2.779   1.149  0.3681  0.3903  0.3075
 4031SOL    HW122772   8.053   2.766   1.225  2.4424  0.6698 -1.2903
 4031SOL    HW222773   8.007   2.868   1.106 -2.9107  1.6262  1.4220
 4032SOL     OW22774   8.563   1.580   0.021  0.3486 -0.0960 -0.1753
 4032SOL    HW122775   8.465   1.575   0.002  0.3489 -2.8518  0.3613
 4032SOL    HW222776   8.614   1.555  -0.061  0.7225  4.2370 -1.3655
 4033SOL     OW22777   7.834   7.368   3.879 -0.2955 -0.5286 -0.0792
 4033SOL    HW122778   7.799   7.450   3.926 -0.7587 -0.9331  0.2822
 4033SOL    HW222779   7.836   7.292   3.943  2.6204 -0.1671  0.3253
 4034SOL     OW22780   2.510   7.790   3.003 -0.2260  0.2518 -0.5542
 4034SOL    HW122781   2.452   7.871   2.989  1.7842  1.6387 -1.0630
 4034SOL    HW222782   2.541   7.756   2.914 -0.6202 -0.7471 -0.3074
 4035SOL     OW22783   2.527   4.339   0.186  0.1253 -0.9043 -0.2533
 4035SOL    HW122784   2.524   4.284   0.270  0.9754 -1.4981 -0.6061
 4035SOL    HW222785   2.509   4.435   0.208 -0.5334 -1.1943  0.4856
 4036SOL     OW22786   3.765   5.568   3.698  0.0292 -0.4258  0.0729
 4036SOL    HW122787   3.807   5.505   3.633  0.4434 -1.9080  1.7491
 4036SOL    HW222788   3.715   5.639   3.648  2.4298 -0.0495 -1.9303
 4037SOL     OW22789   3.781   4.090   1.573 -0.6404 -0.1129 -0.7807
 4037SOL    HW122790   3.815   4.111   1.665 -1.0105  0.8995 -0.8695
 4037SOL    HW222791   3.682   4.075   1.577 -0.6328 -0.2231 -0.9872
 4038SOL     OW22792   3.889   8.484   2.877 -0.4082  0.1629  0.2501
 4038SOL    HW122793   3.805   8.482   2.932 -1.8104  0.9412 -1.8085
 4038SOL    HW222794   3.895   8.572   2.830  2.6632  0.9581  2.0084
 4039SOL     OW22795   4.594   7.116   1.543 -0.0828 -0.3273 -0.5609
 4039SOL    HW122796   4.511   7.171   1.545  0.1085 -0.0381  2.7245
 4039SOL    HW222797   4.580   7.036   1.484 -2.4623  0.0607 -0.5580
 4040SOL     OW22798   9.506   5.239   0.531 -0.7452 -0.4143 -0.2497
 4040SOL    HW122799   9.409   5.222   0.516 -0.9149 -0.4546  0.8267
 4040SOL    HW222800   9.552   5.153   0.553 -0.8789 -0.1028  1.3598
 4041SOL     OW22801   1.875   5.663   2.118  0.3026  0.3102  0.3694
 4041SOL    HW122802   1.827   5.751   2.125 -0.3299  0.0538 -0.6190
 4041SOL    HW222803   1.809   5.588   2.127  0.6111 -0.0453 -0.2928
 4042SOL     OW22804   3.244   5.563   3.042  0.4875  0.2075 -0.2462
 4042SOL    HW122805   3.257   5.593   2.947 -1.7392  2.2705  0.0520
 4042SOL    HW222806   3.316   5.601   3.099 -0.2904  2.0957 -0.4913
 4043SOL     OW22807   1.980   4.711   3.687 -0.3281 -0.2463  0.7336
 4043SOL    HW122808   1.982   4.775   3.610  0.5634 -1.8163 -0.5674
 4043SOL    HW222809   1.945   4.758   3.768 -0.2735  1.7159 -0.3509
 4044SOL     OW22810   8.653   4.667   1.641 -0.0693 -0.2562 -0.5949
 4044SOL    HW122811   8.592   4.704   1.712 -0.1328 -0.7405 -0.3980
 4044SOL    HW222812   8.748   4.682   1.669 -0.0920  0.0551 -0.6719
 4045SOL     OW22813   6.860   9.859   3.055 -0.2616  0.1766  0.1192
 4045SOL    HW122814   6.863   9.768   3.014 -1.7850  0.7557 -1.3748
 4045SOL    HW222815   6.900   9.857   3.146  0.2531 -1.8556 -0.1373
 4046SOL     OW22816   3.684   0.878   1.627  0.0847 -0.0771  0.1334
 4046SOL    HW122817   3.672   0.951   1.695 -1.1208  0.0927 -0.2482
 4046SOL    HW222818   3.778   0.845   1.630  0.4899  1.0961  0.7126
 4047SOL     OW22819   3.454   1.767   4.778 -0.8438  0.2345 -0.0232
 4047SOL    HW122820   3.514   1.842   4.749 -0.5137  0.4131  1.1188
 4047SOL    HW222821   3.486   1.729   4.864 -0.5001 -1.8356 -1.0472
 4048SOL     OW22822   7.685   0.963   3.963  0.3866 -0.5487  0.0399
 4048SOL    HW122823   7.718   0.995   3.874  0.3046  0.2719  0.3010
 4048SOL    HW222824   7.597   0.917   3.951 -0.0095  0.2558 -0.1987
 4049SOL     OW22825   9.012   9.711   2.430 -0.2922 -0.2802 -0.3424
 4049SOL    HW122826   9.004   9.642   2.359 -0.2892 -1.2947  0.6250
 4049SOL    HW222827   8.944   9.783   2.416 -0.1724 -0.3795 -1.4547
 4050SOL     OW22828   1.901   7.662   2.425  0.7209 -0.5781 -0.3230
 4050SOL    HW122829   1.836   7.683   2.352  1.4347 -1.0733 -1.0943
 4050SOL    HW222830   1.880   7.572   2.464 -0.5793  0.3056  1.0917
 4051SOL     OW22831   1.584   6.193   1.534 -0.3028 -0.4629 -0.0616
 4051SOL    HW122832   1.571   6.098   1.563 -0.8658 -0.9979 -1.9733
 4051SOL    HW222833   1.502   6.246   1.556  0.0151 -0.4244  1.0175
 4052SOL     OW22834   9.530   0.430   0.382  0.1493  0.2789 -0.4702
 4052SOL    HW122835   9.579   0.385   0.307  3.3192  2.7009 -0.0031
 4052SOL    HW222836   9.586   0.507   0.416 -1.9398  0.2550  3.2734
 4053SOL     OW22837   4.378   0.344   0.005  0.0910 -0.1127 -0.0620
 4053SOL    HW122838   4.397   0.249  -0.021  1.1413 -0.0906  0.6123
 4053SOL    HW222839   4.463   0.394   0.016 -0.4135  0.5458  0.9551
 4054SOL     OW22840   0.488   8.797   4.158 -0.3643  0.1065 -0.2414
 4054SOL    HW122841   0.493   8.859   4.079  0.4667  0.1954 -0.1276
 4054SOL    HW222842   0.515   8.846   4.241 -0.6634 -0.1476  0.0076
 4055SOL     OW22843   0.067   5.490   2.319  0.1305  0.4854 -0.3056
 4055SOL    HW122844   0.013   5.500   2.402  0.6642 -0.8875  0.2101
 4055SOL    HW222845   0.030   5.551   2.248 -0.0842  1.9415  1.0370
 4056SOL     OW22846   3.889   7.781   1.998  0.6967 -0.0766 -0.0263
 4056SOL    HW122847   3.849   7.695   1.965  1.8524 -0.8456  0.5223
 4056SOL    HW222848   3.829   7.821   2.068  0.2646 -0.5531 -0.1190
 4057SOL     OW22849   9.980   4.296   2.911  0.2639  0.4830  0.2377
 4057SOL    HW122850   9.993   4.274   2.814  0.7583  0.8374  0.2223
 4057SOL    HW222851  10.032   4.377   2.934 -0.3849  0.7898  0.6485
 4058SOL     OW22852   8.588   7.569   0.940 -0.5677 -0.3646 -0.2523
 4058SOL    HW122853   8.500   7.537   0.904  0.1786 -2.8248  0.0320
 4058SOL    HW222854   8.639   7.615   0.867 -1.2860 -0.6462 -0.9370
 4059SOL     OW22855   1.185   3.719   4.593  0.3578 -0.7137  0.4973
 4059SOL    HW122856   1.215   3.632   4.555  1.4235 -0.2788  0.3144
 4059SOL    HW222857   1.258   3.787   4.583 -1.2457  0.8135 -1.3684
 4060SOL     OW22858   3.010   3.057   4.164  0.2473  0.3600 -0.0071
 4060SOL    HW122859   3.054   3.138   4.201  2.2764 -0.2926 -0.8711
 4060SOL    HW222860   3.007   2.985   4.234  0.5167  0.4326  0.0806
 4061SOL     OW22861   6.303   9.582   1.561 -0.5909  0.3985  0.1674
 4061SOL    HW122862   6.222   9.590   1.503  0.0330  0.0029 -0.7793
 4061SOL    HW222863   6.328   9.485   1.568 -0.2067  0.5212  0.4615
 4062SOL     OW22864   0.343   3.659   2.848  0.4429  0.1647 -0.3614
 4062SOL    HW122865   0.304   3.664   2.940  0.4910 -0.2464 -0.3185
 4062SOL    HW222866   0.441   3.676   2.852  0.2584  1.3239 -0.4846
 4063SOL     OW22867   1.241   4.885   0.183  0.3749  0.1570  0.6208
 4063SOL    HW122868   1.217   4.952   0.113 -1.7771  0.0465  1.2106
 4063SOL    HW222869   1.210   4.794   0.155  1.1804 -0.2048  0.8819
 4064SOL     OW22870   3.658   7.368   3.917 -0.3808 -0.3071  0.8424
 4064SOL    HW122871   3.599   7.293   3.887  1.2566 -1.0218 -0.6790
 4064SOL    HW222872   3.706   7.341   4.001  0.3226 -1.0293  0.2124
 4065SOL     OW22873   9.717   5.298   0.796 -0.4274  0.0010  0.1260
 4065SOL    HW122874   9.790   5.239   0.762 -0.9028 -0.8954  0.6339
 4065SOL    HW222875   9.689   5.362   0.724  0.0248 -0.4528 -0.4574
 4066SOL     OW22876   2.268   1.341   4.105 -0.6453 -0.3372 -0.2321
 4066SOL    HW122877   2.356   1.345   4.058 -2.2377  0.2523 -3.3109
 4066SOL    HW222878   2.222   1.430   4.097 -2.6282 -1.3857 -1.0168
 4067SOL     OW22879   9.175   4.712   1.595 -0.0857  0.6640  0.0650
 4067SOL    HW122880   9.213   4.634   1.644 -1.6123 -1.2799 -1.7192
 4067SOL    HW222881   9.219   4.719   1.505 -0.1015  1.7206  0.1408
 4068SOL     OW22882   9.695   4.183   4.435  0.7718 -0.4111  0.0194
 4068SOL    HW122883   9.639   4.266   4.427  1.5799  0.0267 -1.1967
 4068SOL    HW222884   9.671   4.136   4.520 -0.8567  0.1965 -0.0756
 4069SOL     OW22885   8.576   6.775   1.357 -0.5194  0.0566 -0.1688
 4069SOL    HW122886   8.553   6.848   1.292  0.3054 -0.1995 -0.7538
 4069SOL    HW222887   8.493   6.724   1.380 -0.9642  0.6783 -0.3698
 4070SOL     OW22888   3.671   9.019   4.292 -0.0550 -0.2813 -0.1719
 4070SOL    HW122889   3.667   9.038   4.194  1.7541  1.3725  0.0302
 4070SOL    HW222890   3.595   9.066   4.338 -0.6579 -0.7090 -0.7214
 4071SOL     OW22891   3.274   0.004   4.012 -0.2323  0.3127  0.0156
 4071SOL    HW122892   3.349   0.070   4.016  0.5842 -0.6012 -0.0171
 4071SOL    HW222893   3.269  -0.048   4.097 -2.1162  1.7328  0.8127
 4072SOL     OW22894   8.249   4.395   4.405  0.4841  0.1969 -0.3502
 4072SOL    HW122895   8.307   4.443   4.339  1.2337 -1.6614 -1.0775
 4072SOL    HW222896   8.307   4.344   4.469 -0.3168 -0.5157 -0.1835
 4073SOL     OW22897   9.729   3.897   3.128  0.2836  0.2669 -0.2868
 4073SOL    HW122898   9.735   3.861   3.035  2.5182 -0.5425  0.1368
 4073SOL    HW222899   9.770   3.988   3.131 -1.3299  1.0140 -0.4265
 4074SOL     OW22900   9.627   1.358   0.975 -0.1606 -0.5569 -0.0731
 4074SOL    HW122901   9.596   1.433   1.034 -0.5509 -1.7388  1.2503
 4074SOL    HW222902   9.645   1.277   1.031 -1.1929 -1.9094 -1.6585
 4075SOL     OW22903   9.452   8.588   4.593  0.1840  0.2632 -0.4457
 4075SOL    HW122904   9.512   8.529   4.540 -0.0335  0.7555 -1.2398
 4075SOL    HW222905   9.478   8.583   4.690  1.4376  0.3936 -0.7620
 4076SOL     OW22906   3.701   5.687   4.435 -0.2321 -0.7606 -0.2762
 4076SOL    HW122907   3.611   5.657   4.404 -0.8809  1.0520 -0.2076
 4076SOL    HW222908   3.691   5.768   4.492  1.3926 -0.9874  0.3603
 4077SOL     OW22909   3.279   2.920   1.345  0.6414  0.2050  1.1925
 4077SOL    HW122910   3.232   2.991   1.398  1.7320  0.5263  1.7280
 4077SOL    HW222911   3.368   2.953   1.315  1.3554 -1.0842  1.8304
 4078SOL     OW22912   2.910   1.200   2.425 -0.1256 -0.0373  0.4183
 4078SOL    HW122913   2.990   1.166   2.476  0.0422 -0.4594 -0.1125
 4078SOL    HW222914   2.827   1.164   2.467 -0.0764  0.9851  1.4059
 4079SOL     OW22915   2.395   7.219   1.313  0.6964 -0.1356  0.4956
 4079SOL    HW122916   2.445   7.132   1.308 -0.4718 -0.7809 -0.3269
 4079SOL    HW222917   2.347   7.224   1.400 -0.4830 -1.0333 -0.0853
 4080SOL     OW22918   9.515   5.753   3.505  0.3700 -0.7692  0.3125
 4080SOL    HW122919   9.445   5.761   3.434 -0.3574  0.0900  1.0879
 4080SOL    HW222920   9.579   5.681   3.482 -1.5864 -2.5318  0.2537
 4081SOL     OW22921   0.316   4.406   3.617  0.7200  0.2533  0.1305
 4081SOL    HW122922   0.280   4.491   3.656 -1.7257 -0.8971  0.4572
 4081SOL    HW222923   0.315   4.412   3.517 -1.6192 -0.2353  0.1036
 4082SOL     OW22924   9.831   7.071   3.705 -0.0528 -0.3295  0.5238
 4082SOL    HW122925   9.868   7.162   3.681  1.1649 -1.0025 -0.2337
 4082SOL    HW222926   9.856   7.049   3.799  0.3816 -0.2257  0.4360
 4083SOL     OW22927   4.914   9.327   2.880 -0.2150  0.0911  0.1632
 4083SOL    HW122928   4.909   9.406   2.941 -0.3310 -0.2854  0.6442
 4083SOL    HW222929   4.970   9.256   2.923 -0.5675 -0.3035 -0.0298
 4084SOL     OW22930   3.188   3.212   1.477  0.1694 -0.1261 -0.4101
 4084SOL    HW122931   3.275   3.246   1.512 -0.2164  1.0052 -0.5234
 4084SOL    HW222932   3.178   3.238   1.381  0.1844 -1.1918 -0.7103
 4085SOL     OW22933   9.245   7.808   4.252  0.5291  0.0370  0.5555
 4085SOL    HW122934   9.270   7.854   4.167 -1.3545  1.9325  1.0043
 4085SOL    HW222935   9.309   7.834   4.324  1.5771 -0.8528 -0.0286
 4086SOL     OW22936   3.340   4.919   3.713  0.3956  0.0716 -0.4429
 4086SOL    HW122937   3.393   4.938   3.629 -0.8835 -1.8851 -1.7135
 4086SOL    HW222938   3.305   5.005   3.749  0.0963  0.8478 -2.5022
 4087SOL     OW22939   9.550   6.270   1.098  0.0200  0.3467  0.1851
 4087SOL    HW122940   9.577   6.359   1.133 -0.9097  1.2342 -1.3293
 4087SOL    HW222941   9.586   6.258   1.005 -0.4977 -0.5408  0.0946
 4088SOL     OW22942   3.771   1.631   1.201  0.5273  0.3654  0.1273
 4088SOL    HW122943   3.682   1.601   1.168 -0.3695  1.6494  1.3301
 4088SOL    HW222944   3.843   1.596   1.141 -0.5613 -3.0588  0.7187
 4089SOL     OW22945   2.313   8.536   4.148 -0.0655  0.3243 -0.3585
 4089SOL    HW122946   2.220   8.543   4.186 -0.5275  0.4204 -1.4813
 4089SOL    HW222947   2.379   8.532   4.222 -1.1862 -3.0737  0.5418
 4090SOL     OW22948   0.798   6.357   1.666  0.1232  0.7941  0.0697
 4090SOL    HW122949   0.735   6.282   1.686 -0.1496  0.8322 -0.6638
 4090SOL    HW222950   0.805   6.371   1.568 -0.1537  2.0174  0.2107
 4091SOL     OW22951   8.520   1.062   3.597 -0.5269 -0.6275  0.6800
 4091SOL    HW122952   8.560   0.983   3.550 -3.1636 -1.2437 -0.5971
 4091SOL    HW222953   8.505   1.136   3.532 -1.3021 -0.3468  1.1628
 4092SOL     OW22954   4.157   2.501   0.535 -0.1962  0.1180  0.2149
 4092SOL    HW122955   4.124   2.582   0.584  0.1764  0.7342 -0.5498
 4092SOL    HW222956   4.223   2.453   0.592 -0.8446  0.0270  0.9044
 4093SOL     OW22957   7.989   4.640   2.906  0.1534 -0.1658  0.4392
 4093SOL    HW122958   8.056   4.685   2.846 -0.7344  1.9098  0.9344
 4093SOL    HW222959   7.907   4.697   2.912 -1.7373 -2.7154 -0.2503
 4094SOL     OW22960   9.628   2.223   1.463 -0.0202 -0.1840  0.6059
 4094SOL    HW122961   9.586   2.278   1.391 -1.2807  0.0959  1.5455
 4094SOL    HW222962   9.560   2.160   1.501  0.2671  0.5805  2.4367
 4095SOL     OW22963   2.107   1.125   4.151 -0.7807 -0.8061  0.2231
 4095SOL    HW122964   2.171   1.199   4.133 -0.7884 -0.3323  2.0394
 4095SOL    HW222965   2.158   1.043   4.178 -0.9039 -0.5588  1.2270
 4096SOL     OW22966   3.470   9.158   2.499  0.1324  0.7137  0.1061
 4096SOL    HW122967   3.524   9.086   2.543  0.3344  0.9153  0.1817
 4096SOL    HW222968   3.373   9.144   2.522  0.2465  0.8665  0.6766
 4097SOL     OW22969   8.469   9.195   4.754  0.1971  0.0630  0.4553
 4097SOL    HW122970   8.524   9.154   4.827 -0.9983 -3.0536 -0.3209
 4097SOL    HW222971   8.489   9.292   4.748  1.4250  0.0926  3.9461
 4098SOL     OW22972   3.721   1.139   4.672 -0.5590  0.2694 -0.4932
 4098SOL    HW122973   3.757   1.079   4.743 -0.1886  0.6174 -0.3847
 4098SOL    HW222974   3.640   1.187   4.706 -0.4953  0.2923 -0.3745
 4099SOL     OW22975   8.751   9.649   4.363 -0.4187 -0.1379 -0.4133
 4099SOL    HW122976   8.794   9.629   4.275  0.2641  3.9978 -1.1105
 4099SOL    HW222977   8.804   9.605   4.436  0.4094 -1.5999 -1.8548
 4100SOL     OW22978   5.273   8.916   2.665 -0.0539 -0.0623  0.0253
 4100SOL    HW122979   5.198   8.980   2.646  1.6510  1.5724 -1.4520
 4100SOL    HW222980   5.314   8.886   2.579  1.5355 -0.2633  0.8225
 4101SOL     OW22981   4.044   1.980   0.276 -0.0253  0.0449 -0.7808
 4101SOL    HW122982   3.983   2.059   0.261 -0.2140  0.1294  0.4109
 4101SOL    HW222983   4.134   2.013   0.304 -0.7139 -0.2051  1.8466
 4102SOL     OW22984   1.099   6.768   0.653  0.4415  0.4337 -0.4216
 4102SOL    HW122985   1.134   6.765   0.747 -1.1700  0.3437  0.2009
 4102SOL    HW222986   1.127   6.686   0.604 -0.4343 -0.5156  0.6271
 4103SOL     OW22987   4.478   3.761   4.559  0.6515  0.0011  0.0929
 4103SOL    HW122988   4.414   3.685   4.549 -0.0717  0.2555  2.5275
 4103SOL    HW222989   4.570   3.729   4.538  0.2723 -1.4141  0.4855
 4104SOL     OW22990   1.625   7.011   4.623  0.2570 -0.0174  0.4986
 4104SOL    HW122991   1.563   7.049   4.554 -0.5001 -0.8471  0.7127
 4104SOL    HW222992   1.667   7.085   4.675 -0.8106  0.5458  0.5714
 4105SOL     OW22993   1.605   5.946   1.660  0.2244  0.2401  0.2391
 4105SOL    HW122994   1.636   5.865   1.609  0.5014 -0.1360  1.0034
 4105SOL    HW222995   1.674   5.971   1.728  0.4043  1.4663 -0.3677
 4106SOL     OW22996   0.677   4.995   2.661  0.1685  0.1700  0.2549
 4106SOL    HW122997   0.758   4.938   2.679 -0.6242 -1.4617 -1.1291
 4106SOL    HW222998   0.700   5.091   2.674  2.3111 -0.2773 -0.0193
 4107SOL     OW22999   0.050   8.112   4.005  0.0863 -0.2898  0.0611
 4107SOL    HW123000   0.006   8.044   4.062 -3.1005  0.4559 -1.3793
 4107SOL    HW223001   0.061   8.076   3.912 -1.5524  1.0857 -0.6886
 4108SOL     OW23002   8.465   0.278   2.834 -0.2933 -0.1474  0.8084
 4108SOL    HW123003   8.368   0.277   2.806  0.2488 -1.9814 -1.1128
 4108SOL    HW223004   8.471   0.266   2.933 -2.0539  0.8240  1.0661
 4109SOL     OW23005   6.170   6.848   2.917  0.1660  0.3817  0.2576
 4109SOL    HW123006   6.178   6.942   2.951  1.0541  0.1994  0.5490
 4109SOL    HW223007   6.257   6.818   2.879 -0.5299  0.1983 -1.2155
 4110SOL     OW23008   3.680   9.477   4.018  0.0609  0.4589  0.1630
 4110SOL    HW123009   3.720   9.481   4.109 -0.7377  1.1129  0.4942
 4110SOL    HW223010   3.697   9.564   3.971  0.8841 -0.0504 -0.4934
 4111SOL     OW23011   7.482   5.000   0.665 -0.5745  0.2431  0.5656
 4111SOL    HW123012   7.523   4.945   0.738  0.4248  3.8023  2.7867
 4111SOL    HW223013   7.549   5.066   0.631 -1.7717  0.2021 -2.0104
 4112SOL     OW23014   3.971   4.242   0.474 -1.0318 -0.3377  0.8418
 4112SOL    HW123015   3.895   4.184   0.443 -1.0357  1.2780 -2.3949
 4112SOL    HW223016   4.025   4.193   0.543 -2.0059 -3.5109 -0.5635
 4113SOL     OW23017   1.665   3.340   4.306  0.3999  0.9294  0.0897
 4113SOL    HW123018   1.574   3.319   4.271  1.0188 -2.4130  0.3675
 4113SOL    HW223019   1.733   3.286   4.257  1.8069  0.2073  2.7655
 4114SOL     OW23020   9.776   3.375   3.430 -0.3593 -0.2693  0.2101
 4114SOL    HW123021   9.749   3.383   3.334 -1.2687 -1.8930  0.3171
 4114SOL    HW223022   9.743   3.455   3.480  0.4988  0.8057 -0.8978
 4115SOL     OW23023   8.040   9.587   3.492  0.0269  0.2310  1.0402
 4115SOL    HW123024   8.097   9.579   3.574 -1.2235 -1.6461  1.7527
 4115SOL    HW223025   7.944   9.584   3.518 -0.3792  0.2297 -0.4394
 4116SOL     OW23026   2.106   4.465   3.648  0.1263  0.0103 -0.2532
 4116SOL    HW123027   2.176   4.467   3.719 -0.4954 -1.4926  0.4265
 4116SOL    HW223028   2.046   4.545   3.656 -1.0139 -1.0320  2.0368
 4117SOL     OW23029   1.245   9.202   1.257  0.0165 -0.0344  0.5957
 4117SOL    HW123030   1.233   9.130   1.324 -2.3496  0.1479  0.3961
 4117SOL    HW223031   1.187   9.280   1.280  1.2921  1.1653 -0.1124
 4118SOL     OW23032   4.512   4.776   1.443 -0.2919  0.4277  0.6756
 4118SOL    HW123033   4.588   4.723   1.480  1.2070  1.7362 -0.4727
 4118SOL    HW223034   4.463   4.721   1.376  0.2681 -0.0705  0.6743
 4119SOL     OW23035   8.010   0.979   0.089 -0.4850  0.1714  0.4810
 4119SOL    HW123036   8.100   0.993   0.132 -0.6881  3.1967  0.0251
 4119SOL    HW223037   8.022   0.960  -0.008 -0.3122 -0.1695  0.5683
 4120SOL     OW23038   0.515   3.966   2.959 -0.1088 -0.4447 -0.5879
 4120SOL    HW123039   0.559   3.878   2.940  2.1928  1.5627 -5.4638
 4120SOL    HW223040   0.578   4.024   3.011  0.2103 -0.0587 -1.4027
 4121SOL     OW23041   6.069   0.265   2.390  0.8153  0.1725 -0.4051
 4121SOL    HW123042   6.160   0.252   2.430  1.2725 -2.4855 -2.1883
 4121SOL    HW223043   6.078   0.281   2.292 -0.6101  0.5564 -0.4773
 4122SOL     OW23044   1.260   9.283   3.629  0.4156 -0.1060  0.1157
 4122SOL    HW123045   1.260   9.218   3.705 -0.3602  0.1285  0.3195
 4122SOL    HW223046   1.248   9.376   3.664  1.7722  0.1819 -0.1521
 4123SOL     OW23047   7.550   7.308   3.507 -0.3323  0.1628 -0.2593
 4123SOL    HW123048   7.480   7.341   3.570  2.0779  2.1084  1.5446
 4123SOL    HW223049   7.508   7.280   3.421 -3.2687  1.3863  0.7152
 4124SOL     OW23050   3.414   5.243   2.225 -0.5448  0.2565 -0.1357
 4124SOL    HW123051   3.453   5.332   2.248 -0.8812  0.0237  1.3799
 4124SOL    HW223052   3.489   5.179   2.207 -0.3160  1.0938 -2.2744
 4125SOL     OW23053   8.729   2.098   1.001  0.4020  0.6542  0.0376
 4125SOL    HW123054   8.693   2.186   0.971 -0.3420  0.9596  1.7834
 4125SOL    HW223055   8.666   2.056   1.066  0.5196 -1.4065 -1.1395
 4126SOL     OW23056   8.796   0.052   1.923 -0.1563 -0.4238 -0.7016
 4126SOL    HW123057   8.774   0.052   1.825  0.7525  0.9914 -0.9021
 4126SOL    HW223058   8.830   0.141   1.950  0.7361 -1.1663  0.6680
 4127SOL     OW23059   2.619   4.153   3.571  0.1062 -0.1284 -0.3339
 4127SOL    HW123060   2.712   4.153   3.534  0.1849  0.9992 -0.1348
 4127SOL    HW223061   2.622   4.163   3.670 -0.2586  0.8281 -0.4148
 4128SOL     OW23062   2.916   0.247   3.351  0.5466 -0.0213 -0.4718
 4128SOL    HW123063   2.830   0.298   3.362 -0.6880 -1.4996 -2.7886
 4128SOL    HW223064   2.943   0.208   3.439 -1.1483  0.4558  0.2865
 4129SOL     OW23065   3.561   9.955   2.307 -0.2255  0.5299  0.3866
 4129SOL    HW123066   3.631  10.023   2.330 -0.3259  1.1192 -0.9864
 4129SOL    HW223067   3.525   9.914   2.391  3.9866 -2.0756  1.0873
 4130SOL     OW23068   5.689   7.088   1.957 -0.6370  0.1635 -0.4495
 4130SOL    HW123069   5.603   7.041   1.937 -1.7753  1.3467  1.5525
 4130SOL    HW223070   5.741   7.037   2.025 -1.1151  0.9432  0.5075
 4131SOL     OW23071   9.962   7.676   3.927 -0.2202  0.0598 -0.2047
 4131SOL    HW123072  10.022   7.628   3.864 -0.0738  0.4076 -0.3317
 4131SOL    HW223073   9.914   7.610   3.985  0.7831 -0.1933  0.3524
 4132SOL     OW23074   8.472   2.931   4.184  0.0654  0.4067  0.0697
 4132SOL    HW123075   8.498   2.836   4.167  0.5800  0.4275  0.7020
 4132SOL    HW223076   8.553   2.983   4.214  0.3566  1.6596 -2.7116
 4133SOL     OW23077   3.982   0.484   4.192 -0.3144 -0.5651  0.5594
 4133SOL    HW123078   3.995   0.537   4.276  0.9866 -0.8660  0.5619
 4133SOL    HW223079   3.917   0.531   4.133  0.4087  0.7540  0.7979
 4134SOL     OW23080   3.839   1.861   2.749 -0.0155 -1.1608  0.4339
 4134SOL    HW123081   3.919   1.914   2.777 -0.9081  0.9065 -0.8033
 4134SOL    HW223082   3.827   1.783   2.811  2.5442 -1.1119  1.0300
 4135SOL     OW23083   9.850   1.760   2.760 -0.1141 -0.0691 -0.1491
 4135SOL    HW123084   9.853   1.803   2.850  0.3195  1.4366 -0.8526
 4135SOL    HW223085   9.875   1.828   2.690  1.2270 -1.6539 -1.2411
 4136SOL     OW23086   0.625   1.106   2.956 -0.4748 -0.0322 -0.4298
 4136SOL    HW123087   0.722   1.082   2.953 -0.1784  1.1376 -0.4846
 4136SOL    HW223088   0.572   1.028   2.990  0.7030 -0.0618  1.4301
 4137SOL     OW23089   1.854   0.039   4.608  0.3060 -0.0267  0.5272
 4137SOL    HW123090   1.823   0.110   4.545 -2.5099  0.6033  2.5226
 4137SOL    HW223091   1.890   0.081   4.691  0.5710 -0.9109  0.8712
 4138SOL     OW23092   0.381   6.799   0.567  0.1853 -0.2859  0.0493
 4138SOL    HW123093   0.463   6.772   0.515  1.5737  1.3915  1.3137
 4138SOL    HW223094   0.396   6.782   0.664 -0.7100  0.6738  0.3592
 4139SOL     OW23095   2.808   4.524   2.239  0.6325 -0.0793 -0.5140
 4139SOL    HW123096   2.800   4.569   2.329 -0.4944  0.9974 -1.1460
 4139SOL    HW223097   2.764   4.580   2.170 -0.8192 -2.1883 -1.3374
 4140SOL     OW23098   2.967   5.394   4.097 -0.3796  0.3380 -0.8087
 4140SOL    HW123099   2.969   5.341   4.182  0.2089  1.3955 -0.1551
 4140SOL    HW223100   2.875   5.431   4.083 -0.0053  1.7674  0.3815
 4141SOL     OW23101   9.637   4.677   1.823 -0.3697 -0.1596 -0.8179
 4141SOL    HW123102   9.600   4.715   1.908  1.3626  2.9687 -1.3949
 4141SOL    HW223103   9.730   4.644   1.839 -0.7903 -1.4871 -1.0400
 4142SOL     OW23104   9.232   5.740   3.204  0.3099  0.4562  0.2636
 4142SOL    HW123105   9.159   5.786   3.255  0.0720  2.2214 -1.5940
 4142SOL    HW223106   9.313   5.798   3.202  0.5219  0.1381 -0.7785
 4143SOL     OW23107   9.535   4.508   2.835 -1.0630  0.0641  0.7740
 4143SOL    HW123108   9.485   4.441   2.780 -0.0072  0.0084 -0.1388
 4143SOL    HW223109   9.591   4.461   2.902 -0.6094  0.0411  0.3813
 4144SOL     OW23110   8.983   5.851   3.231  0.2243  0.2576 -0.3081
 4144SOL    HW123111   8.897   5.802   3.216 -0.2287  0.1913  2.2301
 4144SOL    HW223112   8.989   5.928   3.168 -1.4061 -0.1022 -0.9295
 4145SOL     OW23113   5.178   1.674   1.767  0.2103  0.0187  0.4689
 4145SOL    HW123114   5.078   1.681   1.773  0.2077  0.5530 -0.1305
 4145SOL    HW223115   5.202   1.591   1.716  0.1367 -1.5449  2.9217
 4146SOL     OW23116   2.204   1.096   1.652  0.2363  0.1823 -0.0178
 4146SOL    HW123117   2.278   1.139   1.601  0.3556  0.5452  0.4613
 4146SOL    HW223118   2.187   1.147   1.736 -0.9312  0.4347 -0.3967
 4147SOL     OW23119   9.623   5.825   1.222  0.1140 -0.3102 -0.2075
 4147SOL    HW123120   9.682   5.751   1.191 -1.1423 -1.3743 -0.1144
 4147SOL    HW223121   9.527   5.795   1.221 -0.3671  1.1125  0.3971
 4148SOL     OW23122   2.753   5.088   4.432 -0.5616  0.1118  0.0843
 4148SOL    HW123123   2.745   5.082   4.532  2.2086 -0.6168  0.2908
 4148SOL    HW223124   2.755   5.184   4.405 -0.6343  0.3123  0.7701
 4149SOL     OW23125   8.006   6.995   2.994  0.2275 -0.2871  0.0072
 4149SOL    HW123126   8.072   6.962   3.062 -0.9079 -0.1936  1.1767
 4149SOL    HW223127   7.918   6.950   3.008 -1.0127  2.2646  0.8559
 4150SOL     OW23128   3.785   2.854   0.386 -0.3814  0.3116  0.0253
 4150SOL    HW123129   3.697   2.838   0.432  0.1743 -2.7337  0.1240
 4150SOL    HW223130   3.847   2.901   0.448 -1.8647  2.3754  0.0033
 4151SOL     OW23131   7.532   9.918   3.226 -0.4139  0.4527 -0.0237
 4151SOL    HW123132   7.473   9.968   3.291 -0.5287 -1.4225  1.3746
 4151SOL    HW223133   7.481   9.901   3.142 -1.2376  0.4797  0.4607
 4152SOL     OW23134   8.075   6.492   4.131 -0.2295 -0.4988 -0.3805
 4152SOL    HW123135   8.051   6.454   4.042  0.4719 -0.3349 -0.6425
 4152SOL    HW223136   8.165   6.459   4.159 -0.4484 -0.5515  0.2705
 4153SOL     OW23137   0.963   2.163   0.843  0.5946  0.3113  0.0825
 4153SOL    HW123138   0.879   2.168   0.789  0.1996  0.1755  0.6930
 4153SOL    HW223139   0.958   2.226   0.920  1.0172  0.2429  0.1703
 4154SOL     OW23140   3.454   4.229   0.858 -0.7310  0.5961  0.0307
 4154SOL    HW123141   3.385   4.205   0.927 -1.0425  0.4449 -0.3332
 4154SOL    HW223142   3.532   4.166   0.866 -2.0812 -1.3822 -1.7410
 4155SOL     OW23143   9.271   0.760   1.046  0.1052 -0.2139 -0.2659
 4155SOL    HW123144   9.199   0.693   1.062  0.4042 -0.1965  1.2313
 4155SOL    HW223145   9.351   0.715   1.008 -0.2103 -0.4602 -0.6395
 4156SOL     OW23146   3.669   8.541   3.748 -0.3823  0.5076  0.1021
 4156SOL    HW123147   3.740   8.502   3.808  0.1922  1.4277  0.0319
 4156SOL    HW223148   3.586   8.486   3.754 -0.4703  0.8150  2.0677
 4157SOL     OW23149   5.194   0.403   3.564  0.3676 -0.3154  0.3186
 4157SOL    HW123150   5.124   0.357   3.509  0.0139  0.8996 -0.2824
 4157SOL    HW223151   5.152   0.437   3.648  0.3713 -0.1438  0.2520
 4158SOL     OW23152   0.212   9.691   4.114  0.0703 -0.1326  0.2515
 4158SOL    HW123153   0.116   9.717   4.127  0.0743 -0.3199  0.6480
 4158SOL    HW223154   0.218   9.622   4.042 -0.1299 -0.3888  0.4810
 4159SOL     OW23155   8.622   5.395   1.530 -0.2839 -0.1168  0.0539
 4159SOL    HW123156   8.684   5.473   1.519 -0.5132 -0.0979 -1.1771
 4159SOL    HW223157   8.675   5.315   1.560  0.6583 -0.5729 -2.7138
 4160SOL     OW23158   4.906   2.431   1.739 -0.4271 -0.1965 -0.5000
 4160SOL    HW123159   4.921   2.517   1.788 -1.4198  0.1944 -0.8817
 4160SOL    HW223160   4.860   2.366   1.799  0.1120 -0.3919 -0.2894
 4161SOL     OW23161   2.360   3.488   2.874  0.1383 -0.5004 -0.0549
 4161SOL    HW123162   2.429   3.427   2.833  0.3661 -0.4042  0.1821
 4161SOL    HW223163   2.348   3.464   2.970  1.2039  0.6872  0.3897
 4162SOL     OW23164   2.302   2.229   2.034 -0.0615  0.2712 -0.1226
 4162SOL    HW123165   2.221   2.183   2.069 -0.4263  1.4861  0.6508
 4162SOL    HW223166   2.382   2.198   2.085  0.1748 -1.8395 -1.6799
 4163SOL     OW23167   9.943   6.316   1.078 -0.4065 -0.2975 -0.3867
 4163SOL    HW123168   9.957   6.217   1.088  0.3630 -0.1578 -0.0087
 4163SOL    HW223169   9.883   6.349   1.151 -0.2540 -0.4045 -0.2137
 4164SOL     OW23170   4.353   3.100   0.907 -0.0868  0.1082  0.0273
 4164SOL    HW123171   4.446   3.115   0.871 -1.1793  1.4258 -2.3844
 4164SOL    HW223172   4.352   3.119   1.005  2.2739 -0.2937  0.1574
 4165SOL     OW23173   0.379   1.485   0.187  0.1812 -0.1162  0.3972
 4165SOL    HW123174   0.375   1.387   0.169 -0.9571  0.1512 -0.9097
 4165SOL    HW223175   0.422   1.532   0.109 -3.5876  0.9145 -1.1540
 4166SOL     OW23176   6.229   8.009   3.336  0.1290  0.3221  0.4608
 4166SOL    HW123177   6.140   8.012   3.381  0.1854 -0.5053  0.6419
 4166SOL    HW223178   6.297   7.972   3.400  0.1502 -1.1655 -0.3966
 4167SOL     OW23179   2.567   0.750   4.286 -0.1792 -0.1570  0.2443
 4167SOL    HW123180   2.655   0.732   4.242  0.5454  0.9006  1.2161
 4167SOL    HW223181   2.554   0.686   4.361  0.3315  0.4515  0.8635
 4168SOL     OW23182   3.562   7.105   1.226 -0.1283  0.4953 -0.3263
 4168SOL    HW123183   3.575   7.047   1.145  0.7394  2.2135 -1.4432
 4168SOL    HW223184   3.508   7.185   1.200  0.3698  1.1770  0.7481
 4169SOL     OW23185   0.949   4.188   3.925  0.4284  0.0643 -0.5841
 4169SOL    HW123186   1.001   4.270   3.900 -0.8254  0.9047 -0.4829
 4169SOL    HW223187   0.855   4.214   3.948  0.6235 -1.1073  1.6722
 4170SOL     OW23188   0.446   9.396   0.418  0.3583 -0.5131  0.1522
 4170SOL    HW123189   0.358   9.399   0.370  0.6093 -1.8389 -0.4073
 4170SOL    HW223190   0.453   9.475   0.478 -0.8815  0.0317 -0.3906
 4171SOL     OW23191   8.304   3.203   0.443 -0.2131  0.4827  0.4476
 4171SOL    HW123192   8.247   3.194   0.361  2.3827  1.0065 -1.4799
 4171SOL    HW223193   8.338   3.113   0.470 -0.1813  0.4597  0.3286
 4172SOL     OW23194   8.961   8.664   2.782 -0.6604 -0.1158  0.1962
 4172SOL    HW123195   9.036   8.722   2.751 -0.9401 -0.6672 -1.5820
 4172SOL    HW223196   8.992   8.569   2.785 -1.1928 -0.3090 -0.2612
 4173SOL     OW23197   9.039   6.514   2.847 -0.0784  0.4021 -0.2866
 4173SOL    HW123198   9.103   6.568   2.903 -1.5016  1.1378  0.6582
 4173SOL    HW223199   9.087   6.480   2.766  1.4999  0.9886  0.3723
 4174SOL     OW23200   9.846   7.124   3.404 -0.0737 -0.2423 -0.2050
 4174SOL    HW123201   9.843   7.025   3.395 -0.9705 -0.0912 -1.8183
 4174SOL    HW223202   9.936   7.152   3.437  0.3008 -1.5613 -0.0813
 4175SOL     OW23203   9.034   9.275   1.598  0.0204 -0.5869  0.1996
 4175SOL    HW123204   8.972   9.196   1.588  1.2932 -1.6362  0.4511
 4175SOL    HW223205   8.988   9.346   1.652  0.1056 -2.6136  3.0822
 4176SOL     OW23206   4.943   9.698   4.332 -0.1582 -0.3356 -0.3084
 4176SOL    HW123207   5.001   9.761   4.280 -1.1884  1.0588  0.1948
 4176SOL    HW223208   4.850   9.700   4.295 -0.7092  0.0742  1.0715
 4177SOL     OW23209   1.244   1.025   1.998  0.1701  0.1610  0.6556
 4177SOL    HW123210   1.190   0.984   2.072 -0.2510 -0.5877 -0.0591
 4177SOL    HW223211   1.338   1.038   2.028 -0.5105  2.0475  2.1409
 4178SOL     OW23212   9.364   8.310   0.699  0.7945 -0.6449 -0.2677
 4178SOL    HW123213   9.385   8.295   0.795  0.2961 -0.1937 -0.0880
 4178SOL    HW223214   9.327   8.225   0.660 -0.3690 -0.4101  0.3063
 4179SOL     OW23215   7.742   0.910   1.517  0.6143 -0.5625  0.1094
 4179SOL    HW123216   7.727   0.835   1.454  4.0474 -1.7482  0.5630
 4179SOL    HW223217   7.766   0.993   1.466 -0.6184 -0.4487 -0.2878
 4180SOL     OW23218   4.754   7.560   2.696 -0.0938 -0.2159 -0.1176
 4180SOL    HW123219   4.660   7.561   2.728  0.1449  0.3832  0.5960
 4180SOL    HW223220   4.757   7.536   2.599 -1.0552  0.6331 -0.3630
 4181SOL     OW23221   4.218   0.513   4.018  0.0815 -0.4488 -0.1733
 4181SOL    HW123222   4.187   0.578   3.948  2.9557 -0.5613 -1.6608
 4181SOL    HW223223   4.144   0.495   4.083 -1.8783  1.5802 -1.7633
 4182SOL     OW23224   0.035   0.624   2.631 -0.1249 -0.0403  0.1221
 4182SOL    HW123225   0.023   0.525   2.639  0.4738 -0.1493 -0.3316
 4182SOL    HW223226   0.007   0.653   2.539 -1.5708  0.4043  0.6866
 4183SOL     OW23227   2.847   4.488   3.367  0.5955  0.1667 -0.2064
 4183SOL    HW123228   2.813   4.534   3.448  0.6770 -0.2270  0.0533
 4183SOL    HW223229   2.842   4.389   3.380 -1.8547  0.0589 -1.6909
 4184SOL     OW23230   5.780   7.156   2.886  0.1914 -0.1582 -0.9094
 4184SOL    HW123231   5.797   7.058   2.876  1.0672 -0.2742  1.3847
 4184SOL    HW223232   5.790   7.182   2.982 -1.3822  1.9385 -1.2729
 4185SOL     OW23233   9.987   2.328   4.668 -0.2454  0.4049 -0.1621
 4185SOL    HW123234  10.003   2.273   4.586  1.6918  0.1026  0.4108
 4185SOL    HW223235  10.064   2.319   4.730 -1.3260  1.3047  1.3357
 4186SOL     OW23236   1.210   4.305   2.418  0.2468 -0.1898 -0.4487
 4186SOL    HW123237   1.297   4.289   2.371  1.0611  1.1912  0.5464
 4186SOL    HW223238   1.226   4.361   2.499 -1.6355  0.3919 -0.4611
 4187SOL     OW23239   4.765   8.376   0.463 -0.0928  0.0666  0.2168
 4187SOL    HW123240   4.847   8.361   0.519  1.2067  1.0728 -1.3514
 4187SOL    HW223241   4.791   8.424   0.379 -1.9954 -1.3433 -1.2143
 4188SOL     OW23242   8.831   7.395   1.622  0.0749 -0.0805  0.1806
 4188SOL    HW123243   8.842   7.391   1.722  1.6242 -0.5614 -0.0027
 4188SOL    HW223244   8.869   7.313   1.580 -1.4708 -0.3436 -0.7506
 4189SOL     OW23245   2.137   2.929   0.616 -0.0422  0.0272  0.0305
 4189SOL    HW123246   2.181   3.015   0.640 -0.6311 -0.2876  2.3732
 4189SOL    HW223247   2.071   2.904   0.687 -1.9630 -0.9214 -2.0260
 4190SOL     OW23248   8.841   7.020   2.854 -0.3100 -0.5034  0.2819
 4190SOL    HW123249   8.787   7.093   2.897 -0.7580 -1.4194  1.2896
 4190SOL    HW223250   8.909   7.061   2.792 -0.6768  0.7546  0.6911
 4191SOL     OW23251   1.424   1.480   0.657 -0.0281 -0.4513 -0.1328
 4191SOL    HW123252   1.333   1.510   0.686  0.0891  2.4915 -2.5361
 4191SOL    HW223253   1.418   1.391   0.614 -1.5380 -0.8847  0.9314
 4192SOL     OW23254   2.734   8.470   0.902 -0.4669  0.1177 -0.2087
 4192SOL    HW123255   2.744   8.412   0.983 -3.2798  0.9420  0.7775
 4192SOL    HW223256   2.778   8.425   0.824  0.8538 -1.4583  1.3940
 4193SOL     OW23257   4.541   8.330   3.853 -0.1748 -0.1840 -0.0442
 4193SOL    HW123258   4.575   8.269   3.924 -0.0722 -1.1052 -0.8756
 4193SOL    HW223259   4.570   8.424   3.873  0.0930 -0.4806  0.9729
 4194SOL     OW23260   4.374   7.108   0.097  0.0751 -0.5015  0.2272
 4194SOL    HW123261   4.354   7.204   0.079  1.8204 -0.1744 -0.0373
 4194SOL    HW223262   4.438   7.101   0.173  0.3614 -1.4343 -0.0921
 4195SOL     OW23263   0.479   0.460   1.823  0.5259  0.1483 -0.5655
 4195SOL    HW123264   0.454   0.524   1.895 -0.6350  0.4696 -1.2343
 4195SOL    HW223265   0.571   0.426   1.839  0.5564  0.7800  0.6580
 4196SOL     OW23266   3.385   5.801   1.427  0.0131 -0.2368 -0.2979
 4196SOL    HW123267   3.435   5.845   1.353 -1.3624  1.2257 -0.3658
 4196SOL    HW223268   3.289   5.790   1.401 -0.6273  0.8750  1.5025
 4197SOL     OW23269   8.406   3.035   3.388 -0.1990  0.0775 -0.1949
 4197SOL    HW123270   8.486   2.976   3.394 -1.2634 -1.7599 -2.6883
 4197SOL    HW223271   8.367   3.048   3.479  1.9827 -0.3317  0.8279
 4198SOL     OW23272   9.287   0.697   4.120 -0.0607  0.0988  0.0206
 4198SOL    HW123273   9.210   0.655   4.072 -0.5335 -1.0321  1.7185
 4198SOL    HW223274   9.370   0.645   4.101 -0.2245 -0.2767  0.3313
 4199SOL     OW23275   2.458   0.952   4.450  0.1873 -0.2974 -0.7250
 4199SOL    HW123276   2.429   1.043   4.418 -0.1846  0.3455  1.3709
 4199SOL    HW223277   2.487   0.897   4.372  0.6294  1.7002 -2.0023
 4200SOL     OW23278   9.212   9.625   0.845  0.1034  0.1505  0.6837
 4200SOL    HW123279   9.245   9.675   0.925  1.4881 -0.0776  0.2639
 4200SOL    HW223280   9.139   9.678   0.801  1.7404  1.9657  0.0814
 4201SOL     OW23281   9.402   3.362   2.034 -0.1067  0.6069 -0.0739
 4201SOL    HW123282   9.374   3.411   1.951  0.9847  1.0161 -0.2012
 4201SOL    HW223283   9.442   3.425   2.099  0.6397  0.0065  0.0574
 4202SOL     OW23284   3.303   3.568   4.635 -0.7253 -0.0516 -0.0280
 4202SOL    HW123285   3.205   3.549   4.642 -0.9788  1.3120  0.4295
 4202SOL    HW223286   3.335   3.608   4.722  0.9766 -3.5960  1.0583
 4203SOL     OW23287   8.392   8.317   3.766 -0.3358  0.2307 -0.1278
 4203SOL    HW123288   8.426   8.401   3.723 -1.0205  0.3527 -0.4557
 4203SOL    HW223289   8.300   8.334   3.803 -2.0196 -1.3052 -3.3619
 4204SOL     OW23290   8.508   3.483   2.691  0.5616  0.3726 -0.9853
 4204SOL    HW123291   8.590   3.427   2.680  0.2516 -0.7239  2.0054
 4204SOL    HW223292   8.529   3.564   2.745 -0.5260 -0.4714  0.7589
 4205SOL     OW23293   9.476   0.869   0.675  0.3303  0.5570  0.0614
 4205SOL    HW123294   9.487   0.914   0.587  1.5854  0.7709  0.3175
 4205SOL    HW223295   9.391   0.900   0.718 -0.7322 -0.1920 -1.4388
 4206SOL     OW23296   8.034   6.834   3.452 -0.5119 -0.5246  0.0307
 4206SOL    HW123297   8.066   6.769   3.522 -1.9217 -0.8399  0.3855
 4206SOL    HW223298   7.995   6.915   3.497  0.3057  0.1231 -0.4094
 4207SOL     OW23299   1.363   9.323   1.552  0.1904 -0.2046  0.1017
 4207SOL    HW123300   1.461   9.339   1.566  0.2172  0.0695 -0.3899
 4207SOL    HW223301   1.330   9.381   1.478 -0.4558  0.0763  0.5989
 4208SOL     OW23302   0.872   8.179   1.168  0.4840  0.2137  0.3842
 4208SOL    HW123303   0.788   8.126   1.180  1.3971 -1.7026 -1.2367
 4208SOL    HW223304   0.939   8.123   1.120  2.3299  2.0853  0.7128
 4209SOL     OW23305   0.146   3.673   0.566 -0.1706 -0.1205 -0.4227
 4209SOL    HW123306   0.200   3.723   0.634  1.4032 -0.2123 -1.5800
 4209SOL    HW223307   0.196   3.670   0.480 -0.9572 -2.2907 -0.8270
 4210SOL     OW23308   1.922   6.405   0.808  0.0159  0.0335 -0.0402
 4210SOL    HW123309   1.912   6.317   0.855 -0.5922 -0.2768 -0.7366
 4210SOL    HW223310   1.985   6.394   0.732  0.1624  0.2714  0.0478
 4211SOL     OW23311   1.649   7.177   3.063 -0.5983 -0.5423 -0.0050
 4211SOL    HW123312   1.581   7.236   3.020  1.0855  1.5255  0.0857
 4211SOL    HW223313   1.726   7.232   3.093  0.8086 -2.7490  0.5393
 4212SOL     OW23314   9.934   1.465   3.547  0.6056 -0.0802  0.3456
 4212SOL    HW123315   9.890   1.465   3.637  1.7893 -0.7009  0.9285
 4212SOL    HW223316  10.030   1.439   3.557  0.8896  0.4300 -1.0273
 4213SOL     OW23317   4.027   9.229   4.028  0.4632 -0.4337  0.4725
 4213SOL    HW123318   4.107   9.285   4.051  1.4638 -1.7111  0.1342
 4213SOL    HW223319   3.986   9.194   4.112 -0.4459  1.1604  0.7180
 4214SOL     OW23320   1.916   2.923   2.975 -0.1974 -0.2190  0.3222
 4214SOL    HW123321   1.924   2.965   2.884 -0.7084 -0.3485  0.2154
 4214SOL    HW223322   1.938   2.991   3.045 -0.2523  0.0105  0.1197
 4215SOL     OW23323   2.220   5.889   2.877  0.0738  0.5481  0.3792
 4215SOL    HW123324   2.206   5.808   2.819 -0.9715  0.2442  1.0394
 4215SOL    HW223325   2.169   5.966   2.839  0.4850  0.7039  0.1468
 4216SOL     OW23326   1.174   6.529   0.529  0.4321  0.0373  0.2560
 4216SOL    HW123327   1.268   6.550   0.555  0.3430 -0.1495  0.7442
 4216SOL    HW223328   1.165   6.431   0.514  0.4436  0.1260 -0.3166
 4217SOL     OW23329   8.763   8.037   4.112  0.0559  0.4314 -0.2553
 4217SOL    HW123330   8.833   7.967   4.126  0.3548 -0.0367 -3.6334
 4217SOL    HW223331   8.796   8.125   4.144  1.4323 -0.1310 -0.1022
 4218SOL     OW23332   7.262   6.193   2.724  0.0042 -0.3756 -0.6642
 4218SOL    HW123333   7.282   6.176   2.628  0.5338 -1.7534 -0.3293
 4218SOL    HW223334   7.283   6.111   2.777  2.2074  1.2055  1.0034
 4219SOL     OW23335   1.758   3.915   0.477 -0.5337 -0.0826  0.4354
 4219SOL    HW123336   1.725   3.821   0.482  0.8382 -0.7219 -1.7079
 4219SOL    HW223337   1.801   3.941   0.564  0.9488 -2.1826  0.3693
 4220SOL     OW23338   1.643   8.130   3.715  0.1382  0.2022 -0.0697
 4220SOL    HW123339   1.605   8.147   3.806 -0.6354  0.1716 -0.3838
 4220SOL    HW223340   1.725   8.073   3.724  0.7274  1.1536  0.7000
 4221SOL     OW23341   6.538   7.863   2.135  0.6128  0.7955 -0.0766
 4221SOL    HW123342   6.605   7.931   2.166  0.6369  0.8425 -0.2323
 4221SOL    HW223343   6.454   7.909   2.106 -0.1917  0.6152  1.9006
 4222SOL     OW23344   0.917   5.239   1.315  0.1339  0.2263 -0.5133
 4222SOL    HW123345   1.004   5.192   1.330  1.2027  2.3313  0.1966
 4222SOL    HW223346   0.842   5.179   1.340  1.3648 -1.7504 -1.4299
 4223SOL     OW23347   4.622   1.344   2.793  0.4715  0.0333 -0.1008
 4223SOL    HW123348   4.592   1.394   2.874  0.4210  2.2021 -1.4086
 4223SOL    HW223349   4.715   1.310   2.807 -0.5597 -2.0550  1.9112
 4224SOL     OW23350   1.277   8.196   1.395 -0.0501 -0.1877  0.2515
 4224SOL    HW123351   1.291   8.107   1.351 -0.6915 -1.1990  1.9981
 4224SOL    HW223352   1.180   8.207   1.417  0.2085  0.4228  1.1187
 4225SOL     OW23353   5.288   0.253   3.886 -0.0093  0.2886  0.1607
 4225SOL    HW123354   5.222   0.315   3.845 -0.2593  0.0415  0.1890
 4225SOL    HW223355   5.359   0.306   3.933 -0.0177  0.5588 -0.1302
 4226SOL     OW23356   8.609   5.701   0.338 -0.3895  0.4257  0.6384
 4226SOL    HW123357   8.704   5.670   0.326 -0.0809  1.2880  0.8522
 4226SOL    HW223358   8.551   5.655   0.270  0.5414  1.4984 -0.9167
 4227SOL     OW23359   3.221   2.346   0.090  0.2563 -0.5489 -0.0763
 4227SOL    HW123360   3.252   2.254   0.113  0.8397 -0.3513 -0.0617
 4227SOL    HW223361   3.282   2.386   0.021 -0.5666 -0.5454 -0.8052
 4228SOL     OW23362   0.216   9.471   0.266 -0.2734  0.0147 -0.3637
 4228SOL    HW123363   0.217   9.535   0.342 -2.3821  0.5985 -0.8069
 4228SOL    HW223364   0.226   9.520   0.180 -0.3305 -0.4058 -0.6152
 4229SOL     OW23365   8.995   4.795   4.478 -0.3506  0.4524  0.6777
 4229SOL    HW123366   8.917   4.796   4.541 -0.2842  1.6937  0.7518
 4229SOL    HW223367   9.003   4.884   4.433  1.7374  0.7455  1.5616
 4230SOL     OW23368   3.811   3.547   3.352 -0.1865 -0.8590 -0.1856
 4230SOL    HW123369   3.758   3.630   3.331 -0.0505 -0.4336  1.1096
 4230SOL    HW223370   3.771   3.502   3.432  2.1333  0.1494  1.6034
 4231SOL     OW23371   9.800   5.366   3.547 -0.1694  0.3134  0.2503
 4231SOL    HW123372   9.818   5.454   3.503 -3.0674 -0.1426 -1.9924
 4231SOL    HW223373   9.762   5.382   3.639  0.4725  1.3560  0.3400
 4232SOL     OW23374   4.571   8.823   4.759 -0.2679 -0.2886 -0.4739
 4232SOL    HW123375   4.629   8.853   4.835 -1.3634  1.1054 -0.1631
 4232SOL    HW223376   4.589   8.727   4.738  1.4770 -0.1175  0.2287
 4233SOL     OW23377   2.122   7.455   4.694 -0.5555 -0.0802 -0.2495
 4233SOL    HW123378   2.073   7.381   4.741 -0.7178  0.1870  0.0017
 4233SOL    HW223379   2.058   7.528   4.671 -0.4100 -0.0582 -0.5804
 4234SOL     OW23380   4.581   3.261   1.264 -0.1286 -0.3948 -0.3413
 4234SOL    HW123381   4.674   3.295   1.276 -0.5929  1.7563 -2.2602
 4234SOL    HW223382   4.583   3.169   1.227  1.2338 -0.4870 -0.0596
 4235SOL     OW23383   4.099   7.795   1.645 -0.2187  0.0674 -0.5357
 4235SOL    HW123384   4.185   7.814   1.693  0.0008  1.0975 -1.3218
 4235SOL    HW223385   4.078   7.698   1.654  0.9238 -0.1634 -0.1584
 4236SOL     OW23386   3.342   0.461   2.113 -0.1030  0.2366 -0.3619
 4236SOL    HW123387   3.286   0.419   2.183 -0.0167 -0.7680 -0.8941
 4236SOL    HW223388   3.287   0.525   2.059 -0.2568  0.7228  0.3706
 4237SOL     OW23389   9.964   8.177   2.213  0.1123  0.3257  0.3886
 4237SOL    HW123390   9.986   8.165   2.310 -0.9028 -0.1985  0.5630
 4237SOL    HW223391   9.882   8.123   2.191  1.5923 -1.3118 -1.2676
 4238SOL     OW23392   1.458   1.168   4.212  0.8923  0.1020  0.1868
 4238SOL    HW123393   1.368   1.129   4.191  0.3354  0.2260  2.3150
 4238SOL    HW223394   1.527   1.095   4.209  0.7502 -0.0009 -1.3919
 4239SOL     OW23395   5.837   6.898   2.880 -0.5431 -0.1147 -0.5274
 4239SOL    HW123396   5.915   6.842   2.854  0.2043 -0.4996  2.3345
 4239SOL    HW223397   5.762   6.840   2.911  0.0482  0.3746  1.9537
 4240SOL     OW23398   5.158   1.146   2.086 -0.4136 -0.9128 -0.6255
 4240SOL    HW123399   5.208   1.091   2.019  2.2248 -0.6567  1.0423
 4240SOL    HW223400   5.223   1.205   2.135 -2.7906  1.5057 -0.3315
 4241SOL     OW23401   8.287   3.309   4.667  0.3625 -0.1349  0.0450
 4241SOL    HW123402   8.208   3.254   4.693 -1.4738  2.2147 -0.3624
 4241SOL    HW223403   8.312   3.290   4.572 -1.0438  0.5893 -0.4856
 4242SOL     OW23404   9.569   6.231   2.163  0.7788  0.6876 -0.7013
 4242SOL    HW123405   9.668   6.242   2.156  1.0481 -0.8276  0.4002
 4242SOL    HW223406   9.544   6.136   2.143 -0.3366  0.8216 -0.0005
 4243SOL     OW23407   9.487   8.900   3.163 -0.1097 -0.4695 -0.9272
 4243SOL    HW123408   9.460   8.872   3.255  0.3215  0.4363 -0.5169
 4243SOL    HW223409   9.415   8.874   3.098 -1.0561  0.1026 -0.1335
 4244SOL     OW23410   7.943   0.148   0.659  0.2392  0.1118 -0.5981
 4244SOL    HW123411   7.859   0.171   0.709 -1.1371 -1.1592 -2.2673
 4244SOL    HW223412   7.981   0.231   0.619  0.0671  0.7815  0.6076
 4245SOL     OW23413   1.962   5.622   3.557  0.5278  0.7906 -0.6045
 4245SOL    HW123414   1.878   5.670   3.585  1.2931  2.3332 -0.8959
 4245SOL    HW223415   1.941   5.526   3.538 -0.7892  0.6725  1.2985
 4246SOL     OW23416   3.858   8.880   2.159  0.2918  0.1420 -0.1746
 4246SOL    HW123417   3.795   8.866   2.234 -0.3374  0.9932 -0.5402
 4246SOL    HW223418   3.856   8.976   2.130  2.2861  0.3618  0.2934
 4247SOL     OW23419   9.183   6.616   0.320 -0.1498  0.0274  0.1594
 4247SOL    HW123420   9.143   6.652   0.404  3.2457  1.3294  1.2828
 4247SOL    HW223421   9.242   6.538   0.341  0.9731  0.5509 -0.9365
 4248SOL     OW23422   1.778   5.424   2.632  0.3006  0.2131 -0.8624
 4248SOL    HW123423   1.694   5.445   2.582 -0.5257  1.1245  0.8637
 4248SOL    HW223424   1.783   5.325   2.649 -0.1032  0.0783 -1.4954
 4249SOL     OW23425   8.719   7.504   4.353  0.4703 -0.8080  0.5436
 4249SOL    HW123426   8.784   7.459   4.291 -0.4459 -4.6496  2.2393
 4249SOL    HW223427   8.680   7.584   4.307  1.4906 -2.2304 -2.9824
 4250SOL     OW23428   3.624   0.491   4.200 -0.0244  0.1998 -0.3599
 4250SOL    HW123429   3.536   0.466   4.158  0.0279 -1.0797  0.2598
 4250SOL    HW223430   3.610   0.507   4.297  0.5716 -0.8192 -0.1040
 4251SOL     OW23431   3.836   1.255   1.370 -0.0158 -0.5518  0.2969
 4251SOL    HW123432   3.913   1.209   1.414 -0.7263 -2.3627 -0.2876
 4251SOL    HW223433   3.761   1.266   1.435 -0.5029 -1.8529 -0.0310
 4252SOL     OW23434   7.058   0.472   2.461  0.7516 -0.1346  0.5085
 4252SOL    HW123435   7.139   0.483   2.405  0.7430 -1.4341  0.2160
 4252SOL    HW223436   7.054   0.378   2.496 -1.4561 -0.5648 -0.7985
 4253SOL     OW23437   7.331   0.324   2.741 -0.1821  0.3157  0.6158
 4253SOL    HW123438   7.353   0.385   2.666 -2.5014  0.9080  0.3944
 4253SOL    HW223439   7.237   0.339   2.771  0.4738 -0.3631  3.2041
 4254SOL     OW23440   0.985   4.923   0.996 -0.3833 -0.0369 -0.2793
 4254SOL    HW123441   1.013   4.971   0.914  0.7182 -1.2763 -0.6470
 4254SOL    HW223442   1.058   4.861   1.026 -0.3625  1.1164  2.2005
 4255SOL     OW23443   0.793   7.871   1.952  0.1357 -0.1339 -0.1978
 4255SOL    HW123444   0.798   7.790   1.893  1.7592  0.2584 -0.6311
 4255SOL    HW223445   0.792   7.953   1.896  1.5190  0.2352  0.3006
 4256SOL     OW23446   1.072   8.036   3.354  0.2401  0.6154  1.1794
 4256SOL    HW123447   1.040   8.131   3.354  0.4514  0.6888  0.6465
 4256SOL    HW223448   1.070   8.001   3.447  0.2835  1.1869  1.4028
 4257SOL     OW23449   4.126   0.434   3.375  0.3085  0.0421  0.5203
 4257SOL    HW123450   4.070   0.377   3.315 -0.0454  2.8762 -1.9634
 4257SOL    HW223451   4.087   0.434   3.467 -2.0812 -0.3325 -0.4675
 4258SOL     OW23452   9.727   2.671   3.305  0.0646 -0.0006 -0.6491
 4258SOL    HW123453   9.667   2.731   3.252 -1.2912 -0.5897  0.1980
 4258SOL    HW223454   9.752   2.715   3.391  0.9763  0.3010 -1.0608
 4259SOL     OW23455   7.059   0.069   0.177 -0.2053  0.7336  0.0906
 4259SOL    HW123456   6.989   0.004   0.147  0.7874 -1.5882  2.5086
 4259SOL    HW223457   7.095   0.118   0.099 -1.6767 -0.9566 -1.7065
 4260SOL     OW23458   7.961   0.541   1.028  0.4654  0.0347  0.2266
 4260SOL    HW123459   7.963   0.627   1.079 -0.5624 -1.0369  2.1461
 4260SOL    HW223460   8.025   0.546   0.952  0.1158  2.6469  0.0542
 4261SOL     OW23461   1.471   4.627   0.953 -0.3280  0.2742  0.0093
 4261SOL    HW123462   1.443   4.531   0.962  2.1129 -0.3617  1.0558
 4261SOL    HW223463   1.465   4.654   0.857  0.0978 -1.2772 -0.4660
 4262SOL     OW23464   0.228   1.786   4.722  0.3621  0.1706 -0.3557
 4262SOL    HW123465   0.236   1.778   4.821  0.8761  1.5559 -0.2719
 4262SOL    HW223466   0.224   1.883   4.697 -0.5059 -0.1913 -1.6310
 4263SOL     OW23467   0.958   6.950   3.466  0.0339 -0.6423  0.4669
 4263SOL    HW123468   1.054   6.929   3.447  0.5898  2.3310 -0.2210
 4263SOL    HW223469   0.948   6.979   3.561  0.1694  0.9116  0.0186
 4264SOL     OW23470   1.024   8.698   4.775  0.4400  0.2446 -0.2564
 4264SOL    HW123471   1.087   8.667   4.704 -3.1271 -1.8595 -2.6832
 4264SOL    HW223472   0.954   8.757   4.734 -0.1193  1.2461  2.0496
 4265SOL     OW23473   8.367   0.937   2.590  0.3743 -0.3934  0.3942
 4265SOL    HW123474   8.411   1.021   2.621  0.2473  0.1375 -0.8578
 4265SOL    HW223475   8.435   0.876   2.550  0.0718  0.1828 -1.0085
 4266SOL     OW23476   1.339   8.445   3.850 -0.4721 -0.1796  0.1409
 4266SOL    HW123477   1.307   8.528   3.896 -1.4291 -1.1229  1.2076
 4266SOL    HW223478   1.272   8.416   3.782 -2.6255 -2.8386  3.2138
 4267SOL     OW23479   1.728   8.406   4.083 -0.0776 -0.1244 -0.1900
 4267SOL    HW123480   1.750   8.461   4.164  0.2043  1.2916 -1.2120
 4267SOL    HW223481   1.691   8.465   4.011 -0.7435 -1.4350 -0.9553
 4268SOL     OW23482   1.674   4.963   4.220 -0.0759  0.1811 -0.3108
 4268SOL    HW123483   1.638   4.936   4.130 -1.2802 -1.7232  0.7033
 4268SOL    HW223484   1.755   4.909   4.241 -0.9596 -0.8278  0.5843
 4269SOL     OW23485   8.507   5.423   2.376  0.2691  0.0725  0.0090
 4269SOL    HW123486   8.458   5.412   2.290 -0.3428 -1.3975  0.5213
 4269SOL    HW223487   8.603   5.397   2.363 -0.1517 -1.6106  0.0951
 4270SOL     OW23488   1.797   4.255   1.280 -0.6798  0.2412 -0.7463
 4270SOL    HW123489   1.718   4.198   1.303 -1.5497  1.5007 -0.5960
 4270SOL    HW223490   1.795   4.339   1.334 -0.2650  1.1452 -2.1142
 4271SOL     OW23491   2.051   2.808   4.624  0.0250 -0.3391 -0.5743
 4271SOL    HW123492   2.079   2.903   4.615 -0.2875 -0.2178 -0.3040
 4271SOL    HW223493   2.010   2.777   4.538  0.7894 -0.4534 -0.8961
 4272SOL     OW23494   1.051   3.172   2.670  0.4423 -0.3480  0.0951
 4272SOL    HW123495   0.975   3.140   2.614  2.0100 -0.3518 -2.0843
 4272SOL    HW223496   1.119   3.100   2.680  1.0285  0.2484  0.4880
 4273SOL     OW23497   9.871   3.439   1.116  0.2550  0.3936  0.1174
 4273SOL    HW123498   9.937   3.426   1.190 -0.7033 -0.4418  0.8390
 4273SOL    HW223499   9.854   3.536   1.104  1.0511  0.5807  0.4253
 4274SOL     OW23500   4.801   8.178   2.308 -0.3096  0.1096 -0.2442
 4274SOL    HW123501   4.711   8.199   2.346  0.1217  1.8240 -0.1634
 4274SOL    HW223502   4.867   8.170   2.382 -0.1810 -0.1328 -0.3839
 4275SOL     OW23503   8.031   6.713   0.934  0.1774 -0.5593  0.5696
 4275SOL    HW123504   8.125   6.743   0.918 -0.2166  0.3507 -0.0819
 4275SOL    HW223505   8.001   6.743   1.025 -0.4108  1.6041 -0.2942
 4276SOL     OW23506   1.166   6.740   0.274  0.5040 -0.6530  0.1730
 4276SOL    HW123507   1.187   6.680   0.350 -2.0491 -0.3019  1.2168
 4276SOL    HW223508   1.222   6.823   0.280  0.7580 -0.8979  1.3225
 4277SOL     OW23509   0.837   4.591   0.708  0.9090  0.4432  0.2454
 4277SOL    HW123510   0.919   4.642   0.683 -0.2811  1.6963 -1.1793
 4277SOL    HW223511   0.758   4.628   0.659 -0.1589 -2.1007 -0.0300
 4278SOL     OW23512   4.506   4.201   4.212 -0.0297 -1.0769 -0.0983
 4278SOL    HW123513   4.564   4.247   4.146 -0.0241 -0.7744  0.1144
 4278SOL    HW223514   4.450   4.133   4.166 -1.4807  0.5113 -0.7408
 4279SOL     OW23515   9.801   6.327   1.331  0.5636  0.1972 -0.2618
 4279SOL    HW123516   9.726   6.392   1.315  0.4536  0.3390  0.7907
 4279SOL    HW223517   9.772   6.235   1.305 -0.0314  0.2284  0.2862
 4280SOL     OW23518   8.263   2.657   4.306  0.3549 -0.3093  0.2443
 4280SOL    HW123519   8.208   2.703   4.376 -0.4410  0.1095 -0.6463
 4280SOL    HW223520   8.203   2.624   4.233  1.3311  0.5430 -0.9611
 4281SOL     OW23521   8.328   3.846   4.172 -0.5906 -0.7245 -0.3621
 4281SOL    HW123522   8.356   3.886   4.259 -1.6574 -1.4078  0.3096
 4281SOL    HW223523   8.258   3.902   4.130 -1.7046 -1.5777  0.3238
 4282SOL     OW23524   7.462   9.139   1.651  0.1996 -0.0737 -0.5556
 4282SOL    HW123525   7.558   9.167   1.641  0.4907 -0.9663 -0.2358
 4282SOL    HW223526   7.451   9.046   1.617 -0.5328 -0.0082 -0.4943
 4283SOL     OW23527   2.718   2.732   2.302  0.1262  0.4026 -0.0291
 4283SOL    HW123528   2.746   2.793   2.376 -3.3048  2.4474 -0.3340
 4283SOL    HW223529   2.672   2.652   2.341 -1.6227  1.4486  0.1052
 4284SOL     OW23530   0.455   2.361   1.935 -0.1598 -0.2718  0.1771
 4284SOL    HW123531   0.551   2.382   1.956 -0.1703 -1.0978  1.0622
 4284SOL    HW223532   0.451   2.285   1.870 -0.2401 -1.1448  1.1962
 4285SOL     OW23533   0.673   9.641   0.864  0.3588  0.1194 -0.3157
 4285SOL    HW123534   0.729   9.581   0.920  0.9096  0.6482 -0.2892
 4285SOL    HW223535   0.629   9.710   0.922  1.2975  0.9514 -0.5847
 4286SOL     OW23536   5.145   6.998   1.915  0.0927 -0.0194  1.1187
 4286SOL    HW123537   5.056   7.003   1.870  0.4514 -1.5270  0.2036
 4286SOL    HW223538   5.188   7.089   1.916 -0.0617  0.0978 -1.3156
 4287SOL     OW23539   1.002   5.142   2.945  0.1833  1.0363 -0.2447
 4287SOL    HW123540   1.049   5.133   2.857  2.3372 -2.0822  1.1299
 4287SOL    HW223541   1.069   5.144   3.019 -1.7050 -0.5907  1.5872
 4288SOL     OW23542   8.963   4.308   2.059 -0.7900  0.2482  0.0764
 4288SOL    HW123543   9.050   4.262   2.044  0.9735  3.0982  1.2387
 4288SOL    HW223544   8.906   4.299   1.977  0.7464 -1.2701 -0.8566
 4289SOL     OW23545   0.610   1.379   1.702  0.3481 -0.1401  0.1320
 4289SOL    HW123546   0.646   1.389   1.794 -2.3963  2.2999  1.0154
 4289SOL    HW223547   0.579   1.285   1.689 -0.8741 -0.0806  2.3527
 4290SOL     OW23548   0.921   5.448   2.609  0.5861 -0.5439  0.5958
 4290SOL    HW123549   1.013   5.434   2.645  0.9543 -1.2170 -0.5788
 4290SOL    HW223550   0.914   5.539   2.569  1.4513 -1.2800 -1.3247
 4291SOL     OW23551   4.229   8.910   0.466 -0.7917 -0.2547  0.3390
 4291SOL    HW123552   4.257   8.833   0.523 -0.3918 -0.0136  0.4679
 4291SOL    HW223553   4.288   8.988   0.484 -1.1193  0.0430  0.1149
 4292SOL     OW23554   9.187   4.266   4.244 -0.8373 -0.1576  0.3762
 4292SOL    HW123555   9.120   4.206   4.200 -0.9166  0.4297 -0.3107
 4292SOL    HW223556   9.201   4.348   4.188  0.7884 -0.4820  0.2853
 4293SOL     OW23557   3.660   7.276   3.253  0.3677 -0.3409  0.4867
 4293SOL    HW123558   3.685   7.234   3.340 -0.9406 -0.4760  0.8019
 4293SOL    HW223559   3.618   7.208   3.194 -1.4393  0.4246  0.8648
 4294SOL     OW23560   4.871   9.499   3.088  0.0424  0.0048 -0.2108
 4294SOL    HW123561   4.940   9.571   3.093  1.0324 -0.9512  0.0480
 4294SOL    HW223562   4.850   9.467   3.180  1.0478 -1.3910 -0.4598
 4295SOL     OW23563   2.643   4.021   1.025 -0.5329  0.4623  0.0017
 4295SOL    HW123564   2.676   4.114   1.006 -2.2760  1.4546  1.7247
 4295SOL    HW223565   2.591   3.988   0.946  0.9438  0.5294 -1.0295
 4296SOL     OW23566   5.280   0.244   3.070  0.2241 -0.0317 -0.0030
 4296SOL    HW123567   5.316   0.297   3.147 -0.2482 -1.0215  0.9219
 4296SOL    HW223568   5.345   0.248   2.994  1.1143  0.2631  0.7511
 4297SOL     OW23569   4.546   1.198   1.139 -0.3121 -0.2526  0.4462
 4297SOL    HW123570   4.608   1.126   1.109  0.4115  0.1775  0.8969
 4297SOL    HW223571   4.585   1.244   1.218 -0.1773  1.4685 -0.6105
 4298SOL     OW23572   0.842   0.691   4.321 -0.2261  0.4529  0.2443
 4298SOL    HW123573   0.932   0.731   4.302 -0.5202  0.5680 -0.9232
 4298SOL    HW223574   0.849   0.592   4.319 -0.1539  0.4612 -0.0216
 4299SOL     OW23575   3.732   2.462   1.028 -0.0265  0.2719 -0.4192
 4299SOL    HW123576   3.682   2.419   1.103  2.6053 -1.5836  0.3414
 4299SOL    HW223577   3.709   2.416   0.942 -0.2082 -0.0792 -0.1834
 4300SOL     OW23578   7.360   7.479   2.258 -0.1603  0.0752 -0.4854
 4300SOL    HW123579   7.400   7.421   2.329  0.6918 -0.2591 -1.2274
 4300SOL    HW223580   7.425   7.552   2.235  0.1328 -0.5976 -1.8458
 4301SOL     OW23581   7.849   2.891   3.474 -0.8192  0.3482 -0.1244
 4301SOL    HW123582   7.814   2.852   3.559 -0.7922 -0.6606 -0.5661
 4301SOL    HW223583   7.835   2.826   3.400 -1.2124  1.3848 -0.9734
 4302SOL     OW23584   9.060   0.848   2.802 -0.3162  0.4829  0.1672
 4302SOL    HW123585   9.136   0.810   2.856  1.0435  2.0492 -0.6101
 4302SOL    HW223586   9.026   0.930   2.846 -0.0164  1.0758 -0.6859
 4303SOL     OW23587   1.072   0.355   2.445 -0.2292  0.1471 -0.4101
 4303SOL    HW123588   1.003   0.420   2.414  0.1214  0.0332 -1.4817
 4303SOL    HW223589   1.127   0.326   2.366 -0.6317 -1.7285 -0.0247
 4304SOL     OW23590   4.165   3.384   0.276 -0.1596 -0.1038  0.2695
 4304SOL    HW123591   4.177   3.286   0.265  1.0609  0.2087 -1.4067
 4304SOL    HW223592   4.070   3.408   0.257 -0.2969 -0.8701 -0.0218
 4305SOL     OW23593   0.680   7.536   0.585  0.5143  0.1995 -0.1066
 4305SOL    HW123594   0.726   7.571   0.667 -1.5823  1.9305  0.3967
 4305SOL    HW223595   0.747   7.496   0.524  2.3652  0.5284  1.6469
 4306SOL     OW23596   3.081   2.139   3.136  0.8206 -0.0828  0.1125
 4306SOL    HW123597   3.085   2.066   3.068 -2.1480 -0.7907  0.6186
 4306SOL    HW223598   3.102   2.102   3.226 -0.5240 -0.3217  0.3443
 4307SOL     OW23599   2.888   8.715   0.268  0.4365  0.5022  0.1842
 4307SOL    HW123600   2.969   8.748   0.316 -0.2430  1.3389  0.7810
 4307SOL    HW223601   2.812   8.778   0.284  0.0937  0.5884 -1.7154
 4308SOL     OW23602   7.902   4.875   4.772  0.7224 -0.4819 -0.5480
 4308SOL    HW123603   7.820   4.906   4.725  1.2816  1.8311 -0.0498
 4308SOL    HW223604   7.876   4.822   4.853 -0.2904  1.0496  0.1403
 4309SOL     OW23605   1.479   0.453   2.302 -0.4154 -0.3196 -0.1644
 4309SOL    HW123606   1.498   0.392   2.379  1.1095  0.4818  0.0992
 4309SOL    HW223607   1.563   0.469   2.250 -0.6491  2.1192  0.1671
 4310SOL     OW23608   9.331   3.818   1.768 -0.1209  0.3268 -0.0179
 4310SOL    HW123609   9.340   3.833   1.867  2.3326  0.6898 -0.2685
 4310SOL    HW223610   9.293   3.728   1.751 -1.8932  0.8141  1.2847
 4311SOL     OW23611   2.314   9.468   3.290 -0.0626 -0.0221  0.4392
 4311SOL    HW123612   2.333   9.451   3.387  1.9783 -1.5912 -0.1958
 4311SOL    HW223613   2.386   9.525   3.251  0.5322 -1.5511 -0.7502
 4312SOL     OW23614   8.337   8.323   1.426  0.2977  0.1156 -0.1336
 4312SOL    HW123615   8.401   8.252   1.455  0.7132  0.4753 -0.1817
 4312SOL    HW223616   8.278   8.348   1.503 -1.9074 -2.4673 -0.8693
 4313SOL     OW23617   1.755   4.740   4.781  0.5192 -0.3046  0.0542
 4313SOL    HW123618   1.770   4.750   4.683  0.5070  0.6524  0.1415
 4313SOL    HW223619   1.661   4.711   4.797  0.4226 -0.1356 -0.2010
 4314SOL     OW23620   8.515   0.404   4.377  0.2611  0.4540 -0.2374
 4314SOL    HW123621   8.524   0.439   4.284  0.9384 -2.1398 -1.1850
 4314SOL    HW223622   8.493   0.307   4.374 -2.5601  0.9520  2.3167
 4315SOL     OW23623   7.989   4.557   3.939  0.1569  0.8316  0.4139
 4315SOL    HW123624   8.085   4.553   3.968 -0.4151 -1.1162  2.1034
 4315SOL    HW223625   7.971   4.646   3.897  2.5124  1.4890  0.7254
 4316SOL     OW23626   5.180   7.480   2.561  0.0485 -0.0985  0.1314
 4316SOL    HW123627   5.151   7.573   2.539  1.0731  0.6322  1.7439
 4316SOL    HW223628   5.272   7.482   2.600 -0.1940 -1.7189  0.8452
 4317SOL     OW23629   1.761   3.591   4.682  0.1547  0.2470 -0.0943
 4317SOL    HW123630   1.695   3.657   4.719 -0.0636  0.0912 -0.2102
 4317SOL    HW223631   1.714   3.522   4.628  0.7058  1.7870 -2.6269
 4318SOL     OW23632   0.900   1.571   0.443  0.3426  0.2041  0.2922
 4318SOL    HW123633   0.996   1.572   0.417  0.5726 -1.5920  1.0122
 4318SOL    HW223634   0.874   1.480   0.474 -1.2388  0.9997  1.4377
 4319SOL     OW23635   4.013   0.597   0.546  0.0125  0.2963 -0.2657
 4319SOL    HW123636   4.027   0.526   0.478 -0.1476  1.1693 -1.2315
 4319SOL    HW223637   4.015   0.687   0.502 -0.4241  0.8635  0.8296
 4320SOL     OW23638   8.059   4.399   0.225  0.0614  0.2593  0.4870
 4320SOL    HW123639   8.032   4.353   0.141  0.3188  0.3434  0.3568
 4320SOL    HW223640   8.021   4.491   0.227 -1.1785 -0.2542  1.1486
 4321SOL     OW23641   9.764   0.273   4.531 -0.0104  0.1692  0.3415
 4321SOL    HW123642   9.848   0.298   4.580  0.2187  0.6131 -0.2758
 4321SOL    HW223643   9.703   0.225   4.594  1.1623 -1.1387  0.5185
 4322SOL     OW23644   2.917   4.416   2.003  0.1865 -0.6706 -0.1705
 4322SOL    HW123645   2.907   4.368   2.090  0.6159 -0.0164  0.2545
 4322SOL    HW223646   2.897   4.513   2.016  0.7352 -0.4776 -0.6868
 4323SOL     OW23647   1.530   1.190   2.642 -0.0650 -0.2929  0.3960
 4323SOL    HW123648   1.517   1.176   2.740  0.9019 -2.0352  0.2945
 4323SOL    HW223649   1.524   1.102   2.594 -0.0138  0.4659 -1.0539
 4324SOL     OW23650   8.776   4.350   1.859  0.3043 -0.1089 -0.2312
 4324SOL    HW123651   8.762   4.402   1.774 -0.5914  0.8044  0.4676
 4324SOL    HW223652   8.692   4.351   1.913  0.6827 -1.1999  0.3950
 4325SOL     OW23653   9.000   4.810   2.591  0.1576  0.1584 -0.0383
 4325SOL    HW123654   9.063   4.737   2.615  1.3275  0.9727 -0.6200
 4325SOL    HW223655   8.918   4.804   2.649  1.2003 -0.2879  1.4064
 4326SOL     OW23656   2.503   2.114   1.811  0.1579 -0.0453  0.0053
 4326SOL    HW123657   2.442   2.036   1.827 -0.7700  0.5297 -0.7086
 4326SOL    HW223658   2.461   2.197   1.847  0.0835  0.5098 -1.3403
 4327SOL     OW23659   9.203   6.302   1.595 -0.0204 -0.5647  0.1669
 4327SOL    HW123660   9.248   6.228   1.645  1.2892  0.1312  0.0247
 4327SOL    HW223661   9.216   6.388   1.644 -1.1256 -0.3429  0.0740
 4328SOL     OW23662   9.941   9.616   4.468 -0.2992 -0.5015  0.1772
 4328SOL    HW123663   9.905   9.525   4.486 -0.7082 -0.5245 -0.7250
 4328SOL    HW223664   9.867   9.676   4.439 -0.1161  0.2538  1.2565
 4329SOL     OW23665   7.860   6.636   1.444 -0.2311  0.3325  0.0222
 4329SOL    HW123666   7.868   6.658   1.541 -3.1361 -0.2414  0.4223
 4329SOL    HW223667   7.856   6.537   1.432  0.1410  0.4000 -0.6834
 4330SOL     OW23668   0.506   1.144   1.403 -0.3786  0.3238  0.1804
 4330SOL    HW123669   0.522   1.079   1.329 -1.1919  0.0641  0.2356
 4330SOL    HW223670   0.420   1.191   1.389 -0.3657  0.5318  0.7730
 4331SOL     OW23671   2.597   0.787   2.524  0.4099 -0.3467 -0.2189
 4331SOL    HW123672   2.642   0.729   2.592  1.3183 -0.2726 -0.7478
 4331SOL    HW223673   2.660   0.804   2.448 -0.3163  0.2376 -0.6951
 4332SOL     OW23674   3.694   5.285   3.931 -0.1714 -0.3325 -0.2721
 4332SOL    HW123675   3.664   5.231   3.852 -1.8744 -0.7842  0.6468
 4332SOL    HW223676   3.666   5.380   3.920 -0.2383 -0.3564 -0.3085
 4333SOL     OW23677   6.954   0.364   1.905  0.7470  0.0900  0.3824
 4333SOL    HW123678   7.048   0.388   1.879  0.4981  0.0583 -0.5796
 4333SOL    HW223679   6.909   0.445   1.942  0.4618  0.6917 -1.2307
 4334SOL     OW23680   1.925   7.974   4.066  0.1166  0.6174 -0.1225
 4334SOL    HW123681   2.020   7.985   4.095  0.2136  1.1187 -0.6228
 4334SOL    HW223682   1.892   8.060   4.028 -1.1677  1.0609  1.8945
 4335SOL     OW23683   8.528   1.210   2.057 -0.0942 -0.1686  0.1947
 4335SOL    HW123684   8.495   1.122   2.094 -0.5677 -0.0118  0.1557
 4335SOL    HW223685   8.517   1.211   1.958  1.9678 -0.9144 -0.0607
 4336SOL     OW23686   3.961   8.960   4.154 -0.7452 -0.0304  0.0460
 4336SOL    HW123687   3.863   8.951   4.176 -0.9698 -0.0464 -0.9667
 4336SOL    HW223688   3.985   8.898   4.080 -0.1259  0.5068 -0.2123
 4337SOL     OW23689   8.406   8.563   1.842 -0.4196 -0.2724  0.3125
 4337SOL    HW123690   8.334   8.578   1.909 -0.8793 -0.7911 -0.0630
 4337SOL    HW223691   8.488   8.529   1.888 -0.1093  1.1887  0.8594
 4338SOL     OW23692   8.422   2.094   0.854 -0.5830 -0.2579 -0.0588
 4338SOL    HW123693   8.466   2.172   0.898  0.3601 -1.1782  0.6520
 4338SOL    HW223694   8.344   2.126   0.801 -0.6348  1.0852  0.7951
 4339SOL     OW23695   8.191   2.118   1.111 -0.2751  0.4883  0.0762
 4339SOL    HW123696   8.148   2.208   1.122 -1.3568  0.5269 -3.8081
 4339SOL    HW223697   8.251   2.119   1.031 -1.0212 -2.5090 -0.5709
 4340SOL     OW23698   7.961   9.167   3.282 -0.3979  0.2121 -0.0336
 4340SOL    HW123699   7.956   9.183   3.183 -1.6584  0.2426  0.0382
 4340SOL    HW223700   7.879   9.203   3.326 -0.2904 -0.6964  0.9100
 4341SOL     OW23701   1.235   8.668   3.985  0.0211 -0.1054 -0.1156
 4341SOL    HW123702   1.146   8.694   4.022 -0.8100  0.0232 -2.1515
 4341SOL    HW223703   1.303   8.671   4.058 -2.1433 -2.9554  2.1752
 4342SOL     OW23704   4.171   8.745   3.654  0.5123  0.1080 -0.0836
 4342SOL    HW123705   4.144   8.726   3.560  2.1010 -0.6557 -0.4025
 4342SOL    HW223706   4.235   8.674   3.685 -1.8050 -0.9794  2.3701
 4343SOL     OW23707   9.367   7.958   3.449 -0.4808 -0.1080  0.3297
 4343SOL    HW123708   9.309   7.936   3.370  0.8942  0.2693 -0.8241
 4343SOL    HW223709   9.442   8.017   3.419  0.5105 -0.6089  1.7674
 4344SOL     OW23710   0.131   2.478   3.165  0.4321  0.0501 -0.5925
 4344SOL    HW123711   0.173   2.445   3.081  1.4401  1.0112 -0.4856
 4344SOL    HW223712   0.086   2.402   3.213  0.8696 -0.7219 -1.4072
 4345SOL     OW23713   4.758   0.772   0.982 -0.0879  0.1604 -0.1609
 4345SOL    HW123714   4.770   0.857   1.032  0.5155  1.2095 -2.0481
 4345SOL    HW223715   4.831   0.708   1.006 -0.6604  0.0742  1.4145
 4346SOL     OW23716   7.972   5.474   0.577 -0.1629  0.0791 -0.1132
 4346SOL    HW123717   7.914   5.554   0.590 -1.4935 -1.1001  1.2639
 4346SOL    HW223718   8.036   5.465   0.654 -0.6148 -0.6817  0.1796
 4347SOL     OW23719   8.375   1.381   1.506 -0.1401  0.3257 -0.1407
 4347SOL    HW123720   8.290   1.355   1.552  0.7741 -0.0599  1.3622
 4347SOL    HW223721   8.374   1.479   1.487 -0.3866  0.5588  1.0336
 4348SOL     OW23722   4.551   7.213   2.815  1.3082 -0.4042  0.4144
 4348SOL    HW123723   4.517   7.297   2.857 -2.2098 -2.1516  1.3446
 4348SOL    HW223724   4.636   7.231   2.767  0.9625  3.5253  1.1117
 4349SOL     OW23725   1.437   8.210   1.136  0.3521  0.5410 -0.1161
 4349SOL    HW123726   1.375   8.202   1.058 -0.5112 -0.6800  0.6780
 4349SOL    HW223727   1.388   8.249   1.214  0.2171 -1.5983  0.8993
 4350SOL     OW23728   0.875   5.476   1.172 -0.1706  0.4893  0.3440
 4350SOL    HW123729   0.873   5.389   1.222  0.6855 -0.1262 -0.6754
 4350SOL    HW223730   0.794   5.483   1.114 -0.5986  0.7021  0.9555
 4351SOL     OW23731   9.186   8.131   3.920 -0.2127  0.2316 -0.1195
 4351SOL    HW123732   9.098   8.101   3.884  0.4703 -1.1982 -0.6703
 4351SOL    HW223733   9.218   8.211   3.869 -0.8441  0.2940 -0.4206
 4352SOL     OW23734   0.785   1.229   4.504  0.2590 -0.0881  1.2327
 4352SOL    HW123735   0.843   1.222   4.423  1.3355 -0.8242  2.0511
 4352SOL    HW223736   0.792   1.321   4.542  1.5619 -0.4139  1.8093
 4353SOL     OW23737   9.599   4.827   0.789  0.6015  0.2537  0.3438
 4353SOL    HW123738   9.682   4.807   0.840 -0.1050 -1.4257  0.8859
 4353SOL    HW223739   9.524   4.845   0.852  0.7468  2.6917 -0.1486
 4354SOL     OW23740   1.106   2.805   3.743  0.0856  0.2360  0.1622
 4354SOL    HW123741   1.029   2.857   3.707  0.0899  0.0380 -0.1314
 4354SOL    HW223742   1.115   2.719   3.693  0.5295  0.2812  0.1631
 4355SOL     OW23743   3.112   1.749   3.957 -0.5874  0.6669 -0.1580
 4355SOL    HW123744   3.069   1.833   3.926 -0.0871  0.3657 -1.6880
 4355SOL    HW223745   3.165   1.768   4.040 -1.7475  1.5153  0.4055
 4356SOL     OW23746   9.683   4.721   4.346 -0.2394  0.3225  0.3188
 4356SOL    HW123747   9.670   4.673   4.434 -0.9881  0.3497  0.2299
 4356SOL    HW223748   9.709   4.816   4.363 -2.2045  0.8525  0.5591
 4357SOL     OW23749   4.627   9.421   2.300  0.4771 -0.1373 -0.5070
 4357SOL    HW123750   4.560   9.433   2.227  1.8472  2.5621 -1.3845
 4357SOL    HW223751   4.632   9.505   2.354  0.3760 -1.6628  1.9651
 4358SOL     OW23752   0.505   1.125   4.625  0.2495 -0.4581  0.0204
 4358SOL    HW123753   0.594   1.171   4.623 -0.4121  0.8062 -1.1543
 4358SOL    HW223754   0.469   1.118   4.532 -1.1542 -0.4080  0.5482
 4359SOL     OW23755   3.030   9.990   2.507  0.0721  0.4272  0.5148
 4359SOL    HW123756   2.983   9.958   2.589  0.6652  0.9262  1.0546
 4359SOL    HW223757   3.004  10.084   2.488 -0.6918  0.0524 -0.3444
 4360SOL     OW23758   3.867   7.784   0.745 -0.8491  0.5954  0.1777
 4360SOL    HW123759   3.861   7.850   0.670 -0.5393  1.9454  1.3203
 4360SOL    HW223760   3.875   7.833   0.832  1.0902 -0.9408  0.8958
 4361SOL     OW23761   4.422   2.769   1.877  0.1147 -0.0184 -0.4068
 4361SOL    HW123762   4.419   2.710   1.797 -1.0965  0.3212 -0.6079
 4361SOL    HW223763   4.428   2.713   1.960 -0.7340 -0.4075 -0.6139
 4362SOL     OW23764   0.659   2.966   3.472  0.6719  0.5998 -0.3703
 4362SOL    HW123765   0.572   2.934   3.435  1.1620 -1.0869 -0.1323
 4362SOL    HW223766   0.706   3.023   3.404  0.8767 -1.2204 -1.8045
 4363SOL     OW23767   2.499   6.489   2.189  0.3856  0.4207  0.1057
 4363SOL    HW123768   2.440   6.552   2.137  0.3376  1.4185  1.3619
 4363SOL    HW223769   2.470   6.395   2.171 -0.7733  0.8391 -0.3044
 4364SOL     OW23770   2.849   7.290   3.657 -0.5433 -0.3427 -0.3116
 4364SOL    HW123771   2.799   7.261   3.739 -0.0517 -1.5888 -0.4551
 4364SOL    HW223772   2.808   7.374   3.622 -1.0545 -0.0465  0.9450
 4365SOL     OW23773   1.770   1.054   1.590  0.0800  0.2182  0.6822
 4365SOL    HW123774   1.854   1.074   1.539 -0.3414 -0.6985 -0.3849
 4365SOL    HW223775   1.709   1.134   1.586 -0.6443 -0.3991 -1.6758
 4366SOL     OW23776   2.001   9.127   3.977 -0.2710  0.9321 -0.2157
 4366SOL    HW123777   1.973   9.214   4.016  0.3109  0.5005  1.1925
 4366SOL    HW223778   1.940   9.055   4.009 -0.0125  0.6350 -0.3913
 4367SOL     OW23779   4.998   8.435   3.129  0.3159  0.4385  0.5864
 4367SOL    HW123780   4.956   8.459   3.216 -0.9941 -0.9706  0.3743
 4367SOL    HW223781   4.958   8.490   3.056  0.9966  1.2055  0.7822
 4368SOL     OW23782   6.783   8.560   2.601  0.0678 -0.2839 -0.4421
 4368SOL    HW123783   6.820   8.581   2.692 -0.1253  0.5878 -0.5607
 4368SOL    HW223784   6.814   8.470   2.572  1.4973  0.1331 -0.2223
 4369SOL     OW23785   7.616   1.714   2.658  0.2704 -0.1615 -0.2754
 4369SOL    HW123786   7.600   1.775   2.580 -0.0276 -0.5876 -0.5527
 4369SOL    HW223787   7.664   1.764   2.730 -1.9477  1.0632  0.4104
 4370SOL     OW23788   1.153   6.247   0.458 -0.2465  0.2360  0.2774
 4370SOL    HW123789   1.122   6.242   0.363  0.5373 -1.4172  0.0829
 4370SOL    HW223790   1.243   6.204   0.466  0.0983  1.1422  1.6189
 4371SOL     OW23791   9.310   1.281   1.144  0.6406  0.6042 -0.0328
 4371SOL    HW123792   9.292   1.183   1.157  0.1067  0.9299  1.8578
 4371SOL    HW223793   9.310   1.303   1.046  0.6035 -1.2496 -0.4609
 4372SOL     OW23794   9.069   8.726   2.395  0.2768 -0.6770  0.4627
 4372SOL    HW123795   9.059   8.655   2.464 -0.3541 -0.0879  0.9881
 4372SOL    HW223796   8.981   8.772   2.383  0.9672  0.7955  0.9703
 4373SOL     OW23797   9.630   1.875   3.754  0.1072  0.1985 -0.1951
 4373SOL    HW123798   9.670   1.809   3.691  1.1564 -0.6464  1.3392
 4373SOL    HW223799   9.682   1.876   3.840 -2.7223 -0.4230  1.5842
 4374SOL     OW23800   7.412   0.496   2.536  0.1594 -0.4031  0.0455
 4374SOL    HW123801   7.384   0.475   2.442 -1.0141 -0.3306  0.3681
 4374SOL    HW223802   7.394   0.593   2.555  0.1904 -0.4684  0.4130
 4375SOL     OW23803   3.420   0.917   0.896  0.7619  0.7668 -0.3339
 4375SOL    HW123804   3.437   0.879   0.987 -0.0342 -1.2506 -0.9951
 4375SOL    HW223805   3.326   0.953   0.891  0.4196 -0.1694 -0.7000
 4376SOL     OW23806   4.457   4.009   1.193 -0.9446  0.4779 -0.4858
 4376SOL    HW123807   4.525   3.960   1.138 -0.3923  0.0551  0.5581
 4376SOL    HW223808   4.489   4.014   1.287 -2.7669 -0.4787  0.2006
 4377SOL     OW23809   1.801   4.574   4.274  0.2085  0.3209 -0.3345
 4377SOL    HW123810   1.874   4.547   4.211 -0.8789 -0.2895 -1.3389
 4377SOL    HW223811   1.778   4.497   4.333  0.3387  0.4991 -0.0490
 4378SOL     OW23812   1.604   6.588   1.911  0.2171 -0.1420  0.7118
 4378SOL    HW123813   1.582   6.579   2.008  1.0318 -0.1726  0.8981
 4378SOL    HW223814   1.608   6.498   1.869 -0.6915 -0.0985  0.5191
 4379SOL     OW23815   2.979   4.395   0.225  0.3055 -0.1691  0.3463
 4379SOL    HW123816   2.929   4.319   0.182  0.3009  0.6667 -1.1937
 4379SOL    HW223817   2.921   4.477   0.224  1.5937  0.7524 -1.2565
 4380SOL     OW23818   1.041   1.072   3.014  0.5687  0.6067  0.1398
 4380SOL    HW123819   1.134   1.058   2.979 -0.3776 -0.0105 -2.2353
 4380SOL    HW223820   0.991   1.130   2.950 -0.4714  1.6105  1.8149
 4381SOL     OW23821   9.648   5.686   3.758  0.8437  0.3125 -0.6802
 4381SOL    HW123822   9.612   5.593   3.753  0.1486  0.6182 -1.6154
 4381SOL    HW223823   9.615   5.738   3.679  1.8436  1.1346 -0.5625
 4382SOL     OW23824   3.514   0.303   2.683 -0.2729  0.4429 -0.4243
 4382SOL    HW123825   3.504   0.394   2.640  0.7825  0.9121  0.3128
 4382SOL    HW223826   3.447   0.241   2.643 -1.4219  1.7030 -0.5147
 4383SOL     OW23827   7.794   0.959   1.080 -0.2485  0.1486 -0.0398
 4383SOL    HW123828   7.797   1.000   1.172  1.3321  0.6261 -0.2883
 4383SOL    HW223829   7.869   0.893   1.070  0.0528  0.6529 -1.2315
 4384SOL     OW23830   8.816   6.826   3.034  0.3862 -0.4523  0.3985
 4384SOL    HW123831   8.838   6.870   2.947  0.5960  0.7003  1.0253
 4384SOL    HW223832   8.719   6.841   3.056  0.7282  0.6878  1.1671
 4385SOL     OW23833   9.149   1.485   0.954  0.3007  0.0650 -0.1559
 4385SOL    HW123834   9.110   1.520   0.869  1.7758  0.5553 -0.6585
 4385SOL    HW223835   9.231   1.432   0.933  0.3725 -0.2681  0.9289
 4386SOL     OW23836   2.145   7.826   0.573  0.1932 -0.2438 -0.9101
 4386SOL    HW123837   2.235   7.861   0.598 -0.0696 -0.5774  0.5545
 4386SOL    HW223838   2.114   7.760   0.642 -0.6500 -1.0410 -2.0306
 4387SOL     OW23839   9.512   7.298   3.572  0.1342 -0.0653  0.0975
 4387SOL    HW123840   9.539   7.212   3.528  1.1881 -0.4319  1.4249
 4387SOL    HW223841   9.437   7.281   3.636  0.8131 -0.1249  0.8796
 4388SOL     OW23842   4.464   2.289   1.979 -0.3700 -0.2158  0.3183
 4388SOL    HW123843   4.376   2.242   1.969  0.5188 -1.7723 -0.2688
 4388SOL    HW223844   4.477   2.350   1.901 -0.2067 -1.2022 -0.4361
 4389SOL     OW23845   3.430   8.205   1.355  0.1372 -0.3840  0.2868
 4389SOL    HW123846   3.405   8.301   1.360  2.3800  0.1695  2.1757
 4389SOL    HW223847   3.490   8.190   1.277  1.0978  0.0891  0.9283
 4390SOL     OW23848   4.537   7.753   0.895 -0.3266 -0.3860  0.5215
 4390SOL    HW123849   4.446   7.737   0.932  0.9013 -4.1417  2.1403
 4390SOL    HW223850   4.537   7.738   0.797 -1.7121  1.0081  0.2902
 4391SOL     OW23851   3.746   4.318   3.032  0.1310  0.3640  0.0596
 4391SOL    HW123852   3.784   4.301   2.941 -1.3748  1.6762 -0.8498
 4391SOL    HW223853   3.776   4.407   3.065 -0.4842  0.5190  0.2138
 4392SOL     OW23854   8.183   1.104   1.130  0.6173  0.1588 -0.1538
 4392SOL    HW123855   8.238   1.023   1.109 -0.9798 -1.0237  0.2096
 4392SOL    HW223856   8.131   1.131   1.049 -0.4279 -0.4163  0.3198
 4393SOL     OW23857   0.877   6.348   0.562  0.4022 -0.2714 -0.6035
 4393SOL    HW123858   0.931   6.265   0.577  0.0486 -0.6697 -1.4635
 4393SOL    HW223859   0.807   6.329   0.493  1.4489  1.2122 -2.1143
 4394SOL     OW23860   2.492   8.399   4.382 -0.5496  0.3301 -0.0343
 4394SOL    HW123861   2.497   8.498   4.397 -1.4988  0.3690  0.0547
 4394SOL    HW223862   2.401   8.366   4.405 -0.1391 -0.6277  0.2541
 4395SOL     OW23863   8.991   7.337   0.649  0.1688  0.2237  0.1722
 4395SOL    HW123864   8.913   7.280   0.623 -0.1276  0.9498 -0.5561
 4395SOL    HW223865   9.037   7.369   0.566  1.2026 -0.1385  0.6003
 4396SOL     OW23866   9.859   8.586   1.970 -0.2415  0.5340 -0.2195
 4396SOL    HW123867   9.904   8.499   1.948 -0.0609  1.0338 -1.9003
 4396SOL    HW223868   9.926   8.649   2.009  0.1773  0.7598 -1.3024
 4397SOL     OW23869   0.009   5.939   0.529  0.4670  0.0629 -0.1090
 4397SOL    HW123870   0.073   5.862   0.533  0.7110  0.2940  0.4380
 4397SOL    HW223871  -0.082   5.905   0.506  0.4399 -0.4677  0.7676
 4398SOL     OW23872   9.997   2.361   2.856  0.1474  0.5918  0.1743
 4398SOL    HW123873   9.936   2.319   2.789 -0.0231 -2.0334  1.8556
 4398SOL    HW223874   9.960   2.449   2.885  0.5347  2.0318 -3.5331
 4399SOL     OW23875   1.655   6.556   3.284 -0.1258  0.7372  0.1360
 4399SOL    HW123876   1.634   6.496   3.360  1.8175  0.0698  0.1833
 4399SOL    HW223877   1.737   6.523   3.237 -0.4737  1.9458 -1.3654
 4400SOL     OW23878   9.208   4.615   2.618 -0.2610  0.7302 -0.7733
 4400SOL    HW123879   9.212   4.536   2.557  0.3460 -0.4789  0.7809
 4400SOL    HW223880   9.292   4.669   2.608  1.3586 -1.2592  1.2606
 4401SOL     OW23881   4.515   8.245   4.315 -0.5308 -0.2503 -0.6866
 4401SOL    HW123882   4.490   8.319   4.252 -0.9783  0.1900  0.0039
 4401SOL    HW223883   4.478   8.264   4.405 -0.4688 -1.2171 -0.4490
 4402SOL     OW23884   2.422   8.136   4.681 -0.2387 -0.1417  0.8754
 4402SOL    HW123885   2.491   8.092   4.624  0.5746  0.1595  1.6067
 4402SOL    HW223886   2.351   8.176   4.623  1.3483  1.4669 -0.0124
 4403SOL     OW23887   1.276   6.299   3.990  0.2252  0.2590 -0.1032
 4403SOL    HW123888   1.224   6.348   3.920  0.5282  0.6100 -0.0835
 4403SOL    HW223889   1.324   6.364   4.048  0.1327 -0.0397  0.3119
 4404SOL     OW23890   8.443   5.270   4.678  0.0155  0.5076  0.1535
 4404SOL    HW123891   8.508   5.194   4.670 -0.3608 -0.0597  2.0528
 4404SOL    HW223892   8.447   5.327   4.596  0.2669 -1.5965 -1.3401
 4405SOL     OW23893   3.593   1.059   2.175 -0.0752  0.1913  0.0184
 4405SOL    HW123894   3.648   0.986   2.215  2.4398  1.9751 -0.0916
 4405SOL    HW223895   3.639   1.147   2.189 -3.2105  1.8306  0.4803
 4406SOL     OW23896   5.032   2.102   0.655  0.1152 -0.5390  0.2643
 4406SOL    HW123897   4.953   2.125   0.713  0.1166 -0.2844  0.1663
 4406SOL    HW223898   5.032   2.004   0.636 -0.8936 -0.3525 -0.7885
 4407SOL     OW23899   2.895   3.053   3.718 -0.4311 -0.0681  0.4762
 4407SOL    HW123900   2.972   3.021   3.773  0.8846  0.1243 -1.1949
 4407SOL    HW223901   2.859   2.977   3.663 -1.2002 -0.0661  0.9642
 4408SOL     OW23902   0.430   2.595   3.357  0.4624  0.4802 -0.1598
 4408SOL    HW123903   0.418   2.691   3.332 -0.5820  0.3652 -0.0922
 4408SOL    HW223904   0.390   2.579   3.447 -1.5861 -0.5725 -1.2409
 4409SOL     OW23905   7.346   8.848   1.661  0.0208 -0.2674  0.7493
 4409SOL    HW123906   7.280   8.902   1.714 -0.5995 -0.8982  0.6350
 4409SOL    HW223907   7.296   8.787   1.599  0.6989 -1.3232  1.2330
 4410SOL     OW23908   8.518   1.307   4.247 -0.3953  0.0018  0.2561
 4410SOL    HW123909   8.492   1.236   4.312  1.8608  0.7546  2.0635
 4410SOL    HW223910   8.524   1.395   4.295  0.5624  0.7149 -1.1338
 4411SOL     OW23911   5.556   7.256   3.712  0.0998 -0.7712  0.1350
 4411SOL    HW123912   5.492   7.190   3.672 -1.2333 -0.4133  1.6201
 4411SOL    HW223913   5.628   7.206   3.761  0.0421 -1.1602 -0.1751
 4412SOL     OW23914   4.911   0.559   3.495  0.4764  0.4856 -0.0964
 4412SOL    HW123915   4.834   0.506   3.531 -0.8369  3.3638  1.4967
 4412SOL    HW223916   4.922   0.540   3.398 -1.6723 -0.6809 -0.1431
 4413SOL     OW23917   9.874   0.550   1.331 -0.0198 -0.0628 -0.2912
 4413SOL    HW123918   9.859   0.648   1.317  0.4669 -0.0866 -1.0169
 4413SOL    HW223919   9.808   0.497   1.278 -0.0879 -0.1334 -0.1385
 4414SOL     OW23920   9.111   2.398   2.833  0.4052  0.2799 -0.8680
 4414SOL    HW123921   9.195   2.440   2.866  0.9396 -0.4326 -1.2938
 4414SOL    HW223922   9.128   2.301   2.813 -0.0226  0.5572 -2.7148
 4415SOL     OW23923   9.400   0.768   2.135 -0.3165 -0.1507  0.0486
 4415SOL    HW123924   9.491   0.729   2.120 -0.8518 -1.3308 -0.1922
 4415SOL    HW223925   9.404   0.835   2.209  0.9934  0.7356 -0.7881
 4416SOL     OW23926   0.509   3.354   2.357  0.7198  0.1404 -0.3869
 4416SOL    HW123927   0.485   3.326   2.264  1.4605  0.9494 -0.8235
 4416SOL    HW223928   0.524   3.272   2.413 -0.6775 -0.3614 -0.7133
 4417SOL     OW23929   4.684   7.945   0.628  0.5986 -0.4253 -0.2095
 4417SOL    HW123930   4.625   7.865   0.637 -0.0249  0.2608  2.3498
 4417SOL    HW223931   4.743   7.952   0.709  1.2093  1.2644 -0.7691
 4418SOL     OW23932   3.413   0.970   4.576 -0.5918 -0.8617  0.4029
 4418SOL    HW123933   3.509   0.943   4.582 -0.7709 -1.6362 -0.1790
 4418SOL    HW223934   3.407   1.069   4.565  0.1192 -0.7478  0.9727
 4419SOL     OW23935   2.620   3.424   2.106 -0.1186 -1.2122 -0.1865
 4419SOL    HW123936   2.719   3.424   2.089 -0.5092 -0.6057 -2.6462
 4419SOL    HW223937   2.572   3.392   2.024 -2.1228  1.3236 -0.0771
 4420SOL     OW23938   3.074   0.138   1.862 -0.0269  0.5650 -0.0488
 4420SOL    HW123939   3.102   0.055   1.813 -0.7210  0.0652  0.3967
 4420SOL    HW223940   3.111   0.136   1.955  0.2873  0.9467 -0.1648
 4421SOL     OW23941   0.008   2.258   3.572  0.1710 -0.1705  0.1865
 4421SOL    HW123942   0.090   2.243   3.627 -0.0712  0.6311  0.7773
 4421SOL    HW223943  -0.061   2.304   3.627 -0.0300  0.7765 -0.8424
 4422SOL     OW23944   3.041   2.278   0.351  0.3227  0.2604  0.3117
 4422SOL    HW123945   3.082   2.275   0.260 -1.7035  0.1941 -0.6211
 4422SOL    HW223946   3.079   2.355   0.402  1.2874  0.4529 -0.6807
 4423SOL     OW23947   8.123   0.547   1.447  0.1338 -0.6717  0.1302
 4423SOL    HW123948   8.058   0.602   1.395 -1.0165 -1.8742  0.2706
 4423SOL    HW223949   8.215   0.559   1.409 -0.3620  0.0769 -0.8433
 4424SOL     OW23950   2.273   3.549   1.710 -0.5550  0.1682 -0.2908
 4424SOL    HW123951   2.316   3.597   1.634  0.9017  0.9481  1.0096
 4424SOL    HW223952   2.261   3.452   1.686  0.1068  0.3634 -1.4143
 4425SOL     OW23953   1.866   2.529   3.921 -0.1400  0.4375 -0.6303
 4425SOL    HW123954   1.950   2.548   3.871  0.4712  1.9985  0.9470
 4425SOL    HW223955   1.863   2.431   3.943  0.1290 -0.0563 -2.6641
 4426SOL     OW23956   7.034   0.644   2.780 -0.3634 -0.2350 -0.2619
 4426SOL    HW123957   6.961   0.575   2.777  0.5567 -1.1837 -2.9333
 4426SOL    HW223958   7.112   0.608   2.830 -1.5166  0.5922  2.1757
 4427SOL     OW23959   4.551   0.853   3.334  0.7641  0.6885  0.3063
 4427SOL    HW123960   4.626   0.830   3.271  0.7270  3.3192 -0.7398
 4427SOL    HW223961   4.464   0.826   3.293  0.8406  1.2284 -0.2165
 4428SOL     OW23962   8.736   4.872   0.743  0.2538 -0.3072  0.4768
 4428SOL    HW123963   8.653   4.908   0.787 -0.0436 -0.6263  0.1840
 4428SOL    HW223964   8.804   4.945   0.737  0.0742 -0.0994  0.9140
 4429SOL     OW23965   2.098   0.569   0.346 -0.2331  0.2131  0.2072
 4429SOL    HW123966   2.121   0.474   0.325 -0.9209 -0.0858  0.7653
 4429SOL    HW223967   2.026   0.600   0.283 -1.2431 -0.2055  1.1349
 4430SOL     OW23968   8.587   7.923   0.458  0.3504 -0.2515 -0.0602
 4430SOL    HW123969   8.491   7.914   0.486  0.0616  0.0828 -0.9300
 4430SOL    HW223970   8.645   7.931   0.540 -0.2711 -1.3075  0.4880
 4431SOL     OW23971   3.855   8.045   3.958  0.0230 -1.0665 -0.0580
 4431SOL    HW123972   3.767   8.000   3.971 -0.1091 -0.5921  0.7141
 4431SOL    HW223973   3.929   7.982   3.980 -0.1167 -1.5048 -0.8274
 4432SOL     OW23974   0.660   6.360   3.042 -1.0121  0.7171  0.1090
 4432SOL    HW123975   0.609   6.414   2.975 -0.1016  0.5930 -0.6840
 4432SOL    HW223976   0.693   6.276   2.999 -0.7146  0.4697  0.8135
 4433SOL     OW23977   1.153   5.162   1.797  0.2695  0.0306 -0.0248
 4433SOL    HW123978   1.068   5.115   1.772 -0.3728 -0.1086  2.2989
 4433SOL    HW223979   1.183   5.130   1.886  0.5432  3.1004  1.0290
 4434SOL     OW23980   7.976   5.932   3.725  0.1934  0.0480  0.1143
 4434SOL    HW123981   7.951   5.847   3.770 -0.0136  0.8427  1.5277
 4434SOL    HW223982   7.898   5.965   3.671  0.7149 -1.3278 -1.5319
 4435SOL     OW23983   3.808   9.329   3.133  0.2754  0.4134  0.7096
 4435SOL    HW123984   3.770   9.239   3.153  0.2748 -0.1572 -1.6901
 4435SOL    HW223985   3.859   9.326   3.047  0.4997  2.6505  0.7181
 4436SOL     OW23986   1.917   3.729   3.946 -0.3307 -0.6668 -0.5310
 4436SOL    HW123987   1.979   3.798   3.908 -2.1012  0.4478 -1.4827
 4436SOL    HW223988   1.846   3.708   3.879 -1.1470 -1.7198  0.6358
 4437SOL     OW23989   9.747   3.131   0.791 -0.3945  0.2094  0.6803
 4437SOL    HW123990   9.749   3.116   0.692  0.8439 -1.5765  0.9455
 4437SOL    HW223991   9.757   3.229   0.810  2.2592  0.2841 -0.8816
 4438SOL     OW23992   2.504   5.741   1.003  0.1779 -0.4276  0.5863
 4438SOL    HW123993   2.469   5.798   1.078 -1.8980  1.3346 -1.6323
 4438SOL    HW223994   2.453   5.654   1.001 -1.0290  0.2697  0.1409
 4439SOL     OW23995   7.562   7.086   2.114 -0.1253 -0.7397 -0.0432
 4439SOL    HW123996   7.628   7.050   2.179  0.2085  2.0235  1.2213
 4439SOL    HW223997   7.601   7.083   2.022  0.4007 -2.2965  0.2232
 4440SOL     OW23998   3.760   8.244   4.199 -0.1207  0.0699 -0.0361
 4440SOL    HW123999   3.812   8.300   4.135  0.5484  0.9886  1.2923
 4440SOL    HW224000   3.812   8.161   4.220  0.5140  0.6505  0.7384
 4441SOL     OW24001   8.236   1.407   0.635  0.4824  0.0760 -0.5538
 4441SOL    HW124002   8.229   1.365   0.725  0.9954 -0.4233 -0.7412
 4441SOL    HW224003   8.293   1.350   0.576  1.1124  0.9924 -0.8414
 4442SOL     OW24004   2.774   3.866   2.756  0.3949  0.0563  0.9002
 4442SOL    HW124005   2.778   3.862   2.856  0.5830 -0.9349  0.8628
 4442SOL    HW224006   2.680   3.855   2.726  0.2908  0.7329  0.9849
 4443SOL     OW24007   0.778   1.965   3.274  0.3687 -0.2907 -0.3030
 4443SOL    HW124008   0.789   1.956   3.373 -1.0480  0.6446 -0.0505
 4443SOL    HW224009   0.688   2.004   3.253  0.4556 -0.9184 -1.9813
 4444SOL     OW24010   9.278   6.169   0.452  0.0322  0.2575 -0.7891
 4444SOL    HW124011   9.200   6.190   0.511 -0.9480 -2.3354 -1.0920
 4444SOL    HW224012   9.304   6.251   0.399 -2.5184  1.1247 -0.7368
 4445SOL     OW24013   5.762   9.723   3.704  0.5955 -0.1873  0.6202
 4445SOL    HW124014   5.752   9.658   3.629 -2.9560  0.8937  0.0661
 4445SOL    HW224015   5.684   9.715   3.766  0.8754  2.4631  1.3751
 4446SOL     OW24016   9.400   8.518   2.616 -0.0075 -0.7060  0.1831
 4446SOL    HW124017   9.459   8.466   2.553  1.3999 -0.4847  1.2750
 4446SOL    HW224018   9.402   8.615   2.591  0.3918 -0.6474  0.4321
 4447SOL     OW24019   8.620   2.837   2.882 -0.1125 -0.7837 -0.2471
 4447SOL    HW124020   8.689   2.899   2.844 -1.3121 -0.0607 -1.2799
 4447SOL    HW224021   8.572   2.791   2.808 -2.3157  0.4541  0.3358
 4448SOL     OW24022   0.442   2.607   3.034  0.1905  0.0952 -0.3972
 4448SOL    HW124023   0.440   2.574   3.128 -0.4488 -1.6996 -1.0263
 4448SOL    HW224024   0.533   2.590   2.995  1.6612  4.1961  1.0355
 4449SOL     OW24025   5.453   0.276   3.291  0.1046  0.2959 -0.1182
 4449SOL    HW124026   5.504   0.346   3.242 -1.2912  1.1186 -0.4333
 4449SOL    HW224027   5.487   0.269   3.385  0.5031  1.1229 -0.1952
 4450SOL     OW24028   2.988   2.826   4.307 -0.1346  0.3343 -0.1163
 4450SOL    HW124029   2.924   2.765   4.354 -0.2262 -0.0683 -0.7578
 4450SOL    HW224030   3.082   2.795   4.324 -0.1518  0.3961  0.0909
 4451SOL     OW24031   2.246   1.058   0.052  0.0150 -0.2292 -0.4685
 4451SOL    HW124032   2.264   0.991  -0.021 -0.0897  2.7572 -3.3288
 4451SOL    HW224033   2.331   1.105   0.076 -0.0509 -0.8461  1.0729
 4452SOL     OW24034   2.677   8.781   3.932  0.0671  0.0429  0.1064
 4452SOL    HW124035   2.748   8.806   3.866 -0.4981 -1.3168 -1.0246
 4452SOL    HW224036   2.655   8.684   3.923  0.7382 -0.4308  3.0374
 4453SOL     OW24037   1.619   4.260   2.167  0.0627 -0.2350 -0.6994
 4453SOL    HW124038   1.637   4.217   2.256  0.0765  0.6001 -0.3008
 4453SOL    HW224039   1.705   4.266   2.115  0.3747  0.8713 -0.0646
 4454SOL     OW24040   5.154   8.476   2.265  0.4843  0.0225 -1.1187
 4454SOL    HW124041   5.237   8.426   2.238  0.9762  0.2604 -0.0860
 4454SOL    HW224042   5.139   8.463   2.363  0.3448  1.5173 -0.9403
 4455SOL     OW24043   8.043   5.065   0.787  0.6001  0.4129  0.1532
 4455SOL    HW124044   8.133   5.035   0.818  0.0565 -0.4781  0.8918
 4455SOL    HW224045   8.048   5.089   0.690  1.5704  0.1252  0.1220
 4456SOL     OW24046   8.898   5.124   3.939 -0.1793  0.6152  0.1728
 4456SOL    HW124047   8.818   5.167   3.981  0.0806  0.2444  1.0537
 4456SOL    HW224048   8.980   5.175   3.965 -0.0166  0.3774  0.1276
 4457SOL     OW24049   0.358   4.629   3.158 -0.0997  0.0066 -0.4433
 4457SOL    HW124050   0.270   4.642   3.114  0.3257  0.2547 -1.2281
 4457SOL    HW224051   0.418   4.706   3.136 -0.3060  0.7750  1.6209
 4458SOL     OW24052   4.849   4.026   4.691  0.3890  0.3589 -0.1579
 4458SOL    HW124053   4.924   4.038   4.626  0.7362  0.0693  0.1877
 4458SOL    HW224054   4.885   3.990   4.778 -0.1160  0.4255  0.0821
 4459SOL     OW24055   9.125   1.095   4.563  0.2946  0.0362 -0.1905
 4459SOL    HW124056   9.031   1.064   4.575  0.3229  0.4334  1.1738
 4459SOL    HW224057   9.174   1.085   4.650  1.5735 -0.3889 -0.9521
 4460SOL     OW24058   6.590   0.262   2.093 -0.2492  0.6078  0.4865
 4460SOL    HW124059   6.513   0.198   2.093 -0.4229  0.7835  2.8458
 4460SOL    HW224060   6.662   0.227   2.033 -0.2210 -1.9658  1.9419
 4461SOL     OW24061   4.281   4.214   1.154 -0.2507  0.5496  0.0287
 4461SOL    HW124062   4.346   4.142   1.127 -1.3492 -0.2600 -0.4793
 4461SOL    HW224063   4.248   4.262   1.073 -0.1939  1.0391  0.2960
 4462SOL     OW24064   1.828   8.025   0.869  0.4226 -0.3792 -0.1866
 4462SOL    HW124065   1.812   8.123   0.857 -0.4743 -0.3707  0.9408
 4462SOL    HW224066   1.772   7.973   0.804  1.2165 -0.1384 -1.0704
 4463SOL     OW24067   2.384   0.288   1.199 -0.3908 -0.1003  0.1647
 4463SOL    HW124068   2.305   0.274   1.139 -0.3830  1.4848 -0.2295
 4463SOL    HW224069   2.437   0.203   1.204 -0.9818 -0.5658 -1.1990
 4464SOL     OW24070   2.046   7.951   2.811  0.3626 -0.0234  0.0084
 4464SOL    HW124071   2.082   7.888   2.742  0.6448  0.5514 -0.3727
 4464SOL    HW224072   2.099   7.943   2.895  1.2729  0.6716 -0.4823
 4465SOL     OW24073   2.247   0.320   3.515  0.1191  0.5627  0.6416
 4465SOL    HW124074   2.297   0.381   3.576  1.9631  0.8637 -1.0989
 4465SOL    HW224075   2.173   0.371   3.471  1.2480  1.4040 -0.3160
 4466SOL     OW24076   0.640   5.859   1.419  0.3654  0.4276 -0.9873
 4466SOL    HW124077   0.724   5.811   1.396 -1.5478 -2.6789 -1.7684
 4466SOL    HW224078   0.609   5.832   1.510  0.2249  1.5772 -0.6865
 4467SOL     OW24079   8.209   0.135   2.790 -0.3851 -0.0570  0.2555
 4467SOL    HW124080   8.233   0.099   2.881  1.3796 -2.2252 -1.0030
 4467SOL    HW224081   8.118   0.103   2.766 -0.7275  0.2418  1.1257
 4468SOL     OW24082   6.832   9.071   2.897 -0.2558  0.1718  0.2591
 4468SOL    HW124083   6.913   9.055   2.955  0.3539  1.0250 -0.3516
 4468SOL    HW224084   6.755   9.097   2.954 -0.4596 -1.9011  0.9875
 4469SOL     OW24085   9.142   3.952   4.436  0.3545 -0.0460  0.3065
 4469SOL    HW124086   9.068   3.985   4.496  1.2977  0.4408  1.2154
 4469SOL    HW224087   9.178   4.029   4.383 -0.4298 -0.4656 -0.8343
 4470SOL     OW24088   9.630   1.469   2.177 -0.2797 -0.0504  0.7449
 4470SOL    HW124089   9.596   1.456   2.271 -1.0575 -0.5785  0.3930
 4470SOL    HW224090   9.562   1.436   2.112  0.7252 -0.7175  0.0130
 4471SOL     OW24091   9.015   0.110   1.352 -0.0669  0.2229  0.3901
 4471SOL    HW124092   8.923   0.085   1.321 -0.9460  1.3835  2.0414
 4471SOL    HW224093   9.038   0.059   1.435  0.9327 -0.3311 -0.2149
 4472SOL     OW24094   4.207   8.954   2.885 -0.5005 -0.2615  0.0387
 4472SOL    HW124095   4.268   8.879   2.912  0.0446 -0.2800 -1.1829
 4472SOL    HW224096   4.262   9.033   2.859 -1.0910  0.9380  2.3115
 4473SOL     OW24097   2.609   8.714   3.594  0.1163 -0.7329  0.2253
 4473SOL    HW124098   2.588   8.696   3.498 -0.4906  2.0691 -0.2073
 4473SOL    HW224099   2.636   8.629   3.638 -1.0631 -2.3583 -2.0476
 4474SOL     OW24100   2.033   2.529   0.988  0.2382  0.6170 -0.0701
 4474SOL    HW124101   2.093   2.452   0.967  1.5451  1.3900  0.7407
 4474SOL    HW224102   2.021   2.537   1.087  0.2875  1.5792 -0.1360
 4475SOL     OW24103   8.726   7.301   2.169  0.0136 -0.0974  0.7363
 4475SOL    HW124104   8.770   7.290   2.258  1.1031  1.5426  0.4351
 4475SOL    HW224105   8.640   7.350   2.180  0.2351  0.2640  0.8635
 4476SOL     OW24106   3.848   4.313   0.066 -0.4656 -0.0978 -0.1510
 4476SOL    HW124107   3.918   4.380   0.092 -2.2005  2.5695 -2.0297
 4476SOL    HW224108   3.785   4.299   0.143  0.3559 -0.1421  0.5136
 4477SOL     OW24109   3.119   7.031   3.851  0.6426 -0.2286  0.3511
 4477SOL    HW124110   3.138   7.129   3.853  2.1629 -0.4815 -0.9140
 4477SOL    HW224111   3.190   6.984   3.799 -0.8374 -1.8466 -0.2628
 4478SOL     OW24112   8.561   4.781   1.346 -0.4226  0.3150  0.2074
 4478SOL    HW124113   8.550   4.686   1.375  0.6198  0.0053 -0.3827
 4478SOL    HW224114   8.596   4.784   1.253 -1.7386  1.2941 -0.2702
 4479SOL     OW24115   3.719   1.835   4.213 -0.1016 -0.3489  0.3194
 4479SOL    HW124116   3.745   1.739   4.226  0.2498 -0.3795 -0.6069
 4479SOL    HW224117   3.750   1.866   4.124  0.1046  0.7404  0.7696
 4480SOL     OW24118   0.050   8.241   2.981 -0.5192  0.3869 -0.2687
 4480SOL    HW124119  -0.009   8.308   3.026 -0.0335  0.7097 -0.1140
 4480SOL    HW224120   0.089   8.280   2.898  0.0377  0.4137  0.0030
 4481SOL     OW24121   0.952   7.522   3.675  0.3170 -0.1742  0.0072
 4481SOL    HW124122   0.888   7.559   3.743  0.3960 -1.3697  0.7505
 4481SOL    HW224123   0.904   7.507   3.589 -0.6736 -2.0377  0.8644
 4482SOL     OW24124   5.261   7.184   3.450  0.0357 -0.8884  0.1931
 4482SOL    HW124125   5.347   7.135   3.438  0.4660 -0.2088  0.4963
 4482SOL    HW224126   5.251   7.210   3.546  0.8000  1.4495 -0.3261
 4483SOL     OW24127   3.898   6.684   2.842  0.0052  0.5700  0.1683
 4483SOL    HW124128   3.922   6.714   2.934  0.3724 -0.4271  0.4061
 4483SOL    HW224129   3.913   6.759   2.777  2.5824  0.3679  0.4867
 4484SOL     OW24130   3.522   2.244   1.789  0.1106  0.1082 -0.2453
 4484SOL    HW124131   3.602   2.279   1.739 -0.0023  1.1122  0.2697
 4484SOL    HW224132   3.540   2.247   1.887 -0.1855 -0.6152 -0.1601
 4485SOL     OW24133   7.361   9.384   4.625  0.2561  0.0924  0.1984
 4485SOL    HW124134   7.450   9.426   4.641  0.2433 -0.6135  2.2352
 4485SOL    HW224135   7.311   9.377   4.711 -2.2532  1.4993 -1.0637
 4486SOL     OW24136   0.531   1.617   1.021 -0.3508 -0.1762  0.1345
 4486SOL    HW124137   0.508   1.578   1.110  1.9578 -1.5713  0.1543
 4486SOL    HW224138   0.482   1.567   0.949 -2.2595  0.9855  0.5674
 4487SOL     OW24139   1.761   9.267   3.731  0.3872  0.5303  0.2432
 4487SOL    HW124140   1.719   9.218   3.807 -1.3615  1.5876 -0.0075
 4487SOL    HW224141   1.722   9.235   3.644 -0.6560  2.1606  0.0656
 4488SOL     OW24142   8.257   2.150   3.498 -1.0222 -0.0635  0.0700
 4488SOL    HW124143   8.341   2.102   3.524 -1.3736 -1.1977 -0.8418
 4488SOL    HW224144   8.272   2.197   3.410 -1.7589 -1.4380 -0.8105
 4489SOL     OW24145   7.943   8.673   4.422  0.1369 -0.5805 -0.1370
 4489SOL    HW124146   7.900   8.740   4.362  1.0841 -0.3073 -0.5139
 4489SOL    HW224147   8.010   8.718   4.481 -0.7735 -0.8533  1.1116
 4490SOL     OW24148   0.414   5.547   4.132 -1.5717  0.8269 -0.6226
 4490SOL    HW124149   0.376   5.632   4.167 -2.3391  0.5610 -0.8024
 4490SOL    HW224150   0.372   5.469   4.179  0.8237  0.5999  1.2093
 4491SOL     OW24151   4.480   8.340   2.958  0.1288 -0.1529 -0.0169
 4491SOL    HW124152   4.467   8.359   2.861  0.6624 -2.6310 -0.6045
 4491SOL    HW224153   4.577   8.350   2.981  0.2204 -0.9759 -0.0554
 4492SOL     OW24154   2.558   1.314   0.265 -0.1192  0.1432 -0.4474
 4492SOL    HW124155   2.587   1.225   0.302  0.9138  0.8376  0.4621
 4492SOL    HW224156   2.497   1.300   0.188 -0.0789 -1.3652 -0.2171
 4493SOL     OW24157   0.134   7.979   0.734 -0.1398  0.1142 -0.3230
 4493SOL    HW124158   0.162   7.899   0.680  1.2111  0.0753  0.4184
 4493SOL    HW224159   0.172   8.062   0.693 -1.7169  0.4254 -1.2143
 4494SOL     OW24160   3.388   9.082   2.880 -0.0494 -0.3931  0.3365
 4494SOL    HW124161   3.341   9.117   2.798 -1.0268 -2.1549  0.1247
 4494SOL    HW224162   3.486   9.098   2.871  0.0103 -1.8437 -1.8479
 4495SOL     OW24163   2.542   2.855   1.734 -0.0823  0.3854  0.4857
 4495SOL    HW124164   2.557   2.802   1.818 -2.4672 -0.3720  0.4756
 4495SOL    HW224165   2.630   2.879   1.693  1.0686 -3.5155  0.5229
 4496SOL     OW24166   7.362   4.611   0.627 -0.4473  0.0160  1.0840
 4496SOL    HW124167   7.429   4.640   0.696 -0.6677  1.8608  0.5402
 4496SOL    HW224168   7.318   4.691   0.587 -0.7077 -1.0523 -0.8417
 4497SOL     OW24169   8.149   0.136   1.235 -0.5590 -0.2312  0.1409
 4497SOL    HW124170   8.070   0.108   1.180 -0.0170  1.9444 -1.8604
 4497SOL    HW224171   8.120   0.202   1.304 -0.3766  1.3428 -1.2519
 4498SOL     OW24172   4.378   0.914   0.149 -0.1811  0.2005 -0.0784
 4498SOL    HW124173   4.470   0.907   0.187 -1.0119  1.2017  2.1521
 4498SOL    HW224174   4.346   0.823   0.122  0.8796 -0.3465  0.5023
 4499SOL     OW24175   9.572   8.117   1.971  0.2560  0.2803  0.5541
 4499SOL    HW124176   9.513   8.096   1.893  1.4022  0.7992 -0.4767
 4499SOL    HW224177   9.587   8.215   1.976 -0.7241  0.3691  2.1302
 4500SOL     OW24178   1.906   1.028   2.394  0.0790 -0.2036  0.2914
 4500SOL    HW124179   1.930   1.124   2.382  0.7687 -0.7366 -3.2702
 4500SOL    HW224180   1.977   0.970   2.355 -1.2471 -2.1113  0.6053
 4501SOL     OW24181   1.516   0.947   0.846  0.4992  0.0940  0.0855
 4501SOL    HW124182   1.537   0.906   0.757  0.1288  0.0293  0.0259
 4501SOL    HW224183   1.420   0.928   0.870 -0.1781  2.3286 -0.7165
 4502SOL     OW24184   0.817   6.993   1.451 -0.0323 -0.2684 -0.3494
 4502SOL    HW124185   0.872   7.044   1.386  0.7518  0.6784  1.0320
 4502SOL    HW224186   0.722   6.991   1.421  0.8291 -2.6150 -3.1944
 4503SOL     OW24187   2.396   7.962   3.652 -0.0540  0.1016  0.2960
 4503SOL    HW124188   2.326   7.975   3.582 -0.9163 -1.5233  0.8166
 4503SOL    HW224189   2.393   8.038   3.717  2.8258  3.2825 -3.0644
 4504SOL     OW24190   3.503   3.543   3.332 -0.3594 -0.1106  0.2705
 4504SOL    HW124191   3.455   3.531   3.245  0.8030 -1.0866 -0.2387
 4504SOL    HW224192   3.572   3.614   3.323 -1.2312  0.8335  0.8281
 4505SOL     OW24193   4.403   0.031   0.504 -0.3521 -0.0045  0.0903
 4505SOL    HW124194   4.305   0.035   0.526  0.0520 -0.5807  2.0093
 4505SOL    HW224195   4.420  -0.048   0.445 -0.7697 -0.9944  1.2697
 4506SOL     OW24196   0.477   4.427   1.954  0.0213 -0.3842  0.4909
 4506SOL    HW124197   0.450   4.518   1.987 -2.3942 -0.5513 -0.9080
 4506SOL    HW224198   0.509   4.434   1.860 -1.6797 -1.1953 -0.1616
 4507SOL     OW24199   4.824   8.968   3.101 -0.6854  0.3730 -0.4261
 4507SOL    HW124200   4.765   9.015   3.166  0.5419  0.7026  0.4719
 4507SOL    HW224201   4.917   8.964   3.138 -0.3531 -0.9828 -1.3927
 4508SOL     OW24202   0.834   9.088   2.100 -0.3054  0.8184  0.2337
 4508SOL    HW124203   0.924   9.048   2.118 -0.3918  0.9415  0.9513
 4508SOL    HW224204   0.828   9.179   2.142 -1.1614  0.3433  1.1767
 4509SOL     OW24205   0.773   2.380   4.679 -0.2867 -0.2072  0.3522
 4509SOL    HW124206   0.828   2.300   4.707 -0.0778 -0.1366  0.1459
 4509SOL    HW224207   0.811   2.419   4.596  0.1958  0.6918  0.9805
 4510SOL     OW24208   0.007   9.048   0.088  0.8342 -0.2620  0.3446
 4510SOL    HW124209  -0.088   9.020   0.074  0.2622  1.5642  0.4684
 4510SOL    HW224210   0.025   9.133   0.039  2.9780 -1.5832 -1.2972
 4511SOL     OW24211   9.692   4.743   2.515 -0.1201 -0.0440 -0.7746
 4511SOL    HW124212   9.741   4.830   2.517 -0.5880  0.2044  0.1292
 4511SOL    HW224213   9.602   4.756   2.474 -0.3563 -0.0122 -0.2519
 4512SOL     OW24214   8.195   7.080   0.992 -0.5754  0.2390 -0.2599
 4512SOL    HW124215   8.237   7.143   1.057 -1.0755 -0.6223  0.9150
 4512SOL    HW224216   8.183   7.126   0.904 -0.4377  1.5978  0.4163
 4513SOL     OW24217   3.150   1.895   3.034  0.5603  0.2045  0.2476
 4513SOL    HW124218   3.061   1.870   2.996  0.0305  2.9599 -0.4368
 4513SOL    HW224219   3.222   1.843   2.987 -0.4963 -0.3270 -0.8227
 4514SOL     OW24220   0.527   8.957   1.076 -0.0115 -0.1288 -0.2078
 4514SOL    HW124221   0.569   8.953   1.167  0.5321 -1.2803 -0.4979
 4514SOL    HW224222   0.598   8.974   1.008  0.0319 -2.2255 -0.7155
 4515SOL     OW24223   1.013   2.990   4.094 -0.1767 -0.3860  0.2858
 4515SOL    HW124224   1.078   2.919   4.068 -1.4325 -1.4548 -0.0309
 4515SOL    HW224225   0.937   2.948   4.144 -1.7609  0.4653 -1.3538
 4516SOL     OW24226   8.067   8.671   2.287  0.0704 -0.2935 -0.1989
 4516SOL    HW124227   8.128   8.736   2.332  0.2807 -0.7833  0.2255
 4516SOL    HW224228   8.032   8.712   2.202 -0.7545  0.8250  0.6708
 4517SOL     OW24229   1.904   7.226   3.643 -0.0838 -0.0384  0.3351
 4517SOL    HW124230   1.867   7.206   3.734  0.5924  0.4214  0.7128
 4517SOL    HW224231   1.829   7.246   3.581 -0.6123 -1.1370  0.5922
 4518SOL     OW24232   8.356   4.552   3.263 -0.2474  0.4959 -0.1915
 4518SOL    HW124233   8.409   4.594   3.189  1.4909 -0.2780  0.5814
 4518SOL    HW224234   8.297   4.620   3.305  0.4771  1.4977 -0.7871
 4519SOL     OW24235   2.446   0.587   0.420 -0.4966 -0.4116 -0.2788
 4519SOL    HW124236   2.456   0.648   0.499  1.2839  0.7498 -1.3631
 4519SOL    HW224237   2.396   0.633   0.348 -1.4022 -1.1793 -0.1530
 4520SOL     OW24238   0.694   9.882   1.662  0.5050 -0.0371  0.1614
 4520SOL    HW124239   0.602   9.891   1.701  0.0726  0.7056 -1.0150
 4520SOL    HW224240   0.715   9.963   1.608  1.9852 -0.0586  0.6737
 4521SOL     OW24241   3.423   7.358   1.207  0.4573 -0.3433  0.0687
 4521SOL    HW124242   3.399   7.409   1.289  0.5046 -3.1010  1.8724
 4521SOL    HW224243   3.510   7.391   1.171  0.4328  0.8963  1.1268
 4522SOL     OW24244   2.906   5.775   3.446  0.1764 -0.5443 -0.0774
 4522SOL    HW124245   2.889   5.704   3.514 -0.1612 -0.9903 -0.6167
 4522SOL    HW224246   2.864   5.861   3.476 -1.5576 -1.1940 -0.5628
 4523SOL     OW24247   0.002   1.014   1.365  0.4798 -0.6659  0.6500
 4523SOL    HW124248   0.092   1.007   1.321  0.1358 -0.4154 -0.1062
 4523SOL    HW224249  -0.013   1.107   1.397  0.2883 -0.5826  0.3261
 4524SOL     OW24250   2.245   0.341   0.731 -0.7293  0.9679  0.1009
 4524SOL    HW124251   2.191   0.257   0.735  0.1373  0.4014  0.1396
 4524SOL    HW224252   2.247   0.384   0.821  2.5823 -1.4063  1.2754
 4525SOL     OW24253   5.536   0.288   1.784  0.0653 -0.1993  0.4946
 4525SOL    HW124254   5.484   0.321   1.862 -0.1269 -0.6052  0.5416
 4525SOL    HW224255   5.486   0.213   1.739  1.4619 -1.8758  1.6572
 4526SOL     OW24256   1.098   3.315   3.811 -0.5017 -0.0574  0.2871
 4526SOL    HW124257   1.152   3.302   3.894 -1.4920 -0.5834  0.8565
 4526SOL    HW224258   1.034   3.391   3.823 -1.1207 -0.5692  0.2554
 4527SOL     OW24259   8.941   6.143   4.428 -0.5274  0.3617  0.0447
 4527SOL    HW124260   8.867   6.186   4.376 -0.0134  0.3512 -0.6965
 4527SOL    HW224261   8.901   6.085   4.499 -1.2621 -0.7025 -1.1972
 4528SOL     OW24262   3.807   3.050   2.727 -0.5783 -0.0395  0.6972
 4528SOL    HW124263   3.777   2.996   2.648 -0.0999  0.2407  0.3159
 4528SOL    HW224264   3.735   3.114   2.753 -0.7851 -0.2155  0.5648
 4529SOL     OW24265   0.006   9.337   1.131  0.3322  0.0708  0.1520
 4529SOL    HW124266  -0.045   9.252   1.131  1.9586 -0.9524  2.3271
 4529SOL    HW224267   0.086   9.329   1.072  0.5809  0.0301  0.4932
 4530SOL     OW24268   5.624   8.333   1.526 -0.2005 -0.9177 -0.2037
 4530SOL    HW124269   5.722   8.334   1.548 -0.3751  1.5273  0.6361
 4530SOL    HW224270   5.585   8.245   1.550  1.6144 -1.5862  0.3561
 4531SOL     OW24271   0.283   8.731   0.673  0.3089 -0.2056 -0.3173
 4531SOL    HW124272   0.285   8.649   0.731 -0.0029  2.0062  2.9620
 4531SOL    HW224273   0.188   8.759   0.660  0.5590  1.8257  1.9034
 4532SOL     OW24274   0.952   6.803   3.916 -0.1118  0.0138 -0.8298
 4532SOL    HW124275   0.876   6.866   3.933  0.5400  0.7133 -0.4763
 4532SOL    HW224276   0.939   6.719   3.968 -0.2004  0.4891 -0.0813
 4533SOL     OW24277   4.306   3.607   1.218 -0.3962  0.2640  0.1219
 4533SOL    HW124278   4.212   3.601   1.252 -0.6552 -0.4541 -0.7051
 4533SOL    HW224279   4.369   3.604   1.296 -0.8943 -3.4678  0.4991
 4534SOL     OW24280   2.803   8.913   4.163  0.0095 -0.3231 -0.0040
 4534SOL    HW124281   2.756   8.873   4.085  0.0889 -0.9075  0.2420
 4534SOL    HW224282   2.897   8.877   4.167 -0.2644 -0.9418  0.8515
 4535SOL     OW24283   3.159   2.660   1.465  0.5080 -0.0435  0.1262
 4535SOL    HW124284   3.216   2.679   1.386  0.3422  0.3269  0.0956
 4535SOL    HW224285   3.183   2.721   1.540 -0.3646  0.6392 -0.1399
 4536SOL     OW24286   6.050   0.754   2.896  0.6672  0.3082  0.1754
 4536SOL    HW124287   6.061   0.664   2.853  1.3700  0.7488 -0.5648
 4536SOL    HW224288   5.990   0.745   2.976  1.5662 -1.0021  0.7227
 4537SOL     OW24289   3.840   0.941   0.524  0.1087  0.1837  0.4206
 4537SOL    HW124290   3.784   0.949   0.441 -1.2476  0.8516  1.3709
 4537SOL    HW224291   3.936   0.955   0.501  0.0497 -1.9919 -1.4294
 4538SOL     OW24292   9.040   9.166   1.229 -0.2310  0.2096  0.0173
 4538SOL    HW124293   9.079   9.257   1.217  1.0842 -0.4732 -1.0162
 4538SOL    HW224294   9.111   9.097   1.216 -1.2531 -0.9770  0.5869
 4539SOL     OW24295   3.393   7.304   4.124 -0.5309 -0.3537  0.1839
 4539SOL    HW124296   3.421   7.400   4.130  0.9124 -0.6812 -1.1575
 4539SOL    HW224297   3.339   7.289   4.041  2.2852 -1.4243 -1.5077
 4540SOL     OW24298   2.839   6.253   4.059  0.3056  0.3971  0.1036
 4540SOL    HW124299   2.905   6.249   3.983  0.8934  2.7495  0.4490
 4540SOL    HW224300   2.852   6.174   4.118 -0.9286 -2.0995 -2.8389
 4541SOL     OW24301   8.820   9.516   4.650 -0.3148 -0.3832  0.1057
 4541SOL    HW124302   8.729   9.479   4.629 -0.4108 -1.3532  2.1665
 4541SOL    HW224303   8.831   9.525   4.749  2.5630 -2.0754 -0.0107
 4542SOL     OW24304   1.484   7.250   2.420  0.2332 -0.4571 -0.1292
 4542SOL    HW124305   1.427   7.265   2.339  2.2075 -0.9997 -1.6906
 4542SOL    HW224306   1.475   7.155   2.449  0.1959 -0.4936 -0.2583
 4543SOL     OW24307   9.444   3.006   4.526  0.0978 -0.2026  0.5362
 4543SOL    HW124308   9.530   2.961   4.549 -0.6010 -1.3598  0.9386
 4543SOL    HW224309   9.438   3.018   4.427  0.2009 -1.1933  0.4025
 4544SOL     OW24310   7.703   6.354   2.020 -0.4423  0.0285  0.7067
 4544SOL    HW124311   7.626   6.292   2.031  0.8115 -1.2623  2.5692
 4544SOL    HW224312   7.706   6.418   2.097  0.2277  0.1942  0.5496
 4545SOL     OW24313   8.338   3.232   0.743  0.1324  0.0310  0.1156
 4545SOL    HW124314   8.249   3.187   0.748  0.1122  0.1035  0.3975
 4545SOL    HW224315   8.407   3.166   0.713  0.2316 -0.3675  1.2092
 4546SOL     OW24316   5.210   0.841   4.427  0.1350 -0.4145 -0.2676
 4546SOL    HW124317   5.236   0.932   4.458  1.2200 -0.2599 -1.5782
 4546SOL    HW224318   5.202   0.841   4.327 -1.4097 -1.3655 -0.1561
 4547SOL     OW24319   9.095   5.035   2.498  0.3317  0.0924 -0.1277
 4547SOL    HW124320   9.066   5.117   2.547  1.1686 -0.1126  0.7275
 4547SOL    HW224321   9.059   4.954   2.544 -1.1199 -0.0025 -1.3986
 4548SOL     OW24322   1.358   3.997   4.005 -0.3912  0.1073  0.3713
 4548SOL    HW124323   1.303   4.080   4.015 -2.0019 -1.2724  3.3633
 4548SOL    HW224324   1.454   4.018   4.027 -0.8038  1.1365  1.2041
 4549SOL     OW24325   9.413   2.411   0.892  0.2545  0.3930 -0.6940
 4549SOL    HW124326   9.341   2.360   0.846  0.6921 -0.4060 -0.5008
 4549SOL    HW224327   9.500   2.399   0.844  0.8659 -1.0556  0.7523
 4550SOL     OW24328   4.348   0.022   3.120 -0.3833 -0.2413  0.0725
 4550SOL    HW124329   4.355   0.001   3.217 -4.4888 -4.4120 -0.3433
 4550SOL    HW224330   4.404  -0.043   3.068 -1.1661 -0.4659 -0.5081
 4551SOL     OW24331   2.853   9.886   1.391  0.3069 -0.3095  0.5601
 4551SOL    HW124332   2.859   9.838   1.303 -1.2183  0.4816 -0.0067
 4551SOL    HW224333   2.943   9.917   1.419  0.7760 -0.4107 -0.8238
 4552SOL     OW24334   4.245   4.232   1.427  0.3524 -0.1106 -0.9471
 4552SOL    HW124335   4.208   4.321   1.454  1.0995 -0.1786  0.3594
 4552SOL    HW224336   4.272   4.235   1.331  2.4749  1.8162 -0.3352
 4553SOL     OW24337   8.368   0.508   3.604  0.5623 -0.8478  0.0318
 4553SOL    HW124338   8.438   0.504   3.533 -1.0232 -0.4258 -1.5930
 4553SOL    HW224339   8.339   0.415   3.627 -0.4856 -0.9227 -1.4907
 4554SOL     OW24340   9.688   7.127   4.399  0.3201 -0.3233  0.4529
 4554SOL    HW124341   9.639   7.158   4.480  0.1548  2.1628 -0.5324
 4554SOL    HW224342   9.745   7.048   4.422 -1.8714 -1.4274  2.2850
 4555SOL     OW24343   5.771   8.524   3.830 -0.1986 -0.8800  0.5208
 4555SOL    HW124344   5.726   8.531   3.741 -1.6444  0.2250  1.3157
 4555SOL    HW224345   5.797   8.429   3.847 -0.1833 -1.1420 -0.9520
 4556SOL     OW24346   2.459   7.760   2.309  0.4842  0.5240  0.2974
 4556SOL    HW124347   2.364   7.730   2.307  0.6631 -0.0507  0.3426
 4556SOL    HW224348   2.511   7.714   2.237  0.7915  0.6223  0.4520
 4557SOL     OW24349   7.758   9.566   3.542 -0.8061 -0.4828 -0.2650
 4557SOL    HW124350   7.729   9.615   3.460  1.9253 -1.4919 -1.9059
 4557SOL    HW224351   7.679   9.552   3.602 -2.6762  1.0993 -2.2603
 4558SOL     OW24352   2.390   9.727   0.900  0.1795 -0.7857 -0.3053
 4558SOL    HW124353   2.391   9.827   0.903  2.4930 -0.8440  2.2681
 4558SOL    HW224354   2.447   9.695   0.824  1.1640 -0.1541  0.1538
 4559SOL     OW24355   9.650   5.116   2.464  0.1490 -0.7316 -0.5253
 4559SOL    HW124356   9.595   5.181   2.412  1.3824  0.6186 -0.1457
 4559SOL    HW224357   9.634   5.129   2.562  0.6130 -0.8085 -0.4368
 4560SOL     OW24358   4.601   0.808   0.770 -0.2918 -0.3018 -0.4651
 4560SOL    HW124359   4.647   0.790   0.858  0.2521  1.2330 -0.4304
 4560SOL    HW224360   4.555   0.724   0.739 -0.0655 -0.9973  1.0336
 4561SOL     OW24361   7.904   5.715   3.831 -0.6195  0.5646 -0.5007
 4561SOL    HW124362   7.949   5.712   3.920 -0.6856  0.2434 -0.4773
 4561SOL    HW224363   7.820   5.661   3.833 -0.4531  0.2831 -0.8456
 4562SOL     OW24364   8.572   2.690   0.791 -0.7468  0.0994  0.0842
 4562SOL    HW124365   8.504   2.736   0.849 -0.8006  3.7230 -2.7262
 4562SOL    HW224366   8.525   2.638   0.720 -0.6224 -0.3519  0.3316
 4563SOL     OW24367   4.295   0.654   0.681  0.1790 -0.3986 -0.2946
 4563SOL    HW124368   4.280   0.741   0.727 -0.8660 -0.6944 -0.0556
 4563SOL    HW224369   4.207   0.610   0.663  0.6650 -1.1336 -0.9422
 4564SOL     OW24370   1.278   4.461   2.669  0.1856  0.3528 -0.4800
 4564SOL    HW124371   1.181   4.448   2.693  0.6928 -0.5245  1.1892
 4564SOL    HW224372   1.311   4.547   2.708  0.1301  0.5384 -0.8484
 4565SOL     OW24373   3.554   3.152   2.796 -0.9150  0.3318 -0.8283
 4565SOL    HW124374   3.482   3.155   2.866 -0.0516  0.0242  0.0969
 4565SOL    HW224375   3.587   3.245   2.779 -1.4841  0.4677 -1.2155
 4566SOL     OW24376   7.943   6.349   2.379 -0.1627  0.0360  0.1158
 4566SOL    HW124377   8.011   6.361   2.307  0.1505  0.6761  0.5139
 4566SOL    HW224378   7.876   6.422   2.374 -0.3362 -0.1110  0.2626
 4567SOL     OW24379   3.598   7.722   0.261 -0.4912 -0.4760 -0.3423
 4567SOL    HW124380   3.692   7.694   0.280  0.0760  0.6215 -1.4719
 4567SOL    HW224381   3.593   7.822   0.256 -2.2958 -0.3455  2.6564
 4568SOL     OW24382   4.895   8.757   1.623  0.0865  0.0881 -0.3068
 4568SOL    HW124383   4.815   8.725   1.674  0.4243 -0.3176 -0.0259
 4568SOL    HW224384   4.898   8.857   1.627 -0.7183  0.1383 -0.7996
 4569SOL     OW24385   8.041   9.155   4.606 -0.1161  0.3888  0.5116
 4569SOL    HW124386   8.066   9.193   4.517 -1.0864  2.6562  1.1712
 4569SOL    HW224387   8.089   9.069   4.621  0.3608  0.1968 -2.0265
 4570SOL     OW24388   1.355   4.163   2.222 -0.3276 -0.0978 -0.0698
 4570SOL    HW124389   1.420   4.231   2.189 -1.3811  0.0615 -1.8771
 4570SOL    HW224390   1.329   4.103   2.147 -0.7009 -1.4547  1.1226
 4571SOL     OW24391   0.292   0.556   2.444  0.0997 -0.6971 -1.0715
 4571SOL    HW124392   0.299   0.578   2.542  0.9358 -0.4635 -1.1808
 4571SOL    HW224393   0.221   0.613   2.402 -0.5830 -1.1248 -0.5063
 4572SOL     OW24394   4.237   2.156   1.314 -0.1947 -0.0322  0.4885
 4572SOL    HW124395   4.312   2.091   1.316  0.2323  0.4874  1.3170
 4572SOL    HW224396   4.183   2.149   1.398  0.3739  1.2841  0.9829
 4573SOL     OW24397   8.052   2.917   1.510 -0.2406  0.3178  0.7273
 4573SOL    HW124398   8.116   2.897   1.584  0.0352 -1.5262  0.0109
 4573SOL    HW224399   7.962   2.881   1.533 -0.5789  1.2639  0.9103
 4574SOL     OW24400   1.628   9.112   3.905 -0.6659 -0.2341  0.3796
 4574SOL    HW124401   1.545   9.162   3.881 -0.1681  0.1751 -0.5349
 4574SOL    HW224402   1.607   9.041   3.971 -1.8555 -0.5341 -0.3092
 4575SOL     OW24403   9.428   9.234   1.113  0.2505 -0.2100 -0.2160
 4575SOL    HW124404   9.490   9.234   1.191  1.1152  0.4421 -0.8951
 4575SOL    HW224405   9.423   9.141   1.075  0.4530 -0.3613  0.1238
 4576SOL     OW24406   8.615   4.213   2.824  0.4142  0.0805  0.4320
 4576SOL    HW124407   8.678   4.260   2.761  0.6002  1.1751  1.4269
 4576SOL    HW224408   8.642   4.232   2.918  0.5459 -2.1160  0.8562
 4577SOL     OW24409   0.401   7.894   2.001 -0.6121  0.1862  0.0154
 4577SOL    HW124410   0.392   7.795   2.006  0.2886 -0.0318 -2.2128
 4577SOL    HW224411   0.469   7.925   2.066 -0.7572 -0.6757  0.5802
 4578SOL     OW24412   9.166   9.179   2.589 -0.1983  0.1173 -0.3183
 4578SOL    HW124413   9.202   9.273   2.594 -1.3043  0.5309  0.0445
 4578SOL    HW224414   9.151   9.144   2.681  2.8077 -1.4545 -0.3839
 4579SOL     OW24415   2.332   0.168   2.470  0.2469  0.2681 -0.4936
 4579SOL    HW124416   2.257   0.158   2.405 -0.6764  2.0876  0.2617
 4579SOL    HW224417   2.393   0.241   2.439 -0.0369  0.9402  0.5106
 4580SOL     OW24418   0.726   4.840   0.983 -0.3808 -0.3616  0.4956
 4580SOL    HW124419   0.823   4.833   1.006 -0.5196 -1.1975  0.8406
 4580SOL    HW224420   0.685   4.916   1.033  0.1153  0.0379  0.2942
 4581SOL     OW24421   3.107   9.938   1.663 -0.3808 -0.3684  0.2078
 4581SOL    HW124422   3.048   9.858   1.652  3.2475 -3.0616 -0.7863
 4581SOL    HW224423   3.159   9.953   1.579  0.9730  1.3413  1.3227
 4582SOL     OW24424   2.113   2.474   0.505  0.2605  0.1497  0.8301
 4582SOL    HW124425   2.119   2.398   0.441  0.7204  0.6415  0.2796
 4582SOL    HW224426   2.045   2.453   0.576 -0.9630  0.0015 -0.3666
 4583SOL     OW24427   0.877   0.967   2.612 -0.0001  0.0806  0.3950
 4583SOL    HW124428   0.930   1.038   2.566 -1.7489  2.2206  1.6044
 4583SOL    HW224429   0.933   0.884   2.621  2.2302  1.4313 -0.6224
 4584SOL     OW24430   3.971   9.076   2.775 -0.3766  0.2000 -0.1108
 4584SOL    HW124431   4.028   9.011   2.825  1.2340 -0.2096 -2.3923
 4584SOL    HW224432   3.971   9.052   2.677 -1.6033  2.3027 -0.6559
 4585SOL     OW24433   9.992   6.224   3.754  0.1494  0.5029 -0.0313
 4585SOL    HW124434  10.082   6.238   3.794  0.2838  3.5600 -1.3218
 4585SOL    HW224435  10.001   6.186   3.662  0.1013  0.2672  0.0610
 4586SOL     OW24436   0.724   4.899   4.669 -0.0755 -0.6200 -0.2241
 4586SOL    HW124437   0.794   4.909   4.598 -0.1039  0.6982 -0.0731
 4586SOL    HW224438   0.702   4.989   4.707 -0.5047 -1.2474  1.0334
 4587SOL     OW24439   4.447   3.121   3.122 -0.3156  0.1904 -0.4586
 4587SOL    HW124440   4.366   3.180   3.113  1.0710  2.3845  1.1502
 4587SOL    HW224441   4.493   3.116   3.033 -1.0003  0.7303 -0.8563
 4588SOL     OW24442   0.275   3.510   1.970 -0.1220 -0.2058  0.2922
 4588SOL    HW124443   0.290   3.544   2.063 -1.6478  1.4563 -0.0509
 4588SOL    HW224444   0.349   3.541   1.910 -1.1019  1.9353  0.1478
 4589SOL     OW24445   9.484   8.208   1.381  0.1726 -0.1589 -0.4409
 4589SOL    HW124446   9.540   8.153   1.320 -0.3311 -1.7976  0.5566
 4589SOL    HW224447   9.481   8.166   1.471 -0.2706  1.4745  0.3324
 4590SOL     OW24448   4.083   0.806   0.385  0.1740 -0.5145  0.2789
 4590SOL    HW124449   4.044   0.859   0.310 -2.0716 -3.4560 -0.7207
 4590SOL    HW224450   4.172   0.770   0.358  0.7430  0.9229  0.1847
 4591SOL     OW24451   5.064   9.794   3.269  0.3368  0.2267  0.0740
 4591SOL    HW124452   5.116   9.880   3.269  1.5224 -0.4746 -0.7187
 4591SOL    HW224453   5.119   9.722   3.228 -0.5578 -0.9872  0.9697
 4592SOL     OW24454   0.381   5.381   0.087  0.0797  0.1539  0.0344
 4592SOL    HW124455   0.373   5.298   0.031 -1.1180  1.3442 -1.6106
 4592SOL    HW224456   0.476   5.390   0.120  0.4807 -1.2783 -0.6867
 4593SOL     OW24457   8.325   6.479   4.272 -0.1181 -0.3042 -0.3864
 4593SOL    HW124458   8.371   6.555   4.226  0.4853 -0.9025 -0.7830
 4593SOL    HW224459   8.358   6.471   4.366 -0.4483  0.1440 -0.2292
 4594SOL     OW24460   9.573   3.069   0.511 -0.7897  0.3194  0.3648
 4594SOL    HW124461   9.625   3.071   0.426 -0.7555  0.3218  0.3853
 4594SOL    HW224462   9.515   3.150   0.516 -2.8213 -1.0184 -0.8961
 4595SOL     OW24463   9.270   9.065   3.440  0.4258 -0.4544 -0.2247
 4595SOL    HW124464   9.343   8.996   3.442  0.8874  0.0447  0.3221
 4595SOL    HW224465   9.294   9.136   3.374  0.9565  0.2763  0.7490
 4596SOL     OW24466   9.572   8.631   1.315  0.3855 -0.2184  0.5690
 4596SOL    HW124467   9.646   8.569   1.285  0.5924 -0.0227  0.6717
 4596SOL    HW224468   9.587   8.656   1.411 -0.6984 -1.4699  1.0887
 4597SOL     OW24469   9.391   7.291   1.340  0.5520  0.5320 -0.3082
 4597SOL    HW124470   9.471   7.233   1.357  0.4037  0.5126  0.3399
 4597SOL    HW224471   9.343   7.260   1.258  0.1502 -0.6248  0.3539
 4598SOL     OW24472   2.909   0.832   2.567 -0.1596  0.3552  0.9785
 4598SOL    HW124473   2.868   0.841   2.476  1.8573 -0.4321 -0.0336
 4598SOL    HW224474   2.997   0.785   2.559  0.3775  0.9405  3.2479
 4599SOL     OW24475   5.475   9.315   3.348  0.4021 -0.4562 -0.3496
 4599SOL    HW124476   5.529   9.371   3.285 -0.7759 -0.0816 -1.0409
 4599SOL    HW224477   5.395   9.366   3.378  1.2621 -0.4069  1.9531
 4600SOL     OW24478   0.963   8.612   2.768  0.2342  0.5617  0.4516
 4600SOL    HW124479   0.865   8.599   2.785  0.4625 -1.1073  0.5963
 4600SOL    HW224480   1.015   8.575   2.845  0.9955  0.9668  0.1337
 4601SOL     OW24481   1.042   6.201   4.145 -0.4511  0.2488  0.2168
 4601SOL    HW124482   1.133   6.233   4.118 -0.8656  1.6755  0.4810
 4601SOL    HW224483   0.981   6.280   4.157 -2.2162 -0.7768 -1.7006
 4602SOL     OW24484   0.301   6.250   1.424  0.1764 -0.3246 -0.2872
 4602SOL    HW124485   0.331   6.245   1.328 -0.4156 -0.0310 -0.4922
 4602SOL    HW224486   0.287   6.346   1.449 -0.9005 -0.4717 -0.2984
 4603SOL     OW24487   2.438   7.607   4.616 -0.0759  0.3868 -0.1756
 4603SOL    HW124488   2.371   7.669   4.575 -0.6894 -0.4111 -0.3973
 4603SOL    HW224489   2.398   7.564   4.697  0.2440  0.0627 -0.1888
 4604SOL     OW24490   2.675   9.486   4.737 -0.5906  0.2425 -0.2673
 4604SOL    HW124491   2.614   9.509   4.813 -0.8097  0.9606 -0.6580
 4604SOL    HW224492   2.630   9.510   4.650 -0.6016 -1.1466 -0.6550
 4605SOL     OW24493   0.425   9.617   3.796 -0.3525  0.2359 -0.1676
 4605SOL    HW124494   0.504   9.561   3.822 -0.3564  1.2771  2.2628
 4605SOL    HW224495   0.421   9.698   3.854 -2.7003  0.6708 -0.8643
 4606SOL     OW24496   0.581   6.863   4.348  0.0912 -0.1674  0.5827
 4606SOL    HW124497   0.553   6.847   4.443  0.2999 -1.2412  0.4704
 4606SOL    HW224498   0.674   6.828   4.335  0.4185  0.8267  0.2198
 4607SOL     OW24499   2.445   8.602   1.300  0.5900 -0.4788 -0.1214
 4607SOL    HW124500   2.449   8.513   1.346 -0.1274 -0.0583  0.7811
 4607SOL    HW224501   2.409   8.591   1.208 -2.6216 -0.7272  1.1139
 4608SOL     OW24502   2.818   8.560   2.943 -0.7559 -0.5357 -0.3304
 4608SOL    HW124503   2.760   8.616   2.884 -0.8667 -1.7832 -1.4416
 4608SOL    HW224504   2.817   8.466   2.910  1.2735 -0.7275  0.0969
 4609SOL     OW24505   3.091   0.922   1.049  0.3942  1.1043  0.1607
 4609SOL    HW124506   3.011   0.864   1.063  1.6014 -0.3470  1.2552
 4609SOL    HW224507   3.118   0.919   0.953 -0.1121  0.5957  0.0288
 4610SOL     OW24508   9.831   4.754   1.546 -0.7570 -0.2482  0.5092
 4610SOL    HW124509   9.739   4.791   1.547 -0.2011  1.1763 -0.0427
 4610SOL    HW224510   9.830   4.664   1.503 -1.2793  1.5076 -3.4040
 4611SOL     OW24511   8.386   0.862   3.317  0.3119 -0.3848  0.1553
 4611SOL    HW124512   8.482   0.886   3.332 -0.7490  2.9067  2.0094
 4611SOL    HW224513   8.356   0.797   3.387  0.6863  0.0236  0.6979
 4612SOL     OW24514   9.750   9.982   3.133  0.5031  0.3794 -0.1937
 4612SOL    HW124515   9.696   9.918   3.188 -0.2859  0.0956 -1.2884
 4612SOL    HW224516   9.694  10.062   3.110  0.4103 -0.0950 -1.6623
 4613SOL     OW24517   6.702   7.385   2.471  0.1627  0.7429 -0.0190
 4613SOL    HW124518   6.779   7.445   2.450 -0.1138  2.0225  2.3800
 4613SOL    HW224519   6.625   7.440   2.502 -1.0288 -0.6843 -0.4128
 4614SOL     OW24520   9.555   5.725   2.205 -0.6961 -0.3753  0.7281
 4614SOL    HW124521   9.583   5.698   2.297 -0.4038 -0.6592  0.5540
 4614SOL    HW224522   9.456   5.717   2.197 -0.5981 -1.5287  0.6316
 4615SOL     OW24523   7.960   6.721   1.722 -0.3366 -0.2747  0.2053
 4615SOL    HW124524   7.926   6.642   1.772  1.6001  0.2842  2.5208
 4615SOL    HW224525   8.054   6.703   1.691 -0.0324  0.9380  0.3787
 4616SOL     OW24526   3.862   9.957   0.084 -0.3227 -0.4085 -0.1921
 4616SOL    HW124527   3.788   9.951   0.017  0.3350 -0.2722 -0.9449
 4616SOL    HW224528   3.838   9.906   0.166 -0.7181 -1.4101 -0.9271
 4617SOL     OW24529   4.404   7.101   3.277  0.0633  0.0780  0.6520
 4617SOL    HW124530   4.416   7.016   3.329  2.9682 -0.0598 -0.1958
 4617SOL    HW224531   4.341   7.084   3.201  0.7304 -1.3678  0.3933
 4618SOL     OW24532   1.592   4.462   0.257 -0.1213 -0.6860 -0.0529
 4618SOL    HW124533   1.508   4.431   0.301 -0.3352  0.7164  0.5205
 4618SOL    HW224534   1.570   4.514   0.175  0.0921  1.4552  1.2052
 4619SOL     OW24535   8.701   2.390   3.850 -0.2445  0.3174 -0.0823
 4619SOL    HW124536   8.785   2.336   3.857  0.1327  1.1149  1.9546
 4619SOL    HW224537   8.627   2.332   3.817  0.8500 -0.6772 -0.8210
 4620SOL     OW24538   3.578   5.552   3.912 -0.0794  0.4403  0.1331
 4620SOL    HW124539   3.653   5.552   3.846  0.3283  1.8674  0.5751
 4620SOL    HW224540   3.558   5.646   3.939 -0.3956 -0.1117  1.8739
 4621SOL     OW24541   2.967   2.138   2.816 -0.1931 -0.1405  0.3641
 4621SOL    HW124542   2.906   2.060   2.834 -0.5105 -0.0119 -0.1307
 4621SOL    HW224543   3.054   2.105   2.782 -0.2729 -0.2858  0.3011
 4622SOL     OW24544   2.083   5.432   0.971 -0.2047  1.3619  0.0893
 4622SOL    HW124545   2.092   5.366   0.896 -0.6867  0.7545  0.5590
 4622SOL    HW224546   1.991   5.469   0.972 -0.5860  0.4132  1.1573
 4623SOL     OW24547   8.098   5.978   2.887 -0.0112 -0.4339  0.4781
 4623SOL    HW124548   8.123   5.941   2.977 -1.8219 -0.6742  0.8951
 4623SOL    HW224549   8.001   5.963   2.870  0.1428  0.3117 -1.2012
 4624SOL     OW24550   1.180  10.000   1.843 -0.0940  0.0221 -0.4025
 4624SOL    HW124551   1.192   9.987   1.745 -0.5732 -3.0831 -0.0921
 4624SOL    HW224552   1.221   9.923   1.892 -0.9433  0.9204  1.7721
 4625SOL     OW24553   1.186   6.723   2.188  0.5240  0.4726  0.2546
 4625SOL    HW124554   1.224   6.786   2.256 -1.8153  2.4548 -0.2155
 4625SOL    HW224555   1.092   6.750   2.166 -0.8637 -3.6731  0.6329
 4626SOL     OW24556   2.035   2.972   2.457  0.0776  0.5594 -0.1082
 4626SOL    HW124557   2.097   2.897   2.432 -0.9826 -0.3837  0.0133
 4626SOL    HW224558   2.068   3.058   2.418  2.8029  0.5169  2.0346
 4627SOL     OW24559   8.262   5.029   0.979  0.0613 -0.5378  0.0953
 4627SOL    HW124560   8.355   5.065   0.994 -0.1505 -0.6027  1.6675
 4627SOL    HW224561   8.234   4.977   1.059 -1.0127 -1.2539 -0.7380
 4628SOL     OW24562   2.639   8.585   0.192 -0.5368  0.6356  0.0301
 4628SOL    HW124563   2.695   8.655   0.236 -0.6135  0.5834  0.2119
 4628SOL    HW224564   2.552   8.625   0.164 -0.6351  0.5786  0.2571
 4629SOL     OW24565   1.861   3.858   1.266  0.2874 -0.1318 -0.5414
 4629SOL    HW124566   1.890   3.940   1.316 -1.1663  1.2649 -1.9396
 4629SOL    HW224567   1.939   3.797   1.255  1.1301  0.5213  1.5139
 4630SOL     OW24568   0.860   4.357   4.303 -0.5344 -0.4623  0.0757
 4630SOL    HW124569   0.864   4.435   4.365 -1.3688  0.7943 -1.4297
 4630SOL    HW224570   0.947   4.307   4.307  0.6855  1.5540 -0.2380
 4631SOL     OW24571   4.214   9.828   1.895 -0.3042 -0.4043  0.0681
 4631SOL    HW124572   4.193   9.734   1.871 -0.1193 -0.3463 -0.3265
 4631SOL    HW224573   4.312   9.839   1.907 -0.3988 -0.4495  0.9225
 4632SOL     OW24574   4.087   7.021   3.688 -0.0000  0.1163 -0.1300
 4632SOL    HW124575   4.159   7.082   3.654  0.3234  0.1036  0.5263
 4632SOL    HW224576   4.065   7.045   3.782 -1.6688  0.8702 -0.6922
 4633SOL     OW24577   4.723   7.161   2.213  0.0418  0.3187 -0.5265
 4633SOL    HW124578   4.703   7.257   2.195  1.0868  0.8179  0.8906
 4633SOL    HW224579   4.651   7.121   2.269 -0.1947  0.3795 -0.7867
 4634SOL     OW24580   0.766   3.535   0.546  0.3394 -0.6724  0.0406
 4634SOL    HW124581   0.823   3.484   0.610 -0.1103 -2.1534 -0.6964
 4634SOL    HW224582   0.784   3.633   0.555  0.2277 -0.8428  2.4565
 4635SOL     OW24583   4.986   7.980   1.912 -0.1292 -0.1045  0.0820
 4635SOL    HW124584   5.018   7.945   1.824 -0.9000 -0.1288 -0.1896
 4635SOL    HW224585   5.011   8.077   1.921 -0.6900  0.0963 -0.4804
 4636SOL     OW24586   4.481   6.671   2.438 -0.7168 -0.0851 -0.7118
 4636SOL    HW124587   4.473   6.677   2.538 -1.4014  0.0396 -0.7755
 4636SOL    HW224588   4.563   6.720   2.409 -1.1875  0.9351 -0.3274
 4637SOL     OW24589   0.961   7.855   3.167 -0.1050  0.0972  0.0787
 4637SOL    HW124590   1.018   7.926   3.209  0.7012  0.2465 -1.2328
 4637SOL    HW224591   1.018   7.796   3.109 -1.1843 -0.1307 -0.7792
 4638SOL     OW24592   8.673   5.834   4.591 -0.0752  0.7129  0.1054
 4638SOL    HW124593   8.579   5.810   4.614  0.0043 -0.7776 -1.0595
 4638SOL    HW224594   8.704   5.909   4.650 -1.8216  0.8940  0.8159
 4639SOL     OW24595   1.074   7.356   2.452  0.3901  0.2055  0.4604
 4639SOL    HW124596   1.170   7.334   2.471  0.3920 -0.6644 -0.5240
 4639SOL    HW224597   1.045   7.431   2.511  1.6316  0.3688  0.8771
 4640SOL     OW24598   1.854   2.527   2.051  0.2065 -0.4906  0.1867
 4640SOL    HW124599   1.950   2.515   2.076  0.2210 -0.2887  0.2305
 4640SOL    HW224600   1.809   2.438   2.046  0.7067 -0.6855 -1.0738
 4641SOL     OW24601   8.837   6.387   0.822  0.1962 -0.1709 -0.0294
 4641SOL    HW124602   8.826   6.352   0.915 -0.6753 -2.5335 -0.9782
 4641SOL    HW224603   8.814   6.315   0.757 -0.7517  1.9516 -2.0846
 4642SOL     OW24604   6.385   9.330   1.549  0.2343  0.6660  0.0183
 4642SOL    HW124605   6.473   9.313   1.592  1.0719  0.1850 -1.8459
 4642SOL    HW224606   6.335   9.243   1.540  0.3003  0.6707 -0.4460
 4643SOL     OW24607   2.525   7.321   3.522 -0.3265  0.6909 -0.1167
 4643SOL    HW124608   2.546   7.246   3.584  0.4242  1.9112  1.1226
 4643SOL    HW224609   2.581   7.312   3.439  1.2058  0.9381  0.8643
 4644SOL     OW24610   3.443   4.523   0.364  0.1425 -0.0908 -0.0349
 4644SOL    HW124611   3.410   4.453   0.427  1.2055 -1.0250 -0.5079
 4644SOL    HW224612   3.416   4.500   0.271  0.2329  0.2942 -0.1554
 4645SOL     OW24613   8.100   4.506   3.644  0.0511  0.0840  0.5369
 4645SOL    HW124614   8.139   4.507   3.552  0.9963  3.3712  0.9027
 4645SOL    HW224615   8.000   4.515   3.638  0.0259 -0.6178 -0.1687
 4646SOL     OW24616   9.208   1.151   3.837 -0.5058 -0.1143  0.2330
 4646SOL    HW124617   9.181   1.228   3.778  2.0147  1.5422  1.1446
 4646SOL    HW224618   9.126   1.107   3.874 -2.0554  0.8330 -1.9366
 4647SOL     OW24619   1.322   8.869   2.613 -0.0890 -0.1272  0.3164
 4647SOL    HW124620   1.331   8.967   2.598  1.1589 -0.5080 -1.5109
 4647SOL    HW224621   1.383   8.819   2.551 -0.3844 -2.0451  1.5103
 4648SOL     OW24622   1.036   9.129   4.580 -0.1913  0.6905 -0.3017
 4648SOL    HW124623   1.131   9.105   4.562 -0.4304 -0.7913  0.3323
 4648SOL    HW224624   1.001   9.072   4.653 -1.6286  1.1077 -0.6518
 4649SOL     OW24625   2.733   3.951   4.281  0.2451 -0.7487 -0.4293
 4649SOL    HW124626   2.658   3.914   4.227  0.4374  0.7557 -1.7716
 4649SOL    HW224627   2.818   3.942   4.230  0.7315 -1.0213  0.4258
 4650SOL     OW24628   2.636   7.984   4.555  0.0804  0.2453 -0.2027
 4650SOL    HW124629   2.642   8.018   4.461  2.4637 -0.4692 -0.3402
 4650SOL    HW224630   2.671   7.890   4.559  0.9652  0.6196  1.5654
 4651SOL     OW24631   0.367   2.928   0.610 -0.2473  0.2675 -0.0542
 4651SOL    HW124632   0.439   2.913   0.543 -0.1743  0.8475 -0.1099
 4651SOL    HW224633   0.408   2.939   0.701 -0.3940 -1.2438  0.2062
 4652SOL     OW24634   8.154   6.776   4.196  0.1723 -0.0992 -0.2767
 4652SOL    HW124635   8.134   6.789   4.293 -0.2699 -0.7087 -0.2790
 4652SOL    HW224636   8.127   6.683   4.169  1.2688 -0.2996 -0.7328
 4653SOL     OW24637   3.799   7.389   3.649 -0.1963  0.2199 -0.0363
 4653SOL    HW124638   3.746   7.410   3.731 -0.2445  2.0625 -0.5262
 4653SOL    HW224639   3.893   7.422   3.661 -0.1374  0.2639 -0.6142
 4654SOL     OW24640   2.247   5.302   1.389 -0.4299 -0.1668 -0.1254
 4654SOL    HW124641   2.284   5.312   1.297 -0.8311  1.8691 -0.0904
 4654SOL    HW224642   2.160   5.350   1.395 -0.6204 -0.6551  1.2015
 4655SOL     OW24643   9.416   4.621   0.265  0.1237 -0.0414  0.1966
 4655SOL    HW124644   9.331   4.592   0.223  0.5572  0.3089 -0.9380
 4655SOL    HW224645   9.461   4.689   0.207  0.6968  0.4989  1.2506
 4656SOL     OW24646   3.399   3.643   1.143  0.2720  0.0543 -0.2928
 4656SOL    HW124647   3.419   3.640   1.045  2.8004  0.0189  0.1906
 4656SOL    HW224648   3.347   3.726   1.164  2.1751  1.5159 -1.2343
 4657SOL     OW24649   1.339   7.360   2.618  1.2546 -0.6996 -0.5001
 4657SOL    HW124650   1.418   7.338   2.561  1.2696 -1.3474 -0.2389
 4657SOL    HW224651   1.327   7.459   2.622  1.3364 -0.6474 -1.5145
 4658SOL     OW24652   6.185   9.039   2.855  0.2811  0.1079  0.5764
 4658SOL    HW124653   6.108   9.101   2.873  0.9716  1.2634 -0.3804
 4658SOL    HW224654   6.168   8.952   2.901 -1.7073  0.2697  0.2182
 4659SOL     OW24655   0.771   7.293   0.153 -0.3326  0.7292  0.1333
 4659SOL    HW124656   0.783   7.331   0.062 -0.2515 -0.2996 -0.2992
 4659SOL    HW224657   0.730   7.202   0.146  2.0369 -0.4448  0.9648
 4660SOL     OW24658   8.893   4.635   3.245 -0.2838 -0.9250  0.3010
 4660SOL    HW124659   8.946   4.706   3.198 -1.4621 -1.5686 -2.0648
 4660SOL    HW224660   8.954   4.562   3.275  0.4996 -0.4324 -0.0757
 4661SOL     OW24661   7.916   1.366   1.017  0.4484  0.1102 -0.5685
 4661SOL    HW124662   7.854   1.431   0.973  0.4434 -0.3764 -1.2928
 4661SOL    HW224663   7.876   1.334   1.103  0.2299  0.6855 -0.4579
 4662SOL     OW24664   3.744   8.371   3.410 -0.1603  0.3315 -0.3328
 4662SOL    HW124665   3.789   8.460   3.402 -0.5815  0.4867 -0.9835
 4662SOL    HW224666   3.753   8.321   3.324 -0.9441  0.2299 -0.3547
 4663SOL     OW24667   8.620   4.057   3.860 -0.1294 -0.2529 -0.6775
 4663SOL    HW124668   8.613   3.998   3.940 -3.4544  0.7802 -0.1460
 4663SOL    HW224669   8.649   4.003   3.781  2.5181 -1.4057  1.0288
 4664SOL     OW24670   9.995   8.307   3.570  0.0589  0.2539 -0.5623
 4664SOL    HW124671   9.928   8.371   3.608 -0.1606 -0.5580  0.4429
 4664SOL    HW224672   9.978   8.216   3.606  1.5910  0.0050 -0.4371
 4665SOL     OW24673   0.630   2.169   1.775 -0.0041 -0.4117 -0.4105
 4665SOL    HW124674   0.597   2.121   1.694 -1.3070  0.9244 -0.6698
 4665SOL    HW224675   0.656   2.101   1.844  0.4451 -1.5416 -1.6605
 4666SOL     OW24676   0.840   2.955   1.274 -0.1709  0.5725 -0.1922
 4666SOL    HW124677   0.883   2.966   1.363 -0.9471 -0.4201  0.3110
 4666SOL    HW224678   0.787   3.037   1.252  2.9659  2.3817 -1.3977
 4667SOL     OW24679   1.004   5.071   0.747  0.1238  0.4234 -0.6440
 4667SOL    HW124680   1.032   5.074   0.651 -0.5926  1.1290 -0.8311
 4667SOL    HW224681   0.904   5.074   0.753  0.1411 -0.3083  0.0964
 4668SOL     OW24682   9.374   3.459   1.234  0.6566  0.0037  0.3724
 4668SOL    HW124683   9.391   3.489   1.140 -1.8349  0.8667  0.1387
 4668SOL    HW224684   9.436   3.507   1.297  0.2521  1.7488 -0.5430
 4669SOL     OW24685   3.494   0.175   4.082 -0.3909  0.2088 -0.3196
 4669SOL    HW124686   3.555   0.096   4.092 -1.2846 -0.5889 -1.0963
 4669SOL    HW224687   3.533   0.239   4.016 -0.1210 -0.0251 -0.3902
 4670SOL     OW24688   3.140   1.410   0.907  0.4408  0.8682  0.3926
 4670SOL    HW124689   3.154   1.490   0.964 -1.3081  0.0389  2.0645
 4670SOL    HW224690   3.087   1.342   0.957 -1.2417  0.1280 -2.2598
 4671SOL     OW24691   9.697   2.144   2.508  0.3475 -0.1090 -0.3617
 4671SOL    HW124692   9.628   2.077   2.534  0.8394 -0.3366  0.3625
 4671SOL    HW224693   9.672   2.185   2.420 -1.6665  1.1156  0.7397
 4672SOL     OW24694   9.771   9.840   3.999  0.1667  0.2384 -1.1189
 4672SOL    HW124695   9.832   9.807   4.071 -0.1408  0.2321 -0.8641
 4672SOL    HW224696   9.763   9.939   4.005 -0.4666  0.1619 -0.6657
 4673SOL     OW24697   0.931   3.869   2.074 -0.1512 -0.4898 -0.3766
 4673SOL    HW124698   1.025   3.851   2.045 -0.1620 -0.5575 -0.3690
 4673SOL    HW224699   0.911   3.966   2.061  0.4147 -0.1760  1.0541
 4674SOL     OW24700   7.561   9.909   1.871 -0.1132 -0.5153  0.0522
 4674SOL    HW124701   7.559   9.921   1.772  0.5667  1.5690  0.2867
 4674SOL    HW224702   7.650   9.872   1.899  0.1920  0.1906  0.0222
 4675SOL     OW24703   7.452   8.363   3.452 -0.3485 -0.0577 -0.6626
 4675SOL    HW124704   7.551   8.367   3.460 -0.0765 -4.4960 -0.2967
 4675SOL    HW224705   7.410   8.389   3.539  0.5505  0.3938 -0.3591
 4676SOL     OW24706   1.864   6.313   0.121 -0.3698  0.5320  0.7446
 4676SOL    HW124707   1.872   6.312   0.220 -0.0530  0.0271  0.7177
 4676SOL    HW224708   1.897   6.401   0.085 -2.3644  1.5061  1.2260
 4677SOL     OW24709   3.331   4.670   1.491 -0.4943 -0.5066 -0.3495
 4677SOL    HW124710   3.390   4.740   1.452  0.0887  0.2036  1.7229
 4677SOL    HW224711   3.375   4.580   1.482  2.1459  0.2842  3.2892
 4678SOL     OW24712   9.905   4.625   2.413 -0.9976  0.0943 -0.3643
 4678SOL    HW124713   9.823   4.645   2.467 -0.0202 -0.9145  1.5440
 4678SOL    HW224714   9.975   4.693   2.433 -0.0279 -1.2631  1.0269
 4679SOL     OW24715   3.151   7.954   2.465 -0.3994  0.2227  0.4473
 4679SOL    HW124716   3.127   8.014   2.541 -0.9712 -0.0715  0.4983
 4679SOL    HW224717   3.219   7.887   2.494  0.1894  0.7949  0.4102
 4680SOL     OW24718   0.297   2.641   2.821  0.5448  0.2705 -0.1621
 4680SOL    HW124719   0.372   2.623   2.885  0.8948  0.7452 -0.4360
 4680SOL    HW224720   0.309   2.584   2.739  1.5927  1.6362 -0.9814
 4681SOL     OW24721   7.498   4.468   0.031 -0.3332  0.3806  0.1990
 4681SOL    HW124722   7.508   4.544   0.095 -1.1298  2.7355 -2.3967
 4681SOL    HW224723   7.588   4.431   0.010  0.2776  2.0366 -0.1723
 4682SOL     OW24724   8.077   0.371   4.462  0.1759 -0.4322 -0.2199
 4682SOL    HW124725   8.092   0.275   4.439  0.4245 -0.3158 -0.5398
 4682SOL    HW224726   7.980   0.387   4.480 -0.0437 -0.4763 -1.3564
 4683SOL     OW24727   7.943   1.622   3.801  0.6044 -0.1916 -0.4490
 4683SOL    HW124728   7.988   1.565   3.731  1.7047  1.0771 -0.8004
 4683SOL    HW224729   7.870   1.675   3.758 -0.1945 -1.0738 -0.1885
 4684SOL     OW24730   1.483   4.880   3.309  0.1051 -0.4342  0.0222
 4684SOL    HW124731   1.509   4.976   3.315  0.6846 -0.4312 -2.1265
 4684SOL    HW224732   1.393   4.872   3.267  0.4495 -0.8821 -0.6301
 4685SOL     OW24733   4.223   3.318   4.673  0.3924  0.5741  0.1009
 4685SOL    HW124734   4.181   3.245   4.620  1.3493 -2.1073  2.9453
 4685SOL    HW224735   4.152   3.370   4.721 -0.1638  0.5959 -0.7379
 4686SOL     OW24736   5.027   8.232   1.880  0.7430  0.4407  0.2595
 4686SOL    HW124737   4.987   8.282   1.957  0.5156  0.0996  0.3606
 4686SOL    HW224738   5.115   8.274   1.856 -0.4115  2.2058 -1.0003
 4687SOL     OW24739   8.790   3.050   0.198 -0.4166  0.3118  0.4193
 4687SOL    HW124740   8.713   3.113   0.209  0.3972  0.8420  3.4353
 4687SOL    HW224741   8.758   2.966   0.154 -1.9776  1.8849 -1.5736
 4688SOL     OW24742   8.037   2.527   3.417  0.4739  0.0269  0.3671
 4688SOL    HW124743   7.961   2.568   3.366  0.2064  1.3084  1.7455
 4688SOL    HW224744   8.111   2.505   3.355 -0.2395  0.6358 -0.7201
 4689SOL     OW24745   4.292   9.344   0.944 -0.1210  0.6543  0.2212
 4689SOL    HW124746   4.369   9.407   0.933  0.5221 -0.0500  0.6198
 4689SOL    HW224747   4.209   9.397   0.966  0.4100  1.3582  0.5649
 4690SOL     OW24748   4.276   3.109   1.174 -0.0425  0.0400  0.2760
 4690SOL    HW124749   4.189   3.152   1.199  0.1596 -0.2049  1.4476
 4690SOL    HW224750   4.349   3.146   1.231  0.2304 -1.4219  0.8945
 4691SOL     OW24751   2.584   9.203   0.730  0.2579  0.1070  0.2514
 4691SOL    HW124752   2.632   9.137   0.672 -0.1782 -0.6939  0.7976
 4691SOL    HW224753   2.645   9.279   0.750  0.9470 -0.3922  0.0659
 4692SOL     OW24754   8.953   2.903   4.607 -0.0696  0.4571  0.2356
 4692SOL    HW124755   8.875   2.930   4.549 -0.1758 -0.3723 -0.0131
 4692SOL    HW224756   9.036   2.901   4.551 -0.5518 -2.5285 -0.4210
 4693SOL     OW24757   0.500   9.241   1.642 -0.2982 -0.2140 -0.3273
 4693SOL    HW124758   0.481   9.339   1.630 -1.3001 -0.3062  0.5525
 4693SOL    HW224759   0.508   9.220   1.739 -1.7418 -1.3250 -0.4378
 4694SOL     OW24760   0.774   1.641   1.744  0.3685  0.1621  0.2784
 4694SOL    HW124761   0.682   1.602   1.744 -0.4838  2.0913 -0.3622
 4694SOL    HW224762   0.792   1.682   1.654  1.6722  0.2095  0.5568
 4695SOL     OW24763   2.996   1.477   3.815  0.1556 -0.2092  0.3599
 4695SOL    HW124764   2.997   1.546   3.887  0.9249 -0.1546  0.3040
 4695SOL    HW224765   2.929   1.502   3.745 -0.6359 -0.2955  1.0796
 4696SOL     OW24766   2.795   8.153   2.151 -0.7333  0.3984 -0.5634
 4696SOL    HW124767   2.740   8.084   2.105 -0.6287 -0.5711  0.7436
 4696SOL    HW224768   2.808   8.128   2.247  1.2163  1.0666 -0.6165
 4697SOL     OW24769   8.594   2.839   1.120 -0.4945  0.4036  0.0497
 4697SOL    HW124770   8.582   2.849   1.218 -0.5427  1.5254 -0.0709
 4697SOL    HW224771   8.506   2.854   1.073 -0.6049 -0.7147 -0.1340
 4698SOL     OW24772   0.222   9.643   0.707  0.5304  0.1420 -0.4161
 4698SOL    HW124773   0.290   9.688   0.766  1.5477 -1.2723 -0.4738
 4698SOL    HW224774   0.219   9.545   0.730 -0.5995 -0.0225 -1.2722
 4699SOL     OW24775   7.471   0.143   3.424 -0.0599  0.1741  0.6974
 4699SOL    HW124776   7.393   0.094   3.462 -1.2468  3.4808  2.7424
 4699SOL    HW224777   7.444   0.189   3.340  0.3348 -0.5438  0.1744
 4700SOL     OW24778   5.463   1.693   2.697 -0.0170 -0.6399  0.4680
 4700SOL    HW124779   5.519   1.619   2.662 -0.1617  0.0184 -1.2008
 4700SOL    HW224780   5.519   1.753   2.754  0.1742 -1.8270  1.5498
 4701SOL     OW24781   7.621   0.829   4.551 -0.7412 -0.5182 -0.2451
 4701SOL    HW124782   7.599   0.851   4.646  2.3798 -1.0226  0.6645
 4701SOL    HW224783   7.584   0.739   4.528 -0.7503 -0.7778  0.7761
 4702SOL     OW24784   2.344   3.500   0.316 -0.5952 -0.4075 -0.4431
 4702SOL    HW124785   2.246   3.483   0.308 -0.4800 -1.2749 -0.0394
 4702SOL    HW224786   2.389   3.478   0.229 -0.6163 -1.0128 -0.3029
 4703SOL     OW24787   0.853   6.795   4.298  0.3662  0.1675 -0.7972
 4703SOL    HW124788   0.859   6.781   4.397 -0.0188 -1.6383 -1.0183
 4703SOL    HW224789   0.922   6.862   4.270 -0.2105  1.4925  0.8247
 4704SOL     OW24790   0.757   3.617   3.606 -0.9207 -0.3437 -0.0071
 4704SOL    HW124791   0.833   3.677   3.580  0.0360 -1.7889 -0.6210
 4704SOL    HW224792   0.741   3.551   3.532 -2.1595 -0.6488  0.5293
 4705SOL     OW24793   8.372   6.260   0.738  0.2032 -0.0470 -0.2940
 4705SOL    HW124794   8.401   6.229   0.829  1.0036 -2.0317 -1.2074
 4705SOL    HW224795   8.272   6.262   0.734  0.1510 -1.8540 -0.0056
 4706SOL     OW24796   0.731   4.589   3.451  0.5394  0.2840  0.1377
 4706SOL    HW124797   0.801   4.531   3.409  0.6442  0.1543  0.4842
 4706SOL    HW224798   0.743   4.588   3.551  1.0901  1.6003  0.0988
 4707SOL     OW24799   3.563   3.144   2.432 -0.2692  0.1084  0.0423
 4707SOL    HW124800   3.484   3.083   2.443 -0.2679  0.1029  0.0179
 4707SOL    HW224801   3.600   3.166   2.522 -1.0624  1.1066  0.1346
 4708SOL     OW24802   1.861   1.314   1.361  0.0166 -0.0842 -0.1256
 4708SOL    HW124803   1.952   1.345   1.388  0.0558 -2.1986  2.4284
 4708SOL    HW224804   1.840   1.346   1.269  2.6508  1.8517 -0.0967
 4709SOL     OW24805   2.576   5.817   3.251  0.0091  0.1258  0.2695
 4709SOL    HW124806   2.526   5.865   3.179  1.7677 -0.0022 -1.0568
 4709SOL    HW224807   2.593   5.723   3.222  0.5465  0.0089  0.9584
 4710SOL     OW24808   1.218   6.816   4.198 -0.0312 -0.4961  0.0072
 4710SOL    HW124809   1.130   6.849   4.164  0.3125  1.4175  0.9435
 4710SOL    HW224810   1.285   6.817   4.124  0.2299  1.8904  0.2461
 4711SOL     OW24811   9.882   7.872   1.402  0.0116 -0.2801 -0.2445
 4711SOL    HW124812   9.862   7.780   1.367 -1.9202 -0.4639  1.2187
 4711SOL    HW224813   9.979   7.892   1.389  0.4987 -2.5811 -0.5098
 4712SOL     OW24814   9.731   7.383   1.448  0.2816  0.5030  0.2102
 4712SOL    HW124815   9.671   7.307   1.425 -2.0618  1.7973  1.7931
 4712SOL    HW224816   9.678   7.468   1.447  2.8423  2.1383 -1.5345
 4713SOL     OW24817   2.976   1.872   4.439  1.1811  0.1644 -0.2889
 4713SOL    HW124818   2.943   1.949   4.494  1.5836  1.1462 -1.4083
 4713SOL    HW224819   3.071   1.852   4.463  1.6564  1.1951 -1.2640
 4714SOL     OW24820   3.277   3.702   3.442  0.0277 -0.1944  0.1055
 4714SOL    HW124821   3.304   3.767   3.513  1.9335  0.0610 -0.8100
 4714SOL    HW224822   3.355   3.643   3.420 -0.8036 -0.8296 -1.1696
 4715SOL     OW24823   6.485   0.443   2.460  0.3073 -0.0205  0.0228
 4715SOL    HW124824   6.437   0.475   2.378  0.0452 -1.6707 -0.4962
 4715SOL    HW224825   6.511   0.521   2.517 -1.0423  1.0402 -0.7854
 4716SOL     OW24826   1.615   2.234   0.015  0.7191  0.2772 -0.0984
 4716SOL    HW124827   1.543   2.170  -0.009  0.9630  0.2163 -0.6565
 4716SOL    HW224828   1.579   2.302   0.080 -0.0748  0.7764 -1.0580
 4717SOL     OW24829   8.383   9.985   4.732  0.5110 -0.0629 -0.6783
 4717SOL    HW124830   8.387   9.974   4.831 -0.3523  1.0363 -0.5086
 4717SOL    HW224831   8.471  10.018   4.698  0.9003 -0.7281 -0.3177
 4718SOL     OW24832   3.299   2.414   2.431  0.5446  0.2467  0.4288
 4718SOL    HW124833   3.235   2.340   2.454 -0.5039  0.8069 -0.6637
 4718SOL    HW224834   3.385   2.374   2.397  0.5609 -0.4904  1.3020
 4719SOL     OW24835   1.696   5.276   0.391  0.0868 -0.2348 -0.6734
 4719SOL    HW124836   1.640   5.256   0.310  0.8109  0.6964 -1.4120
 4719SOL    HW224837   1.781   5.223   0.386 -1.0709 -2.3071  0.8712
 4720SOL     OW24838   5.983   7.527   3.167 -0.2883 -0.1042 -0.0151
 4720SOL    HW124839   6.071   7.574   3.169  0.5157 -1.5518 -0.8777
 4720SOL    HW224840   5.947   7.522   3.260  0.8083 -0.0021  0.4280
 4721SOL     OW24841   0.076   0.263   2.627 -0.2042  0.0151 -0.2247
 4721SOL    HW124842   0.101   0.197   2.556 -1.5740 -0.3573 -0.3754
 4721SOL    HW224843   0.115   0.235   2.714 -0.9033 -1.0791 -0.2608
 4722SOL     OW24844   4.358   8.220   0.718  0.0913 -1.0463  0.2930
 4722SOL    HW124845   4.423   8.254   0.650 -1.1759  0.9847  0.0519
 4722SOL    HW224846   4.401   8.219   0.808 -0.1541  2.3347  0.5086
 4723SOL     OW24847   3.425   2.943   3.715  0.3746  0.0185 -0.4231
 4723SOL    HW124848   3.404   2.961   3.812 -0.1684  2.1778 -0.8983
 4723SOL    HW224849   3.471   2.856   3.707 -0.2226 -0.5498  1.7227
 4724SOL     OW24850   3.346   8.441   4.737 -0.1697  0.3097  0.5125
 4724SOL    HW124851   3.305   8.522   4.779  0.7116  0.5728  0.8561
 4724SOL    HW224852   3.445   8.444   4.746 -0.2258 -1.6531  2.0678
 4725SOL     OW24853   1.791   9.587   1.681  0.6176  0.1601 -0.5596
 4725SOL    HW124854   1.817   9.563   1.774  0.8254  2.2956 -0.0498
 4725SOL    HW224855   1.869   9.571   1.620  1.0520  0.4217 -0.0790
 4726SOL     OW24856   3.894   7.731   1.155 -0.5113  0.0804 -0.1413
 4726SOL    HW124857   3.880   7.654   1.093 -1.6284  1.3677 -1.5252
 4726SOL    HW224858   3.904   7.697   1.248  1.1544 -1.8809 -0.9911
 4727SOL     OW24859   8.078   6.429   1.204  0.2103  0.6334  0.0999
 4727SOL    HW124860   8.083   6.332   1.178  0.7890  0.5893  0.3623
 4727SOL    HW224861   8.080   6.437   1.304 -0.2802  0.8930  0.0883
 4728SOL     OW24862   1.197   1.406   1.365 -0.1971  0.1917  0.8074
 4728SOL    HW124863   1.240   1.323   1.402 -0.6831  0.4629  1.9889
 4728SOL    HW224864   1.192   1.476   1.436 -0.6196  0.9250  0.0677
 4729SOL     OW24865   2.451   9.162   4.116 -0.1076 -0.1823  0.5438
 4729SOL    HW124866   2.450   9.137   4.019 -2.6572 -0.0404  0.5020
 4729SOL    HW224867   2.366   9.133   4.159  0.7008  0.3853  2.6127
 4730SOL     OW24868   9.530   1.191   0.408  0.5670 -0.0889  0.0391
 4730SOL    HW124869   9.624   1.193   0.440  0.8670 -1.4940 -0.7316
 4730SOL    HW224870   9.505   1.280   0.370  1.1043  0.7352  1.5885
 4731SOL     OW24871   2.175   6.383   2.064 -0.4363  0.1076  0.2905
 4731SOL    HW124872   2.228   6.463   2.093 -0.1424  0.0497 -0.0797
 4731SOL    HW224873   2.229   6.329   2.000 -0.3774 -0.7486  1.0431
 4732SOL     OW24874   7.650   9.693   3.326  0.2777  0.3076 -0.5839
 4732SOL    HW124875   7.625   9.785   3.294  2.3094  1.1181  0.1057
 4732SOL    HW224876   7.636   9.628   3.252  0.8704  1.5177 -1.7891
 4733SOL     OW24877   8.919   6.713   3.295 -0.1143 -0.4469  0.0346
 4733SOL    HW124878   8.897   6.739   3.201 -0.8342 -1.2306 -0.0226
 4733SOL    HW224879   9.017   6.723   3.310  0.2590 -1.8767 -1.3063
 4734SOL     OW24880   5.802   0.302   3.455  0.0074  0.3660  0.3875
 4734SOL    HW124881   5.799   0.215   3.503 -1.7670  0.1316 -0.1480
 4734SOL    HW224882   5.802   0.377   3.521 -3.0693  0.0602  0.7659
 4735SOL     OW24883   9.826   5.550   2.559 -0.1505 -0.2744 -0.4333
 4735SOL    HW124884   9.742   5.602   2.543 -0.9172 -1.6145 -0.9133
 4735SOL    HW224885   9.903   5.613   2.568 -1.2481  0.9964  0.3085
 4736SOL     OW24886   5.469   4.895   1.240  0.4076  0.1831 -0.3662
 4736SOL    HW124887   5.444   4.827   1.171 -0.8683 -0.1606  0.4215
 4736SOL    HW224888   5.559   4.873   1.277  0.1667 -0.8600 -0.3813
 4737SOL     OW24889   9.398   8.121   4.391 -0.2444 -0.6390 -0.5023
 4737SOL    HW124890   9.488   8.122   4.346 -0.5535 -0.4867 -1.1250
 4737SOL    HW224891   9.327   8.142   4.323 -0.7166 -0.3938  0.0656
 4738SOL     OW24892   2.719   5.877   0.173  0.1455  0.4142  0.2588
 4738SOL    HW124893   2.756   5.966   0.198 -0.3348  1.0340 -1.2023
 4738SOL    HW224894   2.770   5.840   0.095  1.0817 -1.1140  1.5557
 4739SOL     OW24895   8.395   4.142   4.112  0.3346 -0.1982 -0.2945
 4739SOL    HW124896   8.313   4.100   4.151  0.3861 -0.6221 -0.6468
 4739SOL    HW224897   8.375   4.174   4.020  0.3274  0.4542 -0.0696
 4740SOL     OW24898   8.298   7.281   1.131 -0.5305 -0.0133  0.3027
 4740SOL    HW124899   8.391   7.247   1.143  0.0731  1.3771 -0.3518
 4740SOL    HW224900   8.258   7.301   1.220  0.9152  2.3148  0.4718
 4741SOL     OW24901   7.450   0.764   2.842  0.8594  0.4556  0.8447
 4741SOL    HW124902   7.526   0.700   2.856 -0.2353 -0.8272  0.9516
 4741SOL    HW224903   7.382   0.751   2.914 -1.4869 -1.3425 -1.6206
 4742SOL     OW24904   0.378   6.502   0.076  0.0867 -0.3589  0.8349
 4742SOL    HW124905   0.440   6.565   0.123 -0.5578  1.3243 -0.5263
 4742SOL    HW224906   0.407   6.408   0.093  2.6312  0.3780  0.7679
 4743SOL     OW24907   0.970   1.847   2.651  0.6017 -0.2396  0.1993
 4743SOL    HW124908   1.052   1.832   2.706  2.4823 -2.3225 -2.9883
 4743SOL    HW224909   0.916   1.763   2.648  0.7196 -0.2717 -1.3925
 4744SOL     OW24910   2.763   6.990   1.964  0.1248 -0.4334 -0.1095
 4744SOL    HW124911   2.837   7.014   2.026  1.0840 -1.5050 -0.8259
 4744SOL    HW224912   2.746   7.066   1.901 -0.9640  0.7291  1.5213
 4745SOL     OW24913   0.433   5.243   1.120 -0.0331 -0.3342 -0.6728
 4745SOL    HW124914   0.485   5.232   1.036 -0.4662 -1.1630 -0.8365
 4745SOL    HW224915   0.336   5.228   1.101 -0.2033  0.0739 -0.1452
 4746SOL     OW24916   9.353   5.069   2.499  0.7670  0.5757 -0.4028
 4746SOL    HW124917   9.372   5.139   2.430  0.0627  0.8353 -0.3302
 4746SOL    HW224918   9.256   5.045   2.497  1.0974 -0.8189 -0.8357
 4747SOL     OW24919   3.285   5.195   0.409  0.4082  0.0456  0.2880
 4747SOL    HW124920   3.215   5.249   0.361  1.4447 -1.4445 -2.9953
 4747SOL    HW224921   3.243   5.112   0.446 -0.0557  0.3461  0.4424
 4748SOL     OW24922   0.588   8.761   3.350 -0.1933 -0.2569 -0.5047
 4748SOL    HW124923   0.640   8.739   3.267  0.5418  2.5318 -0.8535
 4748SOL    HW224924   0.543   8.849   3.337 -2.1619 -1.0059  1.1341
 4749SOL     OW24925   9.333   5.441   0.263 -0.1744 -0.2907 -0.0322
 4749SOL    HW124926   9.418   5.488   0.284  0.4975 -1.3212 -0.4375
 4749SOL    HW224927   9.311   5.376   0.336 -0.7411  0.1273  0.1829
 4750SOL     OW24928   9.462   3.703   3.901 -0.4095 -0.7648 -0.2357
 4750SOL    HW124929   9.530   3.744   3.961 -1.4438 -1.8821  1.7819
 4750SOL    HW224930   9.430   3.770   3.835  0.9784  0.4143  0.2803
 4751SOL     OW24931   0.602   6.351   2.373 -0.6346 -0.0727  0.3000
 4751SOL    HW124932   0.513   6.397   2.373 -0.5012  0.2057 -0.9398
 4751SOL    HW224933   0.590   6.254   2.353 -0.6765 -0.0675  0.3006
 4752SOL     OW24934   2.862   7.435   1.850  0.0693 -0.3001  0.0655
 4752SOL    HW124935   2.779   7.383   1.831  1.1814 -2.0642 -0.2011
 4752SOL    HW224936   2.931   7.373   1.889  1.1828  1.1703  0.4742
 4753SOL     OW24937   7.243   9.381   3.591 -0.2362  0.7806  0.2801
 4753SOL    HW124938   7.215   9.410   3.683 -2.0918  0.1010 -0.0674
 4753SOL    HW224939   7.253   9.282   3.589 -1.0170  0.7212 -0.4865
 4754SOL     OW24940   3.621   0.014   4.698 -0.1714  0.5640 -0.0045
 4754SOL    HW124941   3.564   0.070   4.760 -0.0376  0.3588  0.3024
 4754SOL    HW224942   3.573   0.003   4.611 -2.5993 -3.1894  1.6685
 4755SOL     OW24943   7.212   8.935   3.371 -0.6552 -0.2945  0.1025
 4755SOL    HW124944   7.156   9.008   3.331  0.6716 -0.0845 -1.4593
 4755SOL    HW224945   7.161   8.888   3.443 -1.5238  2.2135  1.1752
 4756SOL     OW24946   8.773   1.406   0.838  0.0360 -0.1526  0.1002
 4756SOL    HW124947   8.701   1.393   0.907 -1.3629  2.1653 -0.8613
 4756SOL    HW224948   8.734   1.394   0.747  0.9003  0.9580 -0.4206
 4757SOL     OW24949   2.293   5.987   2.559  1.0013  0.4509  0.7576
 4757SOL    HW124950   2.257   5.941   2.478  2.2064  2.0133 -0.7214
 4757SOL    HW224951   2.217   6.020   2.615  0.1442  0.0010 -0.1115
 4758SOL     OW24952   1.409   6.146   4.463  0.5949 -0.0421  0.0502
 4758SOL    HW124953   1.466   6.191   4.394  1.3416 -1.7558 -0.4860
 4758SOL    HW224954   1.460   6.139   4.549 -0.7347  3.0978  1.1802
 4759SOL     OW24955   0.147   2.050   2.108  0.2987 -0.1956  0.3036
 4759SOL    HW124956   0.231   2.058   2.054  0.1261 -1.4977 -0.1764
 4759SOL    HW224957   0.170   2.045   2.205  0.5675  3.0023  0.4595
 4760SOL     OW24958   8.152   4.732   0.048 -0.3187 -0.3468  0.2236
 4760SOL    HW124959   8.063   4.756   0.009 -0.1885  1.1751  0.8116
 4760SOL    HW224960   8.158   4.767   0.142  0.5820 -1.1649  0.4766
 4761SOL     OW24961   2.398   9.789   3.581 -0.8260 -0.5423  0.1488
 4761SOL    HW124962   2.396   9.754   3.675  1.7856  1.2855  0.9512
 4761SOL    HW224963   2.475   9.749   3.532 -1.2093 -0.2586 -0.6924
 4762SOL     OW24964   0.988   8.223   1.419 -1.2272 -0.0708 -0.2974
 4762SOL    HW124965   0.967   8.189   1.327 -1.3286 -0.6937 -0.0487
 4762SOL    HW224966   0.935   8.306   1.436 -2.2830 -0.7298 -0.2828
 4763SOL     OW24967   1.395   2.483   4.364 -0.3672  0.1719 -0.0730
 4763SOL    HW124968   1.436   2.398   4.396  0.1491 -0.2574 -1.8204
 4763SOL    HW224969   1.416   2.496   4.267 -2.1005  1.3071 -0.3274
 4764SOL     OW24970   3.213   0.933   4.147  0.1318  0.6665  0.2382
 4764SOL    HW124971   3.152   0.927   4.226  0.1981 -0.5757  0.2153
 4764SOL    HW224972   3.192   1.015   4.094 -0.3687  1.1467  1.1680
 4765SOL     OW24973   0.517   1.249   3.640  0.1478 -0.2835 -0.4458
 4765SOL    HW124974   0.488   1.242   3.544 -0.7056 -0.6051 -0.1655
 4765SOL    HW224975   0.458   1.193   3.697  1.0971 -0.6574  0.1880
 4766SOL     OW24976   1.584   0.758   2.029 -0.2665 -0.1207 -0.3792
 4766SOL    HW124977   1.603   0.664   2.059 -0.2629 -0.3261 -1.0081
 4766SOL    HW224978   1.533   0.755   1.943  1.7325  0.4390 -1.6342
 4767SOL     OW24979   8.208   3.118   3.609  0.3926  0.1021  0.0316
 4767SOL    HW124980   8.183   3.139   3.703  1.5838 -1.4595  0.7078
 4767SOL    HW224981   8.157   3.037   3.578  0.3887  0.3014 -0.4979
 4768SOL     OW24982   0.639   7.981   0.451 -0.0588  0.4407  0.3998
 4768SOL    HW124983   0.598   7.955   0.363  2.5594 -0.8805 -0.4988
 4768SOL    HW224984   0.583   7.948   0.526 -0.2468 -2.0458 -0.7854
 4769SOL     OW24985   4.112   2.862   0.326 -0.3399  0.0027 -0.4958
 4769SOL    HW124986   4.026   2.840   0.280 -0.8563  0.1196  0.4194
 4769SOL    HW224987   4.188   2.821   0.275 -1.0111 -0.9228 -0.7603
 4770SOL     OW24988   1.903   9.881   3.653  0.1310 -0.0711  0.2403
 4770SOL    HW124989   1.939   9.810   3.713 -2.9192 -3.2289 -1.4446
 4770SOL    HW224990   1.915   9.852   3.558  0.3738  2.5423 -0.5717
 4771SOL     OW24991   8.352   1.013   2.285 -0.0612 -0.0126  0.0964
 4771SOL    HW124992   8.357   1.062   2.372  0.9224  0.7095 -0.3546
 4771SOL    HW224993   8.259   1.017   2.250 -0.3139  0.2546  0.7977
 4772SOL     OW24994   5.654   6.324   2.497 -0.8536  0.0501  0.4235
 4772SOL    HW124995   5.671   6.400   2.434 -2.4877 -1.3649 -1.7876
 4772SOL    HW224996   5.570   6.342   2.549 -0.3179  0.5145  1.1469
 4773SOL     OW24997   4.957   7.813   3.396  0.1559  0.2725 -0.1879
 4773SOL    HW124998   4.919   7.720   3.401 -1.4834  0.8484 -1.6074
 4773SOL    HW224999   5.042   7.816   3.448 -0.7467 -1.5379  1.4788
 4774SOL     OW25000   9.516   7.749   0.697 -0.6298  0.2462  0.0137
 4774SOL    HW125001   9.532   7.704   0.609  1.2547 -0.9780  0.9500
 4774SOL    HW225002   9.537   7.846   0.688  0.1516  0.0166 -0.7468
 4775SOL     OW25003   1.832   0.934   0.922 -0.1439  0.1928  0.4359
 4775SOL    HW125004   1.788   1.008   0.871  0.8783  1.2067  1.0151
 4775SOL    HW225005   1.813   0.847   0.876 -0.3947  0.9281 -0.8922
 4776SOL     OW25006   7.904   6.508   1.878  0.0082 -0.0862  0.1107
 4776SOL    HW125007   7.989   6.493   1.929 -1.5682  0.2783  2.9407
 4776SOL    HW225008   7.836   6.441   1.908 -0.9108  0.0190 -1.6989
 4777SOL     OW25009   0.014   5.063   1.357 -0.0482  0.4140  0.2670
 4777SOL    HW125010  -0.080   5.094   1.371 -0.5282 -0.9907  0.2656
 4777SOL    HW225011   0.034   4.986   1.418  0.3398 -0.7728 -1.3096
 4778SOL     OW25012   7.105   8.388   1.661  0.4104  0.6937 -0.4591
 4778SOL    HW125013   7.176   8.458   1.660  1.4516 -0.3633 -1.2417
 4778SOL    HW225014   7.110   8.335   1.576 -0.4380 -0.2733  0.0923
 4779SOL     OW25015   0.060   0.150   0.785 -0.8991 -0.4711 -0.1591
 4779SOL    HW125016   0.085   0.094   0.863 -1.2886 -0.6757 -0.1820
 4779SOL    HW225017   0.131   0.144   0.715  0.0174  0.6309  0.6550
 4780SOL     OW25018   3.058   2.379   4.085 -0.0076 -0.1912 -0.2709
 4780SOL    HW125019   2.960   2.363   4.096 -0.1449  0.9798  0.3383
 4780SOL    HW225020   3.106   2.349   4.168  0.3264 -2.0932 -1.1354
 4781SOL     OW25021   5.504   7.576   2.371 -0.4040 -0.1257  0.2282
 4781SOL    HW125022   5.511   7.486   2.327 -0.0998 -0.8066  1.6313
 4781SOL    HW225023   5.415   7.616   2.351 -0.9001 -1.1507  0.3501
 4782SOL     OW25024   4.010   6.786   3.066  0.4584  0.2839 -0.3971
 4782SOL    HW125025   4.072   6.805   2.989  1.4638  0.1783  0.3749
 4782SOL    HW225026   4.064   6.776   3.150 -0.6713  0.7724  0.3889
 4783SOL     OW25027   0.643   1.826   3.724 -0.6942  0.5798 -0.3347
 4783SOL    HW125028   0.552   1.823   3.684 -0.5591 -4.3153 -0.6323
 4783SOL    HW225029   0.637   1.840   3.822 -1.7945  0.2600 -0.3573
 4784SOL     OW25030   5.742   0.183   2.713 -0.1094  0.0852  0.4875
 4784SOL    HW125031   5.667   0.118   2.725 -0.1914 -0.1110 -0.9770
 4784SOL    HW225032   5.705   0.276   2.706  0.0509  0.3826  3.1808
 4785SOL     OW25033   1.677   0.798   0.163  0.1624 -0.3069 -0.3123
 4785SOL    HW125034   1.650   0.889   0.192  2.0079  0.9532 -2.4046
 4785SOL    HW225035   1.595   0.747   0.134 -0.8825  0.6422  0.8976
 4786SOL     OW25036   8.681   1.878   0.358  0.1961 -0.9513  0.8244
 4786SOL    HW125037   8.687   1.975   0.336 -1.0686 -0.9898  0.2764
 4786SOL    HW225038   8.757   1.853   0.418  1.2307  0.1016 -0.0089
 4787SOL     OW25039   9.340   1.025   4.409  0.3731  0.5559  0.6910
 4787SOL    HW125040   9.272   1.074   4.464  0.7373 -0.6308  2.2370
 4787SOL    HW225041   9.350   1.070   4.320 -3.3002  0.1215 -0.0471
 4788SOL     OW25042   9.986   4.484   1.369 -0.3250  0.3287  0.7781
 4788SOL    HW125043   9.951   4.435   1.449  0.0044 -0.2920  0.5440
 4788SOL    HW225044  10.085   4.471   1.363 -0.4601 -0.3368 -0.2010
 4789SOL     OW25045   2.323   6.310   2.850 -0.6017  0.1404 -0.0353
 4789SOL    HW125046   2.335   6.296   2.948  0.6130 -1.9805 -0.4670
 4789SOL    HW225047   2.396   6.368   2.815  0.3282 -1.0609 -0.1028
 4790SOL     OW25048   9.345   6.067   3.076  0.0129 -0.2028  0.5831
 4790SOL    HW125049   9.301   6.154   3.054 -0.4177 -0.9567 -1.5592
 4790SOL    HW225050   9.311   6.035   3.165 -0.2395  1.5162  1.1361
 4791SOL     OW25051   4.532   3.552   2.311 -0.2512 -0.3065 -0.5416
 4791SOL    HW125052   4.612   3.548   2.370 -0.8087 -1.7001  0.1576
 4791SOL    HW225053   4.469   3.623   2.343  0.4739  0.4570 -0.8056
 4792SOL     OW25054   9.032   3.257   3.062  0.4312 -0.1422 -0.3411
 4792SOL    HW125055   9.029   3.348   3.103 -0.6085 -0.1445 -0.4100
 4792SOL    HW225056   9.056   3.190   3.132  0.4019  0.0768 -0.1212
 4793SOL     OW25057   0.132   1.120   1.988  0.4237  0.2309 -0.2792
 4793SOL    HW125058   0.100   1.195   2.045  0.5255  0.7095 -0.8500
 4793SOL    HW225059   0.217   1.147   1.942 -1.4970  1.1653 -3.4155
 4794SOL     OW25060   3.856   2.538   2.101  0.4957 -0.1234 -0.0005
 4794SOL    HW125061   3.899   2.452   2.130 -0.8058  0.4692  3.9511
 4794SOL    HW225062   3.924   2.611   2.102  1.0302 -0.5919 -0.9630
 4795SOL     OW25063   8.655   6.304   3.880  0.0290 -0.7372 -0.4631
 4795SOL    HW125064   8.606   6.246   3.815  1.9781 -1.8968 -0.9497
 4795SOL    HW225065   8.751   6.313   3.852  0.4435  0.3748  1.1762
 4796SOL     OW25066   8.379   5.089   1.942 -0.6624 -0.5194 -0.3282
 4796SOL    HW125067   8.357   5.182   1.912 -1.9913 -0.3633  1.0767
 4796SOL    HW225068   8.315   5.061   2.013  1.2099 -1.6081  0.9730
 4797SOL     OW25069   8.293   7.509   4.068 -0.8279  0.1086  0.0556
 4797SOL    HW125070   8.391   7.525   4.082 -0.7085 -0.2759 -0.3413
 4797SOL    HW225071   8.242   7.541   4.148 -0.3180 -0.2971  0.5410
 4798SOL     OW25072   2.520   0.270   3.428 -0.0816  0.0422  0.5928
 4798SOL    HW125073   2.537   0.173   3.444 -1.1148  0.1550  2.5529
 4798SOL    HW225074   2.421   0.287   3.434  0.1680  1.3464  1.0563
 4799SOL     OW25075   8.984   7.766   3.047  0.4563  0.8866  0.6018
 4799SOL    HW125076   8.904   7.763   3.106 -0.4893  0.4830 -0.6685
 4799SOL    HW225077   8.960   7.812   2.961  1.0075 -1.0896 -0.6301
 4800SOL     OW25078   3.975   5.115   1.377  0.3600  0.2192  0.0790
 4800SOL    HW125079   4.027   5.035   1.407 -2.2035 -1.5952 -0.1046
 4800SOL    HW225080   4.034   5.195   1.377  2.5422 -1.3084  2.0394
 4801SOL     OW25081   0.656   8.379   1.974 -0.3599 -0.0900 -0.7796
 4801SOL    HW125082   0.735   8.318   1.964 -0.4199 -0.1578 -0.8421
 4801SOL    HW225083   0.573   8.324   1.977 -0.3324 -0.0792  0.3437
 4802SOL     OW25084   2.850   9.850   4.605  0.4446  0.2833 -0.5283
 4802SOL    HW125085   2.921   9.914   4.636  0.5804 -0.6751  1.1612
 4802SOL    HW225086   2.829   9.785   4.677 -3.7767  1.8855 -0.1678
 4803SOL     OW25087   8.348   5.743   4.391 -0.5156  0.1371 -0.1985
 4803SOL    HW125088   8.310   5.830   4.360  0.1956  0.3416 -0.5124
 4803SOL    HW225089   8.275   5.674   4.396 -0.9909  0.6222 -0.4143
 4804SOL     OW25090   5.771   9.062   2.081 -0.4567 -0.0144  0.5003
 4804SOL    HW125091   5.697   9.060   2.148 -0.0234 -0.2777  0.9686
 4804SOL    HW225092   5.754   8.993   2.010 -1.1479  0.5739  0.0859
 4805SOL     OW25093   1.579   2.760   0.820 -0.0627 -0.2586 -0.4474
 4805SOL    HW125094   1.560   2.798   0.911  1.4105  1.1700 -0.7144
 4805SOL    HW225095   1.605   2.664   0.829  0.7720  0.0580  0.7319
 4806SOL     OW25096   9.193   8.697   3.337 -0.7664  0.1059 -0.1430
 4806SOL    HW125097   9.135   8.690   3.256 -0.5261 -1.8213 -0.1793
 4806SOL    HW225098   9.157   8.768   3.398 -2.1558  0.1335 -0.9649
 4807SOL     OW25099   1.527   5.242   2.348  0.1265  0.7771  0.9118
 4807SOL    HW125100   1.431   5.220   2.367 -0.4630  1.7411 -0.8472
 4807SOL    HW225101   1.585   5.167   2.379 -1.4709 -1.2463 -0.8325
 4808SOL     OW25102   6.353   8.898   3.312 -0.4377  0.5067 -0.3516
 4808SOL    HW125103   6.314   8.850   3.390 -1.1601  1.2145 -0.2727
 4808SOL    HW225104   6.374   8.832   3.239 -1.1813  0.0451 -0.1493
 4809SOL     OW25105   8.917   7.699   4.510  0.2534 -0.2582 -0.0754
 4809SOL    HW125106   9.009   7.667   4.536 -0.4820  0.2916  3.3905
 4809SOL    HW225107   8.874   7.629   4.453  1.5109 -2.1495  1.1962
 4810SOL     OW25108   1.149   3.993   0.971  0.6346  0.3674 -0.4218
 4810SOL    HW125109   1.238   3.947   0.979  0.5634  0.1721 -0.7659
 4810SOL    HW225110   1.148   4.073   1.032 -0.1774 -1.5622  2.2188
 4811SOL     OW25111   3.758   2.871   3.906 -0.6437  0.1867 -0.6300
 4811SOL    HW125112   3.684   2.807   3.887 -0.0181  0.1234 -3.0312
 4811SOL    HW225113   3.801   2.898   3.820  0.7141  1.9059  0.5618
 4812SOL     OW25114   4.085   8.400   0.986  0.5964  0.2177 -0.2153
 4812SOL    HW125115   4.056   8.496   0.985  0.9012  0.3039 -0.9628
 4812SOL    HW225116   4.171   8.391   1.035  0.4842  0.3020 -0.0041
 4813SOL     OW25117   8.783   0.517   1.245  0.0270 -0.1504  0.1544
 4813SOL    HW125118   8.838   0.578   1.188 -0.6964  1.3428  1.0475
 4813SOL    HW225119   8.843   0.454   1.295  0.9266  1.3881  1.0321
 4814SOL     OW25120   8.922   3.074   1.540 -0.0390  0.5401 -0.5126
 4814SOL    HW125121   8.951   3.024   1.622 -2.1800  1.2829  0.7315
 4814SOL    HW225122   8.957   3.167   1.544 -1.0101  0.8901  0.0965
 4815SOL     OW25123   9.298   2.972   4.196 -0.2512 -0.5265  0.1938
 4815SOL    HW125124   9.230   3.008   4.132 -1.2141 -1.8649  0.4392
 4815SOL    HW225125   9.352   2.900   4.151  0.2341 -0.2671  0.3564
 4816SOL     OW25126   8.427   8.284   4.392  0.3866 -0.2233  0.1235
 4816SOL    HW125127   8.437   8.216   4.319 -2.6494  0.7864 -1.3160
 4816SOL    HW225128   8.421   8.236   4.480  0.4114 -1.6966 -0.6527
 4817SOL     OW25129   3.894   0.975   1.131  0.1866  0.1571  0.7768
 4817SOL    HW125130   3.981   1.015   1.159 -0.3758  1.1022  1.1564
 4817SOL    HW225131   3.821   1.041   1.143 -0.5518 -0.5490  0.2011
 4818SOL     OW25132   3.716   8.952   3.445  0.6505  0.0596  0.1158
 4818SOL    HW125133   3.661   9.002   3.512  2.5331  0.2561  1.5592
 4818SOL    HW225134   3.746   8.865   3.484  0.4567 -0.5438 -1.0496
 4819SOL     OW25135   3.343   0.827   1.144  0.2869  0.2586 -0.0056
 4819SOL    HW125136   3.321   0.731   1.128 -0.8927  0.3936  0.6737
 4819SOL    HW225137   3.259   0.881   1.134  0.4832  0.9254  1.8188
 4820SOL     OW25138   4.329   1.452   0.367  0.1189 -0.4802  0.1101
 4820SOL    HW125139   4.394   1.376   0.358  1.1915  0.5962 -1.4665
 4820SOL    HW225140   4.243   1.427   0.324  0.2027 -1.1087  0.2992
 4821SOL     OW25141   1.630   4.787   2.959  0.3421  0.0439  0.3234
 4821SOL    HW125142   1.669   4.708   2.912 -0.6909 -0.6392  0.5804
 4821SOL    HW225143   1.559   4.755   3.023 -3.0524  1.5067 -2.5835
 4822SOL     OW25144   4.397   9.021   0.171 -0.1259 -0.3595 -0.1531
 4822SOL    HW125145   4.392   9.121   0.181 -1.0653 -0.2664 -1.4735
 4822SOL    HW225146   4.473   8.998   0.111 -1.5782 -0.2728 -2.0577
 4823SOL     OW25147   3.668   8.988   1.719  0.1811  0.1821 -0.1026
 4823SOL    HW125148   3.586   9.004   1.773  0.3131 -1.9592  0.7670
 4823SOL    HW225149   3.714   8.905   1.750  0.3302 -1.0742 -3.3840
 4824SOL     OW25150   1.969   7.442   3.924  0.7098 -0.6658  0.3648
 4824SOL    HW125151   1.974   7.510   3.997  0.0258  0.6886 -0.8131
 4824SOL    HW225152   2.050   7.385   3.926  1.7263  0.7655  0.8473
 4825SOL     OW25153   3.259   3.109   4.591  0.1004  0.2002 -0.6917
 4825SOL    HW125154   3.293   3.035   4.648  1.2135  0.8681 -0.4707
 4825SOL    HW225155   3.164   3.129   4.615  0.0637 -0.5794 -0.1761
 4826SOL     OW25156   2.858   6.967   3.837 -0.4838 -0.0659  0.4176
 4826SOL    HW125157   2.956   6.990   3.839 -0.8092  1.6449 -1.5115
 4826SOL    HW225158   2.847   6.872   3.806  0.4935  0.7102 -2.5515
 4827SOL     OW25159   4.466   2.173   1.054  0.4143 -0.0441  0.3121
 4827SOL    HW125160   4.501   2.197   1.145  0.1458  3.0261 -0.3592
 4827SOL    HW225161   4.375   2.211   1.042 -0.1144 -1.6258 -0.7482
 4828SOL     OW25162   3.077   4.536   4.670 -0.1786 -0.5516 -0.4336
 4828SOL    HW125163   3.165   4.491   4.683  0.2462  0.9908  2.2375
 4828SOL    HW225164   3.004   4.470   4.684  0.5021 -1.1297  0.4599
 4829SOL     OW25165   6.278   9.555   2.715  0.3990 -0.0465 -0.0541
 4829SOL    HW125166   6.237   9.646   2.723 -0.1201 -0.2380 -0.5145
 4829SOL    HW225167   6.318   9.544   2.625 -0.3429 -0.6036 -0.3224
 4830SOL     OW25168   9.952   4.620   3.781  0.0993  0.3943  0.8967
 4830SOL    HW125169   9.884   4.552   3.756  2.4447 -1.7620  0.1362
 4830SOL    HW225170   9.989   4.662   3.698  0.1875  1.0366  1.2587
 4831SOL     OW25171   1.112   6.475   4.247  0.2802  0.1140  0.2173
 4831SOL    HW125172   1.211   6.465   4.236  0.1231 -2.0198  0.4420
 4831SOL    HW225173   1.092   6.526   4.330  1.1779  0.2386  0.3593
 4832SOL     OW25174   9.812   4.306   2.316 -0.4693 -0.7783  0.1490
 4832SOL    HW125175   9.815   4.404   2.297 -0.0118 -1.2526 -2.4482
 4832SOL    HW225176   9.770   4.291   2.405  0.8239  1.8458  1.2668
 4833SOL     OW25177   8.047   4.955   3.378 -0.3453 -0.1625  0.1496
 4833SOL    HW125178   8.006   4.920   3.462 -1.1364  0.6691  0.1234
 4833SOL    HW225179   8.021   5.051   3.366 -0.4057 -0.3369 -1.1565
 4834SOL     OW25180   0.356   3.439   2.687 -0.2696  0.0390  0.0862
 4834SOL    HW125181   0.367   3.528   2.731 -0.6530  0.3625 -0.4618
 4834SOL    HW225182   0.328   3.452   2.592 -1.6722 -0.6922  0.3890
 4835SOL     OW25183   3.706   1.910   1.207 -0.0734  0.0580 -0.2810
 4835SOL    HW125184   3.788   1.964   1.190  0.2295  0.0160  0.9592
 4835SOL    HW225185   3.731   1.815   1.221 -0.6938 -0.5886 -3.3036
 4836SOL     OW25186   4.517   7.600   1.744 -1.0263  0.0025  0.4436
 4836SOL    HW125187   4.460   7.545   1.806 -1.9181 -0.3604 -0.6798
 4836SOL    HW225188   4.607   7.556   1.735 -1.2869 -0.5682  0.5637
 4837SOL     OW25189   9.214   4.012   2.211  0.4257 -0.0779 -0.0840
 4837SOL    HW125190   9.131   3.973   2.250  0.9312  0.1483  1.2615
 4837SOL    HW225191   9.201   4.110   2.194 -0.1242 -0.3813 -1.4116
 4838SOL     OW25192   6.295   8.365   1.465  0.0753  0.4116 -0.1974
 4838SOL    HW125193   6.315   8.333   1.558 -0.1500  0.8188 -0.0066
 4838SOL    HW225194   6.373   8.417   1.430  0.5676 -0.6117 -0.6278
 4839SOL     OW25195   0.988   5.443   0.344 -0.2773 -0.2047 -0.7622
 4839SOL    HW125196   1.073   5.403   0.379  0.4472  1.5134 -0.5152
 4839SOL    HW225197   0.987   5.437   0.244  0.2481  0.0166 -0.7783
 4840SOL     OW25198   3.113   6.595   2.459  0.1153 -0.0791  0.1250
 4840SOL    HW125199   3.153   6.536   2.529 -0.7691 -1.8147 -0.8027
 4840SOL    HW225200   3.185   6.640   2.407  0.7885  1.3979  2.2646
 4841SOL     OW25201   3.443   7.513   1.890  0.1646  1.4378 -0.4112
 4841SOL    HW125202   3.350   7.519   1.852  0.0674 -0.2750 -0.4872
 4841SOL    HW225203   3.437   7.498   1.988  0.3531  1.1061 -0.4502
 4842SOL     OW25204   7.935   7.520   3.229  0.0691 -0.2292 -0.1552
 4842SOL    HW125205   7.870   7.539   3.302  0.8302 -0.8049  0.6737
 4842SOL    HW225206   7.989   7.439   3.252  2.2274  1.2115 -0.0605
 4843SOL     OW25207   8.906   8.310   4.138  0.4451  0.0263 -0.1589
 4843SOL    HW125208   8.910   8.383   4.206 -0.7622 -0.7434  0.7809
 4843SOL    HW225209   8.940   8.343   4.051  2.3477  0.9326  0.9025
 4844SOL     OW25210   1.850   7.245   1.615 -0.0462 -0.2338  0.0952
 4844SOL    HW125211   1.755   7.264   1.590 -0.1558 -0.3487  0.4272
 4844SOL    HW225212   1.871   7.150   1.593  0.2420  0.0196 -0.7519
 4845SOL     OW25213   1.090   3.473   2.584  0.0106  0.3123  0.0699
 4845SOL    HW125214   1.036   3.457   2.667 -0.3419 -4.8869 -0.9503
 4845SOL    HW225215   1.185   3.449   2.601 -0.1466 -1.2337 -1.0753
 4846SOL     OW25216   2.054   2.350   4.511 -0.0560 -0.6459  0.4300
 4846SOL    HW125217   1.973   2.337   4.568 -0.6025 -1.3212 -0.4785
 4846SOL    HW225218   2.028   2.339   4.415  0.9357  0.0491  0.0808
 4847SOL     OW25219   0.451   9.807   0.257  0.8401 -0.0919 -0.0699
 4847SOL    HW125220   0.512   9.728   0.247  0.2749 -0.8737  2.2035
 4847SOL    HW225221   0.460   9.844   0.350 -0.3580  1.2935 -0.4855
 4848SOL     OW25222   6.801   0.498   2.292 -0.5582  0.0090 -0.0429
 4848SOL    HW125223   6.756   0.425   2.343  0.2947  0.7212  1.7429
 4848SOL    HW225224   6.888   0.521   2.336 -0.7314  1.9837 -0.7071
 4849SOL     OW25225   9.761   6.352   3.429 -0.7315 -0.3382  0.1119
 4849SOL    HW125226   9.844   6.406   3.439 -0.3022 -0.9204 -0.2744
 4849SOL    HW225227   9.720   6.334   3.519 -1.3443  1.3536  0.1771
 4850SOL     OW25228   4.019   1.807   2.354 -0.0623 -0.2526  0.2077
 4850SOL    HW125229   4.016   1.736   2.424  2.0487 -0.5743  0.0242
 4850SOL    HW225230   4.111   1.847   2.352 -0.0375 -0.3300 -2.4278
 4851SOL     OW25231   7.716   9.205   1.573 -0.0593 -0.2507  0.3362
 4851SOL    HW125232   7.747   9.296   1.545 -0.5100 -0.5594 -1.2158
 4851SOL    HW225233   7.769   9.136   1.524  0.2158 -0.8309  1.4356
 4852SOL     OW25234   9.592   3.520   0.713  0.1684  0.1912 -0.2406
 4852SOL    HW125235   9.587   3.616   0.739 -1.6312 -0.3126  1.3703
 4852SOL    HW225236   9.682   3.484   0.737 -0.1892  0.7084  1.9379
 4853SOL     OW25237   7.537   3.926   0.242 -0.1257  0.7367 -0.6478
 4853SOL    HW125238   7.470   3.918   0.168 -1.2673  2.1601  0.2171
 4853SOL    HW225239   7.619   3.971   0.207  0.7601 -1.7385 -1.9216
 4854SOL     OW25240   8.145   5.171   4.605  0.1151  0.2603 -0.2615
 4854SOL    HW125241   8.047   5.178   4.584  0.0438  0.8866  0.2507
 4854SOL    HW225242   8.164   5.224   4.688  0.8511 -0.0342 -0.2475
 4855SOL     OW25243   0.461   0.029   0.809  0.2027  0.1450  0.2045
 4855SOL    HW125244   0.373  -0.013   0.832 -0.7319  1.5746 -0.6769
 4855SOL    HW225245   0.506   0.059   0.893  0.5247 -1.8747  0.7791
 4856SOL     OW25246   9.858   6.703   2.719  0.5090  0.0781  0.5349
 4856SOL    HW125247   9.793   6.668   2.787 -0.5488 -0.2339 -0.5955
 4856SOL    HW225248   9.933   6.638   2.709 -0.9881 -1.4963 -0.9025
 4857SOL     OW25249   0.964   3.804   3.531  0.4431 -0.3132 -0.0579
 4857SOL    HW125250   1.057   3.778   3.504  1.1228  3.2231 -1.4410
 4857SOL    HW225251   0.967   3.890   3.582 -1.9445 -1.1233  1.5400
 4858SOL     OW25252   2.467   2.420   1.517  0.1925  0.5188 -0.3238
 4858SOL    HW125253   2.544   2.484   1.524  0.5560  0.4094 -2.8800
 4858SOL    HW225254   2.397   2.459   1.457 -1.9349  0.7376  2.1805
 4859SOL     OW25255   1.770   4.754   4.510  0.0682 -0.4065  0.2923
 4859SOL    HW125256   1.712   4.673   4.520  1.7664 -1.8081 -0.9268
 4859SOL    HW225257   1.806   4.757   4.416  1.3410  0.8662  0.8154
 4860SOL     OW25258   9.903   1.971   2.586 -0.0968  0.2643  0.1087
 4860SOL    HW125259   9.815   2.009   2.555  0.0264  0.8616  0.4739
 4860SOL    HW225260   9.964   2.046   2.612 -0.3704 -0.2348  2.2820
 4861SOL     OW25261   8.113   5.204   4.141  0.3511  0.1911 -0.1471
 4861SOL    HW125262   8.203   5.220   4.100 -0.3341  0.8318 -1.4478
 4861SOL    HW225263   8.124   5.162   4.231  1.9941  1.7244  0.3918
 4862SOL     OW25264   4.338   0.375   2.013 -0.2076 -0.2985  0.2130
 4862SOL    HW125265   4.283   0.442   2.064 -0.9438 -1.4748  0.9899
 4862SOL    HW225266   4.279   0.327   1.948  0.5212  0.4800 -1.0596
 4863SOL     OW25267   8.795   1.346   3.501 -0.1589  0.1566 -0.5513
 4863SOL    HW125268   8.696   1.336   3.493  0.1073 -1.5312 -2.2481
 4863SOL    HW225269   8.822   1.437   3.468 -1.1545  0.7368  0.2007
 4864SOL     OW25270   0.422   4.370   2.277  0.1150  0.4977  0.2786
 4864SOL    HW125271   0.372   4.367   2.191 -0.7165  1.0942  0.7317
 4864SOL    HW225272   0.417   4.281   2.322  0.3557  0.2527 -0.1768
 4865SOL     OW25273   2.661   7.922   2.026 -0.2237 -0.0550  0.2750
 4865SOL    HW125274   2.747   7.875   2.009  0.3632  0.0559  2.7559
 4865SOL    HW225275   2.597   7.859   2.070 -1.0369  0.1744 -0.5694
 4866SOL     OW25276   2.914   0.852   1.759 -0.8804  0.0037 -0.3184
 4866SOL    HW125277   2.997   0.874   1.707  0.8189 -1.8573  1.5410
 4866SOL    HW225278   2.883   0.934   1.807 -0.6537  0.9319 -1.7054
 4867SOL     OW25279   8.972   8.792   0.389 -0.3277 -0.3586 -0.8685
 4867SOL    HW125280   8.900   8.785   0.459  1.1206  0.4453  0.7554
 4867SOL    HW225281   9.050   8.843   0.427  0.6859 -0.3270 -2.9333
 4868SOL     OW25282   1.627   7.691   1.846  0.0067 -0.9038  0.4568
 4868SOL    HW125283   1.680   7.772   1.822 -0.8510  0.0112  1.6376
 4868SOL    HW225284   1.601   7.643   1.762  0.5777 -0.0094 -0.2440
 4869SOL     OW25285   8.758   6.808   4.547 -0.3770 -0.2222 -0.1662
 4869SOL    HW125286   8.824   6.806   4.472  0.3426 -0.8877  0.4625
 4869SOL    HW225287   8.752   6.900   4.584 -0.5054  0.0402 -0.8509
 4870SOL     OW25288   6.405   9.975   1.821  0.0117 -0.6598 -0.4401
 4870SOL    HW125289   6.450   9.945   1.905 -1.7860 -1.3925  0.3077
 4870SOL    HW225290   6.424   9.910   1.747  0.4913 -0.7518 -0.2320
 4871SOL     OW25291   2.954   0.891   4.304  0.2467 -0.0876  0.2039
 4871SOL    HW125292   2.906   0.944   4.234 -0.7018 -0.2667  0.7106
 4871SOL    HW225293   2.930   0.794   4.295  0.8221 -0.2342  0.2186
 4872SOL     OW25294   2.496   3.414   2.518  0.0565  0.6706 -0.6819
 4872SOL    HW125295   2.399   3.433   2.531 -0.7994 -3.1241 -0.7460
 4872SOL    HW225296   2.509   3.362   2.434  2.1159  0.9208 -0.5466
 4873SOL     OW25297   2.493   7.640   2.717  0.1251  0.2670 -0.1514
 4873SOL    HW125298   2.403   7.681   2.700  0.6391  1.4724 -0.0668
 4873SOL    HW225299   2.556   7.668   2.645 -0.3194 -3.0309 -1.8707
 4874SOL     OW25300   2.271   8.946   0.039  0.6362  0.2309 -0.0343
 4874SOL    HW125301   2.293   8.966   0.134 -0.1098  2.3617 -0.2866
 4874SOL    HW225302   2.351   8.963  -0.019  0.3442  1.3970 -0.1003
 4875SOL     OW25303   2.572   2.231   1.074  0.3241 -0.0495 -0.0526
 4875SOL    HW125304   2.530   2.320   1.092  2.3201  0.9633 -0.3071
 4875SOL    HW225305   2.581   2.218   0.976 -0.1665 -0.6383 -0.0216
 4876SOL     OW25306   0.805   6.159   2.041 -0.1123  0.4408  0.0667
 4876SOL    HW125307   0.807   6.227   2.114 -0.0143  0.6177 -0.1008
 4876SOL    HW225308   0.734   6.183   1.975 -0.2128  0.2707  0.1117
 4877SOL     OW25309   4.937   1.959   2.096  0.1039  0.1927 -0.0024
 4877SOL    HW125310   4.868   1.906   2.049 -0.3149  0.4480  0.3201
 4877SOL    HW225311   5.027   1.918   2.080 -0.2314 -0.7194  0.3875
 4878SOL     OW25312   0.353   4.718   0.903 -0.3197  0.4122 -0.2354
 4878SOL    HW125313   0.279   4.702   0.969 -0.3096 -2.0637 -0.7541
 4878SOL    HW225314   0.439   4.687   0.942 -0.3388 -1.2063 -1.4436
 4879SOL     OW25315   8.423   2.946   0.460 -0.0298 -0.1475  0.2085
 4879SOL    HW125316   8.371   2.895   0.391  0.2289  2.0344 -1.6956
 4879SOL    HW225317   8.514   2.906   0.470  0.7384  0.8122 -2.4136
 4880SOL     OW25318   3.676   7.211   1.468 -0.0053 -0.5974  0.3145
 4880SOL    HW125319   3.693   7.197   1.370 -1.9879 -1.7311  0.0857
 4880SOL    HW225320   3.584   7.178   1.490 -0.6281  2.1275  2.0362
 4881SOL     OW25321   4.030   8.575   0.460  0.1109  0.1683  0.3259
 4881SOL    HW125322   3.954   8.510   0.461  1.9268 -2.0433  0.2118
 4881SOL    HW225323   4.046   8.609   0.552 -1.5419  1.3065  0.2054
 4882SOL     OW25324   0.843   9.331   1.811  0.1227 -0.4550  0.4965
 4882SOL    HW125325   0.807   9.410   1.860 -1.4430 -1.5037  1.0916
 4882SOL    HW225326   0.789   9.250   1.835  1.5380 -1.6534 -0.2907
 4883SOL     OW25327   5.593   9.057   2.635 -0.3490 -0.2657  0.2083
 4883SOL    HW125328   5.549   8.968   2.624 -1.3242  0.3349 -0.8189
 4883SOL    HW225329   5.692   9.046   2.631 -0.3731 -1.6160  2.4370
 4884SOL     OW25330   4.681   2.887   2.637 -0.3933  0.5555  0.1427
 4884SOL    HW125331   4.652   2.890   2.542 -0.6489 -0.8411  0.1757
 4884SOL    HW225332   4.751   2.816   2.649  0.2516  1.2902  0.8269
 4885SOL     OW25333   8.088   0.066   4.405 -0.5562 -0.2123 -0.0916
 4885SOL    HW125334   8.148   0.041   4.481 -3.6985 -0.3595  2.4480
 4885SOL    HW225335   7.993   0.062   4.435 -1.7730  2.5227 -3.2671
 4886SOL     OW25336   2.817   3.520   1.527 -0.3068 -0.0878  0.1158
 4886SOL    HW125337   2.905   3.563   1.508 -0.0799 -0.2303  0.8044
 4886SOL    HW225338   2.764   3.512   1.443 -0.3732  1.5895 -0.0202
 4887SOL     OW25339   1.766   9.497   1.954 -0.1158  0.3566 -0.3192
 4887SOL    HW125340   1.759   9.441   2.036  0.5794  1.5213  0.5456
 4887SOL    HW225341   1.674   9.525   1.925 -0.9240 -4.4046 -3.0589
 4888SOL     OW25342   0.992   1.573   2.282 -0.2908 -0.2171 -0.1060
 4888SOL    HW125343   1.022   1.586   2.187 -0.2211 -0.1714 -0.0775
 4888SOL    HW225344   1.071   1.571   2.342 -0.3499 -0.0420 -0.0241
 4889SOL     OW25345   0.576   9.539   1.524  0.2401 -0.4242  0.6668
 4889SOL    HW125346   0.607   9.467   1.462  0.6788  0.4773 -0.1631
 4889SOL    HW225347   0.545   9.618   1.471  0.1143  0.1487  1.5843
 4890SOL     OW25348   3.074   5.099   3.707 -0.3350 -0.0066  0.0263
 4890SOL    HW125349   3.056   5.020   3.765 -1.1751  0.0793 -0.1067
 4890SOL    HW225350   3.172   5.118   3.705  0.2033 -2.6499 -2.0198
 4891SOL     OW25351   1.722   8.238   0.754  0.2572 -0.1624  0.0776
 4891SOL    HW125352   1.716   8.276   0.846  0.2385  1.3915 -0.5409
 4891SOL    HW225353   1.630   8.222   0.718  0.2570 -0.3055  0.1418
 4892SOL     OW25354   8.643   8.165   3.453  0.2169 -0.2576 -0.6546
 4892SOL    HW125355   8.551   8.150   3.490 -0.4710  0.5430 -2.0111
 4892SOL    HW225356   8.676   8.080   3.412 -1.1266  0.1721 -2.7406
 4893SOL     OW25357   3.912   7.769   2.956 -0.0645  0.0001  0.8851
 4893SOL    HW125358   3.914   7.865   2.927 -1.2561 -0.4881 -0.9054
 4893SOL    HW225359   3.989   7.720   2.915 -0.0650 -0.0304  0.9208
 4894SOL     OW25360   1.629   6.077   2.662 -0.6847  0.4340  0.6896
 4894SOL    HW125361   1.670   6.151   2.609  1.2842 -0.4128  0.9773
 4894SOL    HW225362   1.534   6.066   2.635  0.1486  0.2649 -2.4271
 4895SOL     OW25363   6.189   9.650   3.849  0.2041 -0.2092 -0.0307
 4895SOL    HW125364   6.214   9.645   3.946  0.1812  0.5424  0.0212
 4895SOL    HW225365   6.270   9.676   3.795 -0.1344  0.8885 -0.0233
 4896SOL     OW25366   1.350   7.235   1.401 -0.2750  0.2132 -1.2338
 4896SOL    HW125367   1.263   7.206   1.440  0.4268 -1.1072 -0.5835
 4896SOL    HW225368   1.356   7.334   1.401 -0.7461  0.2571  1.0436
 4897SOL     OW25369   0.857   7.918   0.167  0.2492  0.3828 -0.4651
 4897SOL    HW125370   0.758   7.921   0.173  0.2493 -0.4593  0.0861
 4897SOL    HW225371   0.885   7.850   0.100  0.4830 -1.4857  1.4809
 4898SOL     OW25372   7.842   7.911   4.025  0.4823 -0.1067  0.2241
 4898SOL    HW125373   7.836   7.928   3.927 -2.1301 -1.9160  0.0006
 4898SOL    HW225374   7.881   7.820   4.041 -0.3616 -0.3794  0.7928
 4899SOL     OW25375   0.667   3.867   1.828  0.0708 -0.2156  0.4677
 4899SOL    HW125376   0.622   3.931   1.766 -1.2306 -0.5707  1.0347
 4899SOL    HW225377   0.687   3.912   1.914  0.5506 -0.1445  0.3236
 4900SOL     OW25378   9.425   1.815   2.421 -0.0762  0.8637 -0.2457
 4900SOL    HW125379   9.409   1.718   2.442  1.0924  0.9154  0.9235
 4900SOL    HW225380   9.353   1.847   2.360  0.6516 -1.2735 -2.3036
 4901SOL     OW25381   9.450   9.475   1.796  0.2663  0.1822  0.1428
 4901SOL    HW125382   9.521   9.518   1.851 -0.1217  0.4506  0.4395
 4901SOL    HW225383   9.443   9.378   1.820 -0.8912  0.6108  1.6210
 4902SOL     OW25384   1.339   3.555   0.206  0.1803 -0.2080  0.6718
 4902SOL    HW125385   1.336   3.648   0.169  3.2080 -0.0417  0.6627
 4902SOL    HW225386   1.247   3.519   0.216 -0.9295  1.9740 -1.4214
 4903SOL     OW25387   3.943   6.935   1.381 -0.4176 -0.1267  0.1309
 4903SOL    HW125388   4.031   6.893   1.360 -0.0544  0.3020  0.7621
 4903SOL    HW225389   3.943   7.031   1.352 -0.3442  0.1285  0.9547
 4904SOL     OW25390   9.924   8.625   0.842  0.9810  0.0410 -0.1186
 4904SOL    HW125391   9.837   8.588   0.811  0.1517  1.3784  0.5889
 4904SOL    HW225392   9.994   8.554   0.837 -0.3204 -1.2614  0.0586
 4905SOL     OW25393   7.887   2.477   3.659  0.3558 -0.1262  0.3418
 4905SOL    HW125394   7.878   2.572   3.688 -1.1541  0.3168 -1.4189
 4905SOL    HW225395   7.914   2.474   3.562  1.3667 -1.4890  0.6504
 4906SOL     OW25396   0.379   5.968   1.736 -0.0670 -0.3314  0.2296
 4906SOL    HW125397   0.317   6.017   1.675  0.3924 -0.6795 -0.5285
 4906SOL    HW225398   0.360   5.993   1.831  1.7564  3.1783 -0.2590
 4907SOL     OW25399   4.246   7.297   0.290  0.0910 -0.5145 -0.2895
 4907SOL    HW125400   4.252   7.240   0.372 -0.7817 -1.1836 -0.6874
 4907SOL    HW225401   4.164   7.273   0.238 -0.9210  1.8705  0.1053
 4908SOL     OW25402   3.440   6.751   1.906  0.3568 -0.0117  0.5448
 4908SOL    HW125403   3.341   6.764   1.914  0.3142 -0.3147  0.5173
 4908SOL    HW225404   3.460   6.653   1.897  0.5957  0.1192 -0.3468
 4909SOL     OW25405   4.146   0.946   3.591 -0.1133  0.0854 -0.2620
 4909SOL    HW125406   4.214   0.872   3.586 -0.5922 -0.2952 -1.2536
 4909SOL    HW225407   4.115   0.956   3.685  1.3682  0.3071  0.2191
 4910SOL     OW25408   2.700   1.110   2.547 -0.2728 -0.3165  0.3081
 4910SOL    HW125409   2.742   1.074   2.630  0.0910 -0.6283 -0.0090
 4910SOL    HW225410   2.605   1.134   2.565  0.2912  1.2277  1.2688
 4911SOL     OW25411   2.411   5.936   3.677 -0.4804 -0.3257  0.1093
 4911SOL    HW125412   2.346   5.872   3.635 -1.3168  0.4020  0.2927
 4911SOL    HW225413   2.492   5.944   3.618 -1.3477  0.1658 -1.0285
 4912SOL     OW25414   9.232   6.716   1.169 -0.6055  0.1311  0.0550
 4912SOL    HW125415   9.205   6.711   1.265 -0.1521 -0.7625  0.1390
 4912SOL    HW225416   9.161   6.764   1.117  0.0735  2.3746  1.1777
 4913SOL     OW25417   3.822   8.557   1.230 -0.1657  0.3835  0.3262
 4913SOL    HW125418   3.792   8.462   1.230  0.6732  0.1026  1.8773
 4913SOL    HW225419   3.758   8.613   1.283  0.8730  0.1507  1.8665
 4914SOL     OW25420   0.888   2.232   2.885 -0.2301 -0.1095  0.0424
 4914SOL    HW125421   0.853   2.180   2.807 -0.9611 -0.6059  0.6853
 4914SOL    HW225422   0.892   2.329   2.861  0.4830 -0.3733 -0.9372
 4915SOL     OW25423   4.340   2.961   4.116  0.4843 -0.7145  0.4818
 4915SOL    HW125424   4.269   2.945   4.185 -0.2570  0.5175  0.0224
 4915SOL    HW225425   4.413   3.016   4.157  1.2249 -2.0479  0.9772
 4916SOL     OW25426   3.160   0.863   2.906  0.3320 -0.2496 -0.5410
 4916SOL    HW125427   3.134   0.915   2.825  0.2982  0.5051 -0.0450
 4916SOL    HW225428   3.086   0.800   2.930 -0.7744  1.3947  0.4482
 4917SOL     OW25429   8.981   5.703   2.879  0.5836  0.0275 -0.6444
 4917SOL    HW125430   8.913   5.687   2.951 -0.0630  2.6874 -0.6168
 4917SOL    HW225431   9.073   5.690   2.916  0.1805 -1.5530 -0.1413
 4918SOL     OW25432   9.071   7.380   4.708 -0.1920 -0.3167  0.4129
 4918SOL    HW125433   9.086   7.474   4.677  0.4976 -0.6790 -0.3723
 4918SOL    HW225434   9.036   7.325   4.632 -0.3664 -0.7495  0.8039
 4919SOL     OW25435   7.748   1.065   3.314 -0.1187  0.6031 -0.0874
 4919SOL    HW125436   7.694   1.017   3.383  1.2949 -1.6640 -0.4957
 4919SOL    HW225437   7.812   1.001   3.271  1.1083  2.6448 -1.4109
 4920SOL     OW25438   2.494   2.453   0.796 -0.0973 -0.0241  0.3777
 4920SOL    HW125439   2.423   2.413   0.738 -0.0349  0.0610  0.2409
 4920SOL    HW225440   2.575   2.395   0.795 -0.1223 -0.0596  0.4366
 4921SOL     OW25441   1.185   5.163   1.365 -0.2831 -0.0218 -0.2842
 4921SOL    HW125442   1.236   5.130   1.286  2.6965  2.8375  0.3148
 4921SOL    HW225443   1.222   5.121   1.448  0.2731  1.0868  0.0426
 4922SOL     OW25444   3.790   2.133   2.057  0.0186  0.2328 -0.2710
 4922SOL    HW125445   3.798   2.034   2.067 -0.5043 -0.1516 -3.2226
 4922SOL    HW225446   3.702   2.163   2.094 -0.7850 -0.7335 -1.3704
 4923SOL     OW25447   3.095   2.275   3.806  0.8509 -0.0330  0.2399
 4923SOL    HW125448   3.083   2.324   3.893 -0.2514 -0.4393  0.3163
 4923SOL    HW225449   3.122   2.340   3.735  1.8852  0.2828  0.9112
 4924SOL     OW25450   3.313   5.763   3.879 -0.2143  0.0752 -0.0876
 4924SOL    HW125451   3.381   5.773   3.952  0.3131  2.0686 -0.8248
 4924SOL    HW225452   3.272   5.671   3.884  0.1409  0.0196  2.4003
 4925SOL     OW25453   1.308   6.940   1.175  0.1201 -0.5538  0.5726
 4925SOL    HW125454   1.273   6.850   1.198 -1.4291  0.0027  0.4983
 4925SOL    HW225455   1.349   6.982   1.256 -2.1897  0.0086  1.5017
 4926SOL     OW25456   0.967   2.604   1.772  0.5849 -0.4940  0.4628
 4926SOL    HW125457   0.869   2.593   1.752  0.3210  0.8645  0.9373
 4926SOL    HW225458   0.985   2.574   1.866  0.5443 -0.3649  0.5124
 4927SOL     OW25459   0.324   2.299   1.657 -0.7190  0.0586  0.7517
 4927SOL    HW125460   0.404   2.358   1.641 -0.0684 -0.2455  2.7795
 4927SOL    HW225461   0.243   2.342   1.617  0.2215  0.9868 -0.2114
 4928SOL     OW25462   0.708   0.517   1.218 -0.4917  0.2548  0.8562
 4928SOL    HW125463   0.718   0.561   1.308  0.3629 -0.3982  1.0869
 4928SOL    HW225464   0.612   0.496   1.203 -0.6624  0.4848  1.5661
 4929SOL     OW25465   1.365   9.591   0.281  0.4505  0.3101  0.3191
 4929SOL    HW125466   1.406   9.601   0.371  0.9292 -2.1658  0.4072
 4929SOL    HW225467   1.295   9.519   0.284  0.4912  0.1865 -1.2851
 4930SOL     OW25468   7.680   3.158   4.608  0.2386 -0.3111  0.4099
 4930SOL    HW125469   7.721   3.243   4.641  1.0059 -0.1280 -0.9803
 4930SOL    HW225470   7.638   3.174   4.518  0.7748 -1.4997 -0.0592
 4931SOL     OW25471   1.777   1.303   2.059 -0.3681 -0.1021 -0.1768
 4931SOL    HW125472   1.850   1.371   2.050 -0.3023  0.0492  1.4001
 4931SOL    HW225473   1.807   1.216   2.017  1.8077 -0.8546  2.7924
 4932SOL     OW25474   9.565   0.874   2.645 -0.1809  0.1418 -0.2454
 4932SOL    HW125475   9.647   0.885   2.703 -0.8514 -0.8802  0.9215
 4932SOL    HW225476   9.535   0.779   2.648 -2.2358  0.7983  0.4588
 4933SOL     OW25477   7.883   9.496   4.552 -0.0898  0.6713  0.1610
 4933SOL    HW125478   7.800   9.455   4.514  0.3526  1.0189 -1.1808
 4933SOL    HW225479   7.950   9.509   4.480 -0.0740  3.3829  0.6314
 4934SOL     OW25480   0.727   3.859   0.057 -0.0455  0.4585  0.1063
 4934SOL    HW125481   0.718   3.957   0.039 -1.6694  0.0792 -1.3621
 4934SOL    HW225482   0.824   3.834   0.058  0.4372  2.2818  1.7729
 4935SOL     OW25483   0.436   8.769   2.431  0.6181  0.0744  0.2950
 4935SOL    HW125484   0.518   8.825   2.417 -0.4472  1.4870 -0.4038
 4935SOL    HW225485   0.448   8.680   2.387  1.3967  0.6423 -0.6521
 4936SOL     OW25486   9.991   3.964   2.439  0.3256 -0.1725  0.1428
 4936SOL    HW125487  10.053   3.935   2.512 -0.7802 -1.1895  0.6876
 4936SOL    HW225488  10.017   4.056   2.409  0.4227  0.5211  2.2391
 4937SOL     OW25489   8.671   8.264   3.132 -0.1304  0.1074  0.5045
 4937SOL    HW125490   8.721   8.191   3.178  1.4535  0.1962 -0.9745
 4937SOL    HW225491   8.731   8.306   3.062 -1.6804  1.4527 -0.0528
 4938SOL     OW25492   8.693   6.654   0.834 -0.2954  0.3317 -0.3511
 4938SOL    HW125493   8.599   6.638   0.805 -0.9663  1.3639  1.2063
 4938SOL    HW225494   8.745   6.569   0.826 -1.6156 -0.4985 -0.2575
 4939SOL     OW25495   2.225   7.069   0.814 -0.4062  0.3563  0.4712
 4939SOL    HW125496   2.240   7.168   0.815 -0.1443  0.3276 -0.2067
 4939SOL    HW225497   2.131   7.049   0.841 -0.0041  0.6934  2.2411
 4940SOL     OW25498   2.682   4.951   3.311  0.1722 -0.1893 -0.0394
 4940SOL    HW125499   2.606   4.975   3.371  1.1525 -3.2549  2.5538
 4940SOL    HW225500   2.764   4.999   3.340 -0.3671  2.0115 -1.9645
 4941SOL     OW25501   2.862   9.030   2.061  0.2449 -0.5831 -0.1347
 4941SOL    HW125502   2.857   8.933   2.083 -1.0084 -0.5971 -0.4038
 4941SOL    HW225503   2.820   9.083   2.134 -0.6944 -0.3811 -0.8037
 4942SOL     OW25504   4.454   0.809   1.055 -0.2404 -0.7487  0.0831
 4942SOL    HW125505   4.443   0.729   0.998  1.1272 -1.0996  0.2974
 4942SOL    HW225506   4.524   0.870   1.016  0.3861 -0.7794  1.1132
 4943SOL     OW25507   8.400   9.008   2.208  0.2771  0.5546  0.6955
 4943SOL    HW125508   8.395   9.104   2.179  2.5092  0.9749  1.6261
 4943SOL    HW225509   8.364   8.949   2.135  0.2880  1.9944 -0.4848
 4944SOL     OW25510   4.268   2.364   1.588  0.3586 -0.3005  0.5906
 4944SOL    HW125511   4.364   2.383   1.567  0.3042 -0.7865 -0.1145
 4944SOL    HW225512   4.257   2.267   1.612 -0.1906 -0.5983 -0.7997
 4945SOL     OW25513   1.052   7.341   0.107 -0.3157  0.5081  0.2909
 4945SOL    HW125514   0.968   7.303   0.144  0.6553 -0.2779  1.7333
 4945SOL    HW225515   1.105   7.270   0.061 -0.7762  1.1548 -1.2817
 4946SOL     OW25516   9.362   4.048   4.042 -0.7515  0.0199 -0.2677
 4946SOL    HW125517   9.421   4.033   3.963 -2.5593 -2.9373 -1.1712
 4946SOL    HW225518   9.322   4.139   4.038  0.8230  0.6701 -1.6103
 4947SOL     OW25519   9.251   9.977   0.172 -0.8185 -0.2127  0.1636
 4947SOL    HW125520   9.206   9.889   0.155 -0.0034 -0.4488 -0.8238
 4947SOL    HW225521   9.345   9.973   0.137 -0.4156  0.6717  1.1348
 4948SOL     OW25522   8.269   2.927   0.075 -0.1241 -0.4573  0.0739
 4948SOL    HW125523   8.260   2.869   0.156 -3.6142 -1.6015 -1.0493
 4948SOL    HW225524   8.277   3.022   0.104  1.5373 -1.0898  1.8165
 4949SOL     OW25525   3.759   0.692   0.716  0.0044  0.8216  0.5295
 4949SOL    HW125526   3.767   0.748   0.633 -2.4025  0.1528 -0.1875
 4949SOL    HW225527   3.799   0.602   0.699  1.1021  1.2683  0.6875
 4950SOL     OW25528   1.307   8.892   4.627 -0.4522 -0.0567  0.0239
 4950SOL    HW125529   1.255   8.827   4.570  1.8588  0.1780 -2.4213
 4950SOL    HW225530   1.397   8.853   4.648 -0.3546  0.9260  1.4889
 4951SOL     OW25531   2.491   6.532   0.825 -0.1078 -0.6169 -0.8398
 4951SOL    HW125532   2.395   6.507   0.836  0.1560 -0.8748  1.1258
 4951SOL    HW225533   2.545   6.452   0.799 -0.3965 -0.4975 -1.8235
 4952SOL     OW25534   1.052   6.681   2.871  0.8036 -0.5856 -0.5360
 4952SOL    HW125535   1.063   6.591   2.830  3.4115  0.2957 -1.9066
 4952SOL    HW225536   1.086   6.680   2.965  1.0037 -0.9656 -0.6137
 4953SOL     OW25537   9.031   0.203   4.573 -0.5820  0.2599 -0.3737
 4953SOL    HW125538   9.029   0.110   4.535  0.3069  0.0202  0.1583
 4953SOL    HW225539   9.125   0.233   4.581 -0.7464  0.2400  1.8134
 4954SOL     OW25540   0.210   1.714   2.560 -0.4287  0.1821  0.1508
 4954SOL    HW125541   0.164   1.625   2.567  0.5598 -0.2658  1.1096
 4954SOL    HW225542   0.158   1.773   2.498  0.0520 -1.8230 -2.2898
 4955SOL     OW25543   2.984   3.742   1.161  0.4683 -0.2902 -0.1434
 4955SOL    HW125544   3.059   3.678   1.180 -0.1341 -0.4531  1.8023
 4955SOL    HW225545   2.906   3.692   1.124  1.6789  0.0398 -3.3151
 4956SOL     OW25546   1.282   0.692   4.571 -0.4554 -0.0028  0.0745
 4956SOL    HW125547   1.297   0.770   4.631 -0.4707  1.3133 -1.5753
 4956SOL    HW225548   1.359   0.628   4.578 -0.1456  0.4700  0.9889
 4957SOL     OW25549   0.720   8.623   0.670  0.1301 -0.4997 -0.5396
 4957SOL    HW125550   0.686   8.614   0.764  2.2008  2.7818  0.6368
 4957SOL    HW225551   0.792   8.556   0.654 -1.6106 -2.4171 -0.4971
 4958SOL     OW25552   0.132   0.815   0.274 -0.0378 -0.9527 -0.1223
 4958SOL    HW125553   0.135   0.789   0.371 -0.0013 -1.2765 -0.2106
 4958SOL    HW225554   0.062   0.762   0.228  0.2511 -1.1158 -0.3713
 4959SOL     OW25555   2.932   6.260   0.123  0.1806  0.5910 -0.3891
 4959SOL    HW125556   2.902   6.304   0.038 -4.2039 -1.1615  0.1020
 4959SOL    HW225557   2.906   6.316   0.201 -0.6934 -0.3380  0.0021
 4960SOL     OW25558   1.219   3.329   3.554  0.2393 -0.4407 -0.0361
 4960SOL    HW125559   1.313   3.295   3.558  1.7985  3.9036  3.0149
 4960SOL    HW225560   1.176   3.320   3.644 -1.3740  0.0074 -0.7478
 4961SOL     OW25561   7.242   7.853   3.079 -0.3243  0.5193 -0.0962
 4961SOL    HW125562   7.230   7.786   3.152 -1.2818  0.0726 -0.6496
 4961SOL    HW225563   7.329   7.900   3.091  0.1504 -0.5062  0.5627
 4962SOL     OW25564   2.304   8.303   3.598 -0.1540 -0.0101  0.2040
 4962SOL    HW125565   2.389   8.307   3.650 -0.0200  2.1005 -0.1231
 4962SOL    HW225566   2.300   8.219   3.545  1.0632 -0.7893  1.3323
 4963SOL     OW25567   3.424   3.138   3.511 -0.0595  0.2557  0.1695
 4963SOL    HW125568   3.404   3.075   3.586 -0.2865  2.3947  1.9546
 4963SOL    HW225569   3.360   3.122   3.436 -1.0315 -0.6709  1.1773
 4964SOL     OW25570   2.225   7.813   0.075  0.4460  0.0592 -0.0272
 4964SOL    HW125571   2.226   7.861  -0.013  0.8760 -0.7875 -0.4987
 4964SOL    HW225572   2.131   7.791   0.100  0.2488  1.1198  0.1840
 4965SOL     OW25573   2.381   7.890   1.223 -0.4359 -0.1030 -0.0123
 4965SOL    HW125574   2.335   7.870   1.137 -0.9876 -1.5121  0.5803
 4965SOL    HW225575   2.472   7.927   1.205 -0.9791  0.6851 -1.1879
 4966SOL     OW25576   3.640   3.804   1.698  0.5014  0.0215  0.4113
 4966SOL    HW125577   3.613   3.898   1.675 -0.2181 -0.3625 -0.3207
 4966SOL    HW225578   3.652   3.751   1.614  2.2065 -0.1933  0.7729
 4967SOL     OW25579   3.834   0.410   4.537  0.2966  0.5667  0.4039
 4967SOL    HW125580   3.807   0.338   4.472 -1.0719  1.7180 -0.3292
 4967SOL    HW225581   3.916   0.381   4.586  0.1731 -1.2015 -0.3789
 4968SOL     OW25582   9.404   3.059   2.547 -0.6023  0.1752  0.7213
 4968SOL    HW125583   9.321   3.115   2.547  1.1573  2.8569  1.0862
 4968SOL    HW225584   9.393   2.983   2.612 -3.8384 -1.2632 -1.3664
 4969SOL     OW25585   2.433   9.338   0.527 -0.6921 -0.3850 -0.5270
 4969SOL    HW125586   2.482   9.324   0.441 -1.7067 -1.4575 -0.9513
 4969SOL    HW225587   2.496   9.325   0.604  0.0830  0.0066 -1.0874
 4970SOL     OW25588   0.087   4.102   3.624  0.1015  0.0309 -0.5589
 4970SOL    HW125589   0.106   4.150   3.709  1.0822  0.4341 -0.9970
 4970SOL    HW225590   0.144   4.020   3.618  0.2525  0.1616 -0.9550
 4971SOL     OW25591   6.105   6.467   2.611  0.1060  0.1368  0.1751
 4971SOL    HW125592   6.202   6.467   2.587  0.2128  2.2334  0.4764
 4971SOL    HW225593   6.067   6.376   2.596  2.7871 -1.5135  2.7909
 4972SOL     OW25594   3.209   1.690   0.296 -0.0405 -0.1550  0.2838
 4972SOL    HW125595   3.178   1.595   0.307 -0.0392 -0.3195 -1.0151
 4972SOL    HW225596   3.308   1.694   0.310  0.3126 -0.7543 -1.8277
 4973SOL     OW25597   9.081   4.043   0.866  0.7763 -0.5056 -0.1391
 4973SOL    HW125598   9.025   4.125   0.850  0.8205 -0.5298 -0.4264
 4973SOL    HW225599   9.028   3.962   0.843  0.7622 -0.5534  0.0639
 4974SOL     OW25600   2.541   5.849   1.538 -0.1696 -0.5686 -0.3687
 4974SOL    HW125601   2.607   5.774   1.545  2.2198  1.6486  2.3472
 4974SOL    HW225602   2.560   5.904   1.457 -0.1048 -1.2064 -0.7887
 4975SOL     OW25603   7.658   9.613   2.975  0.5300 -0.2273  0.3376
 4975SOL    HW125604   7.747   9.569   2.986 -0.2112 -1.8621 -0.1128
 4975SOL    HW225605   7.609   9.608   3.062 -0.2047 -1.7775 -0.1454
 4976SOL     OW25606   1.107   9.849   2.465 -0.7392  0.4384 -0.0196
 4976SOL    HW125607   1.047   9.929   2.462 -0.7801  0.3773 -0.8161
 4976SOL    HW225608   1.052   9.767   2.482 -0.7247  0.5405  0.5526
 4977SOL     OW25609   1.985   2.260   1.637 -0.2700  0.0857 -0.4637
 4977SOL    HW125610   1.996   2.354   1.670 -2.2544 -0.4101  1.7294
 4977SOL    HW225611   1.939   2.262   1.548  0.2976  1.2106 -0.7458
 4978SOL     OW25612   5.300   0.634   3.949 -0.1134  0.1574 -0.0816
 4978SOL    HW125613   5.254   0.670   4.029 -0.8030 -0.7408 -0.0669
 4978SOL    HW225614   5.242   0.646   3.868  0.3004  0.4650 -0.3370
 4979SOL     OW25615   4.230   8.770   0.119  0.2829  0.3988  0.1877
 4979SOL    HW125616   4.244   8.858   0.164  1.1262  0.1460  0.4150
 4979SOL    HW225617   4.267   8.773   0.026  2.0640 -0.3380  0.8658
 4980SOL     OW25618   3.855   8.382   0.176 -0.0397 -0.2663  0.7178
 4980SOL    HW125619   3.834   8.462   0.233 -1.1159 -0.2231  0.2865
 4980SOL    HW225620   3.773   8.358   0.123 -0.1780 -2.5425  1.9176
 4981SOL     OW25621   3.296   9.811   1.956  0.0738  0.9294 -0.0988
 4981SOL    HW125622   3.228   9.823   2.028 -0.0547  0.0941 -0.0704
 4981SOL    HW225623   3.256   9.759   1.881  0.2518  1.6791 -0.7129
 4982SOL     OW25624   7.567   0.614   2.313 -0.1467  0.0192  0.8218
 4982SOL    HW125625   7.517   0.576   2.235  1.1959 -1.1188  0.4957
 4982SOL    HW225626   7.502   0.644   2.383 -1.2519 -2.4778  0.9022
 4983SOL     OW25627   0.372   8.454   1.416 -0.3770 -0.5058  0.1630
 4983SOL    HW125628   0.290   8.440   1.361 -0.6533  0.8524  0.2298
 4983SOL    HW225629   0.352   8.516   1.491  0.6884 -0.2579  0.2483
 4984SOL     OW25630   6.143   9.138   3.242 -0.2835 -0.1242  0.2762
 4984SOL    HW125631   6.130   9.178   3.151 -1.3383 -1.8509 -0.3705
 4984SOL    HW225632   6.236   9.100   3.248  0.3019  1.3272  0.4657
 4985SOL     OW25633   4.482   1.141   0.055  0.2860  0.2051 -0.0055
 4985SOL    HW125634   4.435   1.056   0.078  0.6769 -0.2388 -0.8233
 4985SOL    HW225635   4.426   1.195  -0.008  0.5142  0.0564 -0.3346
 4986SOL     OW25636   1.052   2.071   3.842  0.1963 -0.0675 -0.0226
 4986SOL    HW125637   1.023   2.092   3.936 -0.3391  1.9753 -0.6140
 4986SOL    HW225638   1.052   1.972   3.829 -0.3394 -0.3616  1.9341
 4987SOL     OW25639   0.690   4.730   0.536 -0.3282 -0.4436  0.0375
 4987SOL    HW125640   0.740   4.747   0.451 -0.8732 -0.7412 -0.3426
 4987SOL    HW225641   0.592   4.743   0.522 -0.5751 -1.9276  0.2285
 4988SOL     OW25642   2.262   8.539   2.889  0.5028  0.3508  0.0743
 4988SOL    HW125643   2.190   8.516   2.955  0.7504  0.0318  0.2330
 4988SOL    HW225644   2.338   8.475   2.899  1.3224  1.4123  0.7252
 4989SOL     OW25645   8.717   5.742   3.317  0.2919  0.5364  0.4409
 4989SOL    HW125646   8.653   5.685   3.370  1.9685 -0.8134  1.0583
 4989SOL    HW225647   8.760   5.809   3.378  3.1015 -1.7844  1.1269
 4990SOL     OW25648   3.790   3.517   0.330  0.0966  0.6597  0.2398
 4990SOL    HW125649   3.706   3.483   0.288  1.2430  0.1195 -1.6969
 4990SOL    HW225650   3.827   3.447   0.392  0.0296  0.1913 -0.2442
 4991SOL     OW25651   9.365   1.334   2.053  0.4249 -0.0483 -0.0625
 4991SOL    HW125652   9.278   1.374   2.023  0.0745 -1.3603 -0.8440
 4991SOL    HW225653   9.354   1.235   2.066  1.5705 -0.0891  0.7098
 4992SOL     OW25654   2.229   1.452   0.520 -0.3239  0.4181 -0.6909
 4992SOL    HW125655   2.227   1.387   0.444 -1.1793 -0.1990 -0.1432
 4992SOL    HW225656   2.138   1.460   0.560  0.2744  0.1485  0.7643
 4993SOL     OW25657   1.164   3.052   1.333  0.2122 -0.4183  0.4107
 4993SOL    HW125658   1.210   3.004   1.258  0.1050 -0.9909  0.7065
 4993SOL    HW225659   1.231   3.104   1.385  0.0180  1.5026 -1.2031
 4994SOL     OW25660   9.804   7.854   3.712 -0.0991  0.2566  0.3556
 4994SOL    HW125661   9.857   7.789   3.767 -0.6235  0.9461  1.6933
 4994SOL    HW225662   9.713   7.816   3.695 -0.2180  0.4052  0.6644
 4995SOL     OW25663   3.737   0.783   3.029 -0.1004 -0.1702 -0.2732
 4995SOL    HW125664   3.699   0.691   3.032  0.0708 -0.2529 -0.6541
 4995SOL    HW225665   3.806   0.793   3.100  0.3197 -0.5267 -0.6347
 4996SOL     OW25666   6.001   6.646   2.784  0.2629  0.5999  0.6446
 4996SOL    HW125667   6.053   6.578   2.731  1.1931 -0.8212  3.3172
 4996SOL    HW225668   6.065   6.707   2.830 -0.5224  1.1491  1.0010
 4997SOL     OW25669   7.938   9.870   3.371 -0.2230  0.2735 -0.6883
 4997SOL    HW125670   7.857   9.825   3.408  0.5342  0.9550  1.8827
 4997SOL    HW225671   7.923   9.969   3.369  0.5272  0.4003 -0.2106
 4998SOL     OW25672   1.552   3.244   0.534  0.2345  0.5385 -0.0126
 4998SOL    HW125673   1.485   3.299   0.485  0.4570  1.2030  0.4205
 4998SOL    HW225674   1.540   3.147   0.510 -0.4555  0.7222 -0.4234
 4999SOL     OW25675   4.261   1.736   1.196 -0.3026  0.3589  0.1220
 4999SOL    HW125676   4.200   1.759   1.119  0.1243  1.0135 -0.0245
 4999SOL    HW225677   4.245   1.641   1.223  0.7731 -0.4327 -1.9230
 5000SOL     OW25678   3.162   6.089   4.188  0.5722  0.1883 -0.1699
 5000SOL    HW125679   3.147   5.995   4.220  2.3416  0.7713  2.5679
 5000SOL    HW225680   3.167   6.090   4.088 -2.2095 -2.1862 -0.3933
 5001SOL     OW25681   0.511   3.045   0.015 -0.0207 -0.3728 -0.5943
 5001SOL    HW125682   0.597   3.082  -0.020  0.1830  0.0553  0.3525
 5001SOL    HW225683   0.462   3.116   0.065  0.0319 -1.1777  0.6144
 5002SOL     OW25684   2.360   6.883   1.615 -0.0287  0.1184  0.2474
 5002SOL    HW125685   2.312   6.837   1.690 -1.1049  0.9995  0.1033
 5002SOL    HW225686   2.308   6.871   1.531 -0.7822  2.3412  0.3745
 5003SOL     OW25687   3.692   0.335   0.745  0.2012 -0.4935  0.1340
 5003SOL    HW125688   3.776   0.368   0.788  0.7257 -0.9925 -0.5026
 5003SOL    HW225689   3.613   0.363   0.800  0.8234 -0.5811  1.0792
 5004SOL     OW25690   0.020   7.594   0.303  0.4852  0.2697  0.0857
 5004SOL    HW125691   0.072   7.513   0.327  0.9744  0.8816  1.1203
 5004SOL    HW225692  -0.070   7.567   0.270  0.0608 -0.6536  1.9107
 5005SOL     OW25693   2.051   4.370   0.670  0.0446  0.2674 -0.0615
 5005SOL    HW125694   1.981   4.324   0.615 -0.5400 -0.0524  0.9483
 5005SOL    HW225695   2.128   4.308   0.685  0.1020  0.2753 -0.3227
 5006SOL     OW25696   9.128   9.759   3.182 -0.3191  0.3945 -0.4848
 5006SOL    HW125697   9.144   9.856   3.165 -1.1304  1.1010  2.3990
 5006SOL    HW225698   9.216   9.712   3.194  0.0285  1.2434  0.3504
 5007SOL     OW25699   3.791   4.591   3.059  0.5033  0.2722  0.8673
 5007SOL    HW125700   3.720   4.661   3.056 -0.9458 -1.2178 -0.5635
 5007SOL    HW225701   3.848   4.605   3.140  0.3801  3.2011  0.4982
 5008SOL     OW25702   1.637   9.273   3.389 -0.3549  0.2678 -0.2979
 5008SOL    HW125703   1.551   9.222   3.397 -0.6459  0.6664 -0.9225
 5008SOL    HW225704   1.690   9.236   3.313  1.1167 -1.5835  1.5778
 5009SOL     OW25705   3.422   5.823   2.912  0.4885  0.2411 -0.4836
 5009SOL    HW125706   3.413   5.745   2.851 -0.5827  0.1282 -0.1749
 5009SOL    HW225707   3.341   5.880   2.906  0.2795  0.1151  1.0076
 5010SOL     OW25708   7.758   8.955   2.715 -0.2501  1.0200  0.3095
 5010SOL    HW125709   7.730   9.042   2.675 -0.0619  0.0747 -1.9559
 5010SOL    HW225710   7.753   8.883   2.645  1.2512 -0.4576  1.6843
 5011SOL     OW25711   4.643   1.133   3.138  0.8262 -0.0921  0.4560
 5011SOL    HW125712   4.701   1.123   3.219 -1.0559 -0.9870  1.7230
 5011SOL    HW225713   4.634   1.045   3.092  0.8995  0.1593 -0.0455
 5012SOL     OW25714   1.835   4.924   1.411 -0.4981 -0.5191  0.3107
 5012SOL    HW125715   1.840   5.021   1.436 -3.4926 -0.3074  0.3012
 5012SOL    HW225716   1.875   4.869   1.485  1.5838  0.7093  0.1432
 5013SOL     OW25717   9.781   8.599   4.116  0.2656 -0.0896  0.5065
 5013SOL    HW125718   9.813   8.504   4.118 -0.6087 -0.3748  1.9606
 5013SOL    HW225719   9.709   8.611   4.185  0.1020  1.5402  0.0715
 5014SOL     OW25720   7.880   0.469   1.268 -0.5123  0.1603 -0.6917
 5014SOL    HW125721   7.928   0.463   1.180 -0.5648  1.6236 -0.8434
 5014SOL    HW225722   7.799   0.410   1.266 -0.5207  0.1923 -1.6306
 5015SOL     OW25723   1.849   3.773   2.519  0.2518  0.0220  0.2739
 5015SOL    HW125724   1.923   3.840   2.509  0.7414 -0.2384  2.0270
 5015SOL    HW225725   1.821   3.768   2.615 -2.0639  0.1348 -0.3590
 5016SOL     OW25726   8.900   2.232   0.453  0.1575  0.2189 -0.0485
 5016SOL    HW125727   8.891   2.244   0.552  0.5719 -0.0904  0.0284
 5016SOL    HW225728   8.959   2.303   0.416 -0.0063  0.3405 -0.0770
 5017SOL     OW25729   1.108   1.516   1.994  0.5490  0.3219 -0.7473
 5017SOL    HW125730   1.189   1.458   1.999 -0.7514 -1.5601 -0.9384
 5017SOL    HW225731   1.043   1.479   1.928 -1.5969  0.3176  1.2768
 5018SOL     OW25732   2.626   8.663   2.029  0.1160 -0.5204  0.0358
 5018SOL    HW125733   2.684   8.674   1.948  0.7099  0.7398  0.6050
 5018SOL    HW225734   2.566   8.743   2.038  0.4223 -0.3939  1.1039
 5019SOL     OW25735   2.387   8.965   3.279 -0.0564  0.2394 -0.6708
 5019SOL    HW125736   2.301   9.015   3.269  0.5928  1.1025 -2.3828
 5019SOL    HW225737   2.448   9.017   3.339  0.9614  2.0961 -3.1795
 5020SOL     OW25738   5.944   7.532   2.875 -0.3030  0.4662 -0.2082
 5020SOL    HW125739   5.971   7.452   2.821 -1.4196 -0.4898  0.6443
 5020SOL    HW225740   5.948   7.509   2.972 -1.2615  1.2407  0.0164
 5021SOL     OW25741   0.716   6.829   3.387  0.5276  0.2366 -0.4816
 5021SOL    HW125742   0.748   6.736   3.374  1.5566  0.5391 -0.1969
 5021SOL    HW225743   0.774   6.876   3.453 -0.5098  0.8131  0.0468
 5022SOL     OW25744   9.265   5.633   0.854  0.3300 -0.2308  0.0789
 5022SOL    HW125745   9.184   5.602   0.904  0.9874 -1.1007  0.6095
 5022SOL    HW225746   9.347   5.596   0.896  0.8953 -1.0218 -1.6745
 5023SOL     OW25747   7.071   0.155   2.071  0.3492  0.2334 -0.0893
 5023SOL    HW125748   7.010   0.226   2.036 -0.5722 -0.0523  0.8875
 5023SOL    HW225749   7.129   0.121   1.997 -0.1807  1.0175 -0.8749
 5024SOL     OW25750   9.639   8.969   3.946 -0.6703  0.1928  0.0414
 5024SOL    HW125751   9.736   8.986   3.963 -0.4333 -0.4095 -0.6595
 5024SOL    HW225752   9.598   8.924   4.026 -0.8927  2.3701  1.2054
 5025SOL     OW25753   1.528   8.557   3.236 -0.2688 -0.0632 -0.2163
 5025SOL    HW125754   1.603   8.600   3.187 -0.1221  0.0398  0.0991
 5025SOL    HW225755   1.461   8.627   3.261 -0.4244 -0.1406 -0.4093
 5026SOL     OW25756   3.664   1.508   3.977  0.9158  0.1220  0.1479
 5026SOL    HW125757   3.712   1.591   3.948 -0.8773  0.9615 -0.4549
 5026SOL    HW225758   3.573   1.531   4.010  0.4357 -1.5999  0.0865
 5027SOL     OW25759   8.022   0.279   1.418  0.3956 -0.5906  0.2139
 5027SOL    HW125760   7.969   0.353   1.375 -2.2402 -1.5243  1.6883
 5027SOL    HW225761   8.043   0.304   1.512  1.3226 -0.8519  0.0785
 5028SOL     OW25762   3.210   2.025   2.722 -0.4981 -0.5230  0.4782
 5028SOL    HW125763   3.273   1.979   2.783 -0.8186 -1.2140  0.2980
 5028SOL    HW225764   3.177   1.961   2.652 -0.7030  0.0569  0.0262
 5029SOL     OW25765   6.928   9.887   0.937 -0.2059  0.0074  0.2918
 5029SOL    HW125766   6.879   9.809   0.899  1.7952 -1.3734  0.4542
 5029SOL    HW225767   6.957   9.948   0.863  2.3282 -1.8721 -0.3428
 5030SOL     OW25768   3.099   0.185   2.813  0.2008  0.3983 -0.1089
 5030SOL    HW125769   3.030   0.254   2.793 -0.3129 -0.5238 -1.5726
 5030SOL    HW225770   3.058   0.094   2.807  0.9532 -0.0775  1.4675
 5031SOL     OW25771   0.085   5.148   4.738  0.0117  0.8912  0.7186
 5031SOL    HW125772   0.036   5.198   4.666  1.4431  0.6718 -0.4264
 5031SOL    HW225773   0.150   5.085   4.696  1.0678  0.9523  2.2341
 5032SOL     OW25774   0.921   4.764   3.309 -0.3851 -0.0660  0.0529
 5032SOL    HW125775   0.847   4.714   3.353  0.1052 -1.1422 -0.3489
 5032SOL    HW225776   0.885   4.810   3.227 -0.7874  0.1066  0.3233
 5033SOL     OW25777   7.934   5.392   4.176 -0.4060 -0.1768 -0.0207
 5033SOL    HW125778   7.972   5.479   4.210 -0.4431 -0.0604 -0.2743
 5033SOL    HW225779   8.009   5.329   4.156 -0.3152  0.2228 -0.9782
 5034SOL     OW25780   2.253   6.237   0.484  0.4893 -0.1800  0.2852
 5034SOL    HW125781   2.306   6.233   0.569  1.2045 -0.5241 -0.1776
 5034SOL    HW225782   2.264   6.152   0.433 -0.5981 -0.3040  0.2294
 5035SOL     OW25783   0.262   6.516   3.939  0.0330  0.3888  0.2410
 5035SOL    HW125784   0.311   6.528   4.025  1.4622  2.0891 -0.7796
 5035SOL    HW225785   0.185   6.580   3.936 -1.1408 -0.9581  1.0248
 5036SOL     OW25786   9.706   1.283   3.399 -0.3567  0.0823 -0.3691
 5036SOL    HW125787   9.754   1.351   3.454  0.8979 -0.9714 -0.1410
 5036SOL    HW225788   9.765   1.253   3.324 -0.6126 -1.3003 -0.0295
 5037SOL     OW25789   2.318   0.832   3.820  0.2435 -1.0163  0.0199
 5037SOL    HW125790   2.362   0.806   3.906 -1.4828 -1.6909  0.7276
 5037SOL    HW225791   2.376   0.897   3.771 -0.0264  1.6703  3.0731
 5038SOL     OW25792   3.628   3.464   2.975  0.3919  0.0866 -0.8180
 5038SOL    HW125793   3.707   3.427   3.024 -0.7317 -3.1456 -1.3553
 5038SOL    HW225794   3.554   3.483   3.039  0.0557 -1.0934 -0.8521
 5039SOL     OW25795   9.165   5.263   2.223 -0.6930 -0.3877 -0.2560
 5039SOL    HW125796   9.135   5.169   2.240 -0.6904  0.0260  2.3011
 5039SOL    HW225797   9.086   5.324   2.229 -0.5118 -0.0994 -0.8008
 5040SOL     OW25798   4.667   4.965   1.341  0.1602  0.6442  0.4130
 5040SOL    HW125799   4.604   4.899   1.382 -1.1741  1.2923 -0.5634
 5040SOL    HW225800   4.706   5.023   1.412  1.5344 -1.3204  1.3185
 5041SOL     OW25801   4.412   4.431   0.443  0.0472  0.3190 -0.3080
 5041SOL    HW125802   4.495   4.476   0.474  1.4092 -2.9774  1.0763
 5041SOL    HW225803   4.339   4.447   0.510  0.2517  1.1870 -0.2853
 5042SOL     OW25804   3.810   4.606   3.822 -0.1945 -0.1065 -0.1397
 5042SOL    HW125805   3.858   4.633   3.905 -1.0117  1.7009 -0.2455
 5042SOL    HW225806   3.872   4.552   3.764  1.5438  1.6672  0.0002
 5043SOL     OW25807   4.080   1.996   2.723  0.3027 -0.3164  0.1090
 5043SOL    HW125808   4.167   1.996   2.773 -0.2387  0.4263  1.0740
 5043SOL    HW225809   4.046   2.090   2.716 -1.1686 -0.7540  1.0883
 5044SOL     OW25810   3.938   8.920   1.901  0.5035 -0.1054 -0.0703
 5044SOL    HW125811   3.925   8.901   1.998  2.0195 -1.3119 -0.0734
 5044SOL    HW225812   3.890   8.851   1.847 -0.1996  0.4656 -0.1690
 5045SOL     OW25813   0.646   0.790   0.007  0.8230  0.2411 -0.4796
 5045SOL    HW125814   0.723   0.732   0.034  0.4056 -1.0095 -1.9423
 5045SOL    HW225815   0.654   0.813  -0.090 -1.8776 -1.9063 -1.2721
 5046SOL     OW25816   0.445   0.807   4.293  0.0391 -0.3112 -0.4890
 5046SOL    HW125817   0.433   0.906   4.297 -2.2157 -0.5967  1.1213
 5046SOL    HW225818   0.464   0.780   4.198  0.4243  1.6332 -0.9907
 5047SOL     OW25819   7.371   5.932   3.067  0.1352  0.0875 -0.2146
 5047SOL    HW125820   7.302   5.988   3.111  0.0462 -0.4538  0.3434
 5047SOL    HW225821   7.382   5.846   3.118  0.5404 -0.2347 -0.8351
 5048SOL     OW25822   9.416   5.055   4.738 -0.2424  0.4248 -0.2004
 5048SOL    HW125823   9.504   5.074   4.780 -0.1719  1.9314 -0.9667
 5048SOL    HW225824   9.379   4.969   4.773  1.4470 -0.1284  0.2404
 5049SOL     OW25825   4.604   1.399   3.083 -0.1481 -0.0958 -0.1797
 5049SOL    HW125826   4.581   1.445   3.169  0.5040  1.6758 -0.9421
 5049SOL    HW225827   4.626   1.303   3.102 -0.0309  0.2707  1.6297
 5050SOL     OW25828   7.877   0.576   4.249 -0.3254  0.5091  0.4649
 5050SOL    HW125829   7.971   0.557   4.220 -0.7207 -0.8053 -0.0304
 5050SOL    HW225830   7.825   0.613   4.171 -0.5953 -0.1504  0.3270
 5051SOL     OW25831   8.449   8.275   0.324 -0.1282  0.1835 -0.2248
 5051SOL    HW125832   8.545   8.302   0.314 -0.4828  2.0878  1.2785
 5051SOL    HW225833   8.394   8.355   0.349 -1.8168 -1.2435  0.7718
 5052SOL     OW25834   9.327   3.201   1.456 -1.2570 -0.1306  0.1165
 5052SOL    HW125835   9.330   3.107   1.490  3.1013  0.0461  0.4718
 5052SOL    HW225836   9.329   3.200   1.356  3.5800 -0.4948  0.0908
 5053SOL     OW25837   2.291   0.470   1.410  1.3513  0.2061 -0.6426
 5053SOL    HW125838   2.344   0.422   1.340 -1.3922 -0.1527 -2.5749
 5053SOL    HW225839   2.281   0.566   1.384 -0.0417 -0.0242 -0.9989
 5054SOL     OW25840   5.926   9.537   1.589 -0.2516  0.6600  0.1261
 5054SOL    HW125841   5.976   9.573   1.668  0.0943 -1.8757  1.1078
 5054SOL    HW225842   5.982   9.546   1.507  1.7652 -1.8498  1.1630
 5055SOL     OW25843   2.491   0.365   2.342 -0.5437 -0.1397  0.6523
 5055SOL    HW125844   2.474   0.353   2.244 -0.5173 -1.2892  0.7765
 5055SOL    HW225845   2.477   0.461   2.367 -0.8196  0.1098 -0.4207
 5056SOL     OW25846   1.014   7.303   0.998  0.0744  0.3195  0.8272
 5056SOL    HW125847   0.969   7.390   1.019  1.8260  1.3268  0.5036
 5056SOL    HW225848   0.963   7.256   0.926 -0.5604  1.3486  0.5874
 5057SOL     OW25849   9.953   9.800   4.175 -0.9447 -0.1793 -0.3004
 5057SOL    HW125850   9.988   9.889   4.205 -2.3367  0.9727 -1.9913
 5057SOL    HW225851   9.894   9.761   4.246  1.2375 -0.7030  1.2776
 5058SOL     OW25852   2.570   3.629   3.249  0.6504 -0.1772  0.3037
 5058SOL    HW125853   2.504   3.698   3.279 -0.1762 -0.1223 -1.5867
 5058SOL    HW225854   2.520   3.546   3.222  1.4811 -0.6985  0.3735
 5059SOL     OW25855   0.158   3.800   1.351  0.2346 -0.4148  0.0427
 5059SOL    HW125856   0.166   3.710   1.394  1.1787 -0.5138 -0.3454
 5059SOL    HW225857   0.216   3.804   1.270  0.1483  0.5258  0.0244
 5060SOL     OW25858   1.491   3.297   0.231 -0.1785 -0.2815  0.0044
 5060SOL    HW125859   1.479   3.396   0.228  1.2422 -0.1240 -0.6762
 5060SOL    HW225860   1.562   3.270   0.166  0.6062 -1.5540  1.3616
 5061SOL     OW25861   4.128   0.027   1.697 -0.1532  0.3204 -0.3042
 5061SOL    HW125862   4.041   0.059   1.659 -0.4680  0.8657  0.8817
 5061SOL    HW225863   4.112  -0.054   1.754  0.1714  0.2122 -0.3619
 5062SOL     OW25864   1.375   2.460   4.643 -0.5870  0.2044 -0.4124
 5062SOL    HW125865   1.300   2.522   4.618 -0.1199  1.0352  0.1984
 5062SOL    HW225866   1.416   2.422   4.560 -0.9700  0.6080 -0.7905
 5063SOL     OW25867   0.851   9.675   3.875  0.1240  0.2436 -0.1371
 5063SOL    HW125868   0.787   9.618   3.824  0.3460  0.6064 -0.8330
 5063SOL    HW225869   0.827   9.675   3.972 -0.1457 -0.6676 -0.2015
 5064SOL     OW25870   7.271   8.004   1.491 -0.1702  0.4534 -0.0969
 5064SOL    HW125871   7.356   7.988   1.541 -0.0295  1.3107 -0.0505
 5064SOL    HW225872   7.287   7.992   1.393 -0.1623 -0.0697 -0.0303
 5065SOL     OW25873   7.666   0.693   1.373  0.0983 -0.0555 -0.4198
 5065SOL    HW125874   7.730   0.635   1.322  0.7311 -1.0818  1.4829
 5065SOL    HW225875   7.617   0.636   1.439 -0.9479  1.1873 -0.1342
 5066SOL     OW25876   8.923   5.159   0.013 -0.3809  0.4397 -0.3953
 5066SOL    HW125877   9.006   5.185   0.063  0.2895 -0.0232 -1.2356
 5066SOL    HW225878   8.871   5.240  -0.011 -0.1886  0.7332  0.1697
 5067SOL     OW25879   3.461   7.112   1.573 -0.0298  0.5453 -0.1904
 5067SOL    HW125880   3.481   7.079   1.666  0.6448  0.3685 -0.3952
 5067SOL    HW225881   3.413   7.040   1.523  0.0072  0.4750 -0.1262
 5068SOL     OW25882   3.154   7.354   2.676 -0.4659  0.1218  0.6013
 5068SOL    HW125883   3.130   7.381   2.769  0.6292  2.0148  0.3538
 5068SOL    HW225884   3.107   7.414   2.611 -0.4814 -0.5883 -0.0493
 5069SOL     OW25885   4.351   6.329   2.801 -0.1739  0.1547 -0.4076
 5069SOL    HW125886   4.303   6.288   2.878 -1.2871  0.1068 -1.1145
 5069SOL    HW225887   4.288   6.384   2.747  1.2719  2.7062  0.4298
 5070SOL     OW25888   3.579   2.739   0.112  0.5178  0.2926 -0.4808
 5070SOL    HW125889   3.609   2.743   0.017  0.3260  2.2579 -0.4794
 5070SOL    HW225890   3.491   2.693   0.118  0.7024 -0.1467 -1.2145
 5071SOL     OW25891   3.421   0.111   0.072  0.5767  0.0919 -0.1837
 5071SOL    HW125892   3.341   0.158   0.036  1.1765  0.9823 -0.3557
 5071SOL    HW225893   3.399   0.072   0.162  0.2551  1.2088  0.2305
 5072SOL     OW25894   1.947   9.002   0.856 -0.2592 -1.1001 -0.2382
 5072SOL    HW125895   1.931   8.952   0.942 -2.7677  2.7752  1.6791
 5072SOL    HW225896   1.996   9.087   0.876 -0.5500 -0.3110 -2.7193
 5073SOL     OW25897   9.973   5.048   0.209  0.0519 -0.0697 -0.3456
 5073SOL    HW125898   9.969   5.128   0.269  0.9689 -0.4475  0.2340
 5073SOL    HW225899  10.004   5.076   0.118 -1.3226  0.5037 -0.6499
 5074SOL     OW25900   9.703   2.736   1.433  0.3608 -0.3286  0.3562
 5074SOL    HW125901   9.700   2.820   1.379 -0.2811 -0.5187  0.0881
 5074SOL    HW225902   9.695   2.657   1.371  1.9728 -0.6166  0.5046
 5075SOL     OW25903   3.455   2.225   0.407 -0.2285 -0.4315  0.0714
 5075SOL    HW125904   3.473   2.134   0.369  1.5457 -0.0896  0.0759
 5075SOL    HW225905   3.475   2.295   0.338 -1.1964 -0.0160  0.2034
 5076SOL     OW25906   0.006   0.527   4.016  0.7260  0.1668  0.4536
 5076SOL    HW125907  -0.051   0.514   3.934  1.1345  0.6928  0.0880
 5076SOL    HW225908  -0.028   0.467   4.089  0.0597  0.0482  0.0563
 5077SOL     OW25909   4.749   0.206   2.019  0.5980 -0.1483  0.0726
 5077SOL    HW125910   4.696   0.279   2.062 -2.0476 -0.8417 -1.9464
 5077SOL    HW225911   4.825   0.246   1.967  0.1147  1.0649  0.2888
 5078SOL     OW25912   8.111   1.976   0.032  0.1682 -0.5464  0.4215
 5078SOL    HW125913   8.047   2.047   0.059  0.4188 -0.5335  1.0022
 5078SOL    HW225914   8.079   1.930  -0.051 -1.0649 -1.1548  1.2239
 5079SOL     OW25915   3.942   9.905   4.377 -0.0957 -0.2124  0.3933
 5079SOL    HW125916   3.915   9.929   4.283  1.3748  1.8142  0.4551
 5079SOL    HW225917   3.946   9.988   4.432  2.6102 -0.9191  1.3026
 5080SOL     OW25918   1.495   0.435   2.713 -0.3503  0.3650 -0.0554
 5080SOL    HW125919   1.456   0.355   2.759  0.8787 -0.6360 -0.7472
 5080SOL    HW225920   1.563   0.478   2.773  1.3240 -0.9977 -0.9288
 5081SOL     OW25921   0.205   9.765   3.614 -0.7149 -0.0452 -0.2052
 5081SOL    HW125922   0.167   9.833   3.676 -0.0541 -0.3963  0.5992
 5081SOL    HW225923   0.255   9.696   3.667  0.5911  0.1196 -1.1940
 5082SOL     OW25924   7.414   9.922   0.736 -0.0277  0.7315  0.6574
 5082SOL    HW125925   7.407   9.903   0.638  1.5392  1.9998  0.2656
 5082SOL    HW225926   7.368  10.008   0.757 -1.2198 -0.0339  1.2227
 5083SOL     OW25927   0.159   8.102   1.748  0.7727 -0.4261 -0.0608
 5083SOL    HW125928   0.219   8.174   1.713  0.0526  0.7450  1.0334
 5083SOL    HW225929   0.175   8.090   1.846  0.0970 -0.9702 -0.0104
 5084SOL     OW25930   1.343   0.672   2.816 -0.5948  0.3221 -0.6502
 5084SOL    HW125931   1.400   0.605   2.769  1.9883  2.0547 -0.0720
 5084SOL    HW225932   1.359   0.763   2.778 -0.5759  1.3257  1.6672
 5085SOL     OW25933   1.722   6.980   2.863  0.3168  0.2736 -0.0391
 5085SOL    HW125934   1.695   7.045   2.934  0.4435  1.0322 -0.6800
 5085SOL    HW225935   1.820   6.959   2.873  0.8140  1.9032 -1.1705
 5086SOL     OW25936   4.021   7.405   1.965  0.1661  0.0238  0.6119
 5086SOL    HW125937   4.081   7.325   1.968 -0.0692 -0.2337 -0.8557
 5086SOL    HW225938   4.024   7.445   1.873  1.5279  2.6930  1.7610
 5087SOL     OW25939   8.335   3.225   4.408  0.4722  0.0134 -0.1983
 5087SOL    HW125940   8.400   3.250   4.335  1.0365 -0.6360  0.0742
 5087SOL    HW225941   8.252   3.188   4.367 -0.1810  1.8526 -0.5935
 5088SOL     OW25942   7.621   2.842   0.855  0.1793  0.2214 -0.1776
 5088SOL    HW125943   7.553   2.798   0.797 -0.9820 -0.2914  1.5298
 5088SOL    HW225944   7.679   2.773   0.898  1.9200  0.6615 -1.7455
 5089SOL     OW25945   8.728   1.561   0.444 -0.4587  0.1961  0.4268
 5089SOL    HW125946   8.648   1.563   0.383 -0.1360 -1.1109 -0.0612
 5089SOL    HW225947   8.810   1.538   0.391 -0.4178 -2.4653  1.5781
 5090SOL     OW25948   8.404   5.840   1.100 -0.3088  0.2813  0.1251
 5090SOL    HW125949   8.372   5.783   1.176 -1.8058 -0.0435 -0.7338
 5090SOL    HW225950   8.482   5.894   1.131 -0.9424  0.2198  1.9293
 5091SOL     OW25951   3.019   1.340   1.518 -0.2278 -0.0980 -0.0084
 5091SOL    HW125952   3.023   1.248   1.480  0.0477 -0.3952  0.7190
 5091SOL    HW225953   2.990   1.405   1.447  0.1260 -0.6573 -0.6729
 5092SOL     OW25954   1.200   2.909   2.148 -0.8074 -0.0746 -0.6136
 5092SOL    HW125955   1.289   2.894   2.105 -0.8725  0.9812 -1.1111
 5092SOL    HW225956   1.212   2.954   2.236 -0.7805 -0.8637 -0.2111
 5093SOL     OW25957   4.578   9.695   2.300 -0.8164  0.0752 -0.0827
 5093SOL    HW125958   4.671   9.706   2.333 -0.9979  0.7570  0.2032
 5093SOL    HW225959   4.580   9.671   2.202 -0.2982 -1.6367  0.3363
 5094SOL     OW25960   8.718   9.748   3.923  0.2762  0.6984 -0.0700
 5094SOL    HW125961   8.641   9.786   3.975 -1.4011 -1.1389 -1.1308
 5094SOL    HW225962   8.759   9.820   3.867 -0.6287  1.7247  0.5494
 5095SOL     OW25963   0.447   0.056   2.027 -0.0447  0.1812 -0.0163
 5095SOL    HW125964   0.409  -0.033   2.052  0.1537 -0.3946 -1.7070
 5095SOL    HW225965   0.404   0.128   2.083  0.8269 -1.1044  2.3502
 5096SOL     OW25966   1.588   0.328   1.618  0.0151 -0.4514  0.6002
 5096SOL    HW125967   1.563   0.374   1.704  0.1532 -0.3633  0.5935
 5096SOL    HW225968   1.547   0.377   1.541  1.0791  0.3113  0.5133
 5097SOL     OW25969   4.519   9.134   2.043  0.4054  0.4739  0.5875
 5097SOL    HW125970   4.480   9.091   1.961  1.3821 -0.5538  0.6415
 5097SOL    HW225971   4.522   9.233   2.030 -2.9601  0.6731  0.9187
 5098SOL     OW25972   9.328   3.995   2.712 -0.3989 -0.2062 -0.4291
 5098SOL    HW125973   9.276   4.052   2.648  1.6440  0.2116 -1.7406
 5098SOL    HW225974   9.356   3.911   2.666 -3.1480 -2.2154  1.4107
 5099SOL     OW25975   1.011   5.012   2.156  0.1230 -0.0030 -1.1170
 5099SOL    HW125976   0.971   4.973   2.073  0.7391 -2.5199 -0.2716
 5099SOL    HW225977   0.948   4.999   2.233  0.8953 -0.5142 -0.5606
 5100SOL     OW25978   1.420   7.250   3.528  0.1143  0.2148  0.0381
 5100SOL    HW125979   1.491   7.253   3.599  0.6305 -2.5271 -0.3005
 5100SOL    HW225980   1.330   7.239   3.571  0.4146 -1.3127  0.2920
 5101SOL     OW25981   4.094   0.781   2.233 -0.4803  0.6031 -0.1725
 5101SOL    HW125982   4.153   0.762   2.311 -0.5231 -0.6377 -0.4389
 5101SOL    HW225983   4.005   0.739   2.246  0.2189 -1.5042 -1.8524
 5102SOL     OW25984   2.339   9.966   0.249  0.2211  0.4167  0.7466
 5102SOL    HW125985   2.426   9.946   0.205  0.3131  2.5297 -0.1377
 5102SOL    HW225986   2.337   9.927   0.341  1.0023 -1.9804 -0.2169
 5103SOL     OW25987   1.411   8.639   4.218  0.7136 -0.2280  0.2140
 5103SOL    HW125988   1.472   8.625   4.296  1.0327  1.5854  0.3044
 5103SOL    HW225989   1.331   8.691   4.248  0.6567  0.1486 -0.5890
 5104SOL     OW25990   3.548   2.305   2.404  0.2283 -0.1541  0.0077
 5104SOL    HW125991   3.572   2.211   2.379  0.3902  0.0338 -0.5706
 5104SOL    HW225992   3.610   2.368   2.356 -0.3939  0.2725 -0.2384
 5105SOL     OW25993   0.521   0.180   2.591  0.0128 -0.4158 -0.3779
 5105SOL    HW125994   0.463   0.261   2.598  0.7461  0.1355 -0.6102
 5105SOL    HW225995   0.559   0.174   2.498 -0.3887 -1.2722 -0.4973
 5106SOL     OW25996   7.846   9.720   1.521 -0.3901  0.0713  0.0274
 5106SOL    HW125997   7.903   9.659   1.576 -0.5681 -0.8349 -0.7718
 5106SOL    HW225998   7.871   9.815   1.539  1.4364 -0.3197 -0.3895
 5107SOL     OW25999   9.432   2.911   2.853 -0.0280  0.2253 -0.3196
 5107SOL    HW126000   9.417   3.004   2.886 -1.1218  0.7076 -2.1106
 5107SOL    HW226001   9.522   2.904   2.811  0.2931  0.3001  0.3412
 5108SOL     OW26002   7.115   0.141   4.397 -0.1087 -0.6022  0.0985
 5108SOL    HW126003   7.190   0.076   4.382  1.0421  0.0800  2.5928
 5108SOL    HW226004   7.125   0.218   4.334  0.6842 -1.0349 -0.3128
 5109SOL     OW26005   3.268   0.766   0.631 -0.2854  0.3636  0.1798
 5109SOL    HW126006   3.363   0.743   0.655 -0.9301 -0.5167  2.0192
 5109SOL    HW226007   3.263   0.791   0.534  1.8153  0.3928  0.0493
 5110SOL     OW26008   9.009   6.567   0.096  0.1695 -0.2380  0.2478
 5110SOL    HW126009   9.038   6.590   0.189  2.1402  2.6346 -1.0167
 5110SOL    HW226010   9.083   6.585   0.032 -1.7174 -0.5744 -2.1201
 5111SOL     OW26011   6.335   0.433   1.780 -0.1047 -0.2574 -0.2992
 5111SOL    HW126012   6.392   0.445   1.861  0.2511 -0.3904 -0.5245
 5111SOL    HW226013   6.308   0.522   1.744  0.3845 -0.1771 -0.4806
 5112SOL     OW26014   8.660   2.892   3.163  0.1053 -0.3015  0.2965
 5112SOL    HW126015   8.620   2.880   3.072 -0.1185 -0.0713  0.3666
 5112SOL    HW226016   8.704   2.982   3.168 -1.2032  0.3098  0.9231
 5113SOL     OW26017   8.036   1.129   0.910  0.4027  0.0200 -0.2783
 5113SOL    HW126018   7.962   1.074   0.872  0.4463 -0.7994  0.7882
 5113SOL    HW226019   7.999   1.216   0.943 -0.2652 -0.7643  1.0960
 5114SOL     OW26020   2.578   3.146   0.725 -0.0390 -0.1224  1.0912
 5114SOL    HW126021   2.623   3.122   0.639  0.1974  0.7188  0.9817
 5114SOL    HW226022   2.608   3.084   0.797 -0.3966 -0.9673  0.5257
 5115SOL     OW26023   6.199   9.257   2.306 -0.4941  0.2370 -0.4628
 5115SOL    HW126024   6.225   9.253   2.402  1.9027  0.1689 -1.0730
 5115SOL    HW226025   6.122   9.196   2.289 -0.7884  0.0774  1.3553
 5116SOL     OW26026   3.352   3.513   3.097  0.7416  0.0571  0.0968
 5116SOL    HW126027   3.351   3.584   3.027  1.1938 -0.0628 -0.0350
 5116SOL    HW226028   3.282   3.444   3.078  1.2463 -0.2770 -0.5467
 5117SOL     OW26029   1.290   4.585   1.499  0.0885 -0.2758 -0.0640
 5117SOL    HW126030   1.273   4.665   1.443  0.5072 -0.1974 -0.0826
 5117SOL    HW226031   1.353   4.524   1.452 -0.3063 -0.6630 -0.0926
 5118SOL     OW26032   9.284   3.120   0.113  0.5394 -0.5998 -0.4588
 5118SOL    HW126033   9.262   3.217   0.119 -0.0102 -0.8549  2.3926
 5118SOL    HW226034   9.203   3.069   0.085  0.2552 -0.4565  0.0952
 5119SOL     OW26035   2.963   7.954   4.149 -0.6928 -0.3298 -0.2056
 5119SOL    HW126036   2.910   7.895   4.088 -3.4265 -0.5620  2.2263
 5119SOL    HW226037   2.970   7.910   4.239  0.8030  1.2211  0.4646
 5120SOL     OW26038   2.875   9.852   3.299 -0.1360 -0.6030 -0.9331
 5120SOL    HW126039   2.941   9.867   3.373 -0.0179 -1.0079 -0.9520
 5120SOL    HW226040   2.908   9.777   3.241 -1.6038 -2.2108  0.2597
 5121SOL     OW26041   7.935   8.646   0.803 -0.0514 -0.2003  0.5462
 5121SOL    HW126042   7.902   8.561   0.844  0.8184 -0.1615  1.3424
 5121SOL    HW226043   8.034   8.640   0.789  0.0178  0.6960  0.6327
 5122SOL     OW26044   1.317   9.253   3.280 -0.3717 -0.2523  0.6585
 5122SOL    HW126045   1.276   9.334   3.322 -0.9095 -0.4774  0.5769
 5122SOL    HW226046   1.288   9.247   3.184  1.1107  0.4410  0.1516
 5123SOL     OW26047   7.964   5.214   3.358  0.4881  0.0475 -1.0693
 5123SOL    HW126048   7.925   5.235   3.269  0.3838  1.6655 -0.6478
 5123SOL    HW226049   8.024   5.288   3.387 -1.0109  0.4890  1.0777
 5124SOL     OW26050   2.441   9.660   3.816 -0.2582 -0.3379  0.1420
 5124SOL    HW126051   2.434   9.729   3.888  0.0570 -2.1718  1.9816
 5124SOL    HW226052   2.381   9.583   3.838  1.6797 -2.0148 -0.2929
 5125SOL     OW26053   4.198   8.012   0.660 -0.2469 -0.0203  0.5333
 5125SOL    HW126054   4.205   7.951   0.739 -0.2559  0.8329  1.1975
 5125SOL    HW226055   4.254   8.093   0.676 -0.5995  0.3577 -0.1486
 5126SOL     OW26056   9.019   7.876   2.006 -0.1769 -0.1844  0.0914
 5126SOL    HW126057   8.934   7.876   2.059  0.1167 -0.3499  0.5707
 5126SOL    HW226058   9.088   7.930   2.054 -0.6566  1.7404 -1.3620
 5127SOL     OW26059   4.895   8.729   2.525 -0.0411  0.1747 -0.0032
 5127SOL    HW126060   4.986   8.724   2.564 -0.2523 -2.3102  0.2818
 5127SOL    HW226061   4.896   8.692   2.432 -0.7579  0.0715  0.0212
 5128SOL     OW26062   0.853   9.300   1.004  0.3872 -0.2458  0.0958
 5128SOL    HW126063   0.918   9.377   1.003 -0.9471  0.8996 -1.6862
 5128SOL    HW226064   0.800   9.303   1.088  0.8476  0.3479  0.3733
 5129SOL     OW26065   8.235   2.268   4.298  0.6257  0.4089  0.4765
 5129SOL    HW126066   8.259   2.171   4.288  0.7486  0.5669 -0.9489
 5129SOL    HW226067   8.317   2.320   4.323  0.5292  0.1340  1.3827
 5130SOL     OW26068   7.688   1.578   2.288  0.3065 -0.0724 -0.6418
 5130SOL    HW126069   7.626   1.611   2.217 -0.6787 -0.2852  0.1158
 5130SOL    HW226070   7.763   1.643   2.300 -0.9178  1.2586 -0.0740
 5131SOL     OW26071   2.383   5.061   2.910  0.1443 -0.2425 -0.2793
 5131SOL    HW126072   2.325   4.985   2.942 -0.1367 -0.6908 -1.8028
 5131SOL    HW226073   2.360   5.144   2.960  1.8285 -1.5825  2.8398
 5132SOL     OW26074   7.800   7.766   1.977 -0.2178  0.3314  0.5034
 5132SOL    HW126075   7.863   7.827   2.025  0.8060  0.9942 -1.6171
 5132SOL    HW226076   7.706   7.783   2.008  0.5442 -0.1858  3.1870
 5133SOL     OW26077   3.362   4.496   1.929 -0.0527 -0.0769 -0.0979
 5133SOL    HW126078   3.318   4.586   1.931  0.1241  0.1084 -3.0618
 5133SOL    HW226079   3.453   4.502   1.969 -0.5419  0.7544  0.9244
 5134SOL     OW26080   8.776   3.432   3.307  0.0318  0.1891  0.5816
 5134SOL    HW126081   8.687   3.457   3.344  0.1440  1.0460  0.2860
 5134SOL    HW226082   8.847   3.486   3.353  0.4960 -1.2212  1.5373
 5135SOL     OW26083   0.289   8.842   1.983  0.2590 -0.0131 -0.1747
 5135SOL    HW126084   0.295   8.751   1.941  3.3340 -0.4047  0.9973
 5135SOL    HW226085   0.266   8.909   1.913 -1.0140 -1.5151 -1.2464
 5136SOL     OW26086   0.529   3.209   0.363  0.5275  0.1207 -0.0463
 5136SOL    HW126087   0.461   3.227   0.292  0.1501  1.8730  0.7300
 5136SOL    HW226088   0.494   3.241   0.451  2.2265  0.7707  0.4084
 5137SOL     OW26089   4.124   4.119   1.799  0.5489 -0.1158 -0.5533
 5137SOL    HW126090   4.139   4.021   1.780 -0.1615 -0.4362  0.4932
 5137SOL    HW226091   4.212   4.164   1.812  0.7809 -1.3657  2.5867
 5138SOL     OW26092   2.709   2.136   4.309  0.3189  0.4573  0.3904
 5138SOL    HW126093   2.640   2.076   4.269  0.0541  1.1824 -0.2484
 5138SOL    HW226094   2.665   2.214   4.352  0.7748  1.5389 -1.0455
 5139SOL     OW26095   0.012   6.855   1.464  0.0869 -0.3466  0.3323
 5139SOL    HW126096   0.082   6.805   1.515 -0.2044 -0.1719  0.8989
 5139SOL    HW226097   0.033   6.953   1.464 -0.1074 -0.3041  0.4249
 5140SOL     OW26098   0.476   1.256   3.335 -0.0218  0.3839 -0.2105
 5140SOL    HW126099   0.567   1.234   3.300 -1.1527 -0.6742 -2.5615
 5140SOL    HW226100   0.421   1.173   3.342 -1.6167  1.3269 -1.1912
 5141SOL     OW26101   1.838   4.374   3.346  0.4403  0.1155  0.1700
 5141SOL    HW126102   1.828   4.454   3.405  1.5683 -0.3123  0.9648
 5141SOL    HW226103   1.913   4.389   3.281 -0.9720  0.6955 -1.3605
 5142SOL     OW26104   2.538   2.562   2.421  0.0845 -0.1044 -0.6128
 5142SOL    HW126105   2.517   2.639   2.481  1.3988 -0.8415  0.8292
 5142SOL    HW226106   2.465   2.494   2.428  0.4845 -0.4232  0.5742
 5143SOL     OW26107   1.355   8.767   3.301  0.2156  0.6471 -0.6589
 5143SOL    HW126108   1.293   8.734   3.372  0.1570  2.4528  0.1594
 5143SOL    HW226109   1.302   8.787   3.218  0.2579 -1.2881 -1.1739
 5144SOL     OW26110   8.572   6.392   4.111  0.2308 -0.2868 -0.0113
 5144SOL    HW126111   8.607   6.372   4.020 -1.6740 -0.3321 -0.7487
 5144SOL    HW226112   8.482   6.349   4.123  0.2098  0.1832  1.6769
 5145SOL     OW26113   2.142   9.952   1.531 -0.5067  0.1720  0.3366
 5145SOL    HW126114   2.079  10.006   1.586 -0.0682  0.4871  0.5379
 5145SOL    HW226115   2.182  10.009   1.459  1.0760  0.5403  1.4586
 5146SOL     OW26116   3.562   1.583   0.933  0.4357 -0.0139  0.0260
 5146SOL    HW126117   3.529   1.668   0.893  0.7276 -0.3881 -1.0227
 5146SOL    HW226118   3.484   1.523   0.953  0.2766  0.2324  0.1430
 5147SOL     OW26119   2.025   8.815   2.516 -0.2947 -0.5728 -0.7412
 5147SOL    HW126120   2.082   8.747   2.563  1.0805 -0.0637 -1.6373
 5147SOL    HW226121   1.959   8.854   2.581  2.1102  0.7203  1.0362
 5148SOL     OW26122   8.296   2.392   2.433 -0.3968  0.5236  0.1297
 5148SOL    HW126123   8.321   2.423   2.524  0.5972 -0.0427  0.0553
 5148SOL    HW226124   8.200   2.364   2.432 -0.1872 -0.2275  1.1948
 5149SOL     OW26125   7.858   2.013   3.310 -0.2569  0.5448  0.0518
 5149SOL    HW126126   7.863   2.106   3.276  0.1757  0.0454 -1.2642
 5149SOL    HW226127   7.943   1.965   3.291 -1.5944 -1.0738 -2.1166
 5150SOL     OW26128   9.567   1.543   0.523 -0.2872 -0.1610 -0.3974
 5150SOL    HW126129   9.614   1.621   0.482  1.8726 -1.3130 -0.2036
 5150SOL    HW226130   9.623   1.504   0.596 -2.8143  0.1063  1.7875
 5151SOL     OW26131   7.961   0.505   3.082  0.4776  0.1674 -0.6333
 5151SOL    HW126132   7.947   0.534   2.987  2.3946 -0.6578 -1.1898
 5151SOL    HW226133   7.997   0.581   3.135  0.6901  0.2467 -0.8895
 5152SOL     OW26134   1.741   5.801   2.417  0.1738 -0.4399  0.1013
 5152SOL    HW126135   1.805   5.765   2.485 -1.0099 -1.1665  0.8441
 5152SOL    HW226136   1.678   5.729   2.390 -0.2984  0.2638 -0.6726
 5153SOL     OW26137   8.211   1.460   2.625  0.1064 -0.3307 -0.1272
 5153SOL    HW126138   8.143   1.438   2.695  0.8004  0.0003  0.6544
 5153SOL    HW226139   8.172   1.441   2.535 -1.1760  0.2564  0.2852
 5154SOL     OW26140   3.928   3.247   1.881  0.3313  0.9823 -0.0115
 5154SOL    HW126141   3.892   3.286   1.966 -1.4999 -0.4288 -0.1162
 5154SOL    HW226142   3.857   3.249   1.811  1.3573  0.7215 -1.0725
 5155SOL     OW26143   2.401   0.853   1.693 -0.2010 -0.4170 -0.0085
 5155SOL    HW126144   2.391   0.911   1.612  1.0618  1.0114  0.8258
 5155SOL    HW226145   2.395   0.757   1.666  1.0245  0.0138 -1.9487
 5156SOL     OW26146   9.902   1.761   0.290  0.3574 -0.3059  0.0697
 5156SOL    HW126147   9.832   1.745   0.360  2.0732 -3.1872  1.2166
 5156SOL    HW226148   9.938   1.854   0.299 -2.2076  0.6898  0.4514
 5157SOL     OW26149   9.186   4.406   1.911 -0.5655 -0.2416  0.1221
 5157SOL    HW126150   9.160   4.310   1.921 -0.7825 -0.1354  0.6138
 5157SOL    HW226151   9.255   4.429   1.980  0.4159 -0.3683 -0.8088
 5158SOL     OW26152   3.566   5.426   1.988 -0.2772 -0.2233  0.3589
 5158SOL    HW126153   3.664   5.418   2.008 -0.0177 -0.1987 -0.8327
 5158SOL    HW226154   3.546   5.379   1.902 -1.8825 -2.9205  2.1559
 5159SOL     OW26155   9.205   7.024   3.890 -0.7810 -0.6522  0.2870
 5159SOL    HW126156   9.187   6.932   3.925  0.6915 -0.8040  0.6649
 5159SOL    HW226157   9.120   7.078   3.893 -1.2932 -1.5060  1.5606
 5160SOL     OW26158   3.175   5.172   3.395 -0.3512  0.6179  0.2475
 5160SOL    HW126159   3.242   5.246   3.388  0.6994 -0.4294 -1.0785
 5160SOL    HW226160   3.171   5.140   3.490  0.3468  1.3071  0.5145
 5161SOL     OW26161   1.346   9.395   1.029  0.0284  0.5654  0.5284
 5161SOL    HW126162   1.306   9.365   0.943  2.5294  1.5197 -1.0247
 5161SOL    HW226163   1.325   9.329   1.101 -2.5320  0.0173 -0.6674
 5162SOL     OW26164   2.878   0.753   1.097 -0.1839 -0.4345  0.1812
 5162SOL    HW126165   2.811   0.802   1.153 -0.4863  1.3245 -1.6602
 5162SOL    HW226166   2.836   0.673   1.056 -1.0347  0.3922 -0.5741
 5163SOL     OW26167   1.633   2.446   2.983  0.0035 -0.6842 -0.0279
 5163SOL    HW126168   1.614   2.447   2.884 -0.0390 -0.4382 -0.0176
 5163SOL    HW226169   1.558   2.492   3.031  0.3280 -0.2582  0.0680
 5164SOL     OW26170   2.557   9.462   2.699  0.2191 -0.3027 -0.5023
 5164SOL    HW126171   2.479   9.492   2.753  0.0113 -1.5044 -0.1062
 5164SOL    HW226172   2.576   9.528   2.626 -0.1010  0.8416  0.4437
 5165SOL     OW26173   9.203   4.543   4.124 -0.1527  0.4702 -0.4732
 5165SOL    HW126174   9.217   4.618   4.060 -1.3739 -1.1321 -2.6994
 5165SOL    HW226175   9.126   4.564   4.184 -1.3972  0.4616 -2.0149
 5166SOL     OW26176   4.966   2.546   1.494 -0.1736 -0.3481  0.2372
 5166SOL    HW126177   4.928   2.511   1.579 -0.5206 -0.1091  0.1852
 5166SOL    HW226178   4.991   2.642   1.505 -1.8260  0.1773 -0.4185
 5167SOL     OW26179   0.401   7.338   2.760  0.2985  0.4868  0.0986
 5167SOL    HW126180   0.498   7.360   2.768  0.3424  0.7287 -0.9497
 5167SOL    HW226181   0.353   7.415   2.717 -0.3123  0.2793  0.4099
 5168SOL     OW26182   1.799   9.785   0.421  0.1181  0.1837  0.4165
 5168SOL    HW126183   1.717   9.789   0.365  0.2412  0.9793  0.2902
 5168SOL    HW226184   1.791   9.710   0.486 -0.2664 -0.3817 -0.2820
 5169SOL     OW26185   2.332   6.658   3.214  0.0080 -0.3413  0.0167
 5169SOL    HW126186   2.407   6.606   3.255  0.5500  0.9802  0.7133
 5169SOL    HW226187   2.333   6.647   3.115 -1.0331 -3.2174  0.2730
 5170SOL     OW26188   0.360   7.781   0.874 -0.2863  0.0804  0.0403
 5170SOL    HW126189   0.380   7.878   0.886 -0.1298  0.1592 -0.8345
 5170SOL    HW226190   0.309   7.747   0.953 -2.1344  1.3413 -0.6008
 5171SOL     OW26191   2.404   2.080   1.264  0.3360  0.4865  0.8649
 5171SOL    HW126192   2.443   2.116   1.179 -1.1917  0.0518 -0.0269
 5171SOL    HW226193   2.327   2.138   1.293  1.0124  0.7945  2.1178
 5172SOL     OW26194   8.573   3.973   3.445  0.5769  0.1810 -0.1314
 5172SOL    HW126195   8.526   3.892   3.480  0.6537  0.5882  0.9526
 5172SOL    HW226196   8.523   4.055   3.475  0.2997  0.5286 -1.5111
 5173SOL     OW26197   0.916   8.394   4.085 -0.0219  0.7199 -0.2958
 5173SOL    HW126198   0.931   8.402   3.987 -1.4966  1.4898 -0.4810
 5173SOL    HW226199   0.984   8.333   4.125  1.0406  0.9938 -1.6724
 5174SOL     OW26200   8.340   5.396   2.153 -0.4157 -0.3212  0.2472
 5174SOL    HW126201   8.339   5.482   2.103  0.6725  0.0806  0.8815
 5174SOL    HW226202   8.247   5.363   2.165 -0.8464  0.8032  0.0592
 5175SOL     OW26203   9.253   1.929   2.216  0.1112 -0.4249 -0.6733
 5175SOL    HW126204   9.280   1.950   2.123 -0.1017  0.7575 -0.4780
 5175SOL    HW226205   9.156   1.903   2.217 -0.3999  1.4006 -0.5463
 5176SOL     OW26206   1.052   7.686   1.675  0.0035 -0.1096 -0.1455
 5176SOL    HW126207   1.003   7.601   1.653 -2.1212  0.8355  0.9071
 5176SOL    HW226208   0.992   7.764   1.661  2.0069  1.2734 -1.2643
 5177SOL     OW26209   5.045   3.247   1.604 -0.0768 -0.1479 -0.1456
 5177SOL    HW126210   5.028   3.336   1.561 -0.1831  0.4044  1.0182
 5177SOL    HW226211   4.965   3.221   1.660  1.0523  0.3348  1.7258
 5178SOL     OW26212   0.199   1.058   2.375 -0.1778 -0.1993 -0.1775
 5178SOL    HW126213   0.158   1.126   2.314  1.7525  1.1867  0.0056
 5178SOL    HW226214   0.238   1.105   2.454 -1.1749 -1.8140  1.3109
 5179SOL     OW26215   3.829   9.083   0.127 -0.2084  0.4368 -0.0303
 5179SOL    HW126216   3.824   9.129   0.039 -1.6937  3.1989  1.4396
 5179SOL    HW226217   3.919   9.099   0.169 -0.0774  0.4702 -0.3274
 5180SOL     OW26218   8.265   7.019   1.367  0.1063  0.1961  0.5136
 5180SOL    HW126219   8.193   6.951   1.378 -1.0461  1.3382  0.1494
 5180SOL    HW226220   8.224   7.111   1.360  1.4580  0.6921 -1.4433
 5181SOL     OW26221   7.340   9.099   3.632 -0.1965 -0.3529  0.1982
 5181SOL    HW126222   7.306   9.105   3.726 -2.3914 -1.9952 -0.4485
 5181SOL    HW226223   7.382   9.009   3.617 -0.2481 -0.2593 -0.5274
 5182SOL     OW26224   9.179   6.607   3.399  0.3204  0.0409 -0.4699
 5182SOL    HW126225   9.189   6.607   3.499 -1.0305 -0.4821 -0.3306
 5182SOL    HW226226   9.123   6.529   3.371  0.1996  0.5257 -1.5938
 5183SOL     OW26227   5.696   7.903   2.633 -0.4220  0.1785  0.2361
 5183SOL    HW126228   5.714   7.832   2.701  0.4177  0.7681  0.6436
 5183SOL    HW226229   5.618   7.958   2.662 -1.2590 -0.7563 -0.2258
 5184SOL     OW26230   0.723   9.643   2.300 -0.0014 -0.0453  0.1518
 5184SOL    HW126231   0.670   9.722   2.332 -0.1057  0.2616 -0.7708
 5184SOL    HW226232   0.661   9.574   2.264  0.2055  0.2047 -0.6899
 5185SOL     OW26233   1.219   0.238   0.323 -0.1062 -0.4157 -0.4631
 5185SOL    HW126234   1.205   0.141   0.346  0.7620 -0.6491 -0.9006
 5185SOL    HW226235   1.133   0.277   0.290 -0.6724 -0.8158  0.5139
 5186SOL     OW26236   6.774   0.061   1.451  0.0995 -0.3582 -0.5026
 5186SOL    HW126237   6.826   0.104   1.378 -1.0514  1.9034 -0.0446
 5186SOL    HW226238   6.836   0.022   1.519  1.1896  0.8615 -0.7858
 5187SOL     OW26239   8.018   3.433   3.873 -0.3206 -0.2923  0.0696
 5187SOL    HW126240   7.971   3.459   3.958  0.6464  0.1455  0.4770
 5187SOL    HW226241   8.055   3.341   3.882  1.3008  0.4123  0.7834
 5188SOL     OW26242   9.843   0.420   2.408 -0.0051  0.1549 -0.3822
 5188SOL    HW126243   9.748   0.447   2.424 -0.7935 -2.0539 -1.0438
 5188SOL    HW226244   9.883   0.477   2.336 -1.2953  0.1853 -1.0844
 5189SOL     OW26245   4.136   1.777   3.457 -0.5093  0.1887  0.2969
 5189SOL    HW126246   4.125   1.849   3.389 -2.0936 -0.8015 -0.5468
 5189SOL    HW226247   4.056   1.717   3.454  0.6105 -1.3845  1.2225
 5190SOL     OW26248   0.173   0.911   1.590 -0.2631  0.4649  0.1639
 5190SOL    HW126249   0.270   0.887   1.589 -0.4483 -0.3244  0.7337
 5190SOL    HW226250   0.138   0.913   1.496  0.1300  0.0190  0.0070
 5191SOL     OW26251   3.974   5.193   2.138 -0.0481  0.2417  0.0307
 5191SOL    HW126252   3.932   5.262   2.079  5.5705  1.3098 -3.0540
 5191SOL    HW226253   4.016   5.237   2.217  0.6712 -0.0172 -0.1990
 5192SOL     OW26254   5.869   9.253   3.765 -0.7141 -0.3833  0.0851
 5192SOL    HW126255   5.874   9.202   3.679  0.3444 -0.7677  0.3742
 5192SOL    HW226256   5.875   9.190   3.842  1.5224  0.2433  0.4523
 5193SOL     OW26257   8.962   4.649   1.090 -0.1936  0.2033  0.3786
 5193SOL    HW126258   8.972   4.635   1.188  0.1638 -0.4889  0.2481
 5193SOL    HW226259   8.901   4.580   1.052 -0.5370  0.6263  0.1526
 5194SOL     OW26260   9.686   1.133   4.255 -0.1033 -0.0356  0.1582
 5194SOL    HW126261   9.667   1.042   4.220  0.1284 -0.5044  1.2261
 5194SOL    HW226262   9.604   1.189   4.249 -0.7459 -0.8539  1.1201
 5195SOL     OW26263   8.435   4.993   0.503  0.1186  0.5068 -0.5896
 5195SOL    HW126264   8.363   4.938   0.547 -0.1391 -0.4613 -2.1661
 5195SOL    HW226265   8.524   4.956   0.528 -0.0854 -1.6662 -2.8604
 5196SOL     OW26266   1.568   4.426   1.693  0.3908 -0.2588 -0.2124
 5196SOL    HW126267   1.624   4.489   1.748  0.9348 -0.5090 -0.4827
 5196SOL    HW226268   1.604   4.421   1.600  1.3087 -2.2042  0.2354
 5197SOL     OW26269   2.768   9.425   4.111 -0.1866  0.2429  0.2336
 5197SOL    HW126270   2.858   9.384   4.096 -0.2118 -0.3421  1.6910
 5197SOL    HW226271   2.711   9.363   4.165 -0.8546  1.3948  0.8601
 5198SOL     OW26272   4.778   5.118   1.637  0.1238  0.1435  0.4802
 5198SOL    HW126273   4.722   5.156   1.711 -0.4530 -0.5899  0.4191
 5198SOL    HW226274   4.864   5.082   1.674  1.1714  2.4589  0.4125
 5199SOL     OW26275   0.648   2.432   3.779 -0.4018  0.0498  0.2815
 5199SOL    HW126276   0.691   2.477   3.701 -0.1924  0.4494  0.6225
 5199SOL    HW226277   0.592   2.498   3.829  0.4682  0.1182  1.1883
 5200SOL     OW26278   2.744   9.972   0.417  0.5057  0.2385  0.3563
 5200SOL    HW126279   2.669  10.034   0.439 -0.0187 -0.3988  0.3862
 5200SOL    HW226280   2.824   9.997   0.472  0.3346  0.9501  0.2905
 5201SOL     OW26281   3.198   0.102   0.901 -0.0866  0.2858 -0.4516
 5201SOL    HW126282   3.117   0.154   0.875 -0.7516 -2.0558 -3.5262
 5201SOL    HW226283   3.239   0.063   0.818  0.6040 -3.6246  1.6075
 5202SOL     OW26284   2.024   2.021   4.024 -0.2771 -0.0190  0.5674
 5202SOL    HW126285   2.070   1.942   3.983 -2.1772 -0.0998 -1.5294
 5202SOL    HW226286   1.931   1.996   4.048 -1.1144  1.7289 -0.7303
 5203SOL     OW26287   2.300   5.902   4.024 -0.0250  0.1245 -0.0419
 5203SOL    HW126288   2.312   5.819   3.970  1.7712  0.0687  0.4375
 5203SOL    HW226289   2.321   5.884   4.120 -0.2679  0.9759  0.1808
 5204SOL     OW26290   2.126   8.801   3.099  0.1230 -0.1215 -0.2033
 5204SOL    HW126291   2.049   8.764   3.047  0.7638  0.2689 -1.4608
 5204SOL    HW226292   2.106   8.895   3.127  0.9730  0.7574 -2.4050
 5205SOL     OW26293   3.115   7.874   4.632  0.7329 -0.4056 -0.1641
 5205SOL    HW126294   3.201   7.870   4.685  0.8465 -0.5288 -0.3588
 5205SOL    HW226295   3.053   7.940   4.676  0.3537 -1.4012  0.8172
 5206SOL     OW26296   6.537   8.954   2.118 -0.3900 -0.0066 -0.7083
 5206SOL    HW126297   6.621   8.950   2.172 -0.5380  0.2553 -0.4584
 5206SOL    HW226298   6.488   8.868   2.126  0.6292 -0.7330 -2.1017
 5207SOL     OW26299   1.826   0.671   0.807  0.1445  0.0039  0.0944
 5207SOL    HW126300   1.783   0.672   0.717 -0.1812  1.6473  0.2635
 5207SOL    HW226301   1.921   0.639   0.798  0.1873  0.3833 -0.8486
 5208SOL     OW26302   3.110   2.704   0.334 -0.2631  0.2641 -0.1986
 5208SOL    HW126303   3.050   2.689   0.413 -2.1314  0.4923 -1.5452
 5208SOL    HW226304   3.072   2.660   0.254  1.9404 -0.4832 -0.8766
 5209SOL     OW26305   7.684   1.522   0.925  0.1350  0.0537 -0.1867
 5209SOL    HW126306   7.715   1.578   1.002 -1.3380  0.0908  0.3870
 5209SOL    HW226307   7.599   1.475   0.950  0.7824 -1.6002 -1.0393
 5210SOL     OW26308   5.890   7.806   3.323  0.0651 -0.1275 -0.3042
 5210SOL    HW126309   5.891   7.821   3.224  0.1585 -0.8256 -0.4129
 5210SOL    HW226310   5.931   7.885   3.369 -0.3811  0.3901 -0.7959
 5211SOL     OW26311   3.199   2.310   2.066 -0.5000  0.3328 -0.1259
 5211SOL    HW126312   3.241   2.399   2.050 -0.7434  0.6426  0.9320
 5211SOL    HW226313   3.114   2.303   2.012 -0.4215  0.6907 -0.2970
 5212SOL     OW26314   1.718   2.808   1.489  0.2098 -0.0854 -0.1179
 5212SOL    HW126315   1.766   2.722   1.476 -0.2139 -0.5771  1.4976
 5212SOL    HW226316   1.635   2.809   1.433  0.9945 -0.0881 -1.3011
 5213SOL     OW26317   3.382   2.930   3.981  0.1569 -0.0377 -0.0274
 5213SOL    HW126318   3.438   2.888   4.053  0.6042  1.1323  0.3207
 5213SOL    HW226319   3.382   3.029   3.993 -2.8174 -0.0730  0.5693
 5214SOL     OW26320   3.827   4.470   0.419 -0.6434 -0.0770  0.4004
 5214SOL    HW126321   3.873   4.501   0.336 -0.9649 -1.6943 -0.4053
 5214SOL    HW226322   3.875   4.390   0.455  0.0554  1.1770  2.3115
 5215SOL     OW26323   4.385   7.412   1.878  0.8726 -0.2137  0.4415
 5215SOL    HW126324   4.336   7.325   1.882  1.1306 -0.3225  1.3194
 5215SOL    HW226325   4.377   7.460   1.966  0.1634  0.9700 -0.2453
 5216SOL     OW26326   1.084   7.374   4.550 -0.0056  0.1557  0.3091
 5216SOL    HW126327   1.171   7.353   4.505 -0.5268 -1.7381  0.1063
 5216SOL    HW226328   1.101   7.426   4.634  1.3103 -0.0732  0.1939
 5217SOL     OW26329   5.580   8.044   3.711 -0.3576 -0.0370  0.6766
 5217SOL    HW126330   5.535   8.084   3.632  0.4898  0.8212  0.6181
 5217SOL    HW226331   5.530   8.066   3.794 -0.2257  0.6370  0.5766
 5218SOL     OW26332   0.429   0.802   0.644  0.8673 -0.3056 -0.3201
 5218SOL    HW126333   0.419   0.894   0.681 -0.5669 -0.9062  0.8104
 5218SOL    HW226334   0.461   0.808   0.549 -1.2075  1.4307 -0.9507
 5219SOL     OW26335   9.765   1.752   1.747 -0.0443  0.1623 -0.2538
 5219SOL    HW126336   9.790   1.817   1.675  1.4138 -0.3849 -0.2617
 5219SOL    HW226337   9.788   1.789   1.836 -1.2889  0.5844 -0.1021
 5220SOL     OW26338   8.047   8.132   1.278  0.0590  0.2664 -0.5327
 5220SOL    HW126339   8.051   8.142   1.179 -0.6709  1.6476 -0.4237
 5220SOL    HW226340   8.116   8.065   1.307 -0.9983 -1.5927 -2.1486
 5221SOL     OW26341   1.835   7.611   2.862 -0.3061 -0.6667  0.3221
 5221SOL    HW126342   1.773   7.670   2.913 -0.6557 -1.9204  1.3838
 5221SOL    HW226343   1.785   7.531   2.829  0.0010 -0.0712 -1.6933
 5222SOL     OW26344   4.554   7.695   0.637  0.4371 -0.2336  0.3316
 5222SOL    HW126345   4.617   7.631   0.594 -0.9340 -0.6806 -1.0802
 5222SOL    HW226346   4.484   7.723   0.570 -0.8199  0.2801  1.8314
 5223SOL     OW26347   4.537   6.539   2.858 -0.2564 -0.0782  0.2878
 5223SOL    HW126348   4.503   6.446   2.850 -1.3610  0.3636 -0.1773
 5223SOL    HW226349   4.524   6.588   2.772  2.0529 -0.0582 -0.0818
 5224SOL     OW26350   8.211   9.704   1.845 -0.0003  0.4176 -0.1453
 5224SOL    HW126351   8.284   9.678   1.781 -0.0122 -1.4815  0.5822
 5224SOL    HW226352   8.250   9.728   1.933 -0.2550 -0.7859  0.3034
 5225SOL     OW26353   9.150   1.044   3.205  0.5839 -0.2563  0.3053
 5225SOL    HW126354   9.060   1.082   3.226  0.9586 -0.1870  1.8055
 5225SOL    HW226355   9.220   1.096   3.253  1.3919 -0.6237 -0.4689
 5226SOL     OW26356   2.049   8.286   1.217  0.5962  0.1041  0.3398
 5226SOL    HW126357   2.055   8.355   1.288 -0.6557 -0.4894  1.0363
 5226SOL    HW226358   2.000   8.206   1.252 -1.7714  0.5733 -1.7543
 5227SOL     OW26359   1.441   2.930   4.690  0.1578  0.2361  0.5580
 5227SOL    HW126360   1.387   2.872   4.750 -0.8645  2.1653  1.5621
 5227SOL    HW226361   1.415   2.912   4.595 -1.6407  0.5114  0.9758
 5228SOL     OW26362   8.185   0.355   1.636 -0.4461  0.0117 -0.1179
 5228SOL    HW126363   8.259   0.301   1.596 -1.3805 -1.5686  0.2202
 5228SOL    HW226364   8.172   0.439   1.584  0.0512 -0.8016 -1.5777
 5229SOL     OW26365   8.512   2.070   4.008 -0.3625  0.0194 -0.6341
 5229SOL    HW126366   8.494   2.138   4.079 -0.2867  0.2442 -0.8312
 5229SOL    HW226367   8.506   1.978   4.048  1.2126  0.1941  0.0061
 5230SOL     OW26368   2.350   5.672   3.856 -0.2114 -0.2856 -0.0047
 5230SOL    HW126369   2.390   5.627   3.935 -0.2887  2.4320  1.6507
 5230SOL    HW226370   2.421   5.690   3.788 -0.3456 -3.6520 -1.1194
 5231SOL     OW26371   1.559   7.189   3.756  0.0926  0.3759  1.0268
 5231SOL    HW126372   1.465   7.195   3.792  0.4633  1.0892  1.9174
 5231SOL    HW226373   1.612   7.127   3.814  0.3843  0.6194  1.0200
 5232SOL     OW26374   4.887   2.847   1.075 -0.6464 -0.1228  0.6942
 5232SOL    HW126375   4.811   2.783   1.087 -1.0422  0.3648  0.8009
 5232SOL    HW226376   4.946   2.814   1.001 -0.4701 -0.9626  1.2010
 5233SOL     OW26377   9.307   2.910   3.650 -0.3082 -0.5392 -0.1081
 5233SOL    HW126378   9.230   2.847   3.657 -0.4047 -0.2177  2.1892
 5233SOL    HW226379   9.279   3.001   3.679  1.3873 -0.8710  2.8584
 5234SOL     OW26380   2.192   4.637   1.212 -0.6472 -0.0891 -0.1987
 5234SOL    HW126381   2.263   4.641   1.143 -1.0387 -1.9177 -0.7139
 5234SOL    HW226382   2.121   4.704   1.190 -1.0007 -0.9784 -1.8421
 5235SOL     OW26383   2.739   1.639   4.625 -0.6436 -0.1068  0.5182
 5235SOL    HW126384   2.685   1.713   4.584 -0.5973 -0.9978 -1.2305
 5235SOL    HW226385   2.831   1.671   4.645 -0.6987  0.3784 -0.0016
 5236SOL     OW26386   4.299   7.848   2.413  0.3072 -0.1737  0.1324
 5236SOL    HW126387   4.243   7.820   2.335  3.2685  1.0778 -2.5304
 5236SOL    HW226388   4.316   7.769   2.472 -0.8683 -1.4208 -1.1528
 5237SOL     OW26389   0.751   4.664   3.890 -0.1298 -0.1573  0.0077
 5237SOL    HW126390   0.842   4.706   3.893 -0.5218  0.7272 -0.2825
 5237SOL    HW226391   0.751   4.581   3.945  0.0792  1.3870  2.4099
 5238SOL     OW26392   2.134   0.286   4.082  0.3982 -0.3233 -0.1286
 5238SOL    HW126393   2.179   0.372   4.107  0.6975  0.0114 -1.8164
 5238SOL    HW226394   2.125   0.280   3.983  0.4359 -2.2844 -0.0249
 5239SOL     OW26395   8.453   7.725   1.997  0.1131  0.3666  0.2584
 5239SOL    HW126396   8.438   7.626   1.985  1.7938  0.0134  0.9174
 5239SOL    HW226397   8.531   7.754   1.942  0.2698  1.1177  0.8655
 5240SOL     OW26398   4.270   4.457   0.214  0.1274  0.0984 -0.5127
 5240SOL    HW126399   4.332   4.443   0.291 -2.1736  0.6686  1.5355
 5240SOL    HW226400   4.305   4.530   0.156  1.7070 -0.0517  0.2248
 5241SOL     OW26401   0.570   5.663   4.618  0.0258  0.2289 -0.2692
 5241SOL    HW126402   0.563   5.688   4.714 -0.5165 -2.4180  0.4198
 5241SOL    HW226403   0.659   5.620   4.600  0.4147  1.3542 -1.1270
 5242SOL     OW26404   8.218   9.259   0.659  0.1509 -0.5494  0.5669
 5242SOL    HW126405   8.148   9.202   0.701 -0.5779 -1.0641 -1.2880
 5242SOL    HW226406   8.194   9.356   0.672 -0.6191 -0.7179  0.4084
 5243SOL     OW26407   1.885   9.590   4.514  0.3005  0.0213  0.1043
 5243SOL    HW126408   1.984   9.581   4.516  0.3732  0.8218  0.0408
 5243SOL    HW226409   1.856   9.618   4.422 -0.0912 -1.4385 -0.2388
 5244SOL     OW26410   1.690   8.553   4.781 -0.0055 -0.0038  0.3355
 5244SOL    HW126411   1.693   8.516   4.874  2.9722 -0.8764 -0.0640
 5244SOL    HW226412   1.755   8.504   4.723 -0.9147  1.3584 -1.9187
 5245SOL     OW26413   2.596   2.795   0.489 -0.2351 -0.3805 -0.0260
 5245SOL    HW126414   2.606   2.799   0.588 -1.6278 -0.4129  0.1256
 5245SOL    HW226415   2.546   2.712   0.464 -0.1720 -0.2104 -0.7206
 5246SOL     OW26416   1.950   4.759   1.134  0.4563 -0.1819  0.4074
 5246SOL    HW126417   1.936   4.714   1.047  1.5712 -0.6950  0.4880
 5246SOL    HW226418   1.868   4.810   1.159 -0.2588 -0.9355 -0.4044
 5247SOL     OW26419   7.244   8.273   1.438  0.8882 -0.0199 -0.1225
 5247SOL    HW126420   7.220   8.177   1.456  0.3101 -0.0383 -0.9400
 5247SOL    HW226421   7.339   8.289   1.464  1.0095 -0.8321 -0.0346
 5248SOL     OW26422   0.989   6.256   1.824  0.1733 -0.9499 -0.7711
 5248SOL    HW126423   0.913   6.275   1.762 -0.8782 -1.3973  0.3504
 5248SOL    HW226424   0.957   6.196   1.898  0.7230  1.6253  1.6392
 5249SOL     OW26425   4.002   4.152   2.249  0.1680 -0.0227  0.5314
 5249SOL    HW126426   4.094   4.141   2.210  0.9081  0.6497  2.0427
 5249SOL    HW226427   3.987   4.084   2.319 -0.9058 -0.7911 -0.4294
 5250SOL     OW26428   8.753   7.131   1.769  0.0282 -0.4602 -0.0361
 5250SOL    HW126429   8.683   7.100   1.834 -1.0805 -1.1653 -1.5463
 5250SOL    HW226430   8.712   7.141   1.678  1.3155  1.5325 -0.4177
 5251SOL     OW26431   1.313   9.541   3.383 -0.2137  0.1825  0.3425
 5251SOL    HW126432   1.387   9.586   3.432 -0.3257  0.4388  0.2767
 5251SOL    HW226433   1.333   9.540   3.285  0.7729 -1.7576  0.5415
 5252SOL     OW26434   2.793   6.245   3.673  0.4727 -0.1702  0.1409
 5252SOL    HW126435   2.878   6.269   3.719  0.3948  0.2693  0.0565
 5252SOL    HW226436   2.717   6.291   3.719  0.3596  0.0191 -0.2348
 5253SOL     OW26437   8.428   4.291   3.253  0.2380 -0.1919  0.5608
 5253SOL    HW126438   8.390   4.384   3.257 -3.6877 -1.6682 -0.1232
 5253SOL    HW226439   8.404   4.242   3.337  1.5603 -0.9146  0.5358
 5254SOL     OW26440   3.130   0.149   0.126  0.8529 -0.0313  0.4935
 5254SOL    HW126441   3.033   0.169   0.144  0.8853  0.5926 -0.0221
 5254SOL    HW226442   3.155   0.065   0.174  0.2754  0.2506  1.3125
 5255SOL     OW26443   8.090   8.034   4.010  0.2160  0.0202  0.3055
 5255SOL    HW126444   8.065   8.128   4.031  1.4546  0.0930  1.5374
 5255SOL    HW226445   8.009   7.975   4.016 -0.7434  1.1480 -1.4005
 5256SOL     OW26446   1.291   2.119   0.208  0.3721  0.4424  0.0432
 5256SOL    HW126447   1.204   2.102   0.254 -0.0715  0.5983 -0.7435
 5256SOL    HW226448   1.276   2.135   0.111  1.3728 -0.4170 -0.2634
 5257SOL     OW26449   4.670   2.529   2.725 -0.2232 -0.4458  0.7306
 5257SOL    HW126450   4.721   2.613   2.743  0.1707 -0.5277  0.0256
 5257SOL    HW226451   4.668   2.512   2.626 -0.4135 -1.1923  0.8593
 5258SOL     OW26452   0.375   8.296   1.026 -0.3023  0.4369  0.1177
 5258SOL    HW126453   0.425   8.353   1.091 -1.3812  1.1335  0.3492
 5258SOL    HW226454   0.423   8.297   0.938  0.9191 -0.1500  0.7625
 5259SOL     OW26455   3.945   9.837   2.984  0.0692  0.7776  0.0063
 5259SOL    HW126456   3.930   9.834   2.885  0.9593  0.8666 -0.1289
 5259SOL    HW226457   3.872   9.786   3.030  1.2216 -1.6957 -0.8507
 5260SOL     OW26458   8.661   9.383   2.692  0.4844 -0.3596 -0.4338
 5260SOL    HW126459   8.603   9.457   2.726 -0.4624 -0.1308 -2.4896
 5260SOL    HW226460   8.752   9.391   2.734  0.2115  1.5881 -0.1459
 5261SOL     OW26461   0.742   8.963   1.647  0.0390 -0.2203  0.3382
 5261SOL    HW126462   0.748   8.889   1.580  1.5076  1.0499 -0.9628
 5261SOL    HW226463   0.658   8.952   1.701 -0.4674 -2.0344 -0.7687
 5262SOL     OW26464   0.655   8.269   0.547  0.2052 -0.1645 -0.0662
 5262SOL    HW126465   0.673   8.171   0.536 -1.9678 -0.4942 -0.9716
 5262SOL    HW226466   0.726   8.321   0.501  0.2963 -1.3629 -1.3268
 5263SOL     OW26467   2.558   7.419   2.867  0.6668  0.1232 -0.1452
 5263SOL    HW126468   2.545   7.333   2.818 -1.3438  0.1083  0.3738
 5263SOL    HW226469   2.537   7.496   2.807  0.6540  0.1978 -0.0473
 5264SOL     OW26470   2.083   0.844   0.340  0.2722  1.1278 -0.0937
 5264SOL    HW126471   2.131   0.892   0.266  0.2849  1.3648  0.0691
 5264SOL    HW226472   2.111   0.748   0.341  0.9007  1.3103  0.1336
 5265SOL     OW26473   3.169   2.664   2.132  0.5922  0.0168  0.4731
 5265SOL    HW126474   3.092   2.653   2.195 -0.3518  2.7843 -0.1451
 5265SOL    HW226475   3.162   2.752   2.085  3.7355 -0.0046 -0.1618
 5266SOL     OW26476   3.889   4.169   3.967 -0.6380 -0.2119  0.4747
 5266SOL    HW126477   3.808   4.194   3.914 -0.5297  0.8824  0.8143
 5266SOL    HW226478   3.971   4.186   3.912 -0.5949 -0.5563  0.4287
 5267SOL     OW26479   1.410   5.608   3.106  0.6204 -0.1346  0.5877
 5267SOL    HW126480   1.421   5.706   3.090  0.7497  0.0793  1.8875
 5267SOL    HW226481   1.312   5.586   3.112  0.5919 -0.0618  0.3699
 5268SOL     OW26482   3.311   2.514   4.688 -0.1281  0.4547  0.2659
 5268SOL    HW126483   3.229   2.500   4.632  0.4951 -0.2650 -0.4901
 5268SOL    HW226484   3.392   2.498   4.631  0.5246  0.4092  1.2075
 5269SOL     OW26485   4.375   7.433   2.350  0.0643  0.2733 -0.1493
 5269SOL    HW126486   4.430   7.368   2.402 -0.4695 -1.5230 -1.7543
 5269SOL    HW226487   4.288   7.390   2.326 -0.4106  1.6911 -1.0163
 5270SOL     OW26488   3.319   3.897   0.876 -0.1847 -0.0172 -0.2190
 5270SOL    HW126489   3.273   3.912   0.789  0.7540  0.3418 -0.6647
 5270SOL    HW226490   3.378   3.816   0.868 -0.0913  0.0218  0.0803
 5271SOL     OW26491   9.997   5.638   2.107  0.6003  0.0283  0.0405
 5271SOL    HW126492   9.926   5.703   2.078  0.6915  0.7300  1.3560
 5271SOL    HW226493   9.987   5.553   2.056 -1.5826 -0.1121  0.6360
 5272SOL     OW26494   9.623   0.856   0.892  0.1767  0.5970 -0.0127
 5272SOL    HW126495   9.581   0.771   0.923  0.3648  0.0758 -1.2039
 5272SOL    HW226496   9.573   0.892   0.814  1.5878  0.2711 -1.0838
 5273SOL     OW26497   9.304   4.701   2.271 -0.3538  0.5396 -0.2550
 5273SOL    HW126498   9.216   4.682   2.314 -0.5805 -1.0792 -1.3454
 5273SOL    HW226499   9.289   4.753   2.186 -0.1573  1.2383  0.1374
 5274SOL     OW26500   5.001   3.380   0.367 -0.1141 -0.3316 -0.2113
 5274SOL    HW126501   4.936   3.418   0.433  1.7233  0.4711  1.2033
 5274SOL    HW226502   5.084   3.352   0.416  0.7790 -0.9204 -2.0398
 5275SOL     OW26503   2.303   4.727   2.432  0.1499  0.0286 -0.2544
 5275SOL    HW126504   2.314   4.732   2.333  0.3563  1.3979 -0.1750
 5275SOL    HW226505   2.224   4.670   2.455 -0.6250  0.7107 -1.2424
 5276SOL     OW26506   2.581   7.109   4.091 -0.3143 -0.1059  0.3305
 5276SOL    HW126507   2.668   7.064   4.113 -0.5228 -0.6323  0.0735
 5276SOL    HW226508   2.512   7.084   4.159 -0.3852 -0.0330  0.2863
 5277SOL     OW26509   5.500   9.218   1.964  0.2243 -0.2193  0.5973
 5277SOL    HW126510   5.420   9.276   1.979  0.1353 -0.2181  0.1156
 5277SOL    HW226511   5.571   9.242   2.032  0.7406  1.4635 -0.4945
 5278SOL     OW26512   9.014   7.668   0.750 -0.1152 -0.5034  0.6727
 5278SOL    HW126513   8.989   7.708   0.662 -0.6630  1.8738  1.8831
 5278SOL    HW226514   9.114   7.673   0.762 -0.0975 -0.3180  0.4421
 5279SOL     OW26515   1.017   7.214   3.985  0.0103  0.2430 -0.1014
 5279SOL    HW126516   0.964   7.234   3.903  0.0986 -0.3601 -0.3082
 5279SOL    HW226517   1.099   7.161   3.960  0.9396  1.5237  0.1531
 5280SOL     OW26518   1.325   8.696   0.939  0.1001  0.0122 -0.1051
 5280SOL    HW126519   1.345   8.783   0.893 -1.5999 -0.7010 -2.2621
 5280SOL    HW226520   1.267   8.640   0.881 -0.4329 -1.7949  2.0883
 5281SOL     OW26521   1.340   0.957   3.653  0.5035  0.3050 -0.5372
 5281SOL    HW126522   1.261   1.013   3.677  0.6726  0.4848 -0.3991
 5281SOL    HW226523   1.405   0.956   3.729  0.4366 -0.1934 -0.4873
 5282SOL     OW26524   2.540   5.004   4.278  0.1459  0.3443 -0.2360
 5282SOL    HW126525   2.619   5.020   4.337  1.1726 -0.6532 -1.3030
 5282SOL    HW226526   2.565   5.027   4.184 -0.8336 -0.0179 -0.5827
 5283SOL     OW26527   3.511   0.416   0.944 -0.2111  1.0048 -0.6822
 5283SOL    HW126528   3.421   0.428   0.902  1.2072  2.2213 -3.4769
 5283SOL    HW226529   3.540   0.503   0.985  0.5667  1.2005 -1.6275
 5284SOL     OW26530   0.065   6.492   2.088  0.2700  0.2358  0.7717
 5284SOL    HW126531   0.072   6.592   2.099 -1.2506  0.4068  0.3249
 5284SOL    HW226532  -0.004   6.457   2.151 -2.1098  0.0291 -1.8592
 5285SOL     OW26533   3.346   3.656   0.126 -0.1202 -0.9989 -0.2074
 5285SOL    HW126534   3.386   3.747   0.131  0.0481 -1.1348  1.1177
 5285SOL    HW226535   3.272   3.648   0.193 -0.9465 -1.4503 -1.1455
 5286SOL     OW26536   7.365   0.547   0.150  0.1687  0.1029 -0.2419
 5286SOL    HW126537   7.369   0.451   0.178  0.6539 -0.1932 -1.3377
 5286SOL    HW226538   7.335   0.553   0.055  3.5869  0.8527 -1.3239
 5287SOL     OW26539   1.188   6.030   3.958 -0.5364 -0.8025 -0.4702
 5287SOL    HW126540   1.212   6.122   3.989 -0.7721 -1.3864  1.4582
 5287SOL    HW226541   1.097   6.032   3.917  0.4363  0.2880 -2.6866
 5288SOL     OW26542   1.994   1.057   2.707  0.1395  0.1183  0.4484
 5288SOL    HW126543   2.001   1.081   2.610 -0.5185  0.2708  0.4371
 5288SOL    HW226544   2.017   0.960   2.719  1.6637  0.4471  0.3410
 5289SOL     OW26545   9.292   8.733   3.062  0.6964  0.1397  0.2846
 5289SOL    HW126546   9.275   8.670   2.986  0.4158  2.2035 -1.3870
 5289SOL    HW226547   9.210   8.788   3.079  1.1518  0.5145  1.3175
 5290SOL     OW26548   8.385   0.168   1.568 -0.2445 -0.0992 -0.1426
 5290SOL    HW126549   8.473   0.122   1.583 -0.0591  0.4936  0.5721
 5290SOL    HW226550   8.325   0.107   1.516  0.8637 -0.2075 -1.3293
 5291SOL     OW26551   9.194   0.329   2.898 -0.3635 -0.3440 -0.5069
 5291SOL    HW126552   9.101   0.293   2.908  0.1974 -1.9552 -1.0145
 5291SOL    HW226553   9.239   0.284   2.821  0.7459  0.6350 -0.4337
 5292SOL     OW26554   2.806   6.407   3.407  0.4413  0.9681  0.4191
 5292SOL    HW126555   2.740   6.332   3.398  0.4623  0.8169  1.5607
 5292SOL    HW226556   2.760   6.487   3.445  0.7039  1.1684  0.3170
 5293SOL     OW26557   0.386   7.747   3.352 -0.5155  0.2458  0.1976
 5293SOL    HW126558   0.386   7.757   3.452 -0.9562 -0.8178  0.3206
 5293SOL    HW226559   0.293   7.730   3.320 -0.3555  0.4372 -0.3763
 5294SOL     OW26560   7.818   8.171   2.792 -0.4658  0.5297 -0.3331
 5294SOL    HW126561   7.827   8.217   2.880  0.6317 -1.1062  0.4215
 5294SOL    HW226562   7.722   8.149   2.776 -0.6473  0.6771  0.5231
 5295SOL     OW26563   0.085   1.466   2.535 -0.0100 -0.4806  0.8075
 5295SOL    HW126564   0.093   1.395   2.605 -0.4019 -0.8497  0.4888
 5295SOL    HW226565  -0.009   1.467   2.500 -0.2114  0.7342  1.3690
 5296SOL     OW26566   2.642   7.276   3.299 -0.4443 -0.0415 -0.0439
 5296SOL    HW126567   2.611   7.202   3.240  0.4927 -0.3270 -0.1879
 5296SOL    HW226568   2.649   7.361   3.246 -1.7795  0.2191  0.1835
 5297SOL     OW26569   4.315   3.059   1.499 -0.8027 -0.0152 -0.0954
 5297SOL    HW126570   4.310   3.027   1.594 -0.0967  0.6023  0.1517
 5297SOL    HW226571   4.324   2.981   1.438 -0.0862 -0.3536  0.4352
 5298SOL     OW26572   4.666   0.406   0.028  0.2591  0.4059 -0.4346
 5298SOL    HW126573   4.681   0.456  -0.058  0.0840  0.7578 -0.2625
 5298SOL    HW226574   4.722   0.323   0.028 -1.0558 -0.5028 -1.6326
 5299SOL     OW26575   1.468   6.977   2.787 -0.0888 -0.9697 -0.0745
 5299SOL    HW126576   1.447   6.943   2.695  1.1759 -0.3932 -0.5828
 5299SOL    HW226577   1.567   6.985   2.798 -0.3163  2.4109  0.0509
 5300SOL     OW26578   8.102   6.621   3.049 -0.1194  0.0350  0.3832
 5300SOL    HW126579   8.187   6.590   3.005  0.5121  1.1217  0.8200
 5300SOL    HW226580   8.024   6.580   3.002  0.4926  1.9210 -2.4516
 5301SOL     OW26581   0.014   3.131   3.814 -0.1155  0.0253  0.2429
 5301SOL    HW126582   0.079   3.068   3.858  0.5061  0.0493 -0.6448
 5301SOL    HW226583  -0.042   3.080   3.749  0.5280  0.4254 -0.6297
 5302SOL     OW26584   4.439   0.168   1.476 -0.0675 -0.1728  0.4289
 5302SOL    HW126585   4.450   0.079   1.520 -2.1853 -0.6301  0.0804
 5302SOL    HW226586   4.451   0.240   1.545 -1.2697 -0.8207  1.3394
 5303SOL     OW26587   7.938   9.313   2.592 -0.5587 -0.1919  0.3612
 5303SOL    HW126588   7.986   9.390   2.549 -0.7815  0.0741  0.5788
 5303SOL    HW226589   8.003   9.241   2.615 -0.4710 -0.4377 -0.6416
 5304SOL     OW26590   0.421   8.069   1.577  0.0634 -0.0016 -0.2088
 5304SOL    HW126591   0.471   8.153   1.554 -1.3179  1.6612  2.5469
 5304SOL    HW226592   0.367   8.040   1.498  0.1509  2.0034 -1.0472
 5305SOL     OW26593   9.227   5.396   1.381  0.2107  0.1583 -0.3931
 5305SOL    HW126594   9.220   5.382   1.282  0.8350 -0.1098 -0.3982
 5305SOL    HW226595   9.322   5.390   1.409  0.4841  3.9919 -0.3107
 5306SOL     OW26596   0.969   4.207   2.426  0.1016  0.5759 -0.4441
 5306SOL    HW126597   1.061   4.243   2.437  0.1093  0.1664  0.9867
 5306SOL    HW226598   0.932   4.235   2.337  0.7781  2.5515 -0.1227
 5307SOL     OW26599   2.585   5.910   2.395 -0.1403 -0.2629  0.2093
 5307SOL    HW126600   2.544   5.909   2.486 -0.4901  0.4559  0.0631
 5307SOL    HW226601   2.664   5.971   2.395 -0.4206  0.1009 -0.0875
 5308SOL     OW26602   8.055   6.776   0.084 -0.2058 -0.6604  0.5154
 5308SOL    HW126603   8.068   6.800   0.180  1.6294 -0.8620  0.3481
 5308SOL    HW226604   7.995   6.843   0.040  1.4779  1.2606  1.0672
 5309SOL     OW26605   2.188   1.213   0.381  0.1649 -0.1028  0.8349
 5309SOL    HW126606   2.126   1.149   0.337  0.7230  0.2403 -0.4543
 5309SOL    HW226607   2.238   1.166   0.454 -1.0127 -0.5739  1.3452
 5310SOL     OW26608   9.134   1.035   0.580 -0.8592 -0.6244  0.0493
 5310SOL    HW126609   9.145   0.966   0.652 -0.8714 -1.0806 -0.3886
 5310SOL    HW226610   9.057   1.095   0.603 -1.1907 -1.0898  0.1558
 5311SOL     OW26611   2.071   2.079   2.098 -0.2633  0.2686  0.8171
 5311SOL    HW126612   2.018   2.125   2.169 -0.1850  0.4476  0.7614
 5311SOL    HW226613   2.023   2.087   2.011  0.2648  1.1914  0.5917
 5312SOL     OW26614   9.158   8.410   4.434 -0.3358 -0.3783 -0.1606
 5312SOL    HW126615   9.080   8.347   4.428 -0.2188 -0.4072 -1.4133
 5312SOL    HW226616   9.210   8.389   4.517 -1.8633 -0.1126  0.8931
 5313SOL     OW26617   4.270   2.090   1.685 -0.1798 -0.1303 -0.1641
 5313SOL    HW126618   4.253   2.121   1.779  0.3340  2.5951 -0.9281
 5313SOL    HW226619   4.184   2.057   1.645 -0.5418 -0.6585  1.0057
 5314SOL     OW26620   9.372   6.443   0.404  0.0715 -0.0924 -0.2475
 5314SOL    HW126621   9.392   6.425   0.500  0.5718 -1.6224 -0.6267
 5314SOL    HW226622   9.440   6.506   0.367 -0.1711  0.5632  0.4121
 5315SOL     OW26623   8.234   5.810   0.746 -0.9281 -0.0435  0.2363
 5315SOL    HW126624   8.288   5.808   0.662 -2.0959  1.4301 -0.5685
 5315SOL    HW226625   8.279   5.755   0.816 -0.0520 -1.4645 -1.4113
 5316SOL     OW26626   8.827   3.586   2.451 -0.0471  1.0535 -0.8326
 5316SOL    HW126627   8.839   3.660   2.518 -0.3961  0.3439  0.0150
 5316SOL    HW226628   8.749   3.607   2.393 -1.9095  0.0350  1.2103
 5317SOL     OW26629   5.036   0.407   2.538 -0.5434  0.0734 -0.2640
 5317SOL    HW126630   4.967   0.459   2.588 -0.1291  1.4056 -1.0654
 5317SOL    HW226631   5.078   0.465   2.468 -1.1429 -1.7411 -2.1984
 5318SOL     OW26632   9.842   5.364   2.751  0.5054 -0.6542  0.3626
 5318SOL    HW126633   9.939   5.372   2.775  0.4651 -0.6622  0.5328
 5318SOL    HW226634   9.824   5.417   2.668  0.7612 -1.0635  0.0440
 5319SOL     OW26635   4.533   1.250   0.360 -0.0811  0.2767 -0.3761
 5319SOL    HW126636   4.592   1.220   0.285  0.5644 -0.3624  0.3682
 5319SOL    HW226637   4.580   1.234   0.447 -1.0058  0.5829  0.1869
 5320SOL     OW26638   8.423   1.248   1.795  0.1013 -0.5091 -0.1214
 5320SOL    HW126639   8.327   1.227   1.813 -0.3397  1.2224 -0.3202
 5320SOL    HW226640   8.429   1.305   1.713  1.4496 -1.9994 -1.0736
 5321SOL     OW26641   1.377   8.524   1.183  0.3331 -0.0601 -0.1619
 5321SOL    HW126642   1.408   8.565   1.097  0.6761  0.2100  0.0892
 5321SOL    HW226643   1.416   8.574   1.260  0.0057 -0.2865  0.1537
 5322SOL     OW26644   0.327   5.852   2.336  0.1062 -0.7458 -0.4162
 5322SOL    HW126645   0.345   5.847   2.434  1.5451 -1.2299 -0.6934
 5322SOL    HW226646   0.308   5.761   2.300 -3.0348 -0.2647 -0.1412
 5323SOL     OW26647   4.437   9.730   4.619 -0.0078 -0.4667 -0.0002
 5323SOL    HW126648   4.441   9.699   4.524  1.5694  0.5699 -0.2858
 5323SOL    HW226649   4.516   9.787   4.639 -1.5766  1.3112  1.2622
 5324SOL     OW26650   3.137   9.858   3.428  0.0955  0.2815  0.1145
 5324SOL    HW126651   3.220   9.844   3.374 -1.2466 -0.8496 -1.7354
 5324SOL    HW226652   3.142   9.807   3.513  1.4180  0.4803  0.1587
 5325SOL     OW26653   3.498   1.831   3.831 -0.0182 -0.4198  0.2597
 5325SOL    HW126654   3.403   1.828   3.803 -0.4656 -0.3329  1.7284
 5325SOL    HW226655   3.507   1.796   3.925  1.4942 -1.1777 -0.1381
 5326SOL     OW26656   1.708   8.898   3.426 -0.2656 -0.0240  0.4197
 5326SOL    HW126657   1.713   8.946   3.513 -1.4981  0.3528  0.2984
 5326SOL    HW226658   1.647   8.947   3.364  2.1084  0.7892 -1.3675
 5327SOL     OW26659   4.018   8.204   0.281  0.2655  0.1949  0.6092
 5327SOL    HW126660   3.966   8.277   0.238  2.1160  0.6114 -0.9893
 5327SOL    HW226661   3.978   8.115   0.256  0.1148  0.5222 -0.3283
 5328SOL     OW26662   8.319   1.778   3.597  0.0824 -0.3871 -0.2297
 5328SOL    HW126663   8.379   1.805   3.520  0.9048  0.4444  0.6804
 5328SOL    HW226664   8.224   1.800   3.574  0.5243  1.6498 -0.2762
 5329SOL     OW26665   8.465   9.476   1.835 -0.0950  0.0390  0.5455
 5329SOL    HW126666   8.536   9.409   1.814  0.3088  0.5759  0.1891
 5329SOL    HW226667   8.386   9.430   1.876  0.1107 -0.6736  0.1345
 5330SOL     OW26668   0.696   7.046   3.221 -0.3284  0.3518  0.5108
 5330SOL    HW126669   0.689   7.033   3.122 -0.3378 -0.0076  0.5577
 5330SOL    HW226670   0.711   6.957   3.265 -0.8613  0.4429  0.8770
 5331SOL     OW26671   3.594   0.714   1.946 -0.8288 -0.1244 -0.2493
 5331SOL    HW126672   3.557   0.722   2.038 -1.2925 -0.7960 -0.3744
 5331SOL    HW226673   3.535   0.762   1.881  0.0621  1.2518 -0.0578
 5332SOL     OW26674   9.703   9.054   2.803  0.0743 -0.7444 -0.2765
 5332SOL    HW126675   9.732   8.959   2.789 -0.7219 -1.1572  0.7723
 5332SOL    HW226676   9.768   9.101   2.862  1.4755 -0.0689 -2.2943
 5333SOL     OW26677   3.356   7.812   0.014  0.1723 -0.3800 -0.0338
 5333SOL    HW126678   3.425   7.802  -0.058 -0.0354 -1.6529 -0.0693
 5333SOL    HW226679   3.318   7.722   0.037 -0.2814  0.0997  1.1621
 5334SOL     OW26680   7.703   1.949   1.065 -0.2629  0.3745  0.1003
 5334SOL    HW126681   7.793   1.916   1.095 -0.0121  0.1192 -0.9201
 5334SOL    HW226682   7.633   1.884   1.094 -0.0164  0.1053  0.0991
 5335SOL     OW26683   8.737   3.519   3.036  0.2621 -0.0908 -0.0909
 5335SOL    HW126684   8.795   3.500   3.115 -0.9400  1.2509  1.1504
 5335SOL    HW226685   8.666   3.448   3.029 -1.6515  1.5524  2.0324
 5336SOL     OW26686   6.023   8.599   2.350  0.2040  0.2738 -0.7888
 5336SOL    HW126687   6.016   8.572   2.254 -0.5310 -1.7304 -0.1974
 5336SOL    HW226688   6.110   8.644   2.366  0.7803 -0.3400 -2.1642
 5337SOL     OW26689   8.492   6.667   2.483  0.3403 -0.2972 -0.5089
 5337SOL    HW126690   8.591   6.661   2.495  0.3692 -2.0416 -1.3925
 5337SOL    HW226691   8.470   6.736   2.414  0.9928 -0.4444 -0.8665
 5338SOL     OW26692   0.331   6.823   0.029  0.5806  0.0949 -0.4380
 5338SOL    HW126693   0.288   6.912   0.043 -0.8097 -0.4712 -1.1354
 5338SOL    HW226694   0.264   6.757  -0.002  1.9736 -0.7640 -1.7083
 5339SOL     OW26695   2.225   6.149   1.609  0.1052 -0.1958  0.6574
 5339SOL    HW126696   2.188   6.072   1.660  1.4092 -0.9461  0.5075
 5339SOL    HW226697   2.161   6.226   1.613  0.5608  0.0704  4.1302
 5340SOL     OW26698   9.730   0.718   3.552  0.3619 -0.6097  0.4927
 5340SOL    HW126699   9.647   0.747   3.600  1.5031 -0.9935  2.7721
 5340SOL    HW226700   9.810   0.749   3.603  1.6404 -0.4036 -1.5808
 5341SOL     OW26701   1.578   1.404   4.031  0.0335 -0.4328 -0.1469
 5341SOL    HW126702   1.543   1.355   4.110  0.8645 -0.3717  0.2641
 5341SOL    HW226703   1.658   1.459   4.058 -0.5741  0.7421 -0.7071
 5342SOL     OW26704   1.355   4.678   3.540  0.4506 -0.1749 -0.7102
 5342SOL    HW126705   1.356   4.700   3.637  0.1491 -0.6240 -0.6063
 5342SOL    HW226706   1.438   4.626   3.517  1.5415  1.6841 -1.1055
 5343SOL     OW26707   0.288   4.732   4.475  0.1285  0.3136 -0.5945
 5343SOL    HW126708   0.207   4.776   4.437 -0.0734 -0.0158 -0.5479
 5343SOL    HW226709   0.342   4.692   4.401 -0.1750 -0.1770 -0.5541
 5344SOL     OW26710   4.726   9.479   0.977 -0.0908 -0.0438  0.1497
 5344SOL    HW126711   4.756   9.392   1.017  1.7671  0.1178 -0.8603
 5344SOL    HW226712   4.805   9.530   0.945 -1.3983  0.7041 -2.0015
 5345SOL     OW26713   7.530   0.334   0.675 -0.2888 -0.1003  0.0674
 5345SOL    HW126714   7.601   0.402   0.688 -1.3964  0.6451  2.4716
 5345SOL    HW226715   7.555   0.250   0.722 -0.7167 -0.0357  0.4161
 5346SOL     OW26716   8.298   9.621   1.570  0.7638  0.1578 -0.2244
 5346SOL    HW126717   8.246   9.624   1.485  0.1922 -0.6963  0.0828
 5346SOL    HW226718   8.341   9.710   1.586 -0.5493  0.8689 -0.5249
 5347SOL     OW26719   2.211   9.500   3.840  0.1429  0.3306  0.6324
 5347SOL    HW126720   2.151   9.579   3.824  0.4903  0.3855 -0.4345
 5347SOL    HW226721   2.171   9.418   3.799  0.4383  0.2167  0.5664
 5348SOL     OW26722   0.681   9.334   4.481 -0.1995 -0.4579  0.5742
 5348SOL    HW126723   0.623   9.319   4.401 -0.9425 -1.5944  1.3069
 5348SOL    HW226724   0.661   9.423   4.521 -0.1972 -0.1089 -0.2048
 5349SOL     OW26725   7.326   0.054   0.031 -0.2473  0.8785 -0.3795
 5349SOL    HW126726   7.375  -0.018  -0.019  0.4463  0.3026  1.1121
 5349SOL    HW226727   7.265   0.102  -0.032 -1.1944 -1.4189 -1.2769
 5350SOL     OW26728   8.493   6.968   0.099 -0.1694 -0.1027  0.1621
 5350SOL    HW126729   8.449   7.014   0.176 -0.9014  0.2973 -0.4907
 5350SOL    HW226730   8.448   6.994   0.014  0.8740 -0.2520 -0.4472
 5351SOL     OW26731   8.073   0.592   1.749 -0.4312 -0.1855 -0.3439
 5351SOL    HW126732   8.017   0.560   1.673  0.1618  0.8564 -1.2284
 5351SOL    HW226733   8.016   0.602   1.831 -1.7499  1.7755 -1.4717
 5352SOL     OW26734   8.499   8.829   3.935  0.6393 -0.0357  0.7191
 5352SOL    HW126735   8.519   8.826   3.837  0.2206  0.2977  0.6215
 5352SOL    HW226736   8.427   8.896   3.952 -0.0236 -0.8487  1.1337
 5353SOL     OW26737   0.373   0.846   2.265 -0.0617 -0.3176 -0.2653
 5353SOL    HW126738   0.307   0.894   2.323 -0.1008 -0.6537 -0.0311
 5353SOL    HW226739   0.465   0.857   2.302 -0.1557 -0.9971  0.1659
 5354SOL     OW26740   7.914   1.976   1.711 -0.0367 -0.5066 -0.4785
 5354SOL    HW126741   7.950   1.996   1.620 -0.8238  0.4876 -0.5781
 5354SOL    HW226742   7.979   2.009   1.780  0.3545 -0.8638 -0.6750
 5355SOL     OW26743   7.602   8.744   1.653 -0.5302  0.4054 -0.1092
 5355SOL    HW126744   7.614   8.655   1.610 -0.8861 -0.1672  0.9382
 5355SOL    HW226745   7.509   8.777   1.635 -0.3666  0.6045 -0.5784
 5356SOL     OW26746   4.159   9.747   3.954  0.4205  0.0564 -0.5781
 5356SOL    HW126747   4.110   9.662   3.975  2.6793 -1.2290 -0.3883
 5356SOL    HW226748   4.097   9.810   3.907 -1.6030 -1.2512  0.2862
 5357SOL     OW26749   9.280   5.812   2.550  0.1537  0.0737 -0.1748
 5357SOL    HW126750   9.264   5.714   2.532  0.5709 -0.4394  2.1083
 5357SOL    HW226751   9.372   5.824   2.587  0.2782  1.4054 -0.9112
 5358SOL     OW26752   9.080   7.643   2.300 -0.0938  0.3152  0.1632
 5358SOL    HW126753   9.052   7.575   2.231  0.2017 -0.2978  0.6369
 5358SOL    HW226754   9.050   7.612   2.390  0.5155  0.5532  0.4453
 5359SOL     OW26755   0.048   0.752   0.918 -0.3411  0.1235 -0.1526
 5359SOL    HW126756   0.127   0.766   0.978  0.4572 -1.8156 -0.7311
 5359SOL    HW226757   0.012   0.841   0.891  1.2112  1.0401  0.6802
 5360SOL     OW26758   3.855   4.055   1.135  0.3784 -0.2934 -0.2652
 5360SOL    HW126759   3.853   4.123   1.062  1.4694  0.5246  0.4550
 5360SOL    HW226760   3.882   3.966   1.098 -0.5033 -0.2115 -1.1081
 5361SOL     OW26761   1.298   3.081   0.253 -0.7761  0.1244 -0.3583
 5361SOL    HW126762   1.379   3.023   0.265 -0.7649  0.2333  0.1102
 5361SOL    HW226763   1.322   3.161   0.198 -0.4352  0.4172  0.2074
 5362SOL     OW26764   0.030   8.920   2.362 -0.8423  0.2197 -0.0575
 5362SOL    HW126765  -0.005   8.868   2.284 -5.1819  1.6416  0.8426
 5362SOL    HW226766   0.015   9.018   2.348  2.5472  0.9007  0.5702
 5363SOL     OW26767   8.930   6.413   3.907  0.1092  0.3887 -0.4104
 5363SOL    HW126768   8.942   6.482   3.978 -0.6312 -0.6497  0.7422
 5363SOL    HW226769   9.019   6.375   3.882  0.2833  0.1232  0.6043
 5364SOL     OW26770   6.824   9.490   3.832  0.6651 -0.4024  0.4212
 5364SOL    HW126771   6.893   9.541   3.883  1.1584  0.5681 -1.1917
 5364SOL    HW226772   6.868   9.434   3.763 -0.0880 -0.6309  0.1155
 5365SOL     OW26773   8.536   7.244   0.889  0.4452  0.6489  0.3082
 5365SOL    HW126774   8.565   7.327   0.842  0.6484  0.8222  0.7358
 5365SOL    HW226775   8.589   7.232   0.973 -0.8308  1.0776  1.1973
 5366SOL     OW26776   8.313   0.307   0.507 -0.1814  0.0502  0.2895
 5366SOL    HW126777   8.369   0.245   0.452 -0.3289 -0.0601  0.2639
 5366SOL    HW226778   8.364   0.337   0.588 -0.2834 -0.4858  0.5538
 5367SOL     OW26779   2.920   1.675   3.185  0.3067  0.3615  0.3947
 5367SOL    HW126780   2.940   1.608   3.113  0.0488 -0.6156  1.2190
 5367SOL    HW226781   2.845   1.735   3.155  0.9329  0.6610 -0.5824
 5368SOL     OW26782   2.801   2.084   4.547  0.2189 -0.0621  0.2389
 5368SOL    HW126783   2.761   2.074   4.456  0.5370  0.1722  0.0725
 5368SOL    HW226784   2.738   2.135   4.605  0.0022 -0.2356  0.1583
 5369SOL     OW26785   2.173   0.240   3.802  0.0847  0.2437 -0.2049
 5369SOL    HW126786   2.100   0.262   3.736  0.6014  0.3193 -0.7535
 5369SOL    HW226787   2.230   0.167   3.765 -0.8193 -1.1071  1.0276
 5370SOL     OW26788   4.591   3.815   1.058 -0.0815  0.0244  0.0822
 5370SOL    HW126789   4.578   3.758   0.976 -0.6741  1.0447 -0.5398
 5370SOL    HW226790   4.612   3.756   1.136 -1.3917 -1.1156 -0.4023
 5371SOL     OW26791   3.517   1.528   3.000  0.1152 -0.1809 -0.3863
 5371SOL    HW126792   3.493   1.515   3.096  0.7797 -3.1561 -0.5603
 5371SOL    HW226793   3.433   1.532   2.946 -0.2474  0.8420  0.2417
 5372SOL     OW26794   9.716   2.844   4.219 -0.7401  0.6683  0.3331
 5372SOL    HW126795   9.739   2.929   4.172 -0.5427  0.6571  0.4114
 5372SOL    HW226796   9.709   2.860   4.317  0.2328  0.3968  0.4501
 5373SOL     OW26797   3.499   6.497   1.876  0.4037  0.8269  0.0239
 5373SOL    HW126798   3.527   6.448   1.959 -1.4561  0.8356  0.6847
 5373SOL    HW226799   3.429   6.443   1.828 -0.1427  1.8579 -0.3464
 5374SOL     OW26800   4.630   2.570   0.575  0.2133  0.3947 -0.5282
 5374SOL    HW126801   4.547   2.555   0.523  0.3579 -1.1365 -0.3186
 5374SOL    HW226802   4.710   2.555   0.516  0.3591  0.0506 -0.2462
 5375SOL     OW26803   9.883   0.966   4.571 -0.0148 -0.0626  0.6728
 5375SOL    HW126804   9.789   1.000   4.573  0.2065  0.4591  3.3174
 5375SOL    HW226805   9.914   0.946   4.664  1.7106 -2.4610 -0.3441
 5376SOL     OW26806   4.042   9.594   1.187 -0.1677  0.6029 -0.4207
 5376SOL    HW126807   3.954   9.638   1.201  0.5447  2.0484 -0.3737
 5376SOL    HW226808   4.115   9.662   1.194  0.8342 -0.2397 -2.1210
 5377SOL     OW26809   8.553   1.419   0.254  0.0270  0.1268  0.4861
 5377SOL    HW126810   8.455   1.420   0.232  0.5478 -2.5098 -2.2734
 5377SOL    HW226811   8.603   1.472   0.185  0.8372 -1.2858 -0.0360
 5378SOL     OW26812   2.845   9.268   3.612 -0.2012 -0.3258  0.4117
 5378SOL    HW126813   2.879   9.219   3.693 -1.2370 -1.3023  0.2788
 5378SOL    HW226814   2.898   9.352   3.599 -0.0324 -0.1401  2.1231
 5379SOL     OW26815   9.584   7.833   2.381  0.1357 -0.5334 -0.1914
 5379SOL    HW126816   9.511   7.777   2.343  1.1381 -1.4191 -0.8375
 5379SOL    HW226817   9.573   7.928   2.351 -0.0723 -0.8910 -1.2406
 5380SOL     OW26818   9.862   2.741   0.970 -0.7498  0.4467 -0.7807
 5380SOL    HW126819   9.905   2.675   1.032  0.1619 -0.2921 -2.1826
 5380SOL    HW226820   9.763   2.738   0.983 -0.6141 -0.1660  0.1787
 5381SOL     OW26821   9.715   9.838   1.616  0.4072  0.0959  0.1936
 5381SOL    HW126822   9.657   9.901   1.564  0.2247 -0.5287 -0.3741
 5381SOL    HW226823   9.810   9.853   1.591  0.4141  0.5495  0.4960
 5382SOL     OW26824   4.262   8.736   4.138  0.1546  0.4232  0.3110
 5382SOL    HW126825   4.179   8.750   4.193 -0.5206 -0.6477 -0.4121
 5382SOL    HW226826   4.334   8.697   4.196 -0.2167  0.2936  0.6899
 5383SOL     OW26827   7.985   2.728   0.773 -0.4937 -0.2419 -0.4598
 5383SOL    HW126828   7.931   2.702   0.853 -0.7564  0.0592 -0.5394
 5383SOL    HW226829   7.928   2.782   0.711 -0.1620 -0.1050 -0.6432
 5384SOL     OW26830   5.389   9.443   2.988 -0.4775 -0.4954  0.6791
 5384SOL    HW126831   5.368   9.357   2.942  0.3790 -0.5894  0.4459
 5384SOL    HW226832   5.475   9.433   3.039  0.8245  0.8750 -1.1534
 5385SOL     OW26833   5.881   8.517   2.569  0.7169 -0.4202 -0.0342
 5385SOL    HW126834   5.871   8.418   2.571  0.6030 -0.3911  2.3170
 5385SOL    HW226835   5.918   8.545   2.480 -2.1188 -2.2581 -1.8808
 5386SOL     OW26836   1.695   8.903   3.729  0.0904  0.1538 -0.2912
 5386SOL    HW126837   1.615   8.864   3.683  0.0980  1.2443 -1.2473
 5386SOL    HW226838   1.666   8.975   3.792  0.2957  0.2750 -0.3344
 5387SOL     OW26839   4.278   2.139   0.308 -0.3489 -0.1771  0.7136
 5387SOL    HW126840   4.246   2.216   0.253 -2.0804 -2.2770 -1.3344
 5387SOL    HW226841   4.377   2.130   0.298 -0.4404  0.3995 -0.9035
 5388SOL     OW26842   9.897   1.013   0.885 -0.3341  0.1201  0.2558
 5388SOL    HW126843   9.908   1.088   0.950 -1.1442  1.1588 -0.7801
 5388SOL    HW226844   9.801   0.983   0.883 -0.4712  0.5788 -0.9523
 5389SOL     OW26845   1.559   3.058   2.861 -0.0578  0.1017 -0.4730
 5389SOL    HW126846   1.559   2.995   2.783  0.7323 -0.2022 -0.2258
 5389SOL    HW226847   1.559   3.152   2.828  0.5559 -0.0272 -0.8441
 5390SOL     OW26848   9.597   6.991   3.532 -0.2740 -0.4179 -0.4301
 5390SOL    HW126849   9.676   7.019   3.588  0.7298 -0.1109 -1.9587
 5390SOL    HW226850   9.628   6.927   3.462 -1.4758 -0.6230 -0.7712
 5391SOL     OW26851   4.853   9.738   2.146  0.1531 -0.3077 -0.0664
 5391SOL    HW126852   4.879   9.659   2.201  0.6197 -1.4706 -1.9074
 5391SOL    HW226853   4.911   9.816   2.169 -1.1988 -0.0576  2.7269
 5392SOL     OW26854   4.991   9.978   2.128  0.7143 -0.4191  0.0743
 5392SOL    HW126855   4.975  10.053   2.192  0.1165  0.5697 -1.2112
 5392SOL    HW226856   5.048  10.009   2.053  0.6810 -1.3233 -0.3343
 5393SOL     OW26857   4.901   7.931   2.219  0.4122 -0.2609 -0.3656
 5393SOL    HW126858   4.851   8.013   2.246  0.4766  0.0525 -1.1795
 5393SOL    HW226859   4.839   7.853   2.214  0.0074  0.1152 -1.3221
 5394SOL     OW26860   0.145   5.175   4.055  0.2754 -0.8271  0.3273
 5394SOL    HW126861   0.182   5.084   4.039  0.8963 -0.6258  0.5914
 5394SOL    HW226862   0.195   5.218   4.130 -0.6047 -0.6088  0.7939
 5395SOL     OW26863   0.491   4.812   2.752  0.6670 -0.1652 -0.6038
 5395SOL    HW126864   0.405   4.863   2.753  0.4130 -0.6029  0.5895
 5395SOL    HW226865   0.567   4.876   2.736  0.1660  0.2847 -1.2237
 5396SOL     OW26866   9.030   6.841   1.619  0.5164 -0.1887 -0.3048
 5396SOL    HW126867   9.127   6.821   1.604  0.7258  1.1360 -0.8132
 5396SOL    HW226868   9.020   6.905   1.695  0.0835  0.1486 -0.6425
 5397SOL     OW26869   0.607   8.058   3.313 -0.0218 -0.5234 -0.1170
 5397SOL    HW126870   0.654   8.144   3.292 -1.3031  0.2244 -0.0071
 5397SOL    HW226871   0.508   8.072   3.307 -0.2756 -1.6957  1.0297
 5398SOL     OW26872   1.420   4.129   3.609 -0.0509  0.6516  0.1438
 5398SOL    HW126873   1.438   4.043   3.562 -2.2151  0.4100 -0.3106
 5398SOL    HW226874   1.495   4.149   3.673  0.2971 -1.7664  0.5418
 5399SOL     OW26875   0.402   4.093   2.334  0.2324 -0.1892  0.6490
 5399SOL    HW126876   0.427   4.065   2.427 -1.3369 -0.3505  1.0470
 5399SOL    HW226877   0.303   4.110   2.331  0.4121  0.6389 -0.7843
 5400SOL     OW26878   1.287   9.194   2.021 -0.3101  0.0882 -0.0115
 5400SOL    HW126879   1.236   9.277   2.043  0.1176  0.6211 -0.9797
 5400SOL    HW226880   1.342   9.210   1.938  0.3794 -0.9013  0.2467
 5401SOL     OW26881   3.513   1.832   0.833 -0.2670 -0.0014 -0.4299
 5401SOL    HW126882   3.519   1.904   0.902  1.3073 -0.5047 -0.0224
 5401SOL    HW226883   3.515   1.874   0.742  0.5749  0.4827 -0.1984
 5402SOL     OW26884   0.500   8.519   4.233 -0.1394 -0.1004 -0.3683
 5402SOL    HW126885   0.528   8.612   4.211 -0.2065  0.1550  0.6223
 5402SOL    HW226886   0.423   8.493   4.175 -1.0851  0.9960  0.3847
 5403SOL     OW26887   3.387   0.098   2.137 -0.5607  0.4082 -0.3308
 5403SOL    HW126888   3.419   0.183   2.095  0.8523 -0.3129 -0.7640
 5403SOL    HW226889   3.456   0.064   2.201 -0.4539 -1.1550 -1.2387
 5404SOL     OW26890   0.985   5.414   0.037 -0.0869 -0.2761  0.5190
 5404SOL    HW126891   1.019   5.322   0.016 -1.6331 -0.3504 -1.8717
 5404SOL    HW226892   1.054   5.481   0.010 -0.2326 -0.5928 -0.6655
 5405SOL     OW26893   3.065   1.645   3.427 -0.4393  0.5302 -0.0758
 5405SOL    HW126894   3.004   1.665   3.351  1.1045  0.3829 -1.3753
 5405SOL    HW226895   3.018   1.665   3.514 -2.6645 -0.5418 -0.9932
 5406SOL     OW26896   8.475   6.798   1.689  0.4514  0.9036 -0.2165
 5406SOL    HW126897   8.522   6.757   1.610  0.6482  0.5454  0.0847
 5406SOL    HW226898   8.448   6.891   1.667 -0.6251  0.3886 -1.1672
 5407SOL     OW26899   9.617   6.852   3.036  0.1756  0.1094 -0.0774
 5407SOL    HW126900   9.709   6.893   3.037 -0.4545  1.6122 -1.0115
 5407SOL    HW226901   9.585   6.839   3.130  1.7940 -1.4770  0.2713
 5408SOL     OW26902   1.289   0.810   1.371  0.2030  0.0639 -0.6218
 5408SOL    HW126903   1.345   0.892   1.376  0.2410  0.0661 -1.1130
 5408SOL    HW226904   1.301   0.766   1.282  0.1257 -0.4325 -0.3886
 5409SOL     OW26905   7.912   7.167   1.458 -0.2254 -0.1550 -0.0281
 5409SOL    HW126906   7.828   7.191   1.409  1.1166 -1.8877 -3.3759
 5409SOL    HW226907   7.905   7.074   1.494 -0.7656  0.7053  2.1511
 5410SOL     OW26908   4.207   3.247   3.912  0.3815 -0.6758 -0.3809
 5410SOL    HW126909   4.159   3.246   4.000  0.2458  1.2919 -0.4267
 5410SOL    HW226910   4.303   3.220   3.926  1.0703  2.1632  0.8312
 5411SOL     OW26911   1.700   0.522   2.129 -0.7127 -0.0048 -0.1168
 5411SOL    HW126912   1.708   0.437   2.077 -0.7249 -0.9070  1.3098
 5411SOL    HW226913   1.792   0.556   2.151 -0.7129 -0.0687 -0.0178
 5412SOL     OW26914   2.413   5.682   0.538 -0.0392 -0.0024 -0.3486
 5412SOL    HW126915   2.395   5.594   0.582  1.7783  0.1200  0.7318
 5412SOL    HW226916   2.493   5.674   0.479  1.6434  1.4623  1.6336
 5413SOL     OW26917   1.404   3.877   4.631 -0.1919 -0.8609 -0.1803
 5413SOL    HW126918   1.485   3.838   4.675 -0.0273  1.0839  1.3304
 5413SOL    HW226919   1.433   3.944   4.562 -0.5014 -1.2330 -0.6728
 5414SOL     OW26920   4.305   1.231   4.139  0.0630 -0.9379 -0.0830
 5414SOL    HW126921   4.399   1.221   4.169  0.0689  0.3218  0.3188
 5414SOL    HW226922   4.244   1.233   4.218  0.0474  2.0226 -0.1209
 5415SOL     OW26923   2.598   1.235   1.906  0.6523 -0.2752 -0.0317
 5415SOL    HW126924   2.603   1.273   1.813  1.5766  0.7693  0.4412
 5415SOL    HW226925   2.551   1.146   1.903  0.3681 -0.0874 -1.4466
 5416SOL     OW26926   7.152   9.541   2.949  0.1327  0.0976 -0.2079
 5416SOL    HW126927   7.161   9.614   2.882 -0.4576  0.0684 -0.3223
 5416SOL    HW226928   7.111   9.461   2.905 -0.3648  0.1186  0.2138
 5417SOL     OW26929   0.639   6.047   4.196 -0.1194  0.3296 -0.3274
 5417SOL    HW126930   0.702   6.029   4.121 -1.0435 -0.5547 -0.9014
 5417SOL    HW226931   0.684   6.023   4.283  0.5942  0.4148 -0.6660
 5418SOL     OW26932   5.734   8.416   2.022  0.3797  0.0072 -0.3943
 5418SOL    HW126933   5.747   8.356   1.943 -1.6692 -2.7633  1.2710
 5418SOL    HW226934   5.641   8.453   2.022  0.1105 -0.6105  1.0656
 5419SOL     OW26935   8.057   8.237   1.743  0.0877 -0.9624  0.1136
 5419SOL    HW126936   7.974   8.237   1.687 -1.2723  0.2074  2.0392
 5419SOL    HW226937   8.108   8.152   1.729 -0.9101 -1.2593 -1.8505
 5420SOL     OW26938   0.586   7.215   2.559 -0.1895  1.1106  0.0643
 5420SOL    HW126939   0.571   7.198   2.462 -1.3283  1.0682  0.2428
 5420SOL    HW226940   0.605   7.312   2.574  0.8932  0.9612 -0.3040
 5421SOL     OW26941   3.106   4.165   1.288 -0.4593 -1.1063  0.5901
 5421SOL    HW126942   3.047   4.114   1.226 -2.3732  1.7776 -0.0312
 5421SOL    HW226943   3.077   4.150   1.382 -2.5113  0.5673  0.2733
 5422SOL     OW26944   3.181   8.230   0.853  0.3051 -0.3522 -0.0331
 5422SOL    HW126945   3.141   8.239   0.944 -2.0664  0.9026 -1.1426
 5422SOL    HW226946   3.252   8.160   0.854 -1.6006 -2.3349  2.1598
 5423SOL     OW26947   4.367   3.191   0.502 -0.4175 -0.1082  0.1217
 5423SOL    HW126948   4.438   3.206   0.433 -1.7531  2.5865 -0.7352
 5423SOL    HW226949   4.410   3.171   0.590  1.3659  0.1283 -0.6650
 5424SOL     OW26950   1.759   9.354   1.280 -0.0237 -0.1618 -0.3137
 5424SOL    HW126951   1.786   9.375   1.187 -3.3508  1.7537 -0.9332
 5424SOL    HW226952   1.685   9.286   1.279  0.7419 -1.0505  1.0245
 5425SOL     OW26953   0.226   4.526   1.662 -0.1533 -0.2112  0.3114
 5425SOL    HW126954   0.197   4.453   1.601 -0.8890  0.6331 -0.3665
 5425SOL    HW226955   0.325   4.537   1.657  0.0479 -1.5887  0.9149
 5426SOL     OW26956   0.628   5.133   3.123  0.0312 -0.2306 -1.1563
 5426SOL    HW126957   0.667   5.084   3.201  0.9764  0.0001 -1.4739
 5426SOL    HW226958   0.548   5.083   3.089 -0.2789 -0.4203 -0.1529
 5427SOL     OW26959   0.122   5.346   0.243 -0.3929 -0.2085 -0.3711
 5427SOL    HW126960   0.048   5.384   0.187  0.3575  1.5281 -0.2160
 5427SOL    HW226961   0.205   5.338   0.187  0.2244  1.0656  0.3369
 5428SOL     OW26962   9.749   4.582   3.174 -0.0339  0.3147 -0.5521
 5428SOL    HW126963   9.773   4.647   3.102  0.4513  0.6218 -0.1253
 5428SOL    HW226964   9.817   4.588   3.248 -1.2765  0.9972  0.5610
 5429SOL     OW26965   8.643   3.309   1.564  0.1541 -0.5498  0.0859
 5429SOL    HW126966   8.725   3.263   1.531 -0.0904 -0.1657 -1.0793
 5429SOL    HW226967   8.650   3.407   1.544 -0.2538 -0.3996  0.6662
 5430SOL     OW26968   1.438   4.603   3.812  0.0353  0.4286  0.6128
 5430SOL    HW126969   1.452   4.591   3.910  0.8810 -1.1907  0.2965
 5430SOL    HW226970   1.522   4.579   3.763 -0.2404  1.6518 -0.4839
 5431SOL     OW26971   3.307   0.253   4.257  0.1448 -0.0755 -0.6360
 5431SOL    HW126972   3.333   0.318   4.328  2.0221 -1.4582 -0.0132
 5431SOL    HW226973   3.379   0.251   4.187 -0.0392 -1.2482 -0.7994
 5432SOL     OW26974   2.513   5.909   2.676  0.0646  0.2856  0.5758
 5432SOL    HW126975   2.549   5.987   2.727  1.1750  1.5826 -2.0876
 5432SOL    HW226976   2.432   5.938   2.625  1.0472 -0.0032 -1.1918
 5433SOL     OW26977   8.600   3.434   1.857  0.0649 -0.2784  0.0195
 5433SOL    HW126978   8.651   3.349   1.871  0.7420  0.2711  0.9705
 5433SOL    HW226979   8.506   3.412   1.832  0.4551 -1.3081 -0.6048
 5434SOL     OW26980   1.903   9.802   2.824 -0.4649  0.7308 -0.0870
 5434SOL    HW126981   1.946   9.814   2.914  0.0872  0.9704 -0.3816
 5434SOL    HW226982   1.831   9.871   2.812 -2.2112 -0.7995  1.1506
 5435SOL     OW26983   9.372   5.870   3.699  0.1520 -0.1049 -0.7398
 5435SOL    HW126984   9.296   5.806   3.709  1.0689 -0.9098  1.2729
 5435SOL    HW226985   9.439   5.832   3.634  2.0426 -2.5830  2.5102
 5436SOL     OW26986   8.638   6.016   2.924 -0.0018 -0.4891 -0.1409
 5436SOL    HW126987   8.700   5.970   2.988 -1.9014 -2.3696  0.4074
 5436SOL    HW226988   8.554   5.962   2.913 -0.6249  0.8640 -2.5994
 5437SOL     OW26989   8.839   8.669   0.983 -0.0905 -0.6997  0.0048
 5437SOL    HW126990   8.754   8.668   1.036 -0.0165 -1.3911  0.1182
 5437SOL    HW226991   8.877   8.762   0.982 -0.3161 -0.5923  0.8002
 5438SOL     OW26992   4.123   0.120   4.288  0.1407 -0.2451  0.1560
 5438SOL    HW126993   4.095   0.207   4.328 -0.3202  0.4840 -1.7137
 5438SOL    HW226994   4.044   0.077   4.244  0.6318 -1.0505  0.0551
 5439SOL     OW26995   2.300   9.745   1.621  0.3931  0.1478  0.1752
 5439SOL    HW126996   2.248   9.827   1.597 -1.3244 -1.0445 -0.2700
 5439SOL    HW226997   2.397   9.761   1.600 -0.1672  1.4177 -1.6276
 5440SOL     OW26998   6.868   9.938   4.777  0.3782  0.0158 -0.5527
 5440SOL    HW126999   6.853   9.981   4.687 -0.7446  1.5793  0.3559
 5440SOL    HW227000   6.794   9.964   4.838  1.3896 -0.6717  0.9766
 5441SOL     OW27001   9.278   5.500   3.887  0.1898 -0.9530 -0.0579
 5441SOL    HW127002   9.378   5.491   3.882  0.3018 -1.6647  2.4192
 5441SOL    HW227003   9.238   5.409   3.898 -0.6294 -0.5511  0.2860
 5442SOL     OW27004   2.812   5.920   4.443  0.7694  0.0419 -0.2436
 5442SOL    HW127005   2.824   5.897   4.540  1.3977  1.8420  0.1135
 5442SOL    HW227006   2.747   5.856   4.402  0.4087 -0.6645  1.3942
 5443SOL     OW27007   3.957   2.929   1.328  0.0929 -0.5385 -0.5134
 5443SOL    HW127008   3.859   2.928   1.350  0.0129  1.3372 -0.6890
 5443SOL    HW227009   3.970   2.905   1.232 -0.2424 -0.2503 -0.6308
 5444SOL     OW27010   8.664   3.231   2.747 -0.0995  0.4779 -0.6457
 5444SOL    HW127011   8.569   3.201   2.750 -0.7850  2.6453  0.0683
 5444SOL    HW227012   8.682   3.295   2.822  1.4913  1.3159 -1.6993
 5445SOL     OW27013   9.097   2.103   2.408  0.2311  0.4414  0.3700
 5445SOL    HW127014   9.093   2.188   2.357  0.1574 -1.2120 -2.5003
 5445SOL    HW227015   9.191   2.068   2.409 -0.3547 -1.3517 -1.8522
 5446SOL     OW27016   4.296   9.444   2.525 -0.4723  1.1215  0.2300
 5446SOL    HW127017   4.239   9.380   2.473 -1.4341  2.0186  0.1797
 5446SOL    HW227018   4.310   9.527   2.472  1.3544  0.6955  0.0121
 5447SOL     OW27019   1.818   1.570   2.785  0.3491 -0.1512  0.1381
 5447SOL    HW127020   1.767   1.509   2.724 -0.6154 -1.0918  1.8363
 5447SOL    HW227021   1.906   1.529   2.808 -0.8381 -1.5757  2.3200
 5448SOL     OW27022   8.929   0.747   1.151  0.2207  0.3744  0.6794
 5448SOL    HW127023   8.879   0.758   1.065  2.3568  1.1952 -0.5061
 5448SOL    HW227024   8.969   0.834   1.178  1.3181 -0.3222  1.3814
 5449SOL     OW27025   4.153   2.825   1.824  0.8582  0.2651 -0.4446
 5449SOL    HW127026   4.144   2.732   1.787  1.1601 -1.0874  2.7524
 5449SOL    HW227027   4.250   2.845   1.840  0.6909  0.6605  0.0583
 5450SOL     OW27028   3.842   8.063   3.552 -0.1297  0.0897 -0.2221
 5450SOL    HW127029   3.760   8.117   3.570  0.4372  1.1897 -0.9242
 5450SOL    HW227030   3.832   7.973   3.595 -1.3440  0.5130  0.4152
 5451SOL     OW27031   9.461   6.845   3.273 -0.2374 -0.0998 -0.5390
 5451SOL    HW127032   9.382   6.870   3.217 -0.6664 -0.1149  0.0559
 5451SOL    HW227033   9.477   6.747   3.267 -2.7769 -0.7563  2.5587
 5452SOL     OW27034   1.038   9.367   2.467  0.1096 -0.1631 -0.3948
 5452SOL    HW127035   1.006   9.461   2.475  1.6782  0.6510 -2.9218
 5452SOL    HW227036   1.004   9.313   2.544 -1.7929  2.1720  0.4658
 5453SOL     OW27037   0.983   7.810   2.430  0.1737 -0.3159  1.0243
 5453SOL    HW127038   0.969   7.889   2.489 -0.6700 -0.7606  1.4375
 5453SOL    HW227039   0.998   7.840   2.336  1.6764  0.4054  1.4778
 5454SOL     OW27040   6.195   0.074   2.814  0.3210  0.2785  0.0450
 5454SOL    HW127041   6.131   0.148   2.836 -1.1156 -0.9118 -0.0134
 5454SOL    HW227042   6.256   0.059   2.892 -0.8097  0.0961  0.9214
 5455SOL     OW27043   8.116   8.335   3.829  0.1114 -0.3235  0.3108
 5455SOL    HW127044   8.085   8.330   3.924 -0.1166 -3.2783  0.1428
 5455SOL    HW227045   8.103   8.427   3.794 -0.5682  0.5931  2.8907
 5456SOL     OW27046   2.219   6.801   4.104 -0.4524  0.7113 -0.4898
 5456SOL    HW127047   2.294   6.735   4.109 -0.2533  0.9690 -0.0014
 5456SOL    HW227048   2.207   6.830   4.009 -0.7575 -0.2701 -0.7544
 5457SOL     OW27049   7.959   9.694   1.012 -0.2655  0.4320  0.4662
 5457SOL    HW127050   7.995   9.758   1.080  0.6427 -1.0422  1.3895
 5457SOL    HW227051   7.868   9.662   1.041 -0.2481  0.4623  0.5536
 5458SOL     OW27052   4.516   7.646   2.446  0.6060 -0.3004  0.5436
 5458SOL    HW127053   4.510   7.631   2.545  2.1904  1.8216  0.9967
 5458SOL    HW227054   4.476   7.568   2.398 -1.9779 -0.4851  2.8687
 5459SOL     OW27055   4.697   3.467   3.056  0.5205 -0.2119  0.2092
 5459SOL    HW127056   4.753   3.518   3.121 -0.8550 -1.7688  2.7104
 5459SOL    HW227057   4.601   3.494   3.068  0.1369 -1.3021 -0.4347
 5460SOL     OW27058   4.145   2.743   1.411  0.1677 -0.3935  0.0460
 5460SOL    HW127059   4.086   2.820   1.387 -0.8061 -1.1746 -0.0999
 5460SOL    HW227060   4.090   2.659   1.415  1.1321 -1.0060  0.6420
 5461SOL     OW27061   7.882   3.738   0.619  0.4694 -0.4998 -0.1075
 5461SOL    HW127062   7.965   3.786   0.649  0.6496 -1.0221  0.2390
 5461SOL    HW227063   7.819   3.804   0.577  0.5558  0.1115  0.6930
 5462SOL     OW27064   7.698   0.117   0.775 -0.6842 -0.7142 -0.3764
 5462SOL    HW127065   7.663   0.030   0.809  0.5588 -1.1439 -0.1571
 5462SOL    HW227066   7.716   0.178   0.852  1.5103 -1.4502 -0.2728
 5463SOL     OW27067   6.219   8.340   2.803 -0.1666 -0.2222  0.0116
 5463SOL    HW127068   6.250   8.375   2.715 -0.6087  1.1876  0.4037
 5463SOL    HW227069   6.120   8.351   2.811 -0.0340  0.3952  0.9854
 5464SOL     OW27070   9.606   3.276   1.412 -0.0772 -0.1235 -0.1429
 5464SOL    HW127071   9.508   3.286   1.428  0.2192  2.5558  0.2877
 5464SOL    HW227072   9.624   3.280   1.313 -0.4515 -1.2685 -0.2627
 5465SOL     OW27073   5.329   9.978   2.882  0.2769  0.9696  0.5653
 5465SOL    HW127074   5.419  10.003   2.848 -0.7909  2.8748 -1.0031
 5465SOL    HW227075   5.266  10.055   2.868 -1.4990 -0.1930  1.9531
 5466SOL     OW27076   1.602   7.484   3.196  0.2644  0.6758  0.5473
 5466SOL    HW127077   1.559   7.508   3.282 -3.5421 -2.8455 -0.2186
 5466SOL    HW227078   1.675   7.417   3.212 -0.2504  0.2447  1.1031
 5467SOL     OW27079   2.022   9.970   3.279 -0.1181 -0.6152  0.2974
 5467SOL    HW127080   2.114   9.936   3.295 -1.0622 -3.8871 -0.9021
 5467SOL    HW227081   1.955   9.906   3.316 -1.9544  0.5382 -0.9312
 5468SOL     OW27082   1.090   3.734   4.119 -0.5025  0.1405  0.2201
 5468SOL    HW127083   1.079   3.714   4.022  0.3823 -0.6104  0.2702
 5468SOL    HW227084   1.181   3.706   4.149 -1.2090 -0.7947  1.5376
 5469SOL     OW27085   7.785   6.571   2.328  0.3475  0.1396  0.1873
 5469SOL    HW127086   7.752   6.635   2.260  2.1774  0.7324 -0.1756
 5469SOL    HW227087   7.712   6.551   2.393 -0.9937  0.6340 -1.1373
 5470SOL     OW27088   7.643   7.782   2.529 -0.5471 -0.1646 -0.2776
 5470SOL    HW127089   7.721   7.732   2.565 -0.5788 -0.0344 -0.0306
 5470SOL    HW227090   7.566   7.719   2.514 -0.9116 -0.0207  0.9594
 5471SOL     OW27091   2.221   1.718   3.067 -0.4675  0.0490 -0.3957
 5471SOL    HW127092   2.215   1.655   2.990  0.3651 -0.5775  0.0417
 5471SOL    HW227093   2.286   1.791   3.045  1.0654 -1.0522  0.3270
 5472SOL     OW27094   0.613   1.353   0.468  0.1692  0.3046 -0.2432
 5472SOL    HW127095   0.602   1.365   0.567 -1.0281  0.0795 -0.3477
 5472SOL    HW227096   0.584   1.437   0.421  1.6463  0.7717 -0.3603
 5473SOL     OW27097   0.493   7.114   2.953  0.4247  0.0786  0.2350
 5473SOL    HW127098   0.475   7.131   2.856  1.6161  1.3600  0.2343
 5473SOL    HW227099   0.590   7.126   2.972  0.3266 -0.9102  1.4482
 5474SOL     OW27100   4.419   0.564   0.913 -0.3082 -0.1569 -0.2396
 5474SOL    HW127101   4.448   0.468   0.917  0.8457  0.1526 -0.7279
 5474SOL    HW227102   4.369   0.581   0.829  0.5443 -0.0568 -0.7294
 5475SOL     OW27103   0.989   3.294   1.176 -0.5365  0.4823 -0.0533
 5475SOL    HW127104   0.900   3.248   1.174 -0.6985  0.7611  0.5178
 5475SOL    HW227105   1.054   3.237   1.226 -0.1935 -0.0585 -1.0937
 5476SOL     OW27106   9.981   8.063   4.329  0.1274  0.3143 -0.0754
 5476SOL    HW127107   9.928   7.996   4.277 -1.1046  1.4201 -0.2633
 5476SOL    HW227108  10.074   8.068   4.291  0.7613 -2.4617  0.9851
 5477SOL     OW27109   5.957   6.918   2.570  0.0407 -0.3888 -0.2545
 5477SOL    HW127110   5.873   6.903   2.623 -0.0370  2.1596  0.4167
 5477SOL    HW227111   5.991   6.831   2.536 -1.3372 -1.8036  1.8560
 5478SOL     OW27112   7.909   9.431   1.159  0.3973  0.4421 -0.4811
 5478SOL    HW127113   7.953   9.351   1.118 -0.0133 -0.5877  1.0180
 5478SOL    HW227114   7.821   9.448   1.114  0.8841  0.5846 -1.3808
 5479SOL     OW27115   0.068   7.856   0.316  0.2864  0.0798  0.1811
 5479SOL    HW127116   0.068   7.756   0.317  0.0900  0.0807  0.3955
 5479SOL    HW227117   0.035   7.890   0.404 -0.3475  0.3312 -0.1486
 5480SOL     OW27118   7.297   7.122   3.582 -0.4363 -0.0956 -0.4372
 5480SOL    HW127119   7.341   7.137   3.671  0.1654 -0.6538 -0.6377
 5480SOL    HW227120   7.264   7.028   3.576 -0.6116 -0.0146 -0.7473
 5481SOL     OW27121   2.109   3.807   1.690 -0.0561  0.0775 -0.1063
 5481SOL    HW127122   2.143   3.837   1.601  0.2809  0.5039  0.1661
 5481SOL    HW227123   2.181   3.759   1.739  0.8468  2.7400  1.3116
 5482SOL     OW27124   4.710   4.257   1.143  0.3051 -0.3876 -0.0414
 5482SOL    HW127125   4.665   4.332   1.093 -0.4549 -1.0797 -0.4033
 5482SOL    HW227126   4.757   4.198   1.078 -0.0044 -0.8341  0.1390
 5483SOL     OW27127   5.155   0.146   1.945 -0.8727 -0.9883  0.0135
 5483SOL    HW127128   5.087   0.181   1.881 -1.1225 -3.0229 -0.8622
 5483SOL    HW227129   5.223   0.217   1.963 -1.8467  0.2385 -1.0210
 5484SOL     OW27130   5.705   9.551   3.483  0.0402 -0.1182  0.3366
 5484SOL    HW127131   5.733   9.567   3.389  1.4376 -2.2993  0.3389
 5484SOL    HW227132   5.661   9.461   3.490  1.3575 -0.6631  2.0210
 5485SOL     OW27133   9.373   1.756   1.580 -0.4743 -0.0258 -0.0838
 5485SOL    HW127134   9.357   1.843   1.628 -1.5352  0.6127 -1.5655
 5485SOL    HW227135   9.333   1.681   1.632 -0.2947  0.4737  0.7786
 5486SOL     OW27136   7.774   1.747   3.640  0.2620 -0.5004  0.3524
 5486SOL    HW127137   7.729   1.836   3.629  1.0887  0.0162  1.1278
 5486SOL    HW227138   7.714   1.675   3.605 -0.3946  0.3665 -0.3124
 5487SOL     OW27139   5.156   0.859   3.495  0.3798 -0.1553  0.3276
 5487SOL    HW127140   5.180   0.763   3.482  1.7769  0.2903 -0.4542
 5487SOL    HW227141   5.203   0.894   3.577 -0.2316 -0.1719  0.6869
 5488SOL     OW27142   1.446   1.773   4.751 -0.6155 -0.3669 -0.5134
 5488SOL    HW127143   1.494   1.742   4.670 -0.9090 -0.4590 -0.6541
 5488SOL    HW227144   1.464   1.709   4.827  0.4177  0.2402 -0.2462
 5489SOL     OW27145   0.695   9.336   0.040 -0.8555 -0.5215  0.7649
 5489SOL    HW127146   0.757   9.414   0.051 -0.3169 -0.8977  0.4383
 5489SOL    HW227147   0.620   9.361  -0.021  0.4170 -0.8747 -0.9843
 5490SOL     OW27148   1.321   0.470   2.060  0.0175 -0.2947 -0.3631
 5490SOL    HW127149   1.372   0.474   2.146  0.7645  0.8990 -0.8546
 5490SOL    HW227150   1.244   0.534   2.063  1.3341  1.3545 -1.4041
 5491SOL     OW27151   3.466   3.709   1.899  0.0151  0.7741 -0.2789
 5491SOL    HW127152   3.557   3.699   1.858 -0.3383 -0.9391 -0.7085
 5491SOL    HW227153   3.428   3.798   1.875  1.9477  1.8809  0.6648
 5492SOL     OW27154   0.440   0.789   1.598 -0.1399 -0.5091 -0.3548
 5492SOL    HW127155   0.487   0.821   1.681 -0.6246  0.2283 -0.3597
 5492SOL    HW227156   0.415   0.693   1.609  1.0046 -0.7943 -0.1902
 5493SOL     OW27157   0.082   3.320   1.999 -0.6087  0.2674 -0.6774
 5493SOL    HW127158   0.056   3.277   1.913 -0.3063  1.0702 -1.1827
 5493SOL    HW227159   0.142   3.398   1.980  2.1838 -1.5195  0.4340
 5494SOL     OW27160   9.723   9.720   4.321 -0.0838 -0.6872  0.0590
 5494SOL    HW127161   9.725   9.817   4.347  0.2661 -0.6323 -0.1713
 5494SOL    HW227162   9.640   9.678   4.356  0.1475 -0.4962  0.8590
 5495SOL     OW27163   8.554   4.698   2.968  0.3728 -0.4301 -0.1303
 5495SOL    HW127164   8.605   4.616   2.994 -0.8861 -0.6424  1.7908
 5495SOL    HW227165   8.471   4.670   2.918  0.1655 -0.2989  0.1432
 5496SOL     OW27166   9.617   8.843   0.146 -0.0024  0.2883 -0.2616
 5496SOL    HW127167   9.665   8.787   0.213 -1.5008  0.3959  0.9494
 5496SOL    HW227168   9.521   8.815   0.142 -0.3453  1.5170 -1.0111
 5497SOL     OW27169   7.977   9.568   1.722 -0.1619 -0.5306  0.7288
 5497SOL    HW127170   8.036   9.515   1.662 -0.0073 -1.4706  1.6976
 5497SOL    HW227171   8.032   9.610   1.795 -0.4747 -0.1268  0.7370
 5498SOL     OW27172   2.014   6.776   4.281  0.3066 -0.3626 -0.3424
 5498SOL    HW127173   2.098   6.768   4.229  0.1362 -0.2511 -0.6365
 5498SOL    HW227174   2.014   6.862   4.332  0.8578 -0.8741  0.5300
 5499SOL     OW27175   9.104   6.304   0.619  0.0755  0.1164  0.2143
 5499SOL    HW127176   9.132   6.371   0.688  0.5008 -0.3043  0.4495
 5499SOL    HW227177   9.004   6.295   0.621  0.0189  0.7065  0.2133
 5500SOL     OW27178   3.988   9.557   4.120 -0.3328  0.1552 -0.0844
 5500SOL    HW127179   3.909   9.547   4.181  0.2718  0.7341  0.8130
 5500SOL    HW227180   3.964   9.527   4.028 -2.0511  1.7192 -0.1580
 5501SOL     OW27181   4.626   0.943   4.550 -0.3558  0.4481 -0.5145
 5501SOL    HW127182   4.689   0.924   4.475 -0.9690  0.3753 -1.0221
 5501SOL    HW227183   4.668   1.006   4.615 -0.2628  1.4657 -1.5409
 5502SOL     OW27184   2.351   8.060   2.259  0.1341 -0.0728  0.2557
 5502SOL    HW127185   2.351   8.023   2.167 -2.2229  0.2758  0.0789
 5502SOL    HW227186   2.402   7.999   2.320  3.0632  0.5003 -1.5485
 5503SOL     OW27187   7.716   8.462   3.435  0.3186  0.1469 -0.5384
 5503SOL    HW127188   7.794   8.431   3.489 -0.4650  0.7198  0.9576
 5503SOL    HW227189   7.701   8.560   3.451 -1.4539 -0.2232  0.1546
 5504SOL     OW27190   9.591   8.887   0.506 -0.6703 -0.9277 -0.7052
 5504SOL    HW127191   9.536   8.864   0.586 -0.8707  0.1371 -0.5241
 5504SOL    HW227192   9.590   8.986   0.493 -0.3886 -1.0729 -1.8502
 5505SOL     OW27193   1.494   7.371   0.384  0.1882 -0.0334 -0.3393
 5505SOL    HW127194   1.398   7.399   0.392  0.0534 -0.2787 -1.0251
 5505SOL    HW227195   1.547   7.444   0.340 -0.2350 -0.9611 -2.4584
 5506SOL     OW27196   8.630   6.328   1.602 -0.2274  0.2475 -0.1689
 5506SOL    HW127197   8.681   6.399   1.650 -1.2305  1.2649 -0.5931
 5506SOL    HW227198   8.532   6.347   1.608 -0.5402 -1.4200  0.2137
 5507SOL     OW27199   1.041   4.159   4.190 -0.5496  0.3435 -0.2908
 5507SOL    HW127200   0.995   4.093   4.249 -3.0948  2.4078  0.1245
 5507SOL    HW227201   1.014   4.143   4.095  0.9309 -0.8643 -0.5265
 5508SOL     OW27202   8.355   2.839   0.985 -0.6246  0.5872 -0.1745
 5508SOL    HW127203   8.297   2.918   1.007 -2.0079 -0.0651 -1.3609
 5508SOL    HW227204   8.302   2.756   0.997 -0.0213 -0.0084 -1.6491
 5509SOL     OW27205   7.716   4.611   4.497 -0.0402 -0.2257  0.0497
 5509SOL    HW127206   7.686   4.613   4.593 -0.4534  0.9320 -0.1104
 5509SOL    HW227207   7.814   4.590   4.494 -0.0426 -0.3431  0.7205
 5510SOL     OW27208   0.561   7.947   1.762 -0.6769 -0.1905 -0.5201
 5510SOL    HW127209   0.512   7.930   1.848 -0.0982 -1.5451 -0.4415
 5510SOL    HW227210   0.496   7.979   1.693 -1.2192  0.5089  0.3005
 5511SOL     OW27211   2.130   3.929   1.069  0.1359 -0.1113  0.5324
 5511SOL    HW127212   2.162   3.893   1.157 -0.7429 -1.1323  0.4362
 5511SOL    HW227213   2.082   4.015   1.084 -2.7553 -1.8346  1.4225
 5512SOL     OW27214   2.028   5.530   2.315 -0.1991  0.3056 -0.0500
 5512SOL    HW127215   2.002   5.443   2.355 -1.3539  1.5628  2.0161
 5512SOL    HW227216   1.954   5.563   2.256 -0.0524  0.2162 -0.2850
 5513SOL     OW27217   1.213   9.665   2.847  0.2117  0.3692 -0.2818
 5513SOL    HW127218   1.174   9.756   2.862  2.1400  0.8891  1.8988
 5513SOL    HW227219   1.285   9.670   2.778  0.8922  0.6846  0.4388
 5514SOL     OW27220   3.603   1.460   1.819  0.0942 -0.3239 -0.2544
 5514SOL    HW127221   3.684   1.482   1.874  0.1862 -0.4330 -0.3491
 5514SOL    HW227222   3.579   1.539   1.763  0.2995 -0.3910 -0.4343
 5515SOL     OW27223   6.368   0.113   4.307  0.2235  0.5538 -0.1841
 5515SOL    HW127224   6.329   0.205   4.316 -0.1100  0.3219  0.9186
 5515SOL    HW227225   6.295   0.048   4.288  0.4108  0.4692 -0.6101
 5516SOL     OW27226   4.966   2.792   0.352 -0.2916  0.0677 -0.0868
 5516SOL    HW127227   5.041   2.793   0.419  0.4541  0.4863 -0.9026
 5516SOL    HW227228   4.907   2.872   0.367  0.9930  1.2496 -1.1331
 5517SOL     OW27229   7.870   5.256   0.439 -0.1238  0.7728  0.1279
 5517SOL    HW127230   7.899   5.349   0.458  0.4017  0.5208  0.5633
 5517SOL    HW227231   7.835   5.250   0.345 -3.9343  2.3298  1.3570
 5518SOL     OW27232   1.920   6.464   2.082 -0.1589  0.7028  0.1014
 5518SOL    HW127233   1.919   6.560   2.107 -0.7748  1.0930 -1.3453
 5518SOL    HW227234   2.014   6.433   2.071  0.0184  1.3745 -0.2904
 5519SOL     OW27235   2.584   9.695   2.520  0.0985  0.0342 -0.5699
 5519SOL    HW127236   2.551   9.789   2.531  0.5107  0.0731  0.4082
 5519SOL    HW227237   2.537   9.651   2.443 -0.6584  0.7901 -0.5402
 5520SOL     OW27238   3.838   7.527   1.385 -0.0666 -0.8800 -0.0909
 5520SOL    HW127239   3.824   7.447   1.327  1.3861 -0.3424 -1.1899
 5520SOL    HW227240   3.936   7.541   1.399 -0.3838 -0.5992  1.9372
 5521SOL     OW27241   0.862   6.694   0.924 -0.5342  0.2188  0.5166
 5521SOL    HW127242   0.896   6.629   0.857  0.6828 -0.7892  2.0927
 5521SOL    HW227243   0.792   6.752   0.881 -1.4867 -1.9530 -0.9766
 5522SOL     OW27244   8.930   7.437   3.420 -0.0631  0.3044 -0.4729
 5522SOL    HW127245   8.888   7.371   3.359  2.1216 -0.7461 -0.8572
 5522SOL    HW227246   9.012   7.398   3.461 -0.7729  1.4463  2.1570
 5523SOL     OW27247   2.326   7.543   0.081 -0.4555 -0.3676 -0.4702
 5523SOL    HW127248   2.299   7.639   0.085 -0.5649 -0.3832 -0.8059
 5523SOL    HW227249   2.247   7.487   0.057  0.0639 -0.3136 -2.3810
 5524SOL     OW27250   9.593   6.385   2.412 -0.2421  0.0043 -0.2858
 5524SOL    HW127251   9.613   6.310   2.349  0.3431 -0.9103  0.9722
 5524SOL    HW227252   9.553   6.462   2.361  0.5774 -0.5714 -1.8163
 5525SOL     OW27253   8.136   1.833   2.147  0.9029 -0.2871  0.0194
 5525SOL    HW127254   8.185   1.920   2.139  1.6019 -0.7131 -0.4228
 5525SOL    HW227255   8.092   1.812   2.059 -0.3684  0.2625  0.5177
 5526SOL     OW27256   1.784   1.230   3.099 -0.6256 -0.2122 -0.5172
 5526SOL    HW127257   1.811   1.317   3.140 -0.1313 -0.4682 -0.3016
 5526SOL    HW227258   1.732   1.176   3.166  1.1077 -1.0925  0.1576
 5527SOL     OW27259   9.430   4.318   2.687  0.1580  0.4401 -0.1773
 5527SOL    HW127260   9.367   4.313   2.609 -0.1734  2.3464 -0.0682
 5527SOL    HW227261   9.510   4.261   2.669 -0.8235 -0.6925 -1.0463
 5528SOL     OW27262   2.879   5.337   0.880  0.4884 -0.1930 -0.4932
 5528SOL    HW127263   2.956   5.327   0.816  0.7261 -0.3577 -0.1818
 5528SOL    HW227264   2.910   5.318   0.973  0.4680  1.4492 -0.1532
 5529SOL     OW27265   1.052   6.539   3.535 -0.0167 -0.3955  0.4609
 5529SOL    HW127266   1.082   6.604   3.605  0.7838 -0.9306  0.6207
 5529SOL    HW227267   1.130   6.512   3.478 -0.7185  0.2959 -0.8641
 5530SOL     OW27268   3.197   5.693   2.509  0.5330  0.1701  0.1906
 5530SOL    HW127269   3.215   5.725   2.416  0.0098 -0.5907 -0.1799
 5530SOL    HW227270   3.100   5.707   2.531  0.1717 -1.6434 -0.1782
 5531SOL     OW27271   9.253   4.494   0.065  0.7784  0.2356  0.6832
 5531SOL    HW127272   9.292   4.497  -0.027 -0.4710 -0.4914  0.1304
 5531SOL    HW227273   9.156   4.515   0.062  0.6407 -0.1801  1.7947
 5532SOL     OW27274   9.451   7.433   4.459 -0.2089 -0.1718  0.1848
 5532SOL    HW127275   9.477   7.487   4.538 -1.1617 -0.8012  0.9367
 5532SOL    HW227276   9.532   7.385   4.423 -0.3520 -2.4121  2.7180
 5533SOL     OW27277   8.408   9.311   0.246  0.1616 -0.2966 -0.7098
 5533SOL    HW127278   8.411   9.409   0.263  0.8269 -0.1325 -1.6760
 5533SOL    HW227279   8.317   9.285   0.214  0.4476  0.3058 -2.0579
 5534SOL     OW27280   8.459   5.609   1.815 -0.3932 -0.2657  0.0610
 5534SOL    HW127281   8.425   5.666   1.890 -0.5886  0.8663 -0.8629
 5534SOL    HW227282   8.492   5.668   1.741  0.1887 -1.3646 -0.5738
 5535SOL     OW27283   8.441   3.129   1.600  0.0577 -0.4452 -0.0926
 5535SOL    HW127284   8.533   3.168   1.588 -0.6179  1.1488 -0.3212
 5535SOL    HW227285   8.429   3.051   1.539  2.5047 -2.9963  2.5223
 5536SOL     OW27286   0.006   5.746   2.609 -0.3077 -0.0571  0.1966
 5536SOL    HW127287  -0.051   5.800   2.548 -0.8536 -0.2550  0.5270
 5536SOL    HW227288   0.101   5.777   2.603 -0.5671  0.7293  0.1535
 5537SOL     OW27289   8.812   9.563   0.149  0.2814 -0.2675  0.4108
 5537SOL    HW127290   8.889   9.609   0.193 -0.2948  1.0294  0.0977
 5537SOL    HW227291   8.744   9.631   0.122  0.8920 -0.9701 -3.0438
 5538SOL     OW27292   2.847   2.088   0.303 -0.3615 -0.3518 -0.4484
 5538SOL    HW127293   2.925   2.139   0.340 -0.7779 -0.2016  0.2306
 5538SOL    HW227294   2.876   2.037   0.222  0.5390 -0.5967  0.0191
 5539SOL     OW27295   0.854   4.902   2.977 -0.2038 -0.4862  0.1438
 5539SOL    HW127296   0.871   4.873   2.883 -0.6743 -1.2139  0.2850
 5539SOL    HW227297   0.875   5.000   2.985  1.1024 -0.7081 -0.3894
 5540SOL     OW27298   9.706   0.029   3.650  0.2344 -0.9092 -0.6948
 5540SOL    HW127299   9.728   0.119   3.689 -1.7056 -1.0167  0.7496
 5540SOL    HW227300   9.761  -0.041   3.695 -0.4757 -0.7893  0.3635
 5541SOL     OW27301   3.966   1.816   1.366  0.6217  0.3109 -0.5022
 5541SOL    HW127302   3.870   1.811   1.393  0.6972 -1.8602 -0.5154
 5541SOL    HW227303   4.013   1.733   1.396  2.1391  0.6684 -1.8132
 5542SOL     OW27304   1.501   5.165   2.056  0.0257 -0.4244  0.0057
 5542SOL    HW127305   1.526   5.158   1.960  1.3069 -1.5857  0.4237
 5542SOL    HW227306   1.487   5.262   2.080  2.2919  0.1050 -0.7035
 5543SOL     OW27307   1.561   9.119   2.833 -0.2312 -0.0424  0.4528
 5543SOL    HW127308   1.568   9.215   2.861 -1.6171 -0.5320  2.5917
 5543SOL    HW227309   1.478   9.105   2.780 -2.1355 -0.7724  3.4830
 5544SOL     OW27310   0.768   4.463   4.771 -0.1129  0.0355  0.8423
 5544SOL    HW127311   0.668   4.471   4.771 -0.1541 -0.4511  1.5597
 5544SOL    HW227312   0.808   4.554   4.783 -0.4575  0.3004  0.0735
 5545SOL     OW27313   7.582   9.870   3.707 -0.0539 -0.1785 -0.2856
 5545SOL    HW127314   7.653   9.938   3.690 -1.6100  1.8296  0.9756
 5545SOL    HW227315   7.517   9.870   3.630 -1.1759  1.2344  0.6502
 5546SOL     OW27316   4.977   6.659   2.180  0.1510  0.2831 -0.1313
 5546SOL    HW127317   5.032   6.741   2.164  1.8664 -0.7241  0.4905
 5546SOL    HW227318   4.885   6.674   2.145  0.5122  2.3805 -0.2690
 5547SOL     OW27319   4.920   3.094   2.029  0.3168  0.1307 -0.4636
 5547SOL    HW127320   5.003   3.078   1.974  1.4644  1.3634  0.8749
 5547SOL    HW227321   4.945   3.097   2.126 -1.4210 -0.1763 -0.0015
 5548SOL     OW27322   0.756   0.777   0.450 -0.4148 -0.2444 -0.1326
 5548SOL    HW127323   0.659   0.793   0.430 -0.3890  2.1107  1.4662
 5548SOL    HW227324   0.812   0.839   0.396  0.0132  0.8905  1.5814
 5549SOL     OW27325   9.928   6.580   4.399 -0.1415  0.0944  0.2711
 5549SOL    HW127326   9.856   6.546   4.338 -0.9202  0.2515  1.1071
 5549SOL    HW227327  10.007   6.607   4.344 -0.6669 -0.1988 -0.6405
 5550SOL     OW27328   4.728   9.372   1.420  0.3504 -0.3638 -0.3114
 5550SOL    HW127329   4.680   9.315   1.487  0.5101  0.0976  0.2076
 5550SOL    HW227330   4.816   9.400   1.458 -0.1224  0.9952 -0.1622
 5551SOL     OW27331   1.385   5.361   1.458  0.1373 -0.2570  0.4526
 5551SOL    HW127332   1.319   5.357   1.383  1.2121 -0.2396 -0.5070
 5551SOL    HW227333   1.430   5.272   1.468  2.6184  0.7697 -1.3336
 5552SOL     OW27334   8.946   7.760   3.911 -0.3104 -0.1921 -0.1176
 5552SOL    HW127335   8.877   7.758   3.983  1.3658  0.2702  1.5417
 5552SOL    HW227336   9.032   7.722   3.946 -0.0071 -1.7903 -2.4828
 5553SOL     OW27337   1.439   4.703   1.730  0.4251  0.0160 -0.1157
 5553SOL    HW127338   1.385   4.775   1.685  2.3658  0.3812 -1.9576
 5553SOL    HW227339   1.452   4.627   1.667 -0.8790 -1.6211  1.5381
 5554SOL     OW27340   2.030   3.558   4.586 -0.3197  0.2896 -0.3082
 5554SOL    HW127341   1.999   3.500   4.511 -3.0689 -1.2017  1.8816
 5554SOL    HW227342   1.952   3.583   4.644  2.0001 -0.5509  3.3797
 5555SOL     OW27343   7.845   1.084   2.743 -0.1326 -0.6189 -0.0478
 5555SOL    HW127344   7.758   1.035   2.746  0.5578 -1.9186 -0.9597
 5555SOL    HW227345   7.848   1.143   2.662 -0.2045 -0.4737  0.0537
 5556SOL     OW27346   9.766   7.318   1.159  0.1676 -0.0315 -0.4577
 5556SOL    HW127347   9.737   7.231   1.120 -3.0393  0.3172  0.9301
 5556SOL    HW227348   9.752   7.391   1.092 -0.3132 -0.1461 -0.4843
 5557SOL     OW27349   9.191   0.038   1.124  0.3963 -0.7979 -0.0290
 5557SOL    HW127350   9.149   0.049   1.214  0.8745 -1.1188  0.2352
 5557SOL    HW227351   9.283   0.077   1.125  0.0275  0.1050 -0.6688
 5558SOL     OW27352   1.920   2.155   2.658 -0.3564 -0.2164  0.4626
 5558SOL    HW127353   1.906   2.109   2.745  0.1854 -1.7449 -0.2437
 5558SOL    HW227354   1.884   2.099   2.584  0.6088  0.3342 -0.4425
 5559SOL     OW27355   1.922   6.266   1.381 -0.1514  0.9098 -0.2795
 5559SOL    HW127356   1.886   6.354   1.414  1.1346  0.6292  1.9435
 5559SOL    HW227357   1.928   6.201   1.457  3.0351  0.2956 -0.9700
 5560SOL     OW27358   8.807   6.571   4.692 -0.1394  0.0399  0.2087
 5560SOL    HW127359   8.892   6.565   4.744 -0.7598  0.2154  1.2415
 5560SOL    HW227360   8.805   6.659   4.643 -0.0306  0.3162  0.7014
 5561SOL     OW27361   4.671   8.189   1.634  0.3710 -0.9091 -0.1008
 5561SOL    HW127362   4.680   8.286   1.655  0.7766 -0.4233 -2.3783
 5561SOL    HW227363   4.761   8.152   1.609  0.4612 -2.2041  1.9920
 5562SOL     OW27364   8.527   8.082   4.219 -0.0167 -0.4988  0.3550
 5562SOL    HW127365   8.622   8.060   4.198 -0.5051 -1.5171 -0.8069
 5562SOL    HW227366   8.483   8.003   4.262 -0.5159 -0.2328  0.3403
 5563SOL     OW27367   4.532   9.050   2.518 -0.6671 -0.4440 -0.3241
 5563SOL    HW127368   4.600   9.118   2.491  0.6238 -0.5184  2.6110
 5563SOL    HW227369   4.444   9.095   2.535 -0.5519  0.0816 -1.1069
 5564SOL     OW27370   1.386   6.450   4.180 -0.0299  0.6207  0.0675
 5564SOL    HW127371   1.450   6.389   4.227  0.2103 -0.3120 -1.4256
 5564SOL    HW227372   1.411   6.545   4.197  1.3571  0.2694  0.0144
 5565SOL     OW27373   7.383   9.825   4.602  0.2950  0.0890  0.4103
 5565SOL    HW127374   7.435   9.757   4.653 -0.4336  0.2884  1.4461
 5565SOL    HW227375   7.285   9.808   4.615  0.1021 -0.0539 -1.1972
 5566SOL     OW27376   0.366   8.538   3.921  0.6353  0.1645 -0.1039
 5566SOL    HW127377   0.330   8.520   3.830 -0.8006 -0.0851  0.4960
 5566SOL    HW227378   0.459   8.501   3.928  1.1334  1.0530 -1.7621
 5567SOL     OW27379   1.303   2.884   1.731  0.2749 -0.3883  0.2301
 5567SOL    HW127380   1.264   2.975   1.746 -3.2643 -2.0903  1.8299
 5567SOL    HW227381   1.239   2.828   1.679  1.6571 -2.5151  0.7555
 5568SOL     OW27382   2.432   4.680   3.131  0.0782 -0.2725  0.1168
 5568SOL    HW127383   2.522   4.674   3.174  1.1318 -0.0392 -1.9665
 5568SOL    HW227384   2.376   4.747   3.178  1.0223 -0.3791  1.4014
 5569SOL     OW27385   3.063   1.457   0.233  0.5519 -0.1550 -0.0440
 5569SOL    HW127386   3.027   1.371   0.197  2.1297 -1.2367  0.9143
 5569SOL    HW227387   3.000   1.492   0.303  0.6610 -1.3420  0.6704
 5570SOL     OW27388   9.661   3.318   1.796 -0.4028  0.4610 -0.0618
 5570SOL    HW127389   9.568   3.333   1.761 -2.0454  0.5626  4.0952
 5570SOL    HW227390   9.687   3.393   1.856  1.7999 -0.3295  0.0208
 5571SOL     OW27391   0.311   1.592   1.789 -0.3158 -0.2393 -0.1594
 5571SOL    HW127392   0.356   1.619   1.875  0.3801 -0.9092 -0.3090
 5571SOL    HW227393   0.212   1.590   1.803 -0.1339 -1.8584  1.0805
 5572SOL     OW27394   7.635   1.543   3.544  0.5526  0.0046  0.3879
 5572SOL    HW127395   7.541   1.551   3.510 -0.2368 -0.6821  2.3534
 5572SOL    HW227396   7.680   1.467   3.498 -0.5718 -1.0517  0.9939
 5573SOL     OW27397   9.783   8.335   1.532 -0.1801 -0.0221 -0.3321
 5573SOL    HW127398   9.693   8.360   1.567 -0.3414 -0.6072 -0.3254
 5573SOL    HW227399   9.789   8.235   1.524  0.2909  0.0454 -0.8032
 5574SOL     OW27400   0.219   2.061   0.095 -0.5045  0.3306 -0.0120
 5574SOL    HW127401   0.191   2.153   0.067  0.5201  0.0788 -2.0351
 5574SOL    HW227402   0.310   2.065   0.136  0.8294 -0.1006 -2.8016
 5575SOL     OW27403   5.075   8.940   3.220 -0.2725 -0.2858  0.1940
 5575SOL    HW127404   5.060   8.930   3.318  0.7060  0.3645  0.4052
 5575SOL    HW227405   5.153   8.883   3.192  0.0629  0.2898 -0.0400
 5576SOL     OW27406   9.747   0.844   0.274 -0.0886 -0.1590  0.1853
 5576SOL    HW127407   9.810   0.916   0.304  0.7768 -0.4897 -0.8240
 5576SOL    HW227408   9.796   0.778   0.217 -1.7384  0.6141 -2.2146
 5577SOL     OW27409   5.967   9.792   3.366  0.5919  0.0468  0.2080
 5577SOL    HW127410   5.988   9.801   3.463 -0.5473 -0.3881  0.5087
 5577SOL    HW227411   5.873   9.821   3.349  0.6343 -0.3096 -0.6878
 5578SOL     OW27412   2.312   2.193   4.577 -0.4022 -0.6931 -0.0705
 5578SOL    HW127413   2.331   2.169   4.672 -0.2590 -1.5530 -0.3069
 5578SOL    HW227414   2.236   2.258   4.573  2.6625  3.1664  0.9294
 5579SOL     OW27415   4.142   2.419   1.933 -0.1578  0.4115  0.0512
 5579SOL    HW127416   4.132   2.475   1.851  0.4886  0.6542  0.1396
 5579SOL    HW227417   4.176   2.474   2.008  2.6437 -0.5573 -0.4576
 5580SOL     OW27418   2.297   3.941   3.710  0.1325 -0.2619 -0.2498
 5580SOL    HW127419   2.372   3.914   3.649 -0.5381  0.6056 -1.4895
 5580SOL    HW227420   2.212   3.896   3.682 -0.3468  0.7443 -0.4436
 5581SOL     OW27421   1.509   9.007   3.291  0.6442 -0.2367 -0.0391
 5581SOL    HW127422   1.446   8.931   3.279  2.1412 -1.5094  0.0299
 5581SOL    HW227423   1.541   9.038   3.201  1.0794 -0.5730  0.0011
 5582SOL     OW27424   1.652   5.575   0.438 -0.0307 -0.6845  0.6227
 5582SOL    HW127425   1.640   5.628   0.522 -0.5917 -0.9334  0.7024
 5582SOL    HW227426   1.622   5.481   0.454  0.0772 -0.7897  0.2074
 5583SOL     OW27427   9.490   0.464   1.488 -0.2207 -0.3698 -0.2730
 5583SOL    HW127428   9.404   0.418   1.468 -1.1982  1.8470 -1.3390
 5583SOL    HW227429   9.485   0.504   1.580 -0.1220 -0.7171 -0.1173
 5584SOL     OW27430   8.060   5.218   2.521  0.8602 -0.1088  0.0470
 5584SOL    HW127431   8.114   5.301   2.536 -0.3725  0.8718 -0.8188
 5584SOL    HW227432   7.964   5.237   2.541  0.7538 -1.7255  1.1953
 5585SOL     OW27433   9.860   3.779   0.641 -0.0194  0.0912 -0.5211
 5585SOL    HW127434   9.896   3.871   0.628  0.6123 -0.0960 -0.1038
 5585SOL    HW227435   9.934   3.712   0.636 -0.4855 -0.4089 -0.9252
 5586SOL     OW27436   0.042   6.024   3.475  0.0134 -0.0800 -0.2025
 5586SOL    HW127437   0.021   6.079   3.394  1.3962  1.8404  0.7263
 5586SOL    HW227438   0.073   5.933   3.445  0.7435  0.6852 -1.8466
 5587SOL     OW27439   1.187   9.450   1.964  0.5868  0.1326  0.0082
 5587SOL    HW127440   1.093   9.442   1.998  0.7505  1.6148  0.8475
 5587SOL    HW227441   1.187   9.450   1.864 -0.0358 -2.7901 -0.0247
 5588SOL     OW27442   0.603   6.383   0.624 -0.3774 -0.2557  0.1530
 5588SOL    HW127443   0.702   6.387   0.639 -0.5719  1.1637  1.1695
 5588SOL    HW227444   0.574   6.460   0.567 -0.7490 -1.3063 -1.0948
 5589SOL     OW27445   3.611   0.371   0.497  0.4090  0.1582 -0.7087
 5589SOL    HW127446   3.628   0.468   0.478  1.2333 -0.0214 -0.8897
 5589SOL    HW227447   3.619   0.355   0.596  2.2319 -0.1036 -0.8887
 5590SOL     OW27448   5.067   2.734   0.911  0.2735  0.2671  0.0418
 5590SOL    HW127449   5.007   2.686   0.847  0.9202 -1.2089  0.5455
 5590SOL    HW227450   5.137   2.784   0.859 -0.5751  0.9417 -0.4853
 5591SOL     OW27451   6.385   8.184   1.689 -0.0023 -0.2942  0.3916
 5591SOL    HW127452   6.431   8.097   1.702 -0.6318 -0.8094 -0.6880
 5591SOL    HW227453   6.443   8.258   1.723  1.2477 -0.9972 -0.1662
 5592SOL     OW27454   3.356   6.010   1.825  0.3177 -0.2585 -0.4009
 5592SOL    HW127455   3.344   6.036   1.729 -2.3694  0.6895  0.1466
 5592SOL    HW227456   3.335   5.912   1.835 -0.2478 -0.1704 -0.6599
 5593SOL     OW27457   9.521   5.449   3.728  0.4275 -0.7674  0.1320
 5593SOL    HW127458   9.573   5.365   3.744  0.8154 -0.7468 -1.0060
 5593SOL    HW227459   9.447   5.431   3.663  0.1226 -0.3732  0.3631
 5594SOL     OW27460   4.000   3.897   0.778 -0.3526 -0.2350  0.6402
 5594SOL    HW127461   4.091   3.857   0.770 -0.3164  0.2345 -1.7691
 5594SOL    HW227462   3.979   3.915   0.874  1.7900 -1.0321  1.2725
 5595SOL     OW27463   0.073   6.861   4.339 -0.2203  0.1958 -0.0323
 5595SOL    HW127464   0.140   6.804   4.387  0.9021  1.4616 -0.0753
 5595SOL    HW227465  -0.010   6.867   4.394  0.5233  0.4565  1.0805
 5596SOL     OW27466   9.536   8.062   1.601 -0.9114 -0.5444 -1.0643
 5596SOL    HW127467   9.532   7.995   1.676 -0.1129  1.6847  1.0236
 5596SOL    HW227468   9.628   8.063   1.562 -0.7936 -0.2887 -0.7724
 5597SOL     OW27469   3.564   9.620   3.288  0.0170  0.1201  0.0359
 5597SOL    HW127470   3.525   9.573   3.209  0.6479 -0.3963  0.0215
 5597SOL    HW227471   3.641   9.566   3.323 -1.3669 -0.5598  2.0948
 5598SOL     OW27472   6.664   8.750   2.913  0.1534  0.3757 -0.0267
 5598SOL    HW127473   6.724   8.670   2.920 -0.0257  0.2353 -0.1050
 5598SOL    HW227474   6.695   8.808   2.838 -0.1145  0.0474 -0.3926
 5599SOL     OW27475   3.908   4.853   0.758  0.0321 -0.4385 -0.3564
 5599SOL    HW127476   3.973   4.829   0.830  1.2805  2.6465 -0.3518
 5599SOL    HW227477   3.931   4.806   0.673  0.6043 -1.4718  0.3754
 5600SOL     OW27478   4.539   2.386   0.245  0.0808 -0.2170 -0.5395
 5600SOL    HW127479   4.539   2.287   0.258 -0.1626 -0.2566 -0.8590
 5600SOL    HW227480   4.633   2.418   0.235  0.0882 -0.5590 -1.5735
 5601SOL     OW27481   7.836   5.886   2.841 -0.5418  0.3673  0.3798
 5601SOL    HW127482   7.760   5.869   2.904 -0.5097 -0.6162  0.1603
 5601SOL    HW227483   7.827   5.978   2.802 -0.3959  1.0852  2.0318
 5602SOL     OW27484   1.845   0.280   1.393 -0.4085  0.2320 -0.0503
 5602SOL    HW127485   1.813   0.186   1.382  1.5430 -0.3623 -0.8477
 5602SOL    HW227486   1.942   0.280   1.417 -0.6276  2.0229  0.9297
 5603SOL     OW27487   7.655   0.353   4.778 -0.7211  0.1290 -0.0781
 5603SOL    HW127488   7.721   0.426   4.762 -0.8322  0.0045 -1.1310
 5603SOL    HW227489   7.585   0.354   4.707  0.4457 -2.2832 -1.3573
 5604SOL     OW27490   4.092   8.954   1.397 -0.3444 -0.0081  0.1809
 5604SOL    HW127491   4.031   9.009   1.339 -1.3682 -0.0271  1.2179
 5604SOL    HW227492   4.058   8.954   1.491  0.9615 -0.4817  0.6702
 5605SOL     OW27493   3.550   3.185   0.053 -0.0067  0.3309  0.6951
 5605SOL    HW127494   3.587   3.195  -0.039  1.1139 -0.4548  1.0417
 5605SOL    HW227495   3.580   3.262   0.109  1.1205 -0.2789  0.9624
 5606SOL     OW27496   4.208   3.076   3.672 -0.4878  0.2053  0.2943
 5606SOL    HW127497   4.302   3.050   3.692 -1.0399 -2.4243 -0.4182
 5606SOL    HW227498   4.171   3.129   3.749  0.6335 -1.2316  1.8503
 5607SOL     OW27499   3.283   7.728   2.550  0.1577  0.5363 -0.5081
 5607SOL    HW127500   3.210   7.659   2.553  0.9015 -0.2529 -0.3717
 5607SOL    HW227501   3.338   7.715   2.468  0.4996  0.7686 -0.3168
 5608SOL     OW27502   4.314   3.978   4.548  0.1549  0.1781  0.1918
 5608SOL    HW127503   4.379   3.902   4.560  0.6160  0.6180  0.4889
 5608SOL    HW227504   4.310   4.032   4.631  2.0346  2.1971 -0.9666
 5609SOL     OW27505   7.264   0.164   0.741  0.3508 -0.0633 -0.3969
 5609SOL    HW127506   7.300   0.214   0.820  0.5128 -1.0115  0.1410
 5609SOL    HW227507   7.266   0.223   0.661  1.1401  0.5838  0.0864
 5610SOL     OW27508   3.975   1.359   3.579 -0.3908  0.0233 -0.0355
 5610SOL    HW127509   4.042   1.305   3.630  0.7831  0.1090 -1.4455
 5610SOL    HW227510   3.993   1.350   3.481 -3.1141 -0.8056 -0.5124
 5611SOL     OW27511   0.691   6.774   2.646 -0.0867  0.3812  0.0002
 5611SOL    HW127512   0.771   6.813   2.693 -0.6001  0.0403  1.1697
 5611SOL    HW227513   0.631   6.731   2.713 -1.7432  1.4767 -0.7624
 5612SOL     OW27514   7.543   8.544   1.274 -0.7201  0.0959 -0.1211
 5612SOL    HW127515   7.535   8.587   1.184  0.3142 -0.1478 -0.3344
 5612SOL    HW227516   7.545   8.445   1.263  0.2529  0.0875  0.0979
 5613SOL     OW27517   8.091   4.440   3.366 -0.4643  0.4385  0.2216
 5613SOL    HW127518   8.179   4.440   3.317 -1.5600  2.0512 -1.8172
 5613SOL    HW227519   8.024   4.492   3.314 -2.3198  0.2780  2.3817
 5614SOL     OW27520   0.964   2.761   2.173  0.2978 -0.0274 -0.8277
 5614SOL    HW127521   0.977   2.746   2.271  0.4559 -0.9437 -0.9797
 5614SOL    HW227522   1.035   2.821   2.138  1.5683 -1.4743 -0.8002
 5615SOL     OW27523   1.097   2.472   4.396 -0.4345 -0.6115  0.5740
 5615SOL    HW127524   1.162   2.533   4.442  1.5040 -1.8289 -0.4587
 5615SOL    HW227525   1.136   2.440   4.310 -1.7547 -2.5898  0.6603
 5616SOL     OW27526   0.494   1.608   1.584  0.5896  0.2138  0.4631
 5616SOL    HW127527   0.424   1.620   1.655 -0.4886  0.7663 -0.6804
 5616SOL    HW227528   0.543   1.522   1.601  0.7281  0.6030  2.1889
 5617SOL     OW27529   1.271   9.474   4.695 -0.3484  0.3435  0.1506
 5617SOL    HW127530   1.340   9.544   4.715 -1.6271  1.6002  0.2477
 5617SOL    HW227531   1.279   9.446   4.600  2.8077 -2.3725  1.0944
 5618SOL     OW27532   2.572   6.222   3.370  0.4376  0.1769 -0.5048
 5618SOL    HW127533   2.602   6.230   3.465 -0.5535  3.4865 -0.3989
 5618SOL    HW227534   2.474   6.241   3.365  0.8221  1.8128 -2.3966
 5619SOL     OW27535   8.039   9.895   0.532 -0.1479 -0.6452 -0.8428
 5619SOL    HW127536   7.947   9.875   0.499  0.3054  0.5838 -3.0050
 5619SOL    HW227537   8.035   9.969   0.599 -0.7557 -0.7669 -0.7420
 5620SOL     OW27538   1.768   6.596   1.451 -0.3659  0.1625  0.3086
 5620SOL    HW127539   1.757   6.690   1.485 -0.8108 -0.0701  0.8125
 5620SOL    HW227540   1.734   6.590   1.357  1.1093  0.8711 -0.2905
 5621SOL     OW27541   9.211   2.065   0.332 -0.0574  0.2231 -0.3750
 5621SOL    HW127542   9.162   2.151   0.346  1.9057  1.4635 -0.9051
 5621SOL    HW227543   9.270   2.046   0.411  0.2056 -0.1557 -0.6576
 5622SOL     OW27544   0.503   1.171   0.933 -0.0259  0.2978 -0.0432
 5622SOL    HW127545   0.584   1.209   0.890  0.3816  0.3901  0.8037
 5622SOL    HW227546   0.527   1.128   1.020 -1.3438  3.2558  1.8804
 5623SOL     OW27547   1.256   0.710   4.110 -0.1759 -0.0019 -0.0556
 5623SOL    HW127548   1.258   0.614   4.136  0.3709 -0.2311 -0.9324
 5623SOL    HW227549   1.197   0.722   4.031  1.8188 -0.0352 -1.5841
 5624SOL     OW27550   9.152   8.474   0.725  0.1468  0.2645  0.0267
 5624SOL    HW127551   9.178   8.546   0.790 -1.0614 -1.0784  2.0863
 5624SOL    HW227552   9.229   8.412   0.712  0.5445  0.7983 -0.1886
 5625SOL     OW27553   1.030   2.290   1.169 -0.1135  0.5739 -0.3600
 5625SOL    HW127554   0.946   2.255   1.210 -0.5437  1.5179 -0.4275
 5625SOL    HW227555   1.013   2.379   1.129  1.1047  1.1037  0.2696
 5626SOL     OW27556   2.208   7.510   3.643  0.1893  0.0020 -0.4323
 5626SOL    HW127557   2.265   7.522   3.562  0.8795 -0.8449 -0.0805
 5626SOL    HW227558   2.210   7.594   3.698  1.3648 -0.1426 -0.2506
 5627SOL     OW27559   8.389   0.376   2.295 -0.0681 -0.4464  0.3434
 5627SOL    HW127560   8.315   0.384   2.362 -1.7389 -0.8314 -1.3773
 5627SOL    HW227561   8.385   0.285   2.252  1.9127 -0.7544  0.7877
 5628SOL     OW27562   0.562   3.721   4.645  0.2893  0.3376  0.5426
 5628SOL    HW127563   0.616   3.653   4.596 -0.0994 -0.9010  1.8038
 5628SOL    HW227564   0.603   3.739   4.734  0.3305  1.6983  0.2708
 5629SOL     OW27565   7.631   9.503   0.370 -0.0598  0.2556 -0.6044
 5629SOL    HW127566   7.668   9.591   0.402  1.4212 -0.4743 -0.2797
 5629SOL    HW227567   7.550   9.520   0.314 -0.0833  1.8041 -0.1282
 5630SOL     OW27568   4.404   8.748   3.892 -0.4600 -0.2933  0.0453
 5630SOL    HW127569   4.387   8.709   3.801  0.2442 -0.7410  0.0950
 5630SOL    HW227570   4.321   8.745   3.947 -0.7425 -0.5367 -0.3974
 5631SOL     OW27571   1.938   7.992   4.663 -0.5990  0.1658 -0.2893
 5631SOL    HW127572   1.887   8.015   4.580 -1.8714 -0.4763  0.3051
 5631SOL    HW227573   2.034   7.974   4.639 -1.2310 -1.3185 -1.8067
 5632SOL     OW27574   0.235   7.739   0.598  0.2067  0.7065  0.0697
 5632SOL    HW127575   0.261   7.646   0.570 -1.4787 -0.2079  1.4651
 5632SOL    HW227576   0.245   7.748   0.697 -0.8434  1.6198  0.0986
 5633SOL     OW27577   3.927   8.046   0.586 -0.3584  0.1929 -0.1329
 5633SOL    HW127578   4.009   8.001   0.621 -0.2788  2.3880  2.6353
 5633SOL    HW227579   3.952   8.133   0.544 -1.0038 -0.3582 -1.7327
 5634SOL     OW27580   1.009   9.414   4.767  0.3369  0.1232 -0.3410
 5634SOL    HW127581   1.108   9.426   4.756  0.7914 -1.5427  1.7484
 5634SOL    HW227582   0.979   9.334   4.716 -0.0273  0.8664 -1.3132
 5635SOL     OW27583   7.787   9.442   1.430 -0.3705  0.2241 -0.0078
 5635SOL    HW127584   7.839   9.439   1.345  0.5300 -2.1505  0.5728
 5635SOL    HW227585   7.782   9.536   1.464 -0.7830  1.2142 -2.6784
 5636SOL     OW27586   0.661   8.319   4.160  0.7519  0.4957  0.2142
 5636SOL    HW127587   0.608   8.398   4.189  0.3424  0.7606 -1.1975
 5636SOL    HW227588   0.755   8.347   4.141  0.5061  0.7333 -0.6738
 5637SOL     OW27589   1.736   9.599   0.619  1.3294 -0.4132 -0.3724
 5637SOL    HW127590   1.802   9.634   0.686  1.4161  0.8480 -1.1068
 5637SOL    HW227591   1.756   9.503   0.599  1.2158 -0.8488  1.5083
 5638SOL     OW27592   3.502   6.715   2.462 -0.2825  0.2547 -0.1863
 5638SOL    HW127593   3.550   6.664   2.390  0.9103  0.6723  0.3000
 5638SOL    HW227594   3.563   6.785   2.499 -0.7422 -0.2449  1.5447
 5639SOL     OW27595   0.471   7.396   0.695  0.2025  0.4864 -0.5902
 5639SOL    HW127596   0.519   7.321   0.741 -1.8958 -1.3169 -1.2613
 5639SOL    HW227597   0.534   7.441   0.631  1.6553 -0.3340  0.2272
 5640SOL     OW27598   3.312   0.855   1.452  0.7867 -0.3551 -0.4116
 5640SOL    HW127599   3.267   0.783   1.400 -0.1944  1.1358 -1.6846
 5640SOL    HW227600   3.410   0.855   1.431  0.5107 -0.2077 -1.7464
 5641SOL     OW27601   2.669   5.168   4.077  0.6203  0.2398 -0.4969
 5641SOL    HW127602   2.693   5.229   4.153  0.4414 -0.3160  0.0136
 5641SOL    HW227603   2.603   5.213   4.017 -0.8259 -0.0755  0.8206
 5642SOL     OW27604   4.934   5.287   1.496 -0.4928  0.0438 -0.2678
 5642SOL    HW127605   4.972   5.259   1.407  1.8151  0.4290  0.5579
 5642SOL    HW227606   4.868   5.219   1.527  0.1096 -1.0725 -1.3783
 5643SOL     OW27607   9.495   0.758   3.730 -0.3792  0.0479  0.1777
 5643SOL    HW127608   9.423   0.691   3.749 -1.8285  1.1235 -1.3821
 5643SOL    HW227609   9.467   0.848   3.764  0.4972  0.3569  0.0942
 5644SOL     OW27610   3.928   9.713   2.370  0.5824  0.3970  0.1066
 5644SOL    HW127611   3.925   9.676   2.278  0.5456 -0.9196  0.6252
 5644SOL    HW227612   4.011   9.768   2.382  0.5778  0.5802 -0.7004
 5645SOL     OW27613   8.073   8.346   2.301 -0.4375 -0.3266  0.0404
 5645SOL    HW127614   8.153   8.390   2.261  0.0144 -2.4371 -1.5134
 5645SOL    HW227615   8.097   8.309   2.391  0.2567 -0.6454 -0.2686
 5646SOL     OW27616   8.938   2.235   3.863 -0.2880 -0.8220  0.5875
 5646SOL    HW127617   8.873   2.167   3.896 -2.3190  0.4548 -0.6475
 5646SOL    HW227618   8.963   2.214   3.768 -0.8043  0.0472  0.2519
 5647SOL     OW27619   0.089   7.747   1.869  0.1795 -0.3117  0.1295
 5647SOL    HW127620   0.060   7.787   1.956  0.1554  2.8069 -1.2562
 5647SOL    HW227621   0.187   7.727   1.872  0.2940  0.3349  0.6650
 5648SOL     OW27622   7.694   0.625   0.906  0.2033  0.0166  0.3055
 5648SOL    HW127623   7.749   0.622   0.990 -0.2821  0.3535  0.6357
 5648SOL    HW227624   7.603   0.661   0.927  0.0210 -0.0726 -0.3334
 5649SOL     OW27625   1.565   3.635   2.094  0.2670  0.6124 -0.3566
 5649SOL    HW127626   1.541   3.538   2.103  3.0449 -0.0278  0.4263
 5649SOL    HW227627   1.483   3.686   2.068 -1.7232 -1.6261  1.2073
 5650SOL     OW27628   4.785   4.219   0.834  0.0041 -0.2410 -0.4190
 5650SOL    HW127629   4.779   4.318   0.841  1.6560 -0.2160  0.8633
 5650SOL    HW227630   4.764   4.191   0.740 -0.5413  1.3012 -0.7745
 5651SOL     OW27631   6.092   6.707   2.478 -0.2567  0.2603 -0.2645
 5651SOL    HW127632   6.045   6.698   2.390 -1.0870  0.2127  0.1771
 5651SOL    HW227633   6.082   6.622   2.530  2.5868 -0.7224 -1.2418
 5652SOL     OW27634   2.421   2.596   0.365  0.0801 -0.5367 -0.4143
 5652SOL    HW127635   2.339   2.619   0.418 -0.3831 -0.1581 -1.2948
 5652SOL    HW227636   2.419   2.499   0.341  0.3329 -0.7293  0.3292
 5653SOL     OW27637   0.212   3.995   4.389 -0.0908 -0.5058 -0.6123
 5653SOL    HW127638   0.290   4.057   4.381 -0.3810 -0.3208 -2.2243
 5653SOL    HW227639   0.128   4.044   4.366 -0.3253 -1.4695 -1.8885
 5654SOL     OW27640   1.907   0.150   0.689  1.0292  0.2195 -0.2567
 5654SOL    HW127641   1.851   0.071   0.714  0.1271  0.6070 -0.9957
 5654SOL    HW227642   1.868   0.232   0.731  1.3311  0.4220 -0.3758
 5655SOL     OW27643   0.986   1.490   1.738  0.6773 -0.0625 -0.4821
 5655SOL    HW127644   0.898   1.536   1.730  1.0130  0.3960 -1.6382
 5655SOL    HW227645   0.990   1.413   1.675  0.2416 -1.5255  1.2174
 5656SOL     OW27646   1.336   2.931   1.115 -0.6697  0.4830 -0.0415
 5656SOL    HW127647   1.427   2.893   1.099 -0.3270  1.1379  0.3377
 5656SOL    HW227648   1.331   3.023   1.079 -1.0410  0.6131  0.3372
 5657SOL     OW27649   9.606   0.414   0.852  0.2280  0.7090  0.3776
 5657SOL    HW127650   9.698   0.382   0.830  0.1753  1.2419 -0.6059
 5657SOL    HW227651   9.541   0.339   0.842  0.5630  0.2980  1.1981
 5658SOL     OW27652   2.215   9.368   2.767  0.2560 -0.2660 -0.1792
 5658SOL    HW127653   2.246   9.275   2.784  2.0058  0.1860 -0.8034
 5658SOL    HW227654   2.209   9.384   2.669 -3.0769 -0.6870 -0.0809
 5659SOL     OW27655   9.569   9.980   4.644 -0.0385  0.6035 -0.4767
 5659SOL    HW127656   9.575  10.075   4.675 -1.1242  0.5512 -0.0699
 5659SOL    HW227657   9.495   9.971   4.577 -0.6361 -0.1441  0.2621
 5660SOL     OW27658   9.587   8.855   3.713  0.2170  0.4292 -0.1436
 5660SOL    HW127659   9.496   8.817   3.729  0.4081  0.4802  1.0508
 5660SOL    HW227660   9.617   8.906   3.793  0.3617  2.3163 -1.3839
 5661SOL     OW27661   8.329   7.622   2.874  0.4756 -0.2317  0.3613
 5661SOL    HW127662   8.286   7.646   2.961 -1.8916  0.2956 -0.9244
 5661SOL    HW227663   8.302   7.529   2.848  0.2849  0.0174 -0.3482
 5662SOL     OW27664   4.095   7.454   2.660 -0.5222  0.0185 -0.2618
 5662SOL    HW127665   4.002   7.440   2.693  0.4000 -1.6457  1.7108
 5662SOL    HW227666   4.130   7.540   2.696 -1.0340  0.3208 -0.4669
 5663SOL     OW27667   2.685   2.095   3.568  0.4298  0.0443  0.5606
 5663SOL    HW127668   2.650   2.133   3.653 -0.5946  1.3183 -0.4151
 5663SOL    HW227669   2.740   2.165   3.521 -1.2640  0.2660 -1.1277
 5664SOL     OW27670   0.455   1.069   2.118  0.0395  0.1299  0.1489
 5664SOL    HW127671   0.391   1.000   2.152  0.3323  0.2569  0.9686
 5664SOL    HW227672   0.511   1.103   2.194  1.7902 -0.7316 -0.7306
 5665SOL     OW27673   7.919   9.475   3.000  0.0953 -0.2504  0.0455
 5665SOL    HW127674   7.973   9.393   2.979  0.3259 -0.4309  1.3407
 5665SOL    HW227675   7.953   9.517   3.084  0.4881  1.6311 -1.0278
 5666SOL     OW27676   5.479   0.042   3.687  0.0222  0.0224 -0.4675
 5666SOL    HW127677   5.473   0.130   3.639 -0.3836 -0.3200 -1.0615
 5666SOL    HW227678   5.397   0.029   3.742 -0.1257 -0.1790 -0.7315
 5667SOL     OW27679   7.026   7.100   3.022  0.0822  0.3161 -0.2032
 5667SOL    HW127680   6.931   7.070   3.012  0.6461 -1.7109  0.1514
 5667SOL    HW227681   7.051   7.160   2.946 -1.3632  0.5504 -0.4988
 5668SOL     OW27682   6.754   0.192   3.616 -0.0073  0.6481 -0.0186
 5668SOL    HW127683   6.756   0.093   3.632  1.4937  0.8147  0.9658
 5668SOL    HW227684   6.663   0.227   3.635  0.0666 -0.1936  2.0242
 5669SOL     OW27685   1.405   7.628   3.933  0.3844 -0.6484 -0.0968
 5669SOL    HW127686   1.347   7.600   3.857  0.2102 -1.8263  0.4616
 5669SOL    HW227687   1.474   7.693   3.901 -0.8097  0.2513 -0.9007
 5670SOL     OW27688   5.256   6.936   2.566 -0.2570  0.1732  0.0207
 5670SOL    HW127689   5.243   7.029   2.600 -0.6737  0.5555 -1.1576
 5670SOL    HW227690   5.353   6.913   2.570 -0.1953  0.5307  0.6428
 5671SOL     OW27691   1.740   0.254   2.931  0.3058  0.0824 -0.0976
 5671SOL    HW127692   1.818   0.283   2.876 -0.5541 -1.2114 -2.0238
 5671SOL    HW227693   1.763   0.171   2.981  0.0542 -0.4739 -0.9085
 5672SOL     OW27694   9.108   6.715   2.480 -0.4044 -0.2250 -0.1529
 5672SOL    HW127695   9.132   6.801   2.523 -0.2738  0.0180 -0.7079
 5672SOL    HW227696   9.156   6.640   2.525 -0.3988  0.0105  0.2276
 5673SOL     OW27697   0.261   2.926   3.846 -0.7786  0.3275 -0.3092
 5673SOL    HW127698   0.298   2.992   3.780  0.6904 -0.1405  0.0286
 5673SOL    HW227699   0.298   2.945   3.937 -1.2051 -0.2915 -0.0013
 5674SOL     OW27700   0.214   4.558   4.691  0.4563 -0.3851 -0.3199
 5674SOL    HW127701   0.200   4.615   4.610 -0.0424 -1.3432 -0.9223
 5674SOL    HW227702   0.126   4.546   4.738 -0.1100 -3.2529 -1.9712
 5675SOL     OW27703   3.573   4.238   3.386  0.3123  0.3787  0.1232
 5675SOL    HW127704   3.578   4.307   3.313  0.2963 -0.0508 -0.2840
 5675SOL    HW227705   3.586   4.283   3.475 -2.3983  1.3136  0.0796
 5676SOL     OW27706   5.788   8.331   3.540 -0.2644 -0.0768  0.5211
 5676SOL    HW127707   5.773   8.290   3.450 -1.9040  1.4699  0.0569
 5676SOL    HW227708   5.729   8.411   3.550  3.4471  2.7306  1.0594
 5677SOL     OW27709   6.121   9.640   1.758  0.1319  0.7723  0.2431
 5677SOL    HW127710   6.205   9.628   1.705 -0.5151  1.7432 -1.0400
 5677SOL    HW227711   6.118   9.573   1.832  1.5735  0.1009 -0.2901
 5678SOL     OW27712   0.868   7.702   2.796  0.4630  0.4329  0.2015
 5678SOL    HW127713   0.881   7.785   2.741  1.1666 -0.2603 -0.6889
 5678SOL    HW227714   0.775   7.701   2.833  0.1475  1.1573 -0.5563
 5679SOL     OW27715   2.282   4.766   1.717  0.3336  0.3035 -0.6933
 5679SOL    HW127716   2.212   4.695   1.713 -1.5772  2.1980 -1.8551
 5679SOL    HW227717   2.284   4.817   1.631 -0.5621  3.6795  1.1483
 5680SOL     OW27718   7.493   6.042   2.865  0.3678 -0.2102  0.2076
 5680SOL    HW127719   7.504   6.136   2.898  1.3295 -0.1750 -0.1985
 5680SOL    HW227720   7.446   5.988   2.934 -0.3895  0.6289  0.3538
 5681SOL     OW27721   7.068   0.149   0.429  0.0370 -0.3475 -0.1451
 5681SOL    HW127722   7.051   0.117   0.335 -1.0892 -0.9098  0.2419
 5681SOL    HW227723   7.144   0.214   0.428  0.3480 -0.7067 -1.3832
 5682SOL     OW27724   1.970   5.142   0.735 -0.2153 -0.1852 -0.1439
 5682SOL    HW127725   1.927   5.131   0.824 -1.1107  0.0487 -0.5464
 5682SOL    HW227726   2.069   5.155   0.747 -0.2500 -0.7514  0.7724
 5683SOL     OW27727   0.708   6.739   3.018  0.1059  0.0369  0.0194
 5683SOL    HW127728   0.652   6.720   3.099 -0.1150 -0.2285 -0.1951
 5683SOL    HW227729   0.781   6.804   3.043 -0.2332  0.3055  0.3176
 5684SOL     OW27730   3.550   4.325   2.260  0.7966  0.1449  0.3867
 5684SOL    HW127731   3.525   4.229   2.268 -0.4877  0.4222 -0.2313
 5684SOL    HW227732   3.473   4.382   2.290  0.2058  1.0300 -2.6965
 5685SOL     OW27733   2.339   6.069   4.492  0.4647 -0.5095 -0.0456
 5685SOL    HW127734   2.340   6.159   4.535  0.9363 -2.0863  3.3909
 5685SOL    HW227735   2.247   6.030   4.497  0.6983 -1.0331  0.2970
 5686SOL     OW27736   4.493   7.025   2.298  0.0568 -1.0244  0.5599
 5686SOL    HW127737   4.475   7.109   2.348  1.6520 -0.8133  0.7974
 5686SOL    HW227738   4.406   6.984   2.268 -0.7750  0.0391  1.5136
 5687SOL     OW27739   9.444   8.482   2.141  0.2679  0.7711  0.8097
 5687SOL    HW127740   9.431   8.576   2.108 -1.9275  0.6490  1.2793
 5687SOL    HW227741   9.488   8.484   2.231  0.8659  1.3098  0.5111
 5688SOL     OW27742   2.311   0.044   3.675  0.6825  0.1495 -0.2183
 5688SOL    HW127743   2.266   0.102   3.607  2.0024  1.4069 -0.0472
 5688SOL    HW227744   2.336  -0.043   3.633  1.0155  0.7131 -1.2118
 5689SOL     OW27745   2.247   3.377   0.600 -0.1159 -0.1966 -0.8137
 5689SOL    HW127746   2.288   3.395   0.510 -1.8464 -0.0059 -1.5880
 5689SOL    HW227747   2.287   3.439   0.668  1.1177 -0.2554 -1.4641
 5690SOL     OW27748   1.315   3.642   1.853 -0.1890 -0.4110 -0.1115
 5690SOL    HW127749   1.253   3.699   1.799 -0.7588  0.7146  1.6787
 5690SOL    HW227750   1.407   3.645   1.812 -0.6222  0.3717 -1.0455
 5691SOL     OW27751   3.800   8.668   4.749  0.4997 -0.5639 -0.4880
 5691SOL    HW127752   3.877   8.655   4.687  1.8026 -1.6556  1.3139
 5691SOL    HW227753   3.834   8.685   4.842 -1.4026  1.0618 -0.0283
 5692SOL     OW27754   3.121   6.053   2.692 -0.1065 -0.1842 -0.3466
 5692SOL    HW127755   3.088   6.146   2.710 -0.7720 -0.5472  0.3196
 5692SOL    HW227756   3.054   5.986   2.724 -0.2548 -0.8931 -2.0699
 5693SOL     OW27757   1.643   4.212   3.752  0.0249 -0.1959 -0.0827
 5693SOL    HW127758   1.719   4.193   3.690  2.0013  1.4264  1.7735
 5693SOL    HW227759   1.670   4.282   3.818 -1.7700 -2.2757  3.0087
 5694SOL     OW27760   3.890   2.326   1.284  0.0983  0.6606 -0.8603
 5694SOL    HW127761   3.899   2.251   1.218 -0.2002  1.0114 -1.3051
 5694SOL    HW227762   3.807   2.378   1.264  0.6931  1.5634 -1.0187
 5695SOL     OW27763   8.151   7.257   1.377  0.0525 -0.4609 -0.3087
 5695SOL    HW127764   8.065   7.216   1.405  0.9765 -1.1315  1.5976
 5695SOL    HW227765   8.141   7.357   1.374 -0.2799 -0.4228  1.6884
 5696SOL     OW27766   4.463   3.351   4.000 -0.6578 -0.0510 -0.2202
 5696SOL    HW127767   4.514   3.394   4.075 -0.0007 -2.7258  0.9391
 5696SOL    HW227768   4.496   3.386   3.913  0.8002  0.7903  0.6415
 5697SOL     OW27769   9.302   5.231   1.964  0.8022 -0.3232 -0.4956
 5697SOL    HW127770   9.234   5.224   2.037  1.5508  2.2242  0.5179
 5697SOL    HW227771   9.371   5.159   1.976  1.5967  0.7862  2.1097
 5698SOL     OW27772   1.422   0.892   3.925  0.0241  0.4618 -0.5141
 5698SOL    HW127773   1.350   0.838   3.969  1.9567 -1.7859  0.0390
 5698SOL    HW227774   1.471   0.945   3.994 -0.9842  1.8610 -0.8662
 5699SOL     OW27775   3.167   1.183   2.183 -0.1698  0.1095  0.0602
 5699SOL    HW127776   3.205   1.202   2.274 -0.3546 -3.9289  1.0748
 5699SOL    HW227777   3.068   1.170   2.190 -0.3507  0.9458 -0.9249
 5700SOL     OW27778   2.262   1.581   1.912  0.0081 -0.2627  0.6422
 5700SOL    HW127779   2.227   1.657   1.967 -1.4779 -0.6422  0.2646
 5700SOL    HW227780   2.308   1.515   1.971  0.8840  0.6879  1.0377
 5701SOL     OW27781   3.811   4.328   2.735 -0.2736 -0.0509  0.0019
 5701SOL    HW127782   3.711   4.324   2.733 -0.2128 -1.4201 -1.1699
 5701SOL    HW227783   3.841   4.423   2.736 -1.5692  0.3671 -0.4050
 5702SOL     OW27784   1.035   3.255   2.081 -0.6081  0.3947 -0.2682
 5702SOL    HW127785   1.082   3.341   2.061 -2.1494  1.5302  0.8333
 5702SOL    HW227786   1.013   3.251   2.178 -1.5698 -0.7150 -0.5206
 5703SOL     OW27787   8.599   5.033   4.660 -0.3194 -0.0422  0.0209
 5703SOL    HW127788   8.639   5.041   4.751  0.2796 -1.1899 -0.1326
 5703SOL    HW227789   8.513   4.983   4.666 -0.5678  0.3777  0.0254
 5704SOL     OW27790   8.328   1.648   1.384 -0.1549 -0.1271  0.1373
 5704SOL    HW127791   8.289   1.725   1.334  1.8416  1.5250  1.0609
 5704SOL    HW227792   8.417   1.625   1.347  1.1869  0.8820  2.6298
 5705SOL     OW27793   9.578   5.683   2.495  0.4233 -0.6351 -0.1444
 5705SOL    HW127794   9.551   5.734   2.577 -0.1201 -2.1755  0.6544
 5705SOL    HW227795   9.540   5.591   2.499  1.3577 -1.1039 -1.5941
 5706SOL     OW27796   4.428   7.964   2.031 -0.3852  0.2279 -0.4563
 5706SOL    HW127797   4.453   8.060   2.024 -1.5424  0.4945 -0.8566
 5706SOL    HW227798   4.334   7.955   2.063 -0.0035 -0.7868  0.4555
 5707SOL     OW27799   9.400   2.602   4.291  0.3067  0.2049  0.4942
 5707SOL    HW127800   9.412   2.504   4.305  0.9563 -0.1330 -2.1502
 5707SOL    HW227801   9.304   2.623   4.273  0.3937 -0.1345 -0.3486
 5708SOL     OW27802   1.949   7.396   0.798  0.1846  0.2378  0.0128
 5708SOL    HW127803   1.885   7.341   0.853  0.0855 -0.5472 -0.8811
 5708SOL    HW227804   1.947   7.364   0.703  3.0312 -0.8126  0.2511
 5709SOL     OW27805   7.115   0.187   4.687  0.1175 -0.0471  0.3938
 5709SOL    HW127806   7.028   0.237   4.694  0.8927  1.2994  0.6828
 5709SOL    HW227807   7.137   0.173   4.590  1.1356  2.4706  0.2085
 5710SOL     OW27808   1.127   9.460   0.562  0.2234  0.3815  0.0295
 5710SOL    HW127809   1.180   9.423   0.486  0.4599  0.6191  0.0767
 5710SOL    HW227810   1.186   9.519   0.618  0.6959 -1.6419  1.7419
 5711SOL     OW27811   8.194   2.894   3.921 -0.1187 -0.3933  0.2978
 5711SOL    HW127812   8.121   2.931   3.864 -0.4112  0.7216  1.3666
 5711SOL    HW227813   8.160   2.814   3.971 -0.7706  0.3902  1.1357
 5712SOL     OW27814   8.351   6.446   2.430  0.1417 -0.0403  0.6304
 5712SOL    HW127815   8.402   6.529   2.454 -1.0730  0.7120  0.6729
 5712SOL    HW227816   8.276   6.433   2.495 -0.2111 -0.6827  0.1020
 5713SOL     OW27817   8.361   2.575   4.682  0.1062 -0.1063 -0.6608
 5713SOL    HW127818   8.395   2.657   4.636  0.8359 -0.0891 -0.1139
 5713SOL    HW227819   8.435   2.507   4.687 -0.0955 -0.2739  0.0832
 5714SOL     OW27820   2.392   2.516   3.560  0.0793  0.5809  0.0821
 5714SOL    HW127821   2.417   2.526   3.656  0.2553  0.2408  0.0740
 5714SOL    HW227822   2.302   2.474   3.553  0.5670 -0.4858  0.0920
 5715SOL     OW27823   8.949   6.515   1.539 -0.0891 -0.4481 -0.4074
 5715SOL    HW127824   8.872   6.539   1.598  0.2465 -1.1560  0.3120
 5715SOL    HW227825   9.018   6.466   1.591 -0.0715 -1.6228 -1.5198
 5716SOL     OW27826   0.280   0.138   0.617  0.0352 -0.2254  0.3340
 5716SOL    HW127827   0.308   0.156   0.523  1.7033  1.5316  1.1236
 5716SOL    HW227828   0.358   0.103   0.669 -0.6843 -0.5332  1.2255
 5717SOL     OW27829   3.239   6.913   1.303 -0.2650 -0.3161 -0.2176
 5717SOL    HW127830   3.197   6.987   1.251 -0.5530  0.3890  1.0127
 5717SOL    HW227831   3.218   6.826   1.258 -2.3293  0.0911 -0.1318
 5718SOL     OW27832   5.715   8.694   2.706 -0.4504 -0.7174 -0.2009
 5718SOL    HW127833   5.641   8.655   2.761  0.4976 -2.1500  0.0664
 5718SOL    HW227834   5.741   8.629   2.634 -0.2773  0.2882 -1.0673
 5719SOL     OW27835   1.980   5.290   2.003 -0.1800  0.7800  0.2859
 5719SOL    HW127836   1.888   5.327   1.988 -0.8931 -1.2561 -0.4816
 5719SOL    HW227837   1.974   5.196   2.035  1.6401  0.8242  0.8478
 5720SOL     OW27838   6.924   8.547   1.831 -0.2283  0.0420  0.1334
 5720SOL    HW127839   6.845   8.605   1.812  0.2113  0.5611 -0.1363
 5720SOL    HW227840   6.961   8.512   1.745 -0.0481 -0.0321  0.2415
 5721SOL     OW27841   0.713   8.299   3.122 -0.9074 -0.1069 -0.3371
 5721SOL    HW127842   0.789   8.361   3.104 -0.4025 -0.5000  0.4251
 5721SOL    HW227843   0.734   8.209   3.083 -1.0922 -0.1543 -0.3319
 5722SOL     OW27844   8.116   6.435   3.297  0.3759  0.4204 -0.1854
 5722SOL    HW127845   8.202   6.390   3.271 -1.5962 -3.0747 -0.9436
 5722SOL    HW227846   8.087   6.495   3.223  1.0557 -0.0576 -0.8573
 5723SOL     OW27847   0.616   5.432   1.494 -0.1126  0.2627 -0.1083
 5723SOL    HW127848   0.560   5.503   1.537  0.5275  0.7516 -0.0742
 5723SOL    HW227849   0.713   5.455   1.505  0.1270 -1.1988  0.8798
 5724SOL     OW27850   6.163   7.149   3.013  0.3675  0.0602  0.1684
 5724SOL    HW127851   6.231   7.215   3.045 -1.6808  2.1960  0.2864
 5724SOL    HW227852   6.112   7.114   3.091 -0.1879  0.2024 -0.1305
 5725SOL     OW27853   6.397   9.579   3.258  0.1898  0.0996  0.1082
 5725SOL    HW127854   6.333   9.642   3.302 -0.5414 -0.4581 -0.1268
 5725SOL    HW227855   6.393   9.592   3.159  2.6304  2.0997  0.2441
 5726SOL     OW27856   4.719   2.500   2.431  0.2830  0.4779  0.0638
 5726SOL    HW127857   4.706   2.590   2.391 -3.0415  0.6474  1.3522
 5726SOL    HW227858   4.684   2.430   2.369  0.8658  0.2281  0.0087
 5727SOL     OW27859   0.038   2.638   2.282  0.1499 -0.0926  0.6591
 5727SOL    HW127860   0.121   2.653   2.228 -0.2705  1.9660  0.5645
 5727SOL    HW227861   0.057   2.574   2.356  1.6025 -0.2419  0.1680
 5728SOL     OW27862   3.444   8.502   0.359 -0.2683  0.2204 -0.1818
 5728SOL    HW127863   3.365   8.559   0.383  0.4380  0.5349  1.4946
 5728SOL    HW227864   3.528   8.548   0.389  0.4432 -0.8437 -0.5146
 5729SOL     OW27865   8.574   9.399   4.557  0.0998 -0.2804 -0.1614
 5729SOL    HW127866   8.522   9.316   4.534 -2.7153  1.0511  1.1186
 5729SOL    HW227867   8.551   9.471   4.491  0.2727  0.3431  0.4650
 5730SOL     OW27868   9.285   4.980   0.277 -0.7149 -0.0553  0.0147
 5730SOL    HW127869   9.314   4.949   0.368 -0.8845 -2.0341 -0.5847
 5730SOL    HW227870   9.225   4.912   0.236  0.8792 -0.0816 -2.3668
 5731SOL     OW27871   9.119   3.479   1.447  0.3559 -0.3000 -0.2951
 5731SOL    HW127872   9.155   3.436   1.364  1.4688 -0.5613  0.3066
 5731SOL    HW227873   9.195   3.515   1.501 -0.4013  0.3608  0.3427
 5732SOL     OW27874   3.750   1.395   2.948 -0.0663  0.1648 -0.5052
 5732SOL    HW127875   3.788   1.401   3.040 -0.8635  1.1237 -0.2336
 5732SOL    HW227876   3.654   1.423   2.950 -0.2014 -0.2089 -1.5567
 5733SOL     OW27877   3.268   8.807   3.282  0.3494 -0.1518  0.2607
 5733SOL    HW127878   3.350   8.777   3.330 -0.5648 -2.5505  0.3927
 5733SOL    HW227879   3.192   8.746   3.305 -0.9841  0.8424 -1.4092
 5734SOL     OW27880   2.266   3.854   1.280  0.7594 -0.5556  0.2952
 5734SOL    HW127881   2.361   3.878   1.259 -0.1198  2.6337 -0.4235
 5734SOL    HW227882   2.242   3.890   1.370  0.1357 -1.0251  0.3166
 5735SOL     OW27883   3.193   8.716   1.763 -0.0698 -0.3332  0.2330
 5735SOL    HW127884   3.204   8.753   1.671  0.2157 -1.5585 -0.2355
 5735SOL    HW227885   3.166   8.790   1.826  1.3043  0.8166 -0.5091
 5736SOL     OW27886   0.415   9.818   3.971  0.1842 -0.1548  0.1739
 5736SOL    HW127887   0.350   9.791   4.042 -1.9662 -0.4558 -1.8497
 5736SOL    HW227888   0.421   9.917   3.966 -0.9356 -0.1113 -0.3394
 5737SOL     OW27889   7.822   7.949   3.755  0.1059 -0.6243  0.2382
 5737SOL    HW127890   7.733   7.984   3.727  0.1812  0.6727  1.5906
 5737SOL    HW227891   7.894   8.010   3.722  0.2083  0.8932  3.1107
 5738SOL     OW27892   3.018   6.488   1.785 -0.0350  0.0480 -0.3021
 5738SOL    HW127893   3.044   6.407   1.839 -0.0778 -0.4594 -1.0334
 5738SOL    HW227894   2.983   6.558   1.847  1.1143 -0.0345  0.4722
 5739SOL     OW27895   6.945   9.709   3.288  0.3416  0.2931  0.0635
 5739SOL    HW127896   6.847   9.695   3.301 -0.0626  2.5913 -0.3664
 5739SOL    HW227897   6.988   9.622   3.263 -1.8403 -0.4274 -1.2871
 5740SOL     OW27898   2.630   2.987   2.830 -0.7132 -0.2192 -0.6014
 5740SOL    HW127899   2.668   3.041   2.754 -1.9499 -0.7744 -1.6274
 5740SOL    HW227900   2.682   2.901   2.838  0.3430  0.4701  0.1240
 5741SOL     OW27901   4.200   9.510   0.515  0.2017 -0.3080  0.1497
 5741SOL    HW127902   4.195   9.442   0.588 -1.5997 -1.1763 -0.7653
 5741SOL    HW227903   4.197   9.464   0.426  2.8513  0.6970 -0.5112
 5742SOL     OW27904   2.144   0.075   0.773  0.3109 -0.3549  0.1519
 5742SOL    HW127905   2.120   0.031   0.859  1.6868 -1.0721  0.1917
 5742SOL    HW227906   2.062   0.107   0.727 -0.5612 -1.3824  0.9816
 5743SOL     OW27907   0.650   7.423   2.274 -0.5989  0.2228 -0.5364
 5743SOL    HW127908   0.628   7.325   2.276 -1.2428  0.3716 -0.4895
 5743SOL    HW227909   0.746   7.434   2.248  0.7439 -0.6322  3.6842
 5744SOL     OW27910   3.311   8.310   3.085  1.0164  0.3977  0.5978
 5744SOL    HW127911   3.292   8.408   3.094  2.1158  0.8472 -1.6619
 5744SOL    HW227912   3.314   8.269   3.176  2.3950  2.8341  1.7198
 5745SOL     OW27913   3.384   9.420   2.408 -0.5263 -0.4234 -0.4685
 5745SOL    HW127914   3.445   9.451   2.335  1.4631  0.4692  1.5378
 5745SOL    HW227915   3.414   9.331   2.442 -0.1883  0.1289  0.6961
 5746SOL     OW27916   2.296   7.199   3.388 -0.0121 -0.0438  0.1618
 5746SOL    HW127917   2.369   7.238   3.445  0.3369  1.1345 -1.0570
 5746SOL    HW227918   2.213   7.254   3.398  0.7773  1.7064 -2.3466
 5747SOL     OW27919   9.872   0.697   0.106  0.1983  0.6264 -0.2265
 5747SOL    HW127920   9.881   0.619   0.168  0.5329  0.6639 -0.2284
 5747SOL    HW227921   9.877   0.665   0.011 -2.5389  0.2640 -0.3023
 5748SOL     OW27922   9.533   2.986   3.483 -0.1805  0.9653 -0.3294
 5748SOL    HW127923   9.573   3.061   3.537  0.0744  0.4805  0.1558
 5748SOL    HW227924   9.466   2.937   3.539 -0.1633  0.6744 -0.5633
 5749SOL     OW27925   0.729   7.213   1.959 -0.2485 -0.1691 -0.0115
 5749SOL    HW127926   0.799   7.283   1.974 -0.2407  0.1116 -1.2818
 5749SOL    HW227927   0.656   7.224   2.026  0.1534  0.5411  0.3185
 5750SOL     OW27928   5.024   5.036   1.729 -0.4006 -0.3948 -0.2347
 5750SOL    HW127929   5.045   5.030   1.826 -0.5078 -0.1265 -0.1941
 5750SOL    HW227930   5.091   4.984   1.676  0.2199  0.2685 -0.0946
 5751SOL     OW27931   0.930   7.003   0.631  0.2687 -0.3479 -0.3675
 5751SOL    HW127932   0.994   6.934   0.662  0.8518  0.6358  0.6504
 5751SOL    HW227933   0.935   7.012   0.531  1.8543 -0.1357 -0.2730
 5752SOL     OW27934   0.632   3.722   2.909 -0.2483 -0.8433  0.0347
 5752SOL    HW127935   0.691   3.687   2.836 -0.7197  0.5100 -1.0087
 5752SOL    HW227936   0.685   3.730   2.993  1.5524  1.8301 -1.2606
 5753SOL     OW27937   3.751   7.582   0.603 -0.1806  0.6131 -0.0830
 5753SOL    HW127938   3.798   7.654   0.653  0.6283 -0.5459  0.8374
 5753SOL    HW227939   3.653   7.585   0.623 -0.3763  2.4267 -1.2609
 5754SOL     OW27940   8.848   5.184   2.834  0.3061  0.2317  0.1898
 5754SOL    HW127941   8.781   5.252   2.863  0.1737 -0.3202  1.2086
 5754SOL    HW227942   8.879   5.132   2.914 -0.2314 -1.4599 -0.6717
 5755SOL     OW27943   5.569   8.033   3.160  0.2225  0.0093  0.4700
 5755SOL    HW127944   5.587   7.938   3.182  0.9756  0.5215  2.1872
 5755SOL    HW227945   5.471   8.051   3.163  0.2078 -0.2532  2.2265
 5756SOL     OW27946   8.320   1.831   3.907 -0.2198  0.4951  0.3387
 5756SOL    HW127947   8.331   1.928   3.932  1.0309  0.6597 -0.7960
 5756SOL    HW227948   8.299   1.824   3.809 -1.3761 -0.3376  0.6326
 5757SOL     OW27949   2.777   8.186   4.678  0.3342  0.5060  0.1570
 5757SOL    HW127950   2.733   8.111   4.629  1.2639  0.1493 -0.1610
 5757SOL    HW227951   2.708   8.252   4.708 -0.4335 -0.2002 -0.0344
 5758SOL     OW27952   9.783   4.031   3.725 -0.5606  0.5175 -0.2663
 5758SOL    HW127953   9.805   4.023   3.628  0.1823  1.4048 -0.1792
 5758SOL    HW227954   9.819   3.951   3.774  2.0378  1.6480 -0.2257
 5759SOL     OW27955   7.773   8.920   3.162  0.0958  0.3219  0.1874
 5759SOL    HW127956   7.757   8.822   3.162  0.5473  0.2253 -2.2119
 5759SOL    HW227957   7.857   8.941   3.113 -0.8991  2.0331 -0.8631
 5760SOL     OW27958   1.349   1.272   0.833 -0.1881 -0.3678 -0.0633
 5760SOL    HW127959   1.365   1.230   0.743  0.9746 -0.0031 -0.0331
 5760SOL    HW227960   1.252   1.266   0.856 -0.3386 -1.3138 -0.9249
 5761SOL     OW27961   9.559   5.416   3.290  0.6665 -0.1852  0.3735
 5761SOL    HW127962   9.635   5.451   3.345  1.4498  0.9498 -1.3721
 5761SOL    HW227963   9.584   5.420   3.193 -1.3440 -0.4748 -0.1761
 5762SOL     OW27964   4.882   0.371   2.836 -0.0024  0.1611 -0.5940
 5762SOL    HW127965   4.819   0.445   2.811 -0.1087  0.1820 -0.2687
 5762SOL    HW227966   4.854   0.287   2.791 -0.4657  0.0910 -0.1827
 5763SOL     OW27967   8.968   7.323   0.327  0.1761  0.1493 -0.2525
 5763SOL    HW127968   8.917   7.396   0.281 -0.2970  0.0063  0.0472
 5763SOL    HW227969   8.908   7.245   0.343  0.4977 -0.0313  0.0803
 5764SOL     OW27970   9.140   1.978   1.224 -0.5138 -0.5026  0.2518
 5764SOL    HW127971   9.081   2.021   1.156 -0.2818  0.9883  0.9693
 5764SOL    HW227972   9.084   1.938   1.297 -0.6582  0.7163  0.8184
 5765SOL     OW27973   9.577   8.618   4.303  0.3152 -0.0797 -0.8901
 5765SOL    HW127974   9.483   8.600   4.275  0.3811 -0.0622 -1.1293
 5765SOL    HW227975   9.609   8.544   4.362  0.4253 -0.5199 -1.4882
 5766SOL     OW27976   0.641   0.091   3.799 -0.4562 -0.5443  0.1982
 5766SOL    HW127977   0.606   0.035   3.873 -0.1923  0.8019  1.3618
 5766SOL    HW227978   0.627   0.188   3.821  2.2960 -0.0389 -0.1474
 5767SOL     OW27979   1.571   6.159   3.901 -0.2546 -1.0059 -1.0521
 5767SOL    HW127980   1.625   6.196   3.825 -0.5904 -0.1110 -0.8670
 5767SOL    HW227981   1.487   6.213   3.911  0.8801  0.3360  1.4242
 5768SOL     OW27982   1.376   0.197   2.784 -0.4934 -0.4346  0.0727
 5768SOL    HW127983   1.317   0.161   2.856 -1.9054  0.1776 -0.7592
 5768SOL    HW227984   1.387   0.128   2.713  0.9445 -1.0588  0.8811
 5769SOL     OW27985   0.593   5.817   1.677 -0.2123  0.0979  0.2102
 5769SOL    HW127986   0.516   5.874   1.705 -0.4687 -0.6671  1.0748
 5769SOL    HW227987   0.579   5.724   1.710  0.3439 -0.3978 -0.9501
 5770SOL     OW27988   1.443   8.244   2.824 -0.0235  0.1462 -0.3332
 5770SOL    HW127989   1.453   8.277   2.918 -1.5721  1.9840 -0.7919
 5770SOL    HW227990   1.533   8.214   2.789  1.3240  3.2503  0.3415
 5771SOL     OW27991   3.170   0.111   3.262 -0.0469 -0.1071  0.3169
 5771SOL    HW127992   3.102   0.176   3.297 -0.4370 -1.2116  1.6503
 5771SOL    HW227993   3.137   0.018   3.277  0.6831 -0.6300 -1.2363
 5772SOL     OW27994   8.062   0.890   4.613 -0.3012  0.1798  0.4995
 5772SOL    HW127995   8.086   0.797   4.583 -1.2508  0.2111 -0.3879
 5772SOL    HW227996   8.141   0.950   4.600  0.5700 -0.6457  1.7807
 5773SOL     OW27997   8.106   0.462   0.804  0.4325 -0.8319  0.0381
 5773SOL    HW127998   8.206   0.460   0.804  0.4477 -0.2893 -0.5202
 5773SOL    HW227999   8.072   0.427   0.717  0.1688  0.0378 -0.2179
 5774SOL     OW28000   9.833   5.651   1.183  0.6262 -0.8375  0.1005
 5774SOL    HW128001   9.829   5.648   1.083  1.6559 -1.6880  0.0709
 5774SOL    HW228002   9.918   5.695   1.211  0.4976 -0.9083  0.6010
 5775SOL     OW28003   8.480   8.503   2.846  0.1722  0.7155 -0.1714
 5775SOL    HW128004   8.446   8.453   2.926 -0.9133  0.3351 -0.8574
 5775SOL    HW228005   8.577   8.525   2.859  0.5182 -1.0764  0.3814
 5776SOL     OW28006   4.460   1.444   2.199  0.5443  0.2966  0.2330
 5776SOL    HW128007   4.420   1.412   2.285  1.1148 -0.1119  0.3511
 5776SOL    HW228008   4.421   1.533   2.175 -3.8094 -2.0812 -1.9811
 5777SOL     OW28009   8.014   0.793   1.141 -0.1473  0.1054 -0.0109
 5777SOL    HW128010   8.003   0.818   1.237 -0.8569  2.8674 -0.7383
 5777SOL    HW228011   8.110   0.797   1.115 -0.1307  1.1177  0.1808
 5778SOL     OW28012   1.711   1.906   3.566  0.1977 -0.3328 -0.1669
 5778SOL    HW128013   1.708   1.806   3.573  0.4617 -0.4763 -1.9525
 5778SOL    HW228014   1.625   1.945   3.600 -0.4260 -1.2360 -0.7081
 5779SOL     OW28015   9.500   7.537   4.124  0.2897  0.2959 -0.0408
 5779SOL    HW128016   9.428   7.477   4.160  0.5359 -0.1153 -0.2311
 5779SOL    HW228017   9.556   7.486   4.058  0.3512  0.8058 -0.3859
 5780SOL     OW28018   5.592   9.310   3.623  0.2438 -0.3318 -0.1436
 5780SOL    HW128019   5.634   9.280   3.709 -3.9625 -1.7894  1.5275
 5780SOL    HW228020   5.599   9.237   3.555  1.1682 -0.2224 -0.1727
 5781SOL     OW28021   8.636   4.490   1.242 -0.3914 -1.0758 -0.3426
 5781SOL    HW128022   8.562   4.501   1.176 -0.4760 -0.0137 -0.0887
 5781SOL    HW228023   8.712   4.441   1.200 -0.5168 -0.5620 -1.1706
 5782SOL     OW28024   1.009   0.398   0.854 -0.0898 -0.3559  0.3658
 5782SOL    HW128025   1.052   0.309   0.842  0.1214 -0.5168  2.1914
 5782SOL    HW228026   1.074   0.470   0.832 -0.3093 -0.6362 -1.2674
 5783SOL     OW28027   8.716   8.332   4.626  0.0010  0.3712  0.1580
 5783SOL    HW128028   8.647   8.334   4.554  2.5389  3.8004 -2.3153
 5783SOL    HW228029   8.691   8.395   4.699 -1.3095 -1.2422  1.1475
 5784SOL     OW28030   2.421   8.861   3.047  0.4288 -0.0156 -0.4291
 5784SOL    HW128031   2.330   8.832   3.019  0.3575  0.0460 -0.2642
 5784SOL    HW228032   2.417   8.896   3.141  0.8039 -0.9480 -0.0664
 5785SOL     OW28033   0.896   7.473   0.748  0.6298 -0.1806  0.2958
 5785SOL    HW128034   0.901   7.375   0.726  1.6332 -0.2561  0.8032
 5785SOL    HW228035   0.973   7.520   0.704 -0.1786  0.4803 -0.4245
 5786SOL     OW28036   9.955   0.196   0.068 -0.8379 -0.0503  0.2388
 5786SOL    HW128037   9.975   0.261  -0.006 -1.5699  0.8346  0.8172
 5786SOL    HW228038  10.032   0.194   0.132 -0.4839 -0.3291 -0.1922
 5787SOL     OW28039   0.622   2.836   1.775 -0.1797  0.1759 -0.0680
 5787SOL    HW128040   0.599   2.870   1.866 -0.5319  0.4585 -0.2611
 5787SOL    HW228041   0.657   2.742   1.782  1.1566  0.7079  0.4975
 5788SOL     OW28042   9.508   3.560   2.189  0.4148 -0.0324  0.4264
 5788SOL    HW128043   9.582   3.579   2.253  1.1294 -0.0272 -0.3950
 5788SOL    HW228044   9.428   3.615   2.213  1.0862  0.8915  0.5814
 5789SOL     OW28045   9.535   3.911   1.090  0.2217 -0.0679 -0.3588
 5789SOL    HW128046   9.603   3.838   1.081  0.4571  0.2120 -0.8687
 5789SOL    HW228047   9.446   3.878   1.059  0.2344 -0.2724 -0.1775
 5790SOL     OW28048   7.248   8.104   1.886  0.2943  0.5956 -0.1643
 5790SOL    HW128049   7.266   8.175   1.953 -1.2630  1.3317 -0.4959
 5790SOL    HW228050   7.291   8.127   1.799  2.6613 -0.5587  0.6652
 5791SOL     OW28051   2.311   1.022   1.218 -0.2331  0.2410 -0.1543
 5791SOL    HW128052   2.359   1.028   1.131  0.2130  0.1922  0.0860
 5791SOL    HW228053   2.220   1.061   1.209 -1.2239 -2.2258 -1.3670
 5792SOL     OW28054   0.815   6.668   0.462 -0.1888  0.0529 -0.1701
 5792SOL    HW128055   0.894   6.629   0.415  0.1795 -0.7428  1.0761
 5792SOL    HW228056   0.737   6.607   0.453 -0.0731 -0.1802  0.3772
 5793SOL     OW28057   1.248   2.279   1.857  0.4540  0.4566  0.2709
 5793SOL    HW128058   1.153   2.247   1.865  0.6202 -0.5230 -1.4044
 5793SOL    HW228059   1.260   2.326   1.770  1.5484  0.3872  0.3817
 5794SOL     OW28060   2.392   8.994   1.737 -0.0849 -0.0521 -0.0086
 5794SOL    HW128061   2.413   9.081   1.782  1.2567  1.0540 -2.6533
 5794SOL    HW228062   2.306   8.957   1.773  0.6030  1.0644  2.9460
 5795SOL     OW28063   0.268   1.446   4.534 -0.0727 -0.1667 -0.2822
 5795SOL    HW128064   0.296   1.382   4.464 -0.8505 -3.0513  1.9598
 5795SOL    HW228065   0.192   1.408   4.586  0.5107  1.8581  2.1776
 5796SOL     OW28066   1.692   4.104   2.648 -0.3695 -0.0252  0.4886
 5796SOL    HW128067   1.699   4.035   2.720  0.6897 -0.3202  0.1106
 5796SOL    HW228068   1.613   4.164   2.667  0.4532  0.4979  2.4081
 5797SOL     OW28069   9.257   2.738   2.986 -0.3017 -0.0599 -0.6652
 5797SOL    HW128070   9.322   2.813   2.972 -0.1887 -0.2370 -1.0957
 5797SOL    HW228071   9.281   2.661   2.927 -0.7509 -0.2233 -0.6418
 5798SOL     OW28072   5.797   6.492   2.694 -0.3092  0.3513 -0.2389
 5798SOL    HW128073   5.871   6.553   2.724 -1.2042  2.0263 -1.3200
 5798SOL    HW228074   5.792   6.493   2.594 -0.2820 -1.6033 -0.2720
 5799SOL     OW28075   2.302   1.897   3.875  0.1593  0.7070  1.0956
 5799SOL    HW128076   2.270   1.806   3.900  0.1651  0.9830  2.1153
 5799SOL    HW228077   2.394   1.892   3.837 -0.6111  0.0487 -0.7254
 5800SOL     OW28078   1.774   9.348   0.583  0.1520 -0.1986 -0.0718
 5800SOL    HW128079   1.777   9.255   0.620  0.2572  0.4643  1.6599
 5800SOL    HW228080   1.848   9.360   0.517 -0.4876 -1.6459 -1.0718
 5801SOL     OW28081   6.737   1.530   2.773 -0.0610  0.1349 -0.2554
 5801SOL    HW128082   6.667   1.491   2.713  0.4926 -0.7542 -0.3208
 5801SOL    HW228083   6.727   1.492   2.865  0.4997 -0.1893 -0.3270
 5802SOL     OW28084   0.888   6.533   4.759 -0.2286  0.2451 -0.0652
 5802SOL    HW128085   0.936   6.449   4.736 -0.8283 -0.3241  0.7341
 5802SOL    HW228086   0.952   6.595   4.806  0.0312 -0.0350 -0.0454
 5803SOL     OW28087   9.831   5.595   0.909 -0.0733  0.3990 -0.4841
 5803SOL    HW128088   9.819   5.503   0.874 -2.9306 -0.5484  2.6789
 5803SOL    HW228089   9.755   5.653   0.879 -0.3366  0.6626  0.6394
 5804SOL     OW28090   8.963   5.515   1.730 -0.2457 -0.6741 -0.2606
 5804SOL    HW128091   8.896   5.568   1.678 -1.5780 -0.8823  1.2007
 5804SOL    HW228092   9.054   5.550   1.712 -0.9638  1.1272 -0.5086
 5805SOL     OW28093   3.930   8.937   2.538 -0.0670  0.4604 -0.0381
 5805SOL    HW128094   3.849   8.914   2.484 -0.9078  1.3711  0.8196
 5805SOL    HW228095   3.984   9.006   2.490 -0.7022  1.1141  0.1839
 5806SOL     OW28096   1.929   9.043   4.424 -0.0277  0.3566  0.0906
 5806SOL    HW128097   1.944   9.131   4.379 -1.9562  0.1653 -0.9702
 5806SOL    HW228098   1.964   9.047   4.517  0.6197  1.9897 -0.2034
 5807SOL     OW28099   2.180   0.820   4.195  0.3976  0.0582  0.2236
 5807SOL    HW128100   2.145   0.782   4.109  1.2008  1.9372 -0.9563
 5807SOL    HW228101   2.243   0.755   4.236  1.1634 -0.2321 -1.3782
 5808SOL     OW28102   7.630   0.327   3.595 -0.0536 -0.1766 -0.4588
 5808SOL    HW128103   7.599   0.422   3.589 -0.9334 -0.2843  1.8615
 5808SOL    HW228104   7.580   0.271   3.528 -1.0822  0.5983 -0.3440
 5809SOL     OW28105   5.523   7.527   3.125  0.0180 -0.6042  0.4327
 5809SOL    HW128106   5.467   7.572   3.055  1.0804 -1.9362 -1.3194
 5809SOL    HW228107   5.465   7.470   3.183 -0.5474 -1.3956 -0.9063
 5810SOL     OW28108   1.072   2.059   0.610 -0.6232 -0.8190 -0.0761
 5810SOL    HW128109   1.026   2.118   0.677 -0.8634 -0.5898 -0.4370
 5810SOL    HW228110   1.006   1.994   0.573 -1.3812  1.3223 -2.6518
 5811SOL     OW28111   2.524   4.403   2.763  0.1651 -0.0277 -0.8271
 5811SOL    HW128112   2.591   4.341   2.722 -0.0925  0.0911 -1.4201
 5811SOL    HW228113   2.546   4.415   2.860  1.9009  1.2265 -1.3481
 5812SOL     OW28114   0.812   8.419   1.599 -0.4399  0.0198  0.0896
 5812SOL    HW128115   0.768   8.499   1.638  0.6867  0.1731  1.0881
 5812SOL    HW228116   0.905   8.410   1.637 -0.8891 -2.2828  0.7218
 5813SOL     OW28117   3.568   9.053   2.054 -0.4342  0.3845  0.1444
 5813SOL    HW128118   3.523   9.002   2.127  0.1800  0.4485  0.5769
 5813SOL    HW228119   3.545   9.014   1.965  2.4720 -2.6143  0.6187
 5814SOL     OW28120   0.204   3.477   3.525 -0.3905  0.3636 -0.0125
 5814SOL    HW128121   0.156   3.400   3.568 -0.8388  1.1808  0.9896
 5814SOL    HW228122   0.288   3.495   3.576 -0.9236  1.3389  0.5336
 5815SOL     OW28123   1.306   7.736   3.463  0.4450 -0.2231 -0.2571
 5815SOL    HW128124   1.213   7.771   3.479  0.2952 -0.5414 -0.4256
 5815SOL    HW228125   1.312   7.699   3.370  0.7322 -0.2332 -0.2358
 5816SOL     OW28126   8.552   5.709   4.049 -0.0962  0.7670  0.2581
 5816SOL    HW128127   8.521   5.804   4.037  1.3598  1.2609  0.2888
 5816SOL    HW228128   8.572   5.692   4.145 -0.4609  0.3932  0.2671
 5817SOL     OW28129   3.024   5.312   1.122 -0.1122  0.6076  0.3420
 5817SOL    HW128130   3.018   5.390   1.185  2.4039  0.1060  1.2958
 5817SOL    HW228131   3.025   5.227   1.175 -0.1375  0.0773 -0.5090
 5818SOL     OW28132   9.916   2.347   2.088  0.0573  0.3644 -0.3364
 5818SOL    HW128133   9.890   2.251   2.081 -0.6383  0.1733  3.7766
 5818SOL    HW228134  10.005   2.361   2.043  0.1212 -2.1292 -1.0617
 5819SOL     OW28135   3.288   1.490   2.834  0.1259 -0.3576 -0.0427
 5819SOL    HW128136   3.321   1.486   2.739 -0.7623 -0.0473 -0.3721
 5819SOL    HW228137   3.278   1.397   2.870 -1.9487 -0.5641 -1.1106
 5820SOL     OW28138   9.439   6.863   1.345  0.6139  0.1702  0.5201
 5820SOL    HW128139   9.473   6.800   1.276 -0.5133 -0.2254  0.3120
 5820SOL    HW228140   9.371   6.925   1.304  2.6982  2.4711  0.3843
 5821SOL     OW28141   0.470   9.034   3.337 -0.0378  0.4516  0.1381
 5821SOL    HW128142   0.471   9.128   3.370  0.9758  1.2339 -2.0447
 5821SOL    HW228143   0.394   9.021   3.274  0.3490  0.0373 -0.2460
 5822SOL     OW28144   9.098   2.987   3.265  0.3633 -0.1461  0.4750
 5822SOL    HW128145   9.089   2.905   3.323  1.1156  0.2604  1.1836
 5822SOL    HW228146   9.073   2.964   3.171  1.2878 -1.3889  0.5121
 5823SOL     OW28147   8.109   0.971   2.662 -0.1782  0.2236  0.2090
 5823SOL    HW128148   8.207   0.954   2.650 -0.2302  0.0841 -0.0238
 5823SOL    HW228149   8.092   1.004   2.755 -0.0594 -0.9222  0.6452
 5824SOL     OW28150   9.895   3.134   2.335  0.1094  0.3721 -0.1326
 5824SOL    HW128151   9.935   3.064   2.276 -0.1136  0.2897 -0.1840
 5824SOL    HW228152   9.797   3.118   2.344  0.3617 -0.4386  1.3923
 5825SOL     OW28153   2.980   3.179   4.645 -0.0348  0.7261  0.3127
 5825SOL    HW128154   2.888   3.152   4.615 -0.5824  1.9513  0.8496
 5825SOL    HW228155   2.972   3.241   4.722  1.3365 -1.3589  2.1815
 5826SOL     OW28156   1.284   7.650   1.581 -0.0112  0.2742  0.0065
 5826SOL    HW128157   1.196   7.675   1.623 -0.0050  0.7469 -0.2503
 5826SOL    HW228158   1.332   7.734   1.553  1.4224  0.1183  1.9511
 5827SOL     OW28159   2.323   6.642   2.948  0.3034  0.2429 -0.1196
 5827SOL    HW128160   2.269   6.703   2.889  0.0908 -0.0155 -0.1905
 5827SOL    HW228161   2.398   6.603   2.895  1.6656  2.0241  0.4382
 5828SOL     OW28162   0.033   8.625   4.774 -0.0875  0.1560 -0.1894
 5828SOL    HW128163  -0.031   8.549   4.778 -0.2366  0.3109  0.5862
 5828SOL    HW228164  -0.016   8.710   4.754 -0.3634  0.5156  1.8501
 5829SOL     OW28165   7.723   0.285   1.584  0.1626 -0.4237 -0.1188
 5829SOL    HW128166   7.682   0.208   1.536 -1.9727 -0.4343  1.6718
 5829SOL    HW228167   7.764   0.253   1.670  3.8362 -0.3829 -1.7335
 5830SOL     OW28168   1.882   5.474   3.022  0.3209 -0.8389  0.2015
 5830SOL    HW128169   1.788   5.446   3.001  0.1768 -0.3363  0.1589
 5830SOL    HW228170   1.945   5.399   3.001 -0.0210 -1.0020 -0.2584
 5831SOL     OW28171   8.172   8.904   1.308  0.0468  0.0231  0.2449
 5831SOL    HW128172   8.235   8.901   1.230  0.7346  0.6719  0.7692
 5831SOL    HW228173   8.085   8.862   1.282  0.6008 -0.6408 -0.5651
 5832SOL     OW28174   8.941   1.449   2.972 -0.4577 -0.5858 -0.2274
 5832SOL    HW128175   8.998   1.408   3.044  1.1526 -0.4067 -1.3853
 5832SOL    HW228176   8.931   1.547   2.990 -0.7744 -0.6951  0.2141
 5833SOL     OW28177   3.122   9.656   2.779  0.0025 -0.4358  0.1574
 5833SOL    HW128178   3.053   9.616   2.840  0.7852 -2.3740 -0.1891
 5833SOL    HW228179   3.097   9.636   2.684 -0.3983  1.2573 -0.1171
 5834SOL     OW28180   5.969   9.962   4.173  0.3550  0.2110 -0.6431
 5834SOL    HW128181   6.057   9.916   4.162  0.2025 -0.0111 -0.9319
 5834SOL    HW228182   5.946   9.967   4.270  1.0437  0.9395 -0.5132
 5835SOL     OW28183   9.114   7.064   0.962  0.0143  0.5591 -0.3978
 5835SOL    HW128184   9.019   7.086   0.943 -0.3960 -1.0040 -0.1727
 5835SOL    HW228185   9.161   7.039   0.877 -0.1161  0.0249 -0.3103
 5836SOL     OW28186   8.764   9.642   1.467 -0.1126 -0.0154 -0.4233
 5836SOL    HW128187   8.770   9.625   1.369  1.2470 -1.4312 -0.1128
 5836SOL    HW228188   8.690   9.587   1.506 -0.4805  0.3483 -0.6050
 5837SOL     OW28189   9.103   3.919   2.468  0.1201 -0.1278  0.3237
 5837SOL    HW128190   9.078   3.918   2.565 -0.5178  1.4073  0.1952
 5837SOL    HW228191   9.063   4.000   2.424 -0.6264 -1.4336 -1.4933
 5838SOL     OW28192   0.016   7.327   2.595  0.0552  0.2697  0.0358
 5838SOL    HW128193  -0.060   7.263   2.605 -0.4119  0.4037 -2.3861
 5838SOL    HW228194   0.101   7.284   2.625 -0.5952 -0.7133  0.4857
 5839SOL     OW28195   1.836   9.054   0.365 -0.3078 -0.7029 -0.3135
 5839SOL    HW128196   1.758   9.113   0.345  1.3060  1.6816  0.2592
 5839SOL    HW228197   1.835   9.030   0.463 -0.6001 -1.0991 -0.4123
 5840SOL     OW28198   7.835   2.340   2.280  0.2064  0.3829  0.4470
 5840SOL    HW128199   7.910   2.293   2.234  1.1346  0.4202  1.9167
 5840SOL    HW228200   7.772   2.377   2.211 -0.4444 -2.8116 -0.7548
 5841SOL     OW28201   1.147   2.522   3.645 -0.7680  0.1955 -0.4228
 5841SOL    HW128202   1.081   2.510   3.570 -1.0460 -0.3182 -0.0989
 5841SOL    HW228203   1.237   2.490   3.614 -0.8532  0.1056 -0.5843
 5842SOL     OW28204   4.087   0.458   3.683 -0.0708  0.2424  0.3235
 5842SOL    HW128205   4.164   0.395   3.694  0.0793  0.2323 -0.7439
 5842SOL    HW228206   4.101   0.538   3.742  0.4653 -0.0347  0.5719
 5843SOL     OW28207   8.790   5.729   0.599  0.2158  1.4104 -0.2123
 5843SOL    HW128208   8.774   5.820   0.562 -1.8937  2.3893  2.9470
 5843SOL    HW228209   8.720   5.666   0.564 -0.5865  1.8712  0.5589
 5844SOL     OW28210   9.390   4.844   0.974 -0.0705  0.0070  0.2758
 5844SOL    HW128211   9.364   4.874   1.066  0.1669 -0.3887  0.4696
 5844SOL    HW228212   9.315   4.793   0.933  0.1888 -0.6613  0.6254
 5845SOL     OW28213   4.557   8.065   0.418  0.4956  0.0604  0.0473
 5845SOL    HW128214   4.577   8.014   0.501  1.2753  0.0594 -0.1429
 5845SOL    HW228215   4.556   8.163   0.437  1.4113  0.0976 -0.0989
 5846SOL     OW28216   6.549   0.506   1.987  0.3403  0.1726 -0.4628
 5846SOL    HW128217   6.561   0.423   2.041 -0.7202  1.0692  1.2010
 5846SOL    HW228218   6.637   0.552   1.974  1.0886 -1.6767 -2.2247
 5847SOL     OW28219   8.645   6.347   2.389  0.4004  0.1614 -0.1953
 5847SOL    HW128220   8.570   6.406   2.362  0.5435 -0.3243 -1.7160
 5847SOL    HW228221   8.683   6.378   2.476  0.6196  2.4421 -1.0723
 5848SOL     OW28222   8.481   2.533   1.723  0.0605  0.5141 -0.6579
 5848SOL    HW128223   8.487   2.502   1.628 -0.7536 -1.6667 -0.0326
 5848SOL    HW228224   8.568   2.518   1.769  0.5253  1.7868 -1.1171
 5849SOL     OW28225   2.407   0.692   4.059 -0.3809 -0.2653  0.2305
 5849SOL    HW128226   2.434   0.596   4.055 -1.3408 -0.5364 -0.0505
 5849SOL    HW228227   2.450   0.736   4.137 -1.7919 -1.5305  1.7665
 5850SOL     OW28228   8.719   0.923   1.417 -0.3269  0.0825  0.0188
 5850SOL    HW128229   8.727   1.017   1.448 -2.2581  0.1289  0.4099
 5850SOL    HW228230   8.627   0.889   1.436 -0.0174 -1.4901 -1.2033
 5851SOL     OW28231   0.974   9.257   1.396  0.0161  0.0379 -0.3222
 5851SOL    HW128232   0.994   9.207   1.481 -2.5815 -0.4621  0.0583
 5851SOL    HW228233   0.998   9.353   1.407 -0.3416 -0.0130  1.0119
 5852SOL     OW28234   3.043   1.202   1.078  0.1240 -0.2041 -0.0137
 5852SOL    HW128235   3.091   1.117   1.056  1.8101  0.5481  0.6612
 5852SOL    HW228236   2.947   1.182   1.096  0.6544 -2.0649  0.8843
 5853SOL     OW28237   9.234   5.557   1.604  0.6396  0.2782 -0.2660
 5853SOL    HW128238   9.229   5.656   1.590  0.7049  0.4689  0.9844
 5853SOL    HW228239   9.209   5.510   1.520  1.5213  1.3616 -1.1442
 5854SOL     OW28240   8.773   8.227   0.801  0.0002  0.4576  0.2795
 5854SOL    HW128241   8.685   8.238   0.846  0.1747 -0.6758  0.9200
 5854SOL    HW228242   8.815   8.317   0.786 -0.0628  0.8449  2.3757
 5855SOL     OW28243   9.775   5.959   4.166 -0.5612 -0.0083 -0.1277
 5855SOL    HW128244   9.767   6.034   4.100  0.1485 -0.8896 -1.2490
 5855SOL    HW228245   9.869   5.956   4.202 -0.7600  0.0420  0.3989
 5856SOL     OW28246   3.031   3.713   4.174 -0.2187 -0.2268 -0.3406
 5856SOL    HW128247   3.003   3.803   4.205  1.0545 -0.0520  0.3395
 5856SOL    HW228248   2.953   3.651   4.174 -0.7763  0.4812  0.6430
 5857SOL     OW28249   4.044   1.533   0.688 -0.0340  0.2781 -0.2279
 5857SOL    HW128250   4.020   1.440   0.661  2.3695  0.0004 -1.5407
 5857SOL    HW228251   4.102   1.574   0.618 -2.0608  3.2299 -0.2485
 5858SOL     OW28252   2.356   0.785   0.234 -0.1972 -0.8093 -0.0446
 5858SOL    HW128253   2.316   0.752   0.148  1.0609 -1.6576 -0.3135
 5858SOL    HW228254   2.435   0.842   0.214 -0.1645 -0.6478  0.5445
 5859SOL     OW28255   1.021   9.910   0.026  0.1491  0.3173 -0.4191
 5859SOL    HW128256   1.072   9.976  -0.029 -0.4984  1.2715  0.1123
 5859SOL    HW228257   1.079   9.831   0.045  0.8962  0.6755 -1.1624
 5860SOL     OW28258   3.139   1.639   1.902  0.0202  0.3627 -0.0962
 5860SOL    HW128259   3.166   1.543   1.910 -0.4508  0.1905 -0.5353
 5860SOL    HW228260   3.068   1.648   1.832  0.4677  1.1109 -0.4620
 5861SOL     OW28261   2.045   9.622   2.417 -0.1261  0.1235  0.2915
 5861SOL    HW128262   2.075   9.705   2.463 -2.6296  0.9462  0.5262
 5861SOL    HW228263   2.074   9.624   2.322  1.4969  0.3571  0.7876
 5862SOL     OW28264   5.063   9.804   3.534  0.4434  0.1692 -0.3112
 5862SOL    HW128265   5.051   9.810   3.435 -0.3029 -0.7343 -0.2745
 5862SOL    HW228266   5.111   9.886   3.566  0.2706  0.6905 -1.3526
 5863SOL     OW28267   3.231   2.685   3.201 -0.4980 -0.0255  0.3330
 5863SOL    HW128268   3.314   2.632   3.219  0.8883  2.1751  0.6050
 5863SOL    HW228269   3.240   2.733   3.114 -0.2482  2.4730  1.6903
 5864SOL     OW28270   9.603   7.093   1.410 -0.6703  0.2866 -0.0009
 5864SOL    HW128271   9.544   7.015   1.388  0.9149 -0.3312 -2.2995
 5864SOL    HW228272   9.642   7.080   1.501 -1.8370 -0.7160  0.3696
 5865SOL     OW28273   0.241   0.124   1.510 -0.0747 -0.1110 -0.5180
 5865SOL    HW128274   0.171   0.167   1.452 -1.5921 -0.7435  0.8216
 5865SOL    HW228275   0.245   0.172   1.597 -0.0696 -1.1759  0.0685
 5866SOL     OW28276   1.786   7.159   3.920  0.2354 -0.2556  0.6995
 5866SOL    HW128277   1.861   7.093   3.913  1.3980  1.0990  0.0539
 5866SOL    HW228278   1.800   7.217   4.000 -0.4885 -0.4273  0.9556
 5867SOL     OW28279   9.566   7.584   0.482 -0.5962 -0.5053 -0.3422
 5867SOL    HW128280   9.506   7.543   0.413  1.1282 -1.4451 -1.3058
 5867SOL    HW228281   9.622   7.513   0.524  0.1340  0.4143  0.2570
 5868SOL     OW28282   1.317   5.860   2.242 -0.0753 -0.0870 -0.3383
 5868SOL    HW128283   1.373   5.868   2.325 -0.5752 -0.8995  0.0736
 5868SOL    HW228284   1.376   5.833   2.165  0.3652  0.5444 -0.2316
 5869SOL     OW28285   6.240   8.681   3.460  0.3605  0.3647  0.3143
 5869SOL    HW128286   6.307   8.656   3.389  0.1863 -0.0029  0.2757
 5869SOL    HW228287   6.179   8.603   3.476  1.3431 -0.0950  1.9468
 5870SOL     OW28288   3.264   9.118   4.462  0.5934  0.7265 -0.0954
 5870SOL    HW128289   3.217   9.180   4.524  2.8341  1.2209  1.1863
 5870SOL    HW228290   3.251   9.023   4.492 -0.2997  0.7939 -0.2711
 5871SOL     OW28291   2.474   7.466   1.320  0.4255 -0.1678  0.0351
 5871SOL    HW128292   2.392   7.521   1.334  0.6608 -0.0019  0.7877
 5871SOL    HW228293   2.449   7.369   1.314  0.3224 -0.2643  1.7805
 5872SOL     OW28294   3.194   7.283   4.336  0.6456 -0.2570  0.2468
 5872SOL    HW128295   3.111   7.246   4.294  2.5243 -1.3626 -2.6424
 5872SOL    HW228296   3.270   7.275   4.271  3.1331  0.2301  3.0337
 5873SOL     OW28297   2.858   6.799   1.396  0.7058 -0.0176 -0.4049
 5873SOL    HW128298   2.840   6.734   1.470 -0.3367  1.2119  0.4325
 5873SOL    HW228299   2.819   6.763   1.311  0.0005 -0.4292  0.0805
 5874SOL     OW28300   8.753   4.918   2.205  0.9059 -0.1811  0.3288
 5874SOL    HW128301   8.710   4.961   2.125 -0.2173 -0.3754  0.8187
 5874SOL    HW228302   8.847   4.949   2.213  0.6197  0.8696 -0.3081
 5875SOL     OW28303   1.609   5.792   2.780 -0.2278  0.2251 -0.0853
 5875SOL    HW128304   1.589   5.697   2.803 -0.8378  0.3946  0.0932
 5875SOL    HW228305   1.707   5.809   2.790 -0.0990 -0.4161 -0.2384
 5876SOL     OW28306   3.724   3.054   4.134  0.7960 -0.5990 -0.5313
 5876SOL    HW128307   3.771   3.007   4.059  1.1770 -1.2113  0.0844
 5876SOL    HW228308   3.656   2.993   4.175  0.0481 -0.0011 -0.8722
 5877SOL     OW28309   2.997   7.120   4.517 -0.2965 -0.3329  0.3705
 5877SOL    HW128310   2.990   7.067   4.602  1.0676 -0.6841  0.2716
 5877SOL    HW228311   2.989   7.217   4.538  0.7295 -0.3719  1.0091
 5878SOL     OW28312   1.765   2.980   1.899 -0.4790  0.6690  0.0711
 5878SOL    HW128313   1.818   3.020   1.974  3.3989  1.4470 -2.8872
 5878SOL    HW228314   1.749   2.883   1.918  0.8241  0.7484  1.7258
 5879SOL     OW28315   4.282   1.254   1.332 -0.2334  0.2347 -0.2294
 5879SOL    HW128316   4.308   1.210   1.246 -0.0294  2.6338 -1.4156
 5879SOL    HW228317   4.358   1.248   1.397  0.0884 -0.4101 -0.6632
 5880SOL     OW28318   4.188   0.417   2.324 -0.5107  0.0394  0.0017
 5880SOL    HW128319   4.113   0.461   2.275 -0.8089 -0.9657 -0.4486
 5880SOL    HW228320   4.245   0.487   2.368 -1.5429  0.8204  0.1083
 5881SOL     OW28321   3.445   2.038   1.362 -0.1837 -0.0054  0.3967
 5881SOL    HW128322   3.543   2.023   1.346  0.2591  0.1955  2.6494
 5881SOL    HW228323   3.397   1.951   1.355  0.3984 -0.3590  0.7368
 5882SOL     OW28324   5.002   0.652   3.043 -0.2925 -0.1647  0.0803
 5882SOL    HW128325   5.067   0.697   3.105 -0.3869 -0.0006  0.0609
 5882SOL    HW228326   5.050   0.583   2.988 -0.0179  0.3573 -0.3426
 5883SOL     OW28327   1.123   4.282   0.601 -0.3317  0.0668 -0.1792
 5883SOL    HW128328   1.053   4.263   0.532 -0.9608  1.2540  0.1278
 5883SOL    HW228329   1.214   4.272   0.559 -0.6619 -1.4642 -0.5748
 5884SOL     OW28330   4.904   7.098   1.827  0.2758  0.3208 -0.0570
 5884SOL    HW128331   4.806   7.090   1.845  0.4005  0.0825  0.5256
 5884SOL    HW228332   4.919   7.155   1.746 -0.3999 -0.7894 -0.9829
 5885SOL     OW28333   9.361   2.108   1.484  0.3117  0.0372  0.2023
 5885SOL    HW128334   9.388   2.050   1.407 -0.3575 -0.4638  0.3487
 5885SOL    HW228335   9.263   2.126   1.481  0.1636 -0.5344  1.3091
 5886SOL     OW28336   5.489   9.867   4.008  0.3538 -0.0795 -0.1109
 5886SOL    HW128337   5.481   9.786   4.066  0.6209  0.2200  0.3496
 5886SOL    HW228338   5.586   9.891   3.998  0.4853 -1.3503 -2.3843
 5887SOL     OW28339   8.401   9.510   2.953  0.0060 -0.2851  0.3535
 5887SOL    HW128340   8.355   9.576   3.012 -2.2970 -2.4564  1.0363
 5887SOL    HW228341   8.486   9.480   2.997 -0.2512  0.2670  1.2376
 5888SOL     OW28342   1.221   8.643   3.513 -0.1415 -0.0924 -0.8240
 5888SOL    HW128343   1.161   8.595   3.450 -0.3940 -2.3767  1.0733
 5888SOL    HW228344   1.166   8.690   3.582  0.1712  0.5638 -1.0225
 5889SOL     OW28345   7.722   2.549   1.673  0.4017  0.4850  0.4858
 5889SOL    HW128346   7.675   2.501   1.747 -1.1512  0.0756 -0.7354
 5889SOL    HW228347   7.779   2.484   1.622  0.9061  0.6193  0.8792
 5890SOL     OW28348   4.310   3.530   0.077  0.1711 -0.0572 -0.0409
 5890SOL    HW128349   4.365   3.448   0.059  0.9944  0.2866  0.8193
 5890SOL    HW228350   4.220   3.503   0.112  0.6907 -0.5991  0.9265
 5891SOL     OW28351   8.819   9.779   2.913 -0.2207 -0.0188 -0.0765
 5891SOL    HW128352   8.850   9.747   2.823  1.4244 -1.1342  0.8537
 5891SOL    HW228353   8.771   9.704   2.959 -0.1243  0.2141  0.3969
 5892SOL     OW28354   5.351   0.607   3.433  0.3103  0.0009 -0.1716
 5892SOL    HW128355   5.315   0.525   3.478 -1.1534  1.5521  1.5636
 5892SOL    HW228356   5.419   0.650   3.491  1.6777 -0.4031 -1.4457
 5893SOL     OW28357   7.223   8.297   3.111 -0.0057  0.2390  0.9992
 5893SOL    HW128358   7.184   8.367   3.172 -0.9498 -0.2621  0.9744
 5893SOL    HW228359   7.195   8.206   3.142 -2.6929  0.0907 -1.7002
 5894SOL     OW28360   9.563   0.896   4.454 -0.0422 -0.0089  0.6240
 5894SOL    HW128361   9.466   0.921   4.446 -0.1119 -0.0205  1.3834
 5894SOL    HW228362   9.609   0.961   4.514  0.0598 -0.9423  1.5831
 5895SOL     OW28363   5.312   8.628   1.617 -0.0331  0.5727  0.4636
 5895SOL    HW128364   5.314   8.711   1.673 -0.2388  0.3896  0.7467
 5895SOL    HW228365   5.405   8.603   1.590 -0.0370  1.3394 -0.2873
 5896SOL     OW28366   1.908   2.456   3.068  0.4129  0.1259  0.1770
 5896SOL    HW128367   1.809   2.464   3.060  0.5107  1.0644 -0.1513
 5896SOL    HW228368   1.939   2.377   3.015  0.1122  1.2943 -1.7866
 5897SOL     OW28369   4.948   1.009   3.949 -0.1348  0.5403  0.0487
 5897SOL    HW128370   4.914   0.989   4.040  0.7606 -0.9279  0.0690
 5897SOL    HW228371   4.907   0.946   3.883  1.0878 -0.0036 -0.2006
 5898SOL     OW28372   8.923   9.672   3.331  0.0053  0.2902  0.0969
 5898SOL    HW128373   8.991   9.701   3.264 -0.8484 -0.2737 -1.0268
 5898SOL    HW228374   8.931   9.573   3.346 -1.3881  0.0114 -0.9819
 5899SOL     OW28375   0.656   0.157   4.234 -0.2591  0.0142 -0.7891
 5899SOL    HW128376   0.726   0.091   4.207 -0.1464  0.3616 -1.3765
 5899SOL    HW228377   0.691   0.214   4.308 -0.6770 -1.1422  0.3229
 5900SOL     OW28378   4.028   8.849   3.079  0.1379 -0.1648 -0.4366
 5900SOL    HW128379   4.023   8.750   3.062  0.1523 -0.3495  0.5967
 5900SOL    HW228380   4.091   8.891   3.014  0.0914 -0.8243 -0.9140
 5901SOL     OW28381   3.312   5.315   0.989  0.2445 -0.1086 -0.1547
 5901SOL    HW128382   3.264   5.289   1.073  0.9511  2.4690  1.0968
 5901SOL    HW228383   3.346   5.232   0.943 -0.4006 -1.5760  1.9249
 5902SOL     OW28384   8.518   6.801   0.429  0.6037  0.3724  0.3972
 5902SOL    HW128385   8.461   6.816   0.348  1.2760 -0.3199 -0.2169
 5902SOL    HW228386   8.608   6.766   0.400  0.3054 -1.4105  1.5235
 5903SOL     OW28387   2.745   1.440   1.107 -0.1600 -0.1549  0.0415
 5903SOL    HW128388   2.836   1.449   1.148 -0.2587  1.6111 -0.0930
 5903SOL    HW228389   2.735   1.506   1.032 -1.1843 -1.0514 -0.6366
 5904SOL     OW28390   1.097   4.634   0.158  0.2710  0.1614 -0.1581
 5904SOL    HW128391   1.117   4.537   0.153 -0.7599 -0.0812  0.1699
 5904SOL    HW228392   1.023   4.656   0.094  0.8609  0.8251 -0.6173
 5905SOL     OW28393   8.473   8.888   0.758 -0.5575 -0.7830 -0.0537
 5905SOL    HW128394   8.447   8.931   0.672 -1.0757  0.1116  0.5433
 5905SOL    HW228395   8.499   8.958   0.824  1.3619 -1.5401  0.0459
 5906SOL     OW28396   1.296   1.290   1.977  0.4183  0.1992 -0.0128
 5906SOL    HW128397   1.245   1.208   1.951 -2.8214  2.1773 -0.0240
 5906SOL    HW228398   1.377   1.298   1.919  0.8306 -3.0114  0.0371
 5907SOL     OW28399   9.681   4.301   3.751  0.3778  0.0349  0.4840
 5907SOL    HW128400   9.644   4.329   3.663 -0.1081  0.0376  0.6893
 5907SOL    HW228401   9.704   4.204   3.748  2.6083  0.5612 -0.4145
 5908SOL     OW28402   6.022   6.736   2.206  0.1987  0.4025  0.2784
 5908SOL    HW128403   6.111   6.780   2.217 -0.0809  0.7309  1.3514
 5908SOL    HW228404   5.955   6.803   2.176  0.5179 -0.0614 -1.5305
 5909SOL     OW28405   4.059   7.220   1.387  0.4398  0.1268 -0.4533
 5909SOL    HW128406   3.981   7.241   1.328 -0.2230 -0.8534  0.0626
 5909SOL    HW228407   4.135   7.280   1.364 -1.0184  2.3216  0.2137
 5910SOL     OW28408   0.486   4.553   4.736  0.6119 -0.1529 -0.3002
 5910SOL    HW128409   0.395   4.518   4.714  1.0378 -1.0073 -0.7200
 5910SOL    HW228410   0.478   4.625   4.805 -0.2900 -0.9015  0.3839
 5911SOL     OW28411   1.603   9.205   0.201 -0.8433  0.1368  0.1354
 5911SOL    HW128412   1.656   9.289   0.206 -0.4509 -0.1996  2.5586
 5911SOL    HW228413   1.515   9.223   0.156 -0.7402  1.8254  0.5869
 5912SOL     OW28414   7.952   5.659   1.856  0.1554  0.3109  0.0695
 5912SOL    HW128415   7.948   5.567   1.818 -0.8187  0.6154 -0.5714
 5912SOL    HW228416   7.892   5.720   1.804 -0.3773  0.9688  1.4300
 5913SOL     OW28417   9.769   5.967   0.871 -0.3242  0.1741 -0.0949
 5913SOL    HW128418   9.845   5.962   0.937 -0.6675  1.5294  0.4173
 5913SOL    HW228419   9.783   6.044   0.810 -0.8063 -0.1568 -0.6317
 5914SOL     OW28420   0.733   6.658   4.576 -0.1091 -0.6330 -0.4237
 5914SOL    HW128421   0.803   6.617   4.635 -0.2012 -1.1034 -0.6359
 5914SOL    HW228422   0.685   6.730   4.626  2.5199  1.7612 -1.2283
 5915SOL     OW28423   2.852   9.316   4.598 -0.6600  0.1498  0.1009
 5915SOL    HW128424   2.863   9.363   4.511  1.2570 -1.2144 -0.4462
 5915SOL    HW228425   2.781   9.361   4.652  0.1559  2.7797 -0.9426
 5916SOL     OW28426   5.047   9.217   3.614  0.7184 -0.0382 -0.4535
 5916SOL    HW128427   5.007   9.274   3.686  0.4119 -0.0937 -0.5827
 5916SOL    HW228428   5.147   9.216   3.625  0.6501 -0.3364  0.1908
 5917SOL     OW28429   9.950   8.492   2.735  0.3195 -0.0209  0.2682
 5917SOL    HW128430  10.021   8.429   2.704  0.7191  0.6987 -0.3023
 5917SOL    HW228431   9.955   8.502   2.834  0.4127 -0.6888  0.3344
 5918SOL     OW28432   9.309   6.241   2.284  0.4482  0.0778  0.0720
 5918SOL    HW128433   9.403   6.247   2.251  0.4468 -0.7803 -0.0983
 5918SOL    HW228434   9.247   6.271   2.211  0.6343  1.6618  0.5404
 5919SOL     OW28435   9.491   5.983   2.104  0.0314  0.2855 -0.1969
 5919SOL    HW128436   9.587   5.955   2.101 -0.9982 -3.4480 -1.5126
 5919SOL    HW228437   9.440   5.920   2.161 -1.6110  2.5590  0.9248
 5920SOL     OW28438   9.126   8.168   0.045  0.1418  0.4143 -0.0559
 5920SOL    HW128439   9.094   8.162  -0.050  0.4806 -0.0592 -0.1435
 5920SOL    HW228440   9.087   8.249   0.089 -0.4136  0.3602 -0.4503
 5921SOL     OW28441   7.998   1.823   4.233  0.1543  0.8230 -0.5314
 5921SOL    HW128442   7.981   1.876   4.150  0.0493  0.5350 -0.6920
 5921SOL    HW228443   8.080   1.767   4.221  0.3789  1.0982 -0.2902
 5922SOL     OW28444   2.771   2.002   1.910 -0.2733 -0.0040  0.3400
 5922SOL    HW128445   2.691   2.057   1.887  0.1682  0.5645  0.1325
 5922SOL    HW228446   2.812   2.038   1.994  1.2442  1.3408 -0.9299
 5923SOL     OW28447   7.836   8.876   1.671 -0.6194 -0.2599 -0.0627
 5923SOL    HW128448   7.839   8.944   1.599  0.8916  0.2030  0.4220
 5923SOL    HW228449   7.749   8.826   1.667 -1.7464  1.6843 -0.4194
 5924SOL     OW28450   3.930   6.626   3.576  0.1287 -0.1374  0.4745
 5924SOL    HW128451   4.004   6.676   3.621  0.6230 -0.5987  0.1666
 5924SOL    HW228452   3.951   6.613   3.480 -0.4619 -0.0629  0.3323
 5925SOL     OW28453   8.422   7.086   0.350 -0.4393 -0.2745  0.2656
 5925SOL    HW128454   8.496   7.152   0.363 -1.7438  1.3782 -0.5459
 5925SOL    HW228455   8.438   7.007   0.409 -0.2495  1.9529  3.3130
 5926SOL     OW28456   7.731   9.114   4.047 -0.0936 -0.3797  0.0549
 5926SOL    HW128457   7.745   9.164   4.132 -1.1821 -0.7414  0.4539
 5926SOL    HW228458   7.708   9.178   3.974 -0.7451 -0.2150  0.3993
 5927SOL     OW28459   2.171   5.601   1.630 -0.1507  0.3825  0.1893
 5927SOL    HW128460   2.199   5.649   1.547  0.9663 -1.6133 -0.6369
 5927SOL    HW228461   2.252   5.584   1.688 -0.1826 -2.0394 -0.3967
 5928SOL     OW28462   9.146   1.998   4.020  0.7543  0.3422  0.0074
 5928SOL    HW128463   9.169   2.020   3.925 -0.9339  0.1099 -0.4842
 5928SOL    HW228464   9.216   1.937   4.058  1.0964 -0.1235 -1.3189
 5929SOL     OW28465   1.858   7.354   0.035  0.5978  0.4000  0.5088
 5929SOL    HW128466   1.859   7.260   0.069  1.3983  0.3923  0.4718
 5929SOL    HW228467   1.814   7.413   0.103 -1.1485 -0.2078 -0.0537
 5930SOL     OW28468   0.116   7.192   4.571  0.0442 -0.2798  0.0884
 5930SOL    HW128469   0.071   7.252   4.505  0.4259  0.7673  0.7675
 5930SOL    HW228470   0.186   7.137   4.525  0.9442  1.1137 -0.2155
 5931SOL     OW28471   0.789   2.557   3.583  0.4162 -0.2014  0.3410
 5931SOL    HW128472   0.869   2.503   3.558 -0.7476 -1.4982 -0.6262
 5931SOL    HW228473   0.756   2.606   3.503 -0.2019 -0.2541  0.5651
 5932SOL     OW28474   2.611   1.919   0.372 -0.2188 -0.0545  0.1509
 5932SOL    HW128475   2.538   1.981   0.345 -0.2315  0.4629  1.3335
 5932SOL    HW228476   2.699   1.962   0.355 -0.2037 -0.2949 -0.3817
 5933SOL     OW28477   1.762   1.388   1.130  0.4772  0.0267 -0.4286
 5933SOL    HW128478   1.680   1.367   1.077  0.1418  0.6621 -0.1596
 5933SOL    HW228479   1.831   1.428   1.069  0.4033 -0.0286 -0.5500
 5934SOL     OW28480   4.191   6.815   2.852 -0.1983 -0.1404  0.6909
 5934SOL    HW128481   4.278   6.863   2.869 -1.7428  2.6546  1.0726
 5934SOL    HW228482   4.204   6.746   2.781  2.6291 -0.6905  1.6804
 5935SOL     OW28483   4.748   0.343   2.556 -0.0478  0.1796 -0.2968
 5935SOL    HW128484   4.794   0.379   2.475 -0.1722 -0.9382 -0.8700
 5935SOL    HW228485   4.703   0.257   2.534  2.1095 -1.4936  1.5861
 5936SOL     OW28486   9.416   9.435   4.223  0.1854  0.2204  0.7452
 5936SOL    HW128487   9.337   9.469   4.273  0.8881 -0.8908  2.6625
 5936SOL    HW228488   9.386   9.386   4.142 -1.1368 -0.7912  1.8256
 5937SOL     OW28489   8.491   5.128   2.908 -0.3117 -0.6343 -0.3862
 5937SOL    HW128490   8.509   5.179   2.825 -1.0504  0.7902  0.3162
 5937SOL    HW228491   8.536   5.173   2.985  1.2998 -2.5398 -0.1515
 5938SOL     OW28492   8.436   4.214   1.300 -0.2362  0.1491  0.9957
 5938SOL    HW128493   8.466   4.167   1.217 -1.3577  0.5653  0.3472
 5938SOL    HW228494   8.382   4.294   1.276 -0.9554  0.0192  2.1333
 5939SOL     OW28495   0.311   9.082   1.153 -0.3829 -0.3338 -0.2844
 5939SOL    HW128496   0.394   9.039   1.119 -0.1958 -0.3346  0.1731
 5939SOL    HW228497   0.316   9.091   1.252 -0.9000 -0.2707 -0.2632
 5940SOL     OW28498   8.295   4.657   3.764 -0.0018  0.1419 -0.0302
 5940SOL    HW128499   8.241   4.587   3.716 -0.0752 -0.7572  1.3344
 5940SOL    HW228500   8.377   4.615   3.803  1.3284  1.3583 -1.4701
 5941SOL     OW28501   7.691   0.391   2.516  0.4512  0.2278  0.1833
 5941SOL    HW128502   7.618   0.457   2.503  0.9659  0.5150 -1.4234
 5941SOL    HW228503   7.653   0.299   2.522 -0.0409  0.3517 -0.8706
 5942SOL     OW28504   1.805   8.485   4.359 -0.2455 -0.2177 -0.4710
 5942SOL    HW128505   1.854   8.464   4.444  0.4450 -0.2361 -0.8617
 5942SOL    HW228506   1.730   8.548   4.378  1.0248  1.2382 -0.1146
 5943SOL     OW28507   4.494   3.137   4.250 -0.2151 -0.5702 -0.8057
 5943SOL    HW128508   4.534   3.143   4.341  2.8849 -2.1755 -1.9851
 5943SOL    HW228509   4.454   3.225   4.225  0.0572  0.2524  1.5802
 5944SOL     OW28510   1.775   6.114   0.593  0.3918  0.1257  0.0853
 5944SOL    HW128511   1.731   6.124   0.682  0.9176  0.1331  0.3464
 5944SOL    HW228512   1.816   6.023   0.586  2.1867  0.8738  0.6889
 5945SOL     OW28513   9.013   5.534   0.644  0.3758  0.2444  0.2155
 5945SOL    HW128514   8.947   5.609   0.633 -0.0118 -0.0637  0.4169
 5945SOL    HW228515   8.998   5.466   0.573 -0.8505 -0.7972  1.4345
 5946SOL     OW28516   2.326   8.421   3.887 -1.0208 -0.1314  0.1602
 5946SOL    HW128517   2.244   8.409   3.832 -1.6266  3.2782  0.1733
 5946SOL    HW228518   2.302   8.467   3.972  0.7737  0.0865  0.5706
 5947SOL     OW28519   0.451   8.167   4.230 -0.6017 -0.0958  0.4647
 5947SOL    HW128520   0.524   8.220   4.187 -0.7588  0.5417  0.9658
 5947SOL    HW228521   0.365   8.217   4.223 -0.9987 -0.8664 -0.1596
 5948SOL     OW28522   4.123   6.223   1.995  0.0892  0.8012  0.5489
 5948SOL    HW128523   4.035   6.181   1.972  0.6809 -1.4238  2.1618
 5948SOL    HW228524   4.110   6.290   2.068 -0.1533 -0.1304  1.3657
 5949SOL     OW28525   4.757   9.400   4.295 -0.0506  0.4613 -0.0100
 5949SOL    HW128526   4.779   9.494   4.320  1.5650 -0.1476  0.9691
 5949SOL    HW228527   4.690   9.363   4.359 -0.6768  0.9322 -0.3891
 5950SOL     OW28528   0.357   5.517   4.505  0.9041  0.0043 -0.6837
 5950SOL    HW128529   0.363   5.422   4.536  0.0500 -0.3412 -1.5601
 5950SOL    HW228530   0.431   5.570   4.547 -0.9545 -0.1520  3.0226
 5951SOL     OW28531   9.016   6.100   3.445  0.2291  0.3879 -0.2648
 5951SOL    HW128532   9.015   6.133   3.351 -0.7375 -0.4915 -0.5693
 5951SOL    HW228533   9.108   6.070   3.469  0.3055 -0.1188 -1.1871
 5952SOL     OW28534   0.584   4.454   2.569  0.3712 -0.8314 -0.4331
 5952SOL    HW128535   0.656   4.484   2.506 -1.6590 -0.5777 -2.7158
 5952SOL    HW228536   0.614   4.371   2.616  1.7527 -1.3347 -2.1349
 5953SOL     OW28537   1.279   5.118   2.381  0.1293 -0.0969  0.0827
 5953SOL    HW128538   1.276   5.039   2.318 -1.4812  0.9254 -1.1745
 5953SOL    HW228539   1.192   5.167   2.375  0.8471  1.3418  1.4289
 5954SOL     OW28540   7.359   0.396   2.303 -0.2997 -0.4240  0.3122
 5954SOL    HW128541   7.306   0.312   2.288  0.3728 -0.7210 -0.4631
 5954SOL    HW228542   7.457   0.374   2.299 -0.0350  1.0546 -4.1774
 5955SOL     OW28543   5.319   8.608   3.279 -0.0872  0.1697 -0.2052
 5955SOL    HW128544   5.266   8.636   3.199 -0.7856  0.4890  0.3615
 5955SOL    HW228545   5.382   8.534   3.253 -0.1210  0.4492 -1.1009
 5956SOL     OW28546   4.414   1.946   0.001 -0.1440 -0.1309  0.3871
 5956SOL    HW128547   4.475   1.879   0.044 -0.8374 -0.7533  0.4204
 5956SOL    HW228548   4.332   1.899  -0.031 -0.5251  0.6732  0.1886
 5957SOL     OW28549   2.833   1.759   2.117 -0.3897  0.1939  0.6361
 5957SOL    HW128550   2.800   1.760   2.022  0.3378  0.4641  0.3808
 5957SOL    HW228551   2.923   1.801   2.121 -0.9651  1.3543  1.6676
 5958SOL     OW28552   1.357   8.886   0.672 -0.1216 -0.1435 -0.3443
 5958SOL    HW128553   1.390   8.970   0.715 -0.4923 -0.7059  1.0750
 5958SOL    HW228554   1.257   8.884   0.677 -0.1477 -0.3724 -0.9465
 5959SOL     OW28555   5.647   9.220   4.062 -0.1956 -0.4808  0.0865
 5959SOL    HW128556   5.648   9.319   4.043 -0.7425 -0.1627  1.6506
 5959SOL    HW228557   5.719   9.198   4.128 -1.3634 -0.8147  1.2491
 5960SOL     OW28558   1.667   5.444   2.208  0.6125 -0.3150  0.0532
 5960SOL    HW128559   1.626   5.366   2.254 -0.8695  0.8382  0.7535
 5960SOL    HW228560   1.687   5.420   2.113 -0.2597 -1.4007  0.1309
 5961SOL     OW28561   6.598   7.693   2.957  0.2051  0.6038 -0.1842
 5961SOL    HW128562   6.525   7.626   2.969  1.0834 -0.1605  0.9318
 5961SOL    HW228563   6.580   7.746   2.874 -1.2639 -0.0188 -0.2866
 5962SOL     OW28564   9.419   4.039   2.038 -0.2785  0.0548  0.5547
 5962SOL    HW128565   9.348   4.009   2.102  1.8639 -1.6945  2.1672
 5962SOL    HW228566   9.509   4.017   2.074  1.1793  2.7261 -1.2091
 5963SOL     OW28567   0.363   1.536   2.913 -0.0446  0.5200 -0.1097
 5963SOL    HW128568   0.353   1.456   2.973  0.7810  0.3540 -0.1861
 5963SOL    HW228569   0.324   1.616   2.959 -1.7612 -0.1049 -0.4418
 5964SOL     OW28570   2.841   3.508   4.408 -0.1213  0.1881 -0.7578
 5964SOL    HW128571   2.817   3.529   4.313 -1.8708 -2.1464 -0.8763
 5964SOL    HW228572   2.759   3.510   4.464  0.5692 -0.5716  0.3000
 5965SOL     OW28573   3.176   0.973   0.798  0.0797  0.5088  0.1056
 5965SOL    HW128574   3.107   1.039   0.767  0.5586  1.1878  0.4730
 5965SOL    HW228575   3.196   0.909   0.725 -2.0528 -0.6363  0.4785
 5966SOL     OW28576   9.035   4.402   0.935  0.2832  0.3751  0.0207
 5966SOL    HW128577   9.059   4.474   0.869  0.8718  2.7149  2.6769
 5966SOL    HW228578   9.119   4.365   0.975 -0.0650 -1.1560 -0.6186
 5967SOL     OW28579   7.835   1.179   4.771  0.1802 -0.0885 -0.1773
 5967SOL    HW128580   7.903   1.120   4.816  0.2054 -0.0912 -0.2184
 5967SOL    HW228581   7.793   1.238   4.839  1.4535  1.1289 -0.4269
 5968SOL     OW28582   9.874   7.781   0.722  0.3246 -0.2432  0.6344
 5968SOL    HW128583   9.803   7.815   0.661 -0.0650 -1.0800  0.6121
 5968SOL    HW228584   9.927   7.710   0.676  2.0487  1.2966  0.1764
 5969SOL     OW28585   8.460   5.086   1.687 -0.2306  0.2099  0.6137
 5969SOL    HW128586   8.450   5.058   1.782 -2.6490  2.0695  0.9509
 5969SOL    HW228587   8.435   5.183   1.677 -1.7958 -0.4088 -2.1838
 5970SOL     OW28588   9.575   6.339   4.178  0.3043 -0.0385 -0.0600
 5970SOL    HW128589   9.663   6.386   4.170  1.2215 -1.6370  0.4202
 5970SOL    HW228590   9.540   6.318   4.087 -0.0848  1.5247 -0.2701
 5971SOL     OW28591   7.717   7.598   4.014 -0.3975 -0.8450  0.4280
 5971SOL    HW128592   7.662   7.649   3.947 -0.5700 -0.9442  0.4951
 5971SOL    HW228593   7.657   7.554   4.080 -0.2498 -1.1768  0.3414
 5972SOL     OW28594   3.723   3.233   3.839  0.0931 -0.1091 -0.8123
 5972SOL    HW128595   3.667   3.158   3.875  1.6217 -0.9417 -0.1645
 5972SOL    HW228596   3.796   3.196   3.782  3.0862  0.6051  2.4319
 5973SOL     OW28597   9.178   2.909   4.443 -0.0663 -0.0829 -0.2553
 5973SOL    HW128598   9.218   2.951   4.361 -0.8258 -0.3260 -0.7529
 5973SOL    HW228599   9.246   2.909   4.516  1.3065 -1.7108 -1.4802
 5974SOL     OW28600   9.286   8.690   1.524 -0.7430 -0.9543 -0.3698
 5974SOL    HW128601   9.217   8.703   1.452 -1.6208  1.3411  0.8523
 5974SOL    HW228602   9.240   8.667   1.610  0.0518  0.1806  0.3602
 5975SOL     OW28603   1.524   9.538   1.899  0.5930  0.8442  0.3057
 5975SOL    HW128604   1.496   9.561   1.806 -1.9453 -0.9437  0.5677
 5975SOL    HW228605   1.474   9.596   1.964  0.3707  0.2682  0.6490
 5976SOL     OW28606   0.380   9.155   4.513  0.0376 -0.2836 -0.2386
 5976SOL    HW128607   0.332   9.242   4.523  0.5503  0.1665 -1.6466
 5976SOL    HW228608   0.450   9.148   4.584 -0.6267  0.0263  0.4631
 5977SOL     OW28609   0.682   0.020   0.607 -0.2934  0.4044 -0.0540
 5977SOL    HW128610   0.651   0.027   0.702 -0.9807  0.2316 -0.2596
 5977SOL    HW228611   0.746   0.094   0.587 -0.6388  0.8190  0.3569
 5978SOL     OW28612   1.153   5.513   3.133 -0.1445  0.3388  0.0387
 5978SOL    HW128613   1.072   5.522   3.191  0.2852 -0.1045  0.7161
 5978SOL    HW228614   1.165   5.417   3.107  1.7895 -0.0813  2.3379
 5979SOL     OW28615   8.734   6.595   2.889 -0.6371  0.5450  0.5390
 5979SOL    HW128616   8.695   6.637   2.972 -1.5008  1.6244 -0.3981
 5979SOL    HW228617   8.833   6.592   2.897 -0.5719  2.6598  0.7010
 5980SOL     OW28618   5.659   7.610   2.061  0.0731 -0.2806  0.5266
 5980SOL    HW128619   5.573   7.640   2.019  0.6107  1.7916  0.8620
 5980SOL    HW228620   5.638   7.555   2.142 -0.9434  0.1007  0.5393
 5981SOL     OW28621   0.784   0.611   1.786 -0.3712  0.6781  0.6251
 5981SOL    HW128622   0.770   0.595   1.883 -0.2337  2.5523  0.9818
 5981SOL    HW228623   0.882   0.609   1.765 -0.4448 -0.4516  0.3885
 5982SOL     OW28624   9.020   5.547   4.769 -0.1262  0.2134 -0.2072
 5982SOL    HW128625   9.065   5.593   4.845 -0.6851 -1.4223  1.1600
 5982SOL    HW228626   8.988   5.614   4.703  0.7917  1.6322  0.7629
 5983SOL     OW28627   2.211   0.040   2.681  0.3027 -0.1966 -0.2216
 5983SOL    HW128628   2.272   0.049   2.759 -1.2095  0.3306  0.9148
 5983SOL    HW228629   2.249   0.091   2.603  0.7820  1.0292  0.7972
 5984SOL     OW28630   6.443   9.738   3.753 -0.0572  0.4880  0.1117
 5984SOL    HW128631   6.460   9.766   3.848  0.0481  1.8332 -0.3047
 5984SOL    HW228632   6.529   9.709   3.711 -0.1570 -0.4415  0.5174
 5985SOL     OW28633   2.351   7.094   2.026  0.4660 -0.1383  0.2118
 5985SOL    HW128634   2.430   7.051   2.070  0.6886  0.3738  0.3159
 5985SOL    HW228635   2.368   7.192   2.016  1.2717 -0.5444 -2.8600
 5986SOL     OW28636   3.831   2.495   3.062  0.3060  0.0939 -0.4059
 5986SOL    HW128637   3.882   2.411   3.080 -0.8224 -0.6251 -0.4635
 5986SOL    HW228638   3.847   2.524   2.968  0.5627 -0.1567 -0.4399
 5987SOL     OW28639   2.743   5.312   1.778  0.5435  0.3151 -0.2012
 5987SOL    HW128640   2.843   5.307   1.773  0.4261 -1.3092 -1.2597
 5987SOL    HW228641   2.704   5.256   1.705 -1.1516  0.6945  0.4116
 5988SOL     OW28642   8.467   0.306   0.735 -0.1231  0.8832  0.4782
 5988SOL    HW128643   8.425   0.361   0.807  1.6033  1.6655  0.8938
 5988SOL    HW228644   8.455   0.209   0.756 -0.3180  1.1035  1.3973
 5989SOL     OW28645   4.261   4.445   4.656 -0.0143  0.3480 -0.3599
 5989SOL    HW128646   4.212   4.358   4.657  1.9690 -0.7767  0.1650
 5989SOL    HW228647   4.348   4.435   4.607 -0.3818  2.3945 -1.5197
 5990SOL     OW28648   0.435   6.938   2.202 -0.2158 -0.4027 -0.5842
 5990SOL    HW128649   0.452   6.902   2.294 -0.5135  0.4541 -0.1852
 5990SOL    HW228650   0.431   6.863   2.137 -0.2845 -1.0450  0.1543
 5991SOL     OW28651   7.411   3.917   4.780  0.1325 -0.3075  0.0640
 5991SOL    HW128652   7.393   4.000   4.727  1.2909  1.0567  1.7467
 5991SOL    HW228653   7.345   3.847   4.755 -1.2278  1.2984 -0.9893
 5992SOL     OW28654   1.321   3.966   1.299  0.5896  0.1224 -0.4841
 5992SOL    HW128655   1.241   3.907   1.314  1.8375 -0.9756  2.1190
 5992SOL    HW228656   1.340   4.018   1.382  0.6013  2.9030 -2.1636
 5993SOL     OW28657   1.403   9.895   0.448  0.4083  0.3124  0.5205
 5993SOL    HW128658   1.409   9.804   0.489  1.2512 -0.0725 -0.4482
 5993SOL    HW228659   1.495   9.929   0.429  0.0881  1.3181  0.7557
 5994SOL     OW28660   5.694   3.173   0.808 -0.1182 -0.2330 -0.4826
 5994SOL    HW128661   5.626   3.191   0.737 -1.2110 -2.9020 -0.1529
 5994SOL    HW228662   5.653   3.188   0.898 -0.5784 -2.7053 -0.2561
 5995SOL     OW28663   8.917   5.367   3.486 -0.0745 -0.8423  0.6932
 5995SOL    HW128664   8.978   5.315   3.426 -0.6516 -0.6351 -0.0891
 5995SOL    HW228665   8.832   5.315   3.500 -0.3724 -0.4283  0.4605
 5996SOL     OW28666   2.040   6.420   0.514  0.0581  0.0003  0.0333
 5996SOL    HW128667   2.054   6.500   0.456 -0.9464 -0.3066 -0.6440
 5996SOL    HW228668   2.120   6.360   0.510  0.3280  0.3923 -0.3722
 5997SOL     OW28669   0.927   1.776   1.464  0.5464  0.3907  0.6601
 5997SOL    HW128670   0.976   1.699   1.423 -1.7426 -0.7121 -0.0872
 5997SOL    HW228671   0.830   1.770   1.440  0.2936  3.4004  0.7771
 5998SOL     OW28672   1.665   7.570   0.248 -0.6955 -0.2753  0.1019
 5998SOL    HW128673   1.619   7.593   0.162 -0.7349  0.9371  0.4355
 5998SOL    HW228674   1.670   7.651   0.305 -0.5737 -1.0535  1.2096
 5999SOL     OW28675   1.025   8.790   0.241  0.0544 -0.1583 -0.1775
 5999SOL    HW128676   1.024   8.745   0.152  0.9264 -1.8503  0.6617
 5999SOL    HW228677   0.935   8.832   0.258 -0.1733  0.0266 -1.7545
 6000SOL     OW28678   4.776   8.527   1.969 -0.3975  0.6622 -0.1993
 6000SOL    HW128679   4.677   8.527   1.983 -0.4132 -1.2800 -0.2870
 6000SOL    HW228680   4.817   8.450   2.017  0.8890  0.5094 -1.5270
 6001SOL     OW28681   8.565   9.718   1.839  0.5760  0.6122  0.2494
 6001SOL    HW128682   8.518   9.631   1.830 -0.8768  1.3645  0.2825
 6001SOL    HW228683   8.541   9.777   1.762 -0.3280  1.8120  1.4231
 6002SOL     OW28684   0.702   8.971   1.297 -0.2306  0.2105  0.0869
 6002SOL    HW128685   0.799   8.982   1.274 -0.2350 -0.4659 -0.2698
 6002SOL    HW228686   0.672   9.050   1.350  0.0369  1.3427 -1.3812
 6003SOL     OW28687   6.794   9.588   2.192 -0.1814 -0.1948  0.0460
 6003SOL    HW128688   6.753   9.671   2.154  0.6969  0.0199 -0.4470
 6003SOL    HW228689   6.802   9.519   2.121  0.3186 -0.2323  0.1343
 6004SOL     OW28690   9.117   7.534   1.284  0.0212  0.1391  0.2120
 6004SOL    HW128691   9.136   7.464   1.216 -1.0012  0.5226 -0.4840
 6004SOL    HW228692   9.027   7.519   1.324  1.0722 -0.7490  2.3276
 6005SOL     OW28693   9.979   4.726   0.613 -0.0094  0.3898  0.4755
 6005SOL    HW128694   9.927   4.686   0.537  0.1198  0.4410  0.3595
 6005SOL    HW228695  10.035   4.802   0.578  0.0186  0.4390  0.6296
 6006SOL     OW28696   2.084   2.801   0.979  0.4074  0.2320  0.1141
 6006SOL    HW128697   2.060   2.706   0.961  0.3341  0.1161  0.7807
 6006SOL    HW228698   2.098   2.813   1.078 -2.6491  1.6091  0.4564
 6007SOL     OW28699   8.939   8.820   1.626  0.1348  0.3123  0.0230
 6007SOL    HW128700   8.898   8.909   1.603 -1.0439  0.0397  1.0515
 6007SOL    HW228701   8.868   8.757   1.655  0.7156 -1.5921 -2.5502
 6008SOL     OW28702   0.856   9.112   0.049  0.2441 -0.4643  0.3857
 6008SOL    HW128703   0.836   9.068   0.136  2.4236  0.4029  1.3631
 6008SOL    HW228704   0.799   9.194   0.039 -0.3991 -0.8668  0.7389
 6009SOL     OW28705   2.108   9.965   3.941  0.6947  0.3771  0.5011
 6009SOL    HW128706   2.100  10.064   3.931 -3.2217  0.0080 -1.0533
 6009SOL    HW228707   2.082   9.939   4.035  0.4649  0.7322  0.5380
 6010SOL     OW28708   0.424   6.113   3.416  0.2234 -0.1052  0.8780
 6010SOL    HW128709   0.501   6.176   3.410  0.6944 -0.7078  0.6377
 6010SOL    HW228710   0.447   6.038   3.478  0.1853 -0.7872  0.0742
 6011SOL     OW28711   5.873   7.531   3.413  0.1871  0.0007  0.5441
 6011SOL    HW128712   5.871   7.629   3.393  0.9154 -0.0891  0.0040
 6011SOL    HW228713   5.789   7.504   3.459 -0.1056  0.8425  0.5018
 6012SOL     OW28714   2.871   5.131   2.472  0.0344  0.7661 -0.3789
 6012SOL    HW128715   2.917   5.102   2.556  1.4603  2.0173 -0.7190
 6012SOL    HW228716   2.807   5.205   2.493 -0.1875  0.5465 -0.2765
 6013SOL     OW28717   6.645   9.763   0.444  0.7056  0.4020  0.4674
 6013SOL    HW128718   6.700   9.718   0.514  0.5799 -1.1254 -0.3933
 6013SOL    HW228719   6.548   9.756   0.467  0.6415 -0.4299 -0.0393
 6014SOL     OW28720   5.826   0.394   3.198  0.1694 -0.4143  0.2849
 6014SOL    HW128721   5.831   0.316   3.135  0.0431 -2.2361  2.4611
 6014SOL    HW228722   5.836   0.361   3.292  0.9965  2.3300  1.1944
 6015SOL     OW28723   7.558   8.485   3.008  0.0151 -0.0160 -0.1997
 6015SOL    HW128724   7.478   8.508   3.063 -0.0111 -1.4556  0.3809
 6015SOL    HW228725   7.527   8.446   2.921  0.0791 -0.0146 -0.2229
 6016SOL     OW28726   7.699   8.784   1.963  0.7016  0.5399  0.4380
 6016SOL    HW128727   7.670   8.824   1.875  0.4684  1.8140  1.0897
 6016SOL    HW228728   7.638   8.708   1.985  1.0786 -0.1259 -0.7572
 6017SOL     OW28729   3.369   6.723   2.703 -0.9912 -0.2825 -0.3277
 6017SOL    HW128730   3.434   6.737   2.629 -1.5819  0.6136 -0.6849
 6017SOL    HW228731   3.409   6.755   2.789 -1.4096  1.4155 -0.7465
 6018SOL     OW28732   7.230   3.695   4.704 -0.0512  0.5960 -0.2078
 6018SOL    HW128733   7.264   3.659   4.617 -0.3652 -0.1106 -0.0391
 6018SOL    HW228734   7.142   3.653   4.725 -0.3610  1.3659  0.0546
 6019SOL     OW28735   3.878   3.762   4.294  0.2659  0.3936 -0.2588
 6019SOL    HW128736   3.910   3.817   4.372 -0.0680  1.8269 -1.1273
 6019SOL    HW228737   3.878   3.818   4.211 -0.8875 -0.6819 -0.9962
 6020SOL     OW28738   7.955   8.280   4.060 -0.1881 -0.3169 -0.8007
 6020SOL    HW128739   7.875   8.305   4.006  1.1443  0.4155 -2.4519
 6020SOL    HW228740   7.965   8.343   4.137 -0.2782  0.5571 -1.5060
 6021SOL     OW28741   1.217   3.702   3.440 -0.1651 -0.4364 -0.6379
 6021SOL    HW128742   1.169   3.614   3.442  1.1629 -1.1905 -0.9041
 6021SOL    HW228743   1.207   3.743   3.350 -1.2103 -0.0789 -0.3562
 6022SOL     OW28744   9.364   3.436   3.806 -0.2728  0.0688 -0.1593
 6022SOL    HW128745   9.420   3.506   3.850 -1.8533  2.1204 -1.3447
 6022SOL    HW228746   9.374   3.442   3.707 -2.2168  0.1466 -0.3714
 6023SOL     OW28747   7.736   4.335   4.744 -0.3933 -0.7267 -0.4047
 6023SOL    HW128748   7.696   4.276   4.673  1.9897 -2.2412 -0.5172
 6023SOL    HW228749   7.835   4.330   4.740 -0.1834  1.9124  0.7959
 6024SOL     OW28750   1.719   7.570   1.447 -0.7278  0.1859  0.0716
 6024SOL    HW128751   1.751   7.664   1.458  1.0056 -0.1803 -1.5376
 6024SOL    HW228752   1.676   7.538   1.532  1.7507  1.2589  1.7657
 6025SOL     OW28753   4.703   0.419   1.707  0.1877 -0.1019 -0.1319
 6025SOL    HW128754   4.657   0.451   1.624 -0.6030  0.1019  0.3778
 6025SOL    HW228755   4.635   0.380   1.769  0.6467  0.6065  0.8211
 6026SOL     OW28756   4.439   0.304   4.348  0.5217  0.1762  0.9964
 6026SOL    HW128757   4.385   0.379   4.386 -1.2596 -0.0334 -1.0291
 6026SOL    HW228758   4.380   0.245   4.292  2.6611 -0.6146 -0.4863
 6027SOL     OW28759   0.707   3.610   2.099 -0.7419 -0.2349 -0.8802
 6027SOL    HW128760   0.741   3.529   2.051  1.2607  0.0809 -0.0570
 6027SOL    HW228761   0.767   3.687   2.081 -0.2092  0.0079  1.7191
 6028SOL     OW28762   4.452   0.450   2.987 -0.1968 -0.1669  0.1779
 6028SOL    HW128763   4.484   0.465   3.081  0.4632  0.9237 -0.2150
 6028SOL    HW228764   4.527   0.414   2.931 -0.3263  0.1074 -0.1715
 6029SOL     OW28765   1.380   9.982   2.649  0.0859  0.3493  0.6719
 6029SOL    HW128766   1.463   9.929   2.630 -0.8564 -0.8195 -0.3038
 6029SOL    HW228767   1.347  10.022   2.563 -0.4007  0.7356  1.0414
 6030SOL     OW28768   8.631   6.093   1.741 -0.2311 -0.4028 -0.0617
 6030SOL    HW128769   8.643   6.169   1.677  0.5159 -0.8264 -0.4340
 6030SOL    HW228770   8.535   6.084   1.766 -0.3533  0.5153 -0.2040
 6031SOL     OW28771   9.576   0.223   4.753 -0.3658 -0.4856  0.0951
 6031SOL    HW128772   9.628   0.239   4.838  0.3705 -1.7310 -0.1100
 6031SOL    HW228773   9.491   0.275   4.757  0.1415  0.3084  1.1456
 6032SOL     OW28774   0.250   8.773   3.008  0.2729  0.1695  0.0438
 6032SOL    HW128775   0.251   8.737   2.914  0.0967 -0.9415  0.4680
 6032SOL    HW228776   0.303   8.713   3.067 -0.3012  0.4282  0.8228
 6033SOL     OW28777   9.005   9.575   2.052  0.8710 -0.0098 -0.4622
 6033SOL    HW128778   9.089   9.565   2.000  0.5631  1.9003 -1.3863
 6033SOL    HW228779   8.975   9.671   2.049 -0.9764 -0.5273  0.3899
 6034SOL     OW28780   1.273   1.870   0.713  0.6237  0.2329 -0.2722
 6034SOL    HW128781   1.218   1.950   0.691 -1.0807 -0.9739 -0.4935
 6034SOL    HW228782   1.334   1.849   0.637 -0.3818  0.1238 -1.0549
 6035SOL     OW28783   9.084   3.396   1.829  0.2767 -0.2342  0.0295
 6035SOL    HW128784   9.178   3.366   1.815  0.1441  0.2238 -1.8669
 6035SOL    HW228785   9.061   3.386   1.926  2.4687  0.2344  0.6387
 6036SOL     OW28786   5.884   0.445   2.520  0.2007 -0.0616  0.1523
 6036SOL    HW128787   5.937   0.383   2.464 -0.2332 -1.1128  0.8825
 6036SOL    HW228788   5.883   0.536   2.478 -0.7443 -1.0034 -1.9187
 6037SOL     OW28789   5.920   0.060   3.562  0.0895 -0.4920 -0.4173
 6037SOL    HW128790   5.970  -0.011   3.612 -0.7437 -1.2035 -0.5761
 6037SOL    HW228791   5.972   0.087   3.481  1.2270  0.3336  0.5750
 6038SOL     OW28792   9.894   4.438   0.322 -0.2826  0.7908  0.2544
 6038SOL    HW128793   9.853   4.361   0.273 -1.7381  1.5186  0.3054
 6038SOL    HW228794   9.857   4.442   0.415  0.3160  1.1281  0.4805
 6039SOL     OW28795   8.377   4.193   3.502  0.2370 -0.0348  0.0341
 6039SOL    HW128796   8.444   4.226   3.569  0.0160  1.6247 -0.5189
 6039SOL    HW228797   8.286   4.195   3.543  0.1756  0.4350 -0.1203
 6040SOL     OW28798   3.719   2.535   0.646 -0.1265 -0.4026 -0.0941
 6040SOL    HW128799   3.792   2.563   0.708  0.6309  0.1438 -1.2072
 6040SOL    HW228800   3.631   2.570   0.679  0.4727  1.1296 -0.1044
 6041SOL     OW28801   1.340   7.272   2.200 -0.1359  0.2669  0.3144
 6041SOL    HW128802   1.329   7.186   2.150  2.2398  0.0494  0.1044
 6041SOL    HW228803   1.319   7.349   2.140 -2.6096 -0.1390  0.5981
 6042SOL     OW28804   2.770   7.847   3.978  0.0579 -0.5695 -0.4244
 6042SOL    HW128805   2.721   7.881   3.899  0.3693  1.1144  0.0914
 6042SOL    HW228806   2.723   7.766   4.014 -1.1699 -0.1980 -1.1578
 6043SOL     OW28807   3.047   7.824   3.529  0.0414  0.5122  0.0859
 6043SOL    HW128808   3.061   7.802   3.626  1.5287  1.5586  0.1348
 6043SOL    HW228809   2.953   7.804   3.504  0.0997 -1.4561  1.2841
 6044SOL     OW28810   2.975   6.299   2.388  0.4165 -0.3323  0.4031
 6044SOL    HW128811   3.050   6.363   2.379  0.0727 -0.0328 -0.4265
 6044SOL    HW228812   2.903   6.339   2.444 -0.5717  0.7527 -1.5766
 6045SOL     OW28813   8.947   2.831   1.401  0.2657 -0.6616  0.4102
 6045SOL    HW128814   8.928   2.927   1.419  0.0552 -0.3411 -1.4407
 6045SOL    HW228815   9.040   2.822   1.365  0.2304 -1.1320  0.4332
 6046SOL     OW28816   1.226   5.685   1.538  0.2986 -0.1597 -0.7366
 6046SOL    HW128817   1.266   5.619   1.602  0.0327 -0.9704 -1.4013
 6046SOL    HW228818   1.129   5.667   1.526 -0.2626  1.6953  0.7217
 6047SOL     OW28819   1.929   2.715   4.401 -0.1599  0.1498  0.1818
 6047SOL    HW128820   1.874   2.634   4.421  0.2198 -0.3962 -0.9436
 6047SOL    HW228821   1.984   2.699   4.318 -0.6970  1.8548 -0.5313
 6048SOL     OW28822   0.071   8.555   0.284  0.2341  0.4185  0.0834
 6048SOL    HW128823   0.050   8.653   0.295 -1.7025 -0.1418  1.6910
 6048SOL    HW228824   0.023   8.520   0.204  0.9577  0.8007 -0.5153
 6049SOL     OW28825   3.365   8.720   4.133 -0.2797 -0.5376 -0.1857
 6049SOL    HW128826   3.402   8.666   4.209  2.4094  1.2451 -0.2000
 6049SOL    HW228827   3.425   8.797   4.113 -2.5148  0.7752 -2.1658
 6050SOL     OW28828   4.930   7.798   0.529 -0.4707  0.3542  0.1538
 6050SOL    HW128829   4.868   7.730   0.488 -0.5641 -0.6485  1.9139
 6050SOL    HW228830   4.882   7.885   0.537  0.0393  1.0300 -3.2645
 6051SOL     OW28831   5.547   8.834   3.122 -0.1784 -0.2100 -0.1296
 6051SOL    HW128832   5.608   8.893   3.175 -0.0602 -0.4089 -0.0417
 6051SOL    HW228833   5.460   8.880   3.108  0.1822  0.3083 -0.7260
 6052SOL     OW28834   9.765   3.012   2.970  0.1805  0.0328 -0.2608
 6052SOL    HW128835   9.863   3.027   2.985 -0.4242  2.3077  1.5714
 6052SOL    HW228836   9.728   2.959   3.046 -0.4626  1.0256  0.1090
 6053SOL     OW28837   3.791   4.053   0.366 -0.2702  0.5113 -0.0605
 6053SOL    HW128838   3.782   3.969   0.312  0.5430  1.2849 -1.4339
 6053SOL    HW228839   3.716   4.115   0.343 -1.6297 -0.3366  1.9273
 6054SOL     OW28840   6.437   0.549   3.020 -0.1623  0.0750  0.4954
 6054SOL    HW128841   6.450   0.640   3.059 -0.4498  1.0156 -1.5617
 6054SOL    HW228842   6.362   0.503   3.068 -0.0378  0.9121  1.5240
 6055SOL     OW28843   0.717   4.013   0.486 -0.2116 -0.1466 -0.1645
 6055SOL    HW128844   0.669   4.072   0.421 -0.2791 -1.2181 -1.1116
 6055SOL    HW228845   0.786   3.958   0.437  0.7226  0.0592  0.8915
 6056SOL     OW28846   9.208   2.344   3.160  0.0349 -0.4999  0.7178
 6056SOL    HW128847   9.304   2.323   3.140 -0.3797  0.3034 -2.4286
 6056SOL    HW228848   9.201   2.437   3.195  0.4345 -0.6168  1.1119
 6057SOL     OW28849   1.258   3.187   0.544  0.4646  0.6779 -0.2107
 6057SOL    HW128850   1.301   3.161   0.457 -2.1616 -1.5934 -0.8959
 6057SOL    HW228851   1.172   3.233   0.525 -0.1737  0.0832  1.2031
 6058SOL     OW28852   4.763   4.478   0.893  0.2052  0.3502  0.1629
 6058SOL    HW128853   4.672   4.518   0.882 -0.1560  0.3066  2.6822
 6058SOL    HW228854   4.814   4.531   0.960  0.7852 -1.6492  1.3283
 6059SOL     OW28855   9.738   1.041   1.628  0.0261  0.2148  0.0812
 6059SOL    HW128856   9.837   1.038   1.642  0.2393 -4.1676 -1.7708
 6059SOL    HW228857   9.713   1.127   1.583  3.2776  0.5354 -1.2148
 6060SOL     OW28858   2.069   9.346   0.085  0.3608 -0.6209  0.0829
 6060SOL    HW128859   2.126   9.353   0.003 -0.7394  1.3453 -0.5298
 6060SOL    HW228860   2.113   9.395   0.161  1.5745 -2.7700  0.8322
 6061SOL     OW28861   2.367   5.155   1.567 -0.1776 -0.1974 -0.2487
 6061SOL    HW128862   2.325   5.214   1.499 -1.6212 -1.5238 -0.5279
 6061SOL    HW228863   2.353   5.194   1.658 -1.4418 -0.2879 -0.4009
 6062SOL     OW28864   0.013   3.557   0.762  0.1508  0.0031 -0.4829
 6062SOL    HW128865   0.049   3.603   0.843  0.0727 -0.6681 -0.0643
 6062SOL    HW228866   0.068   3.583   0.682 -0.0998  1.0830 -0.3125
 6063SOL     OW28867   4.692   9.172   2.242 -0.2198 -0.1558  0.3684
 6063SOL    HW128868   4.622   9.144   2.176  1.0849  0.0597 -1.1720
 6063SOL    HW228869   4.664   9.255   2.289 -0.5464  0.5509 -1.0343
 6064SOL     OW28870   0.677   7.383   4.123  0.1614  0.3711 -0.0556
 6064SOL    HW128871   0.733   7.437   4.186  0.7873 -0.2784 -0.0511
 6064SOL    HW228872   0.695   7.285   4.138 -1.1575  0.1460  0.1274
 6065SOL     OW28873   4.097   5.284   1.812 -0.3206 -0.5628  0.0356
 6065SOL    HW128874   4.190   5.276   1.776 -1.1534 -1.2331 -2.0063
 6065SOL    HW228875   4.070   5.198   1.855  0.7829  0.3323  2.5999
 6066SOL     OW28876   1.103   4.670   4.282  0.1076 -0.3215 -0.2232
 6066SOL    HW128877   1.125   4.695   4.187  1.0749 -0.6521 -0.0896
 6066SOL    HW228878   1.004   4.671   4.294 -0.1088 -1.6908 -1.6423
 6067SOL     OW28879   4.901   9.344   3.811  0.4353  0.1764 -0.0268
 6067SOL    HW128880   4.870   9.413   3.745 -0.0028 -0.6438 -0.6846
 6067SOL    HW228881   4.828   9.326   3.877  0.7698  0.7840  0.5183
 6068SOL     OW28882   0.522   8.505   1.156  0.5334  0.0487  0.1866
 6068SOL    HW128883   0.527   8.498   1.256  1.1953 -1.6140  0.0574
 6068SOL    HW228884   0.473   8.588   1.131 -2.4373 -1.0838  1.9315
 6069SOL     OW28885   7.985   2.482   2.507 -0.0289  0.3808  0.0695
 6069SOL    HW128886   7.933   2.454   2.427 -1.3666  2.9277 -0.0106
 6069SOL    HW228887   7.936   2.555   2.555  2.7236  1.8307  0.8307
 6070SOL     OW28888   6.818   9.796   2.501  0.0878 -0.1524 -0.3470
 6070SOL    HW128889   6.879   9.737   2.553  0.6641  2.0645  1.5375
 6070SOL    HW228890   6.816   9.887   2.542 -3.0021  0.3579 -1.5039
 6071SOL     OW28891   4.820   0.860   2.227 -0.3359 -0.0184  0.1576
 6071SOL    HW128892   4.738   0.906   2.260 -0.1006  1.8534 -1.7164
 6071SOL    HW228893   4.797   0.798   2.152 -0.1648 -0.1481  0.2113
 6072SOL     OW28894   7.706   2.830   4.473  0.3776 -0.5510  0.4931
 6072SOL    HW128895   7.654   2.886   4.538 -0.7196 -0.6380 -0.2942
 6072SOL    HW228896   7.670   2.737   4.474 -0.9978 -0.0733 -1.6907
 6073SOL     OW28897   4.131   7.755   3.274  0.1826  0.5910 -0.3452
 6073SOL    HW128898   4.032   7.742   3.282  0.2976 -0.6828 -0.7587
 6073SOL    HW228899   4.157   7.843   3.314 -1.0877  0.8431 -0.0495
 6074SOL     OW28900   2.436   9.340   4.445 -0.8413  0.5647 -0.1249
 6074SOL    HW128901   2.517   9.299   4.403 -0.4796  0.8772  0.2720
 6074SOL    HW228902   2.354   9.307   4.397 -0.4858  0.2350 -0.5128
 6075SOL     OW28903   8.380   9.230   4.323 -0.8530 -0.3779  0.3680
 6075SOL    HW128904   8.455   9.262   4.265 -0.7237 -1.1389  0.1167
 6075SOL    HW228905   8.404   9.142   4.364 -1.2023 -0.1439  1.0815
 6076SOL     OW28906   8.601   0.174   4.055  0.6874 -0.2197 -0.4348
 6076SOL    HW128907   8.569   0.237   4.126 -0.7724  0.4038 -1.6248
 6076SOL    HW228908   8.692   0.203   4.023  0.8338  0.1790  0.3373
 6077SOL     OW28909   9.775   6.154   0.665 -0.2689 -0.1923 -0.2419
 6077SOL    HW128910   9.842   6.176   0.594  0.3013  1.1204  0.6787
 6077SOL    HW228911   9.684   6.148   0.624 -0.0613  1.3694 -0.9678
 6078SOL     OW28912   2.224   7.340   4.441 -0.0091  0.2936 -0.4637
 6078SOL    HW128913   2.312   7.326   4.485 -0.9385 -1.9740  0.7842
 6078SOL    HW228914   2.154   7.353   4.511 -1.2605 -1.7159 -1.2990
 6079SOL     OW28915   7.946   0.317   3.949  0.4087  0.0424  0.2716
 6079SOL    HW128916   7.921   0.246   4.014 -0.0177 -0.1605 -0.1099
 6079SOL    HW228917   8.016   0.376   3.989  1.4636 -1.1514  0.2495
 6080SOL     OW28918   6.518   0.094   4.063 -0.1704  0.1142  0.3912
 6080SOL    HW128919   6.481   0.116   4.153  0.2066  0.5631  0.4347
 6080SOL    HW228920   6.491   0.165   3.998  1.3686  0.8923  0.6105
 6081SOL     OW28921   8.416   1.137   1.412  0.1285  0.1815 -0.0119
 6081SOL    HW128922   8.413   1.233   1.439  1.9042  0.5360 -1.0100
 6081SOL    HW228923   8.429   1.131   1.313  5.5760 -1.0222  0.6328
 6082SOL     OW28924   0.555   9.554   3.487 -0.6135  0.0462  0.0392
 6082SOL    HW128925   0.462   9.520   3.492 -0.6520  0.0419 -0.7727
 6082SOL    HW228926   0.561   9.643   3.533 -1.5882  1.2747 -2.1419
 6083SOL     OW28927   2.543   3.267   2.879  0.1284  0.2974  0.1188
 6083SOL    HW128928   2.559   3.280   2.977  0.6970 -0.1601  0.0884
 6083SOL    HW228929   2.523   3.171   2.861 -1.2833  0.6128 -0.0400
 6084SOL     OW28930   2.375   6.376   3.579 -0.1367  0.2332 -0.1361
 6084SOL    HW128931   2.410   6.459   3.622 -0.6074  0.0852  0.5592
 6084SOL    HW228932   2.333   6.318   3.650 -0.2223 -0.3767 -0.6854
 6085SOL     OW28933   7.479   6.973   3.025  0.3496  0.3359 -0.1621
 6085SOL    HW128934   7.379   6.970   3.035  0.4910 -1.7276  0.7871
 6085SOL    HW228935   7.503   6.971   2.928 -0.4700 -1.9930 -0.3383
 6086SOL     OW28936   3.790   2.235   2.891  0.1555  0.0035  0.5004
 6086SOL    HW128937   3.792   2.249   2.990  0.1748 -1.0069  0.6527
 6086SOL    HW228938   3.880   2.204   2.860  0.1405  0.2825  0.1707
 6087SOL     OW28939   9.222   7.986   0.862  0.1656 -0.0955  0.3194
 6087SOL    HW128940   9.269   7.970   0.949  1.3639  0.5687 -0.1956
 6087SOL    HW228941   9.164   8.066   0.870  0.4323  0.0876  0.4511
 6088SOL     OW28942   3.203   6.468   1.471  0.0129 -0.3401  0.1198
 6088SOL    HW128943   3.266   6.428   1.537 -0.3533  0.4682  0.9777
 6088SOL    HW228944   3.109   6.462   1.505 -0.2131 -0.1608 -0.4506
 6089SOL     OW28945   0.723   8.609   2.116 -0.2519  0.4869 -0.3713
 6089SOL    HW128946   0.709   8.516   2.081  0.5255  0.0392  0.4758
 6089SOL    HW228947   0.643   8.637   2.170 -0.2480  0.0756 -0.1472
 6090SOL     OW28948   1.408   9.780   1.487 -0.2207  0.6104  0.4882
 6090SOL    HW128949   1.501   9.780   1.450 -0.4992  3.3842 -0.4032
 6090SOL    HW228950   1.399   9.709   1.556  1.5674 -1.9367 -1.7752
 6091SOL     OW28951   2.178   8.907   1.879 -0.4947 -0.3050 -0.8885
 6091SOL    HW128952   2.089   8.947   1.859 -0.8904  0.1061  1.5194
 6091SOL    HW228953   2.181   8.812   1.846 -1.7016 -0.2175 -1.2641
 6092SOL     OW28954   2.901   1.578   0.417 -0.2102  0.5506 -0.0920
 6092SOL    HW128955   2.805   1.583   0.445 -0.1902  1.6724 -0.2191
 6092SOL    HW228956   2.949   1.660   0.445  0.1323  1.1020 -2.1806
 6093SOL     OW28957   9.924   9.631   0.484 -0.0478 -0.1441  0.1788
 6093SOL    HW128958   9.871   9.577   0.418  0.2493  0.0428 -0.2125
 6093SOL    HW228959  10.006   9.666   0.440 -0.3908  0.8854  0.3511
 6094SOL     OW28960   7.859   6.422   3.711  0.2063  0.0380 -0.3332
 6094SOL    HW128961   7.784   6.483   3.686 -1.0973 -1.2613  0.4022
 6094SOL    HW228962   7.932   6.430   3.643 -0.8972  0.7623 -1.4399
 6095SOL     OW28963   9.785   5.523   1.836  0.1889  0.0349 -0.0656
 6095SOL    HW128964   9.805   5.593   1.768 -1.6730  0.5554 -0.1150
 6095SOL    HW228965   9.703   5.549   1.887  0.9502 -0.8686  1.6611
 6096SOL     OW28966   7.251   8.507   2.927 -0.7933  0.2118 -0.2735
 6096SOL    HW128967   7.258   8.432   2.993 -1.9380 -0.0885 -0.4780
 6096SOL    HW228968   7.318   8.494   2.854 -0.3143 -0.0765  0.2174
 6097SOL     OW28969   5.856   6.953   2.178 -0.2370  0.1781 -0.1907
 6097SOL    HW128970   5.772   6.955   2.233 -0.0895  1.1924 -0.0020
 6097SOL    HW228971   5.898   7.044   2.178  0.2999 -0.0685 -1.1520
 6098SOL     OW28972   0.939   3.416   0.771 -0.0639 -0.9373 -0.4378
 6098SOL    HW128973   0.914   3.487   0.837 -1.2094 -0.1378 -1.6824
 6098SOL    HW228974   0.964   3.332   0.819  0.1569 -0.0430  1.0247
 6099SOL     OW28975   4.018   0.979   3.870  0.4546 -0.0218  0.2519
 6099SOL    HW128976   3.929   0.979   3.916  0.1055 -0.4844 -0.4259
 6099SOL    HW228977   4.061   1.069   3.881  0.9424 -0.4891  2.5769
 6100SOL     OW28978   2.192   3.624   3.136 -0.5479  0.0081  0.5851
 6100SOL    HW128979   2.279   3.674   3.132 -1.1041  0.9485  0.1752
 6100SOL    HW228980   2.128   3.661   3.069 -0.3820 -2.4407 -1.0049
 6101SOL     OW28981   1.883   1.517   0.062  0.9062 -0.4888  0.3768
 6101SOL    HW128982   1.877   1.429   0.111 -1.3723 -0.5326  0.0485
 6101SOL    HW228983   1.859   1.591   0.124 -0.1883 -0.3804 -0.1694
 6102SOL     OW28984   4.147   0.350   2.742 -0.2599 -0.0078 -0.2778
 6102SOL    HW128985   4.107   0.274   2.691 -0.0127 -0.4658  0.2037
 6102SOL    HW228986   4.184   0.316   2.829 -0.7669  0.7765  0.2544
 6103SOL     OW28987   7.993   8.915   2.967  0.7727  0.7151  0.3666
 6103SOL    HW128988   7.908   8.904   2.915 -0.4108  2.1017  1.9503
 6103SOL    HW228989   8.052   8.836   2.951 -0.3228  0.2469 -1.6356
 6104SOL     OW28990   9.042   1.235   2.277  0.1921  0.1936 -0.1282
 6104SOL    HW128991   9.030   1.255   2.180  0.1318 -1.7533 -0.5383
 6104SOL    HW228992   9.128   1.274   2.308  0.7652 -0.1450 -1.2571
 6105SOL     OW28993   1.010   0.688   4.600  1.0643  0.5666  0.0249
 6105SOL    HW128994   0.979   0.735   4.518  1.9667  0.1549 -0.5659
 6105SOL    HW228995   1.109   0.700   4.610  0.6456  2.6115  2.3477
 6106SOL     OW28996   9.090   2.429   0.413  0.5008 -0.1765  0.6846
 6106SOL    HW128997   9.190   2.421   0.417  0.3812 -1.7425  0.7517
 6106SOL    HW228998   9.066   2.515   0.367  1.8838 -0.6038 -0.9073
 6107SOL     OW28999   7.668   1.011   2.299 -0.4551 -0.2917  0.0662
 6107SOL    HW129000   7.593   1.021   2.234 -0.6731 -2.1698  0.0059
 6107SOL    HW229001   7.648   1.063   2.382 -1.5631 -0.3450 -0.1619
 6108SOL     OW29002   7.941   3.152   0.249 -0.9048 -0.3143 -0.1539
 6108SOL    HW129003   7.928   3.170   0.346 -2.1023 -0.2442 -0.3128
 6108SOL    HW229004   7.956   3.239   0.201  0.6261 -0.4345  0.0928
 6109SOL     OW29005   9.132   5.636   0.219 -0.6215  0.2274 -0.4900
 6109SOL    HW129006   9.176   5.725   0.228  0.1212  0.0187 -1.8673
 6109SOL    HW229007   9.190   5.566   0.260 -0.8066  0.2706 -0.1551
 6110SOL     OW29008   1.002   0.726   2.619 -0.1305  0.1209 -0.3028
 6110SOL    HW129009   0.986   0.668   2.698  1.1201  0.9622  0.5785
 6110SOL    HW229010   1.094   0.711   2.584  0.5849  2.2500  0.5377
 6111SOL     OW29011   4.392   1.380   1.004  0.0197 -0.4120 -0.6596
 6111SOL    HW129012   4.458   1.327   1.056 -0.1206  1.3142  1.3037
 6111SOL    HW229013   4.339   1.318   0.945  0.5681 -2.3174  0.8072
 6112SOL     OW29014   2.485   5.472   2.468  0.1280 -0.6987  0.1620
 6112SOL    HW129015   2.419   5.402   2.494  1.3233 -1.9925 -0.2006
 6112SOL    HW229016   2.469   5.555   2.521 -1.6931 -1.0307  0.1691
 6113SOL     OW29017   9.937   5.493   0.075  0.3586  0.0170  0.3753
 6113SOL    HW129018   9.974   5.539  -0.006  0.3140  0.2235  0.4704
 6113SOL    HW229019   9.837   5.495   0.071  0.3549 -0.7408  0.0061
 6114SOL     OW29020   9.010   4.403   3.721  0.1333  0.1017 -0.4854
 6114SOL    HW129021   9.103   4.397   3.684  0.9272  2.6617  0.9734
 6114SOL    HW229022   8.998   4.491   3.767 -2.1218 -1.3509  1.8237
 6115SOL     OW29023   7.858   0.519   1.578 -0.2190  0.4492 -0.1938
 6115SOL    HW129024   7.821   0.426   1.583  0.9676 -0.0614 -0.5956
 6115SOL    HW229025   7.919   0.526   1.499 -1.0243  1.8480 -0.7158
 6116SOL     OW29026   3.635   8.878   0.070 -0.1993 -0.7127 -0.2607
 6116SOL    HW129027   3.682   8.828  -0.003  1.1028 -0.7644  0.6112
 6116SOL    HW229028   3.678   8.967   0.083 -1.0369 -0.3045 -0.1958
 6117SOL     OW29029   2.730   3.819   3.374  0.0608 -0.3901  0.1654
 6117SOL    HW129030   2.683   3.736   3.343  2.0125 -2.1299  1.7416
 6117SOL    HW229031   2.825   3.798   3.396  0.3463  2.0683  1.4940
 6118SOL     OW29032   7.773   6.055   3.604  0.1565  0.1870 -0.6139
 6118SOL    HW129033   7.695   6.117   3.613 -0.3412 -0.2524 -1.8412
 6118SOL    HW229034   7.758   5.992   3.528  0.7723 -1.2909  0.4468
 6119SOL     OW29035   3.454   6.846   0.034 -0.7535  0.1707  0.0146
 6119SOL    HW129036   3.432   6.861  -0.063 -1.1051 -0.4804 -0.0107
 6119SOL    HW229037   3.370   6.828   0.085 -0.3037 -2.5202 -0.1201
 6120SOL     OW29038   2.655   4.201   3.863 -0.1978 -0.0090 -0.0776
 6120SOL    HW129039   2.753   4.207   3.848  0.1177  0.8087  2.1622
 6120SOL    HW229040   2.622   4.286   3.905 -1.3520 -1.3903  1.8890
 6121SOL     OW29041   0.478   9.536   1.784 -0.8708  0.0884  0.0006
 6121SOL    HW129042   0.431   9.616   1.820 -0.4117  0.5773 -0.4703
 6121SOL    HW229043   0.502   9.552   1.688  1.9413  0.6384  0.7492
 6122SOL     OW29044   2.382   6.226   3.097  0.4136  0.5102  0.1443
 6122SOL    HW129045   2.335   6.249   3.182 -0.0130 -0.7745  0.2579
 6122SOL    HW229046   2.470   6.275   3.093  0.7130  0.1165  1.5963
 6123SOL     OW29047   3.789   5.515   2.783 -0.4070 -0.0854  0.2398
 6123SOL    HW129048   3.814   5.516   2.686 -3.1300 -1.0061 -0.5142
 6123SOL    HW229049   3.833   5.593   2.829 -0.5086  1.4308 -2.1149
 6124SOL     OW29050   2.377   7.707   1.862 -0.1391 -0.6305  0.3655
 6124SOL    HW129051   2.280   7.730   1.868 -0.0158  0.2597 -1.0178
 6124SOL    HW229052   2.416   7.746   1.779  1.5722 -0.4050  1.2598
 6125SOL     OW29053   2.817   7.343   0.876 -0.2393 -0.2214 -0.5136
 6125SOL    HW129054   2.728   7.371   0.910  0.0308 -1.0486  0.9231
 6125SOL    HW229055   2.888   7.399   0.918  0.0409 -0.7355 -0.2910
 6126SOL     OW29056   9.856   4.807   0.880  0.2050 -0.0160  0.3059
 6126SOL    HW129057   9.908   4.783   0.798 -2.3707  0.4308 -1.5242
 6126SOL    HW229058   9.912   4.865   0.939  1.8666  0.2256 -1.4488
 6127SOL     OW29059   3.510   5.535   2.854 -0.1455  0.1048  0.0557
 6127SOL    HW129060   3.609   5.522   2.849  0.1163  2.0938 -0.1770
 6127SOL    HW229061   3.469   5.513   2.766  0.0004 -1.2498  0.3071
 6128SOL     OW29062   1.177   7.719   0.415  0.4295 -0.1608 -0.1102
 6128SOL    HW129063   1.160   7.803   0.362  1.3985 -0.1611 -0.4293
 6128SOL    HW229064   1.275   7.697   0.412  0.3781 -0.5575  1.0965
 6129SOL     OW29065   3.305   7.887   4.363  0.0227  0.2267  0.0343
 6129SOL    HW129066   3.236   7.896   4.291 -0.1509 -3.0324 -0.2998
 6129SOL    HW229067   3.349   7.797   4.356  1.5974  0.7312  2.6143
 6130SOL     OW29068   9.264   6.957   2.577 -0.5894  0.4230  0.1097
 6130SOL    HW129069   9.335   7.025   2.559 -1.0487  1.1645  1.0500
 6130SOL    HW229070   9.302   6.865   2.565 -0.1992  0.8314 -2.0511
 6131SOL     OW29071   9.629   8.100   3.859 -0.2250 -0.2080  0.3662
 6131SOL    HW129072   9.707   8.040   3.876  0.3074  0.0386 -1.0510
 6131SOL    HW229073   9.580   8.068   3.778 -0.7626  0.4610  0.4263
 6132SOL     OW29074   4.392   3.717   0.555  0.4290 -0.2960  0.3437
 6132SOL    HW129075   4.346   3.770   0.484  0.0574  0.7898  1.3613
 6132SOL    HW229076   4.382   3.619   0.537  0.0317 -0.0290 -0.8897
 6133SOL     OW29077   2.467   3.728   0.436 -0.4374  0.4576 -0.1081
 6133SOL    HW129078   2.564   3.707   0.424 -0.3959  1.1875 -1.1910
 6133SOL    HW229079   2.412   3.658   0.392 -0.3969  0.0501  0.4944
 6134SOL     OW29080   0.009   0.381   1.842  0.2043 -0.1919 -0.7833
 6134SOL    HW129081   0.077   0.452   1.858  1.1487 -1.1947 -0.2874
 6134SOL    HW229082  -0.079   0.424   1.820  0.6275  1.1335  0.0363
 6135SOL     OW29083   6.841   7.887   2.154  0.7935 -0.2459  0.5294
 6135SOL    HW129084   6.829   7.835   2.239 -1.9932 -0.1596  0.2367
 6135SOL    HW229085   6.911   7.957   2.168  1.8964 -1.6047  2.0894
 6136SOL     OW29086   9.641   9.181   3.501 -0.2211  0.0773 -0.0689
 6136SOL    HW129087   9.663   9.127   3.420  2.9367 -1.4193  1.6813
 6136SOL    HW229088   9.716   9.175   3.567 -2.2027  2.1582  2.5186
 6137SOL     OW29089   2.512   3.900   3.532 -0.2160  0.4515  0.5021
 6137SOL    HW129090   2.590   3.846   3.500 -0.3374  0.7140 -0.2575
 6137SOL    HW229091   2.535   3.997   3.531 -0.4076  0.5002  0.6917
 6138SOL     OW29092   0.121   6.288   2.387  0.3789  0.0713 -0.3211
 6138SOL    HW129093   0.038   6.334   2.418 -0.8218  0.4425 -3.8453
 6138SOL    HW229094   0.099   6.193   2.361  1.6257 -0.6720  1.2786
 6139SOL     OW29095   9.652   4.643   3.714  0.0884  0.5471  0.2277
 6139SOL    HW129096   9.711   4.721   3.691 -1.5774  2.0341  0.9499
 6139SOL    HW229097   9.592   4.623   3.637  0.0167  0.4289  0.3146
 6140SOL     OW29098   0.173   4.631   1.916  0.0274 -0.5604  0.2855
 6140SOL    HW129099   0.195   4.589   1.828  0.9939 -0.2148  0.3533
 6140SOL    HW229100   0.254   4.631   1.974 -0.1972  0.5774  0.6192
 6141SOL     OW29101   4.502   4.559   1.253 -0.1834  0.0255  0.1203
 6141SOL    HW129102   4.562   4.619   1.201 -0.1602 -1.8594 -2.1550
 6141SOL    HW229103   4.448   4.504   1.189 -2.6446  0.0278  2.1197
 6142SOL     OW29104   2.313   7.111   2.491 -0.3066 -0.0544 -0.1246
 6142SOL    HW129105   2.397   7.113   2.436  1.2273 -0.7653  2.1002
 6142SOL    HW229106   2.252   7.185   2.462  1.6610  1.3148 -0.9067
 6143SOL     OW29107   4.105   7.378   3.640  0.5081  0.0327 -0.2593
 6143SOL    HW129108   4.122   7.322   3.559 -0.3459 -0.8818  0.1730
 6143SOL    HW229109   4.189   7.383   3.695  1.2586  1.1539 -1.4809
 6144SOL     OW29110   9.679   8.331   3.398 -0.2048 -0.0559  0.4443
 6144SOL    HW129111   9.611   8.373   3.458 -0.5250 -0.2261  0.2016
 6144SOL    HW229112   9.723   8.254   3.445 -0.9042 -0.5871  0.2329
 6145SOL     OW29113   0.934   9.057   0.871 -0.0382  0.5978  0.0020
 6145SOL    HW129114   0.917   9.151   0.897 -0.1437 -0.1229  2.6274
 6145SOL    HW229115   0.850   9.004   0.876  0.1764  0.1701 -0.7050
 6146SOL     OW29116   1.937   1.326   2.395  0.3190  0.0474  0.5038
 6146SOL    HW129117   1.960   1.399   2.331 -0.1587 -0.1266  0.1284
 6146SOL    HW229118   1.854   1.350   2.444  0.7412  0.2242  1.1306
 6147SOL     OW29119   3.082   5.745   2.152  0.3543  0.1154 -0.2809
 6147SOL    HW129120   2.989   5.751   2.188  0.1136 -1.1859 -0.6547
 6147SOL    HW229121   3.102   5.650   2.128  1.6488  0.4517 -0.5501
 6148SOL     OW29122   0.825   6.577   3.379  0.4164 -0.4292 -0.0243
 6148SOL    HW129123   0.910   6.577   3.431  0.0319 -0.5606  0.6068
 6148SOL    HW229124   0.750   6.544   3.437 -0.4373  1.4933  0.0172
 6149SOL     OW29125   7.537   8.606   3.868  0.0111 -0.0877 -0.4735
 6149SOL    HW129126   7.578   8.524   3.908  0.0864 -0.4402 -1.2805
 6149SOL    HW229127   7.600   8.683   3.879 -0.9952  0.3930  2.3077
 6150SOL     OW29128   9.295   1.472   2.289 -0.1569  0.3211  0.1240
 6150SOL    HW129129   9.321   1.413   2.212 -1.4499  0.1988 -0.2309
 6150SOL    HW229130   9.353   1.452   2.367  1.3522  0.6311 -0.9023
 6151SOL     OW29131   2.600   6.565   0.402 -0.5805  0.1796  0.6615
 6151SOL    HW129132   2.557   6.599   0.485  0.2618  1.4617  0.5908
 6151SOL    HW229133   2.622   6.468   0.413 -1.1771  0.1506  1.6432
 6152SOL     OW29134   9.373   8.889   0.739 -0.7811  0.2000  0.0159
 6152SOL    HW129135   9.462   8.917   0.775 -0.8847  1.7990 -0.9189
 6152SOL    HW229136   9.301   8.942   0.782 -1.5009 -2.4532  2.2138
 6153SOL     OW29137   1.874   8.626   3.966 -0.2618 -0.5347  0.0568
 6153SOL    HW129138   1.794   8.615   3.908 -0.7499 -0.8797  0.7908
 6153SOL    HW229139   1.955   8.638   3.909 -0.7565 -0.7287 -0.6914
 6154SOL     OW29140   2.963   0.551   0.749 -0.1258 -0.0754 -0.2833
 6154SOL    HW129141   2.869   0.537   0.781  0.3775 -2.3570  0.2905
 6154SOL    HW229142   2.983   0.649   0.748 -1.9043  0.3475  1.3660
 6155SOL     OW29143   9.641   5.085   0.093  0.2215  0.0490  0.5866
 6155SOL    HW129144   9.698   5.159   0.129 -0.6976  0.1409  1.8773
 6155SOL    HW229145   9.645   5.006   0.154 -0.3854 -0.2404  0.2601
 6156SOL     OW29146   3.968   9.342   1.572  0.2003 -0.4793 -0.0656
 6156SOL    HW129147   4.066   9.358   1.581  0.4883 -1.3259 -1.4982
 6156SOL    HW229148   3.943   9.343   1.475 -1.0309 -1.2840  0.2273
 6157SOL     OW29149   9.768   2.486   1.321  0.1713 -0.5167  0.0719
 6157SOL    HW129150   9.745   2.455   1.228  1.3260  0.1483 -0.4468
 6157SOL    HW229151   9.861   2.523   1.321  0.3904 -1.0468  1.6298
 6158SOL     OW29152   3.031   9.353   0.600 -0.0915 -0.0157  0.6483
 6158SOL    HW129153   2.999   9.345   0.506 -0.0295 -2.1149  0.7667
 6158SOL    HW229154   3.058   9.447   0.619  1.4892  0.0998 -1.9564
 6159SOL     OW29155   1.386   2.046   4.315  0.1343  0.4057 -0.1101
 6159SOL    HW129156   1.427   1.983   4.381 -0.4749 -0.0357 -0.1484
 6159SOL    HW229157   1.290   2.059   4.338 -0.0409  0.3648 -0.8276
 6160SOL     OW29158   7.951   9.520   0.027  0.6071  0.5622 -0.1130
 6160SOL    HW129159   8.010   9.599   0.041 -2.0235  2.3842  1.1832
 6160SOL    HW229160   7.930   9.511  -0.071  1.3355  1.1594 -0.3267
 6161SOL     OW29161   3.806   3.091   0.615 -0.1663 -0.2959 -0.3232
 6161SOL    HW129162   3.805   3.030   0.694 -1.6560  0.4376  0.2531
 6161SOL    HW229163   3.900   3.113   0.591  0.2997  0.0976  1.7528
 6162SOL     OW29164   0.479   3.619   1.853 -0.2631 -0.3020 -0.2637
 6162SOL    HW129165   0.535   3.671   1.918 -2.6560  1.7780  0.1846
 6162SOL    HW229166   0.494   3.656   1.761  0.4488 -0.9413 -0.4115
 6163SOL     OW29167   3.458   5.280   1.777 -0.0348  0.5321 -0.1611
 6163SOL    HW129168   3.407   5.360   1.744  1.3971  1.5248 -0.0192
 6163SOL    HW229169   3.474   5.217   1.701 -2.1794 -0.1905 -0.0363
 6164SOL     OW29170   8.773   8.967   3.405  0.0956  0.2874 -0.7239
 6164SOL    HW129171   8.748   8.879   3.446  0.1941  0.4854 -0.2455
 6164SOL    HW229172   8.860   8.998   3.443 -0.6224  1.2777  0.1315
 6165SOL     OW29173   3.954   9.014   3.282  0.0423  0.0105  0.2815
 6165SOL    HW129174   3.866   9.014   3.330 -0.7068  1.1524 -1.0627
 6165SOL    HW229175   3.954   8.940   3.214  0.4498 -0.5208  0.8543
 6166SOL     OW29176   1.364   5.549   0.233 -0.5293  0.0665 -0.0860
 6166SOL    HW129177   1.325   5.466   0.273  0.1609  0.3605  1.2092
 6166SOL    HW229178   1.339   5.628   0.289  0.4486  0.4901 -0.2489
 6167SOL     OW29179   9.566   7.757   3.526 -0.2060  0.1676 -0.1082
 6167SOL    HW129180   9.483   7.801   3.491  0.9236  1.7377 -0.8468
 6167SOL    HW229181   9.591   7.681   3.465 -0.6204  0.2172 -0.3437
 6168SOL     OW29182   2.415   0.143   1.627 -0.0838 -0.5031  0.3305
 6168SOL    HW129183   2.492   0.138   1.690  0.1241 -1.2037  0.0283
 6168SOL    HW229184   2.330   0.123   1.676 -0.0257 -0.1305  0.5812
 6169SOL     OW29185   1.906   9.549   1.434  0.0761 -0.2269  0.0230
 6169SOL    HW129186   1.954   9.618   1.381 -0.0103 -0.2621 -0.0996
 6169SOL    HW229187   1.858   9.486   1.373  1.0394 -1.0496  0.0895
 6170SOL     OW29188   9.329   9.783   1.060 -0.0569 -0.1315  0.4990
 6170SOL    HW129189   9.426   9.761   1.072  0.2298  1.0664  0.4456
 6170SOL    HW229190   9.307   9.865   1.113 -0.8839 -0.0088 -0.0339
 6171SOL     OW29191   1.446   1.877   0.500 -0.0148  0.1695  0.0376
 6171SOL    HW129192   1.516   1.927   0.550 -2.7584  2.4308  1.8266
 6171SOL    HW229193   1.448   1.903   0.403  1.4701  0.3605  0.1221
 6172SOL     OW29194   8.094   9.563   2.196  0.0742 -0.3235  0.2479
 6172SOL    HW129195   8.088   9.474   2.150 -1.6647  0.2630 -0.6892
 6172SOL    HW229196   8.013   9.617   2.175  0.2449  0.7817  2.3097
 6173SOL     OW29197   1.050   3.809   1.695 -0.2249  0.3119  0.3479
 6173SOL    HW129198   1.141   3.809   1.653  0.0963  0.6944  1.0371
 6173SOL    HW229199   0.995   3.735   1.655  1.3587 -1.8388  1.9985
 6174SOL     OW29200   3.865   4.205   1.822 -0.5046  0.0192 -0.3103
 6174SOL    HW129201   3.843   4.222   1.918  2.5924  0.7112  0.3225
 6174SOL    HW229202   3.962   4.182   1.813 -1.1732 -1.9366 -3.0691
 6175SOL     OW29203   0.399   3.701   3.480 -0.0268 -0.2139  0.6278
 6175SOL    HW129204   0.342   3.620   3.492  0.5736 -0.3352  2.8890
 6175SOL    HW229205   0.469   3.683   3.411 -2.0461 -0.4045 -1.4222
 6176SOL     OW29206   3.515   8.175   2.200  0.2772 -0.0618  0.4910
 6176SOL    HW129207   3.531   8.097   2.260  1.1291  0.5278  1.0472
 6176SOL    HW229208   3.436   8.227   2.234 -1.2607 -1.5317 -0.7727
 6177SOL     OW29209   2.323   6.755   3.481  0.3700 -0.0374  0.1591
 6177SOL    HW129210   2.236   6.737   3.435  1.1896 -4.3495  0.0892
 6177SOL    HW229211   2.396   6.761   3.413  0.8450 -1.6339  0.4867
 6178SOL     OW29212   0.713   9.391   1.312 -0.1210  0.3208  0.2629
 6178SOL    HW129213   0.645   9.348   1.253 -1.8470  0.2389  2.2343
 6178SOL    HW229214   0.762   9.319   1.363 -1.8345  0.5119  2.2931
 6179SOL     OW29215   1.281   7.645   3.181  0.0390  0.0246 -0.3492
 6179SOL    HW129216   1.302   7.552   3.152 -0.7030 -0.2357 -0.0566
 6179SOL    HW229217   1.284   7.706   3.102  1.7957 -0.0126 -0.3427
 6180SOL     OW29218   2.492   1.837   2.098  0.0671 -0.0229 -0.3716
 6180SOL    HW129219   2.396   1.820   2.073  0.5086 -0.0976 -2.1048
 6180SOL    HW229220   2.550   1.768   2.055  0.8679 -0.2423  1.0425
 6181SOL     OW29221   4.045   9.999   0.509  0.1379  0.4637 -0.6009
 6181SOL    HW129222   3.977  10.046   0.453 -2.0950 -1.5307  0.3177
 6181SOL    HW229223   4.035  10.028   0.604  1.1231  0.7619 -0.5883
 6182SOL     OW29224   3.724   0.556   3.270 -0.1467  0.0268 -0.2606
 6182SOL    HW129225   3.788   0.560   3.346 -1.8774  4.2623  1.1523
 6182SOL    HW229226   3.632   0.538   3.305 -0.9213  1.7531 -1.3273
 6183SOL     OW29227   2.813   8.396   1.411  0.0594 -0.1851  0.3284
 6183SOL    HW129228   2.885   8.359   1.470  1.0024  1.9205  0.5477
 6183SOL    HW229229   2.728   8.401   1.462  0.4606  0.0345  0.9852
 6184SOL     OW29230   8.619   2.979   3.634 -0.1189 -0.4007  0.2223
 6184SOL    HW129231   8.665   3.036   3.702 -0.3939 -1.1757  1.0631
 6184SOL    HW229232   8.543   2.930   3.678  0.0805 -1.3696 -0.5108
 6185SOL     OW29233   2.231   2.339   1.245  0.2013  0.6368 -0.4651
 6185SOL    HW129234   2.290   2.387   1.180  1.4682  0.4808  0.5490
 6185SOL    HW229235   2.225   2.392   1.329 -0.6274  0.3475 -0.3361
 6186SOL     OW29236   8.404   6.257   1.876 -0.3198 -0.0035  0.3559
 6186SOL    HW129237   8.381   6.162   1.899  0.3089 -0.5859 -1.3025
 6186SOL    HW229238   8.491   6.281   1.918 -0.6013 -0.0762  0.9869
 6187SOL     OW29239   8.809   9.062   1.536 -0.3732 -0.2107  0.4217
 6187SOL    HW129240   8.785   9.104   1.624 -0.5267 -0.5393  0.5383
 6187SOL    HW229241   8.750   9.099   1.464  1.0403  1.4946  0.1141
 6188SOL     OW29242   5.333   9.984   3.239 -0.0883  0.7298  0.0846
 6188SOL    HW129243   5.308  10.006   3.334 -1.4136  0.7854 -0.2614
 6188SOL    HW229244   5.318  10.065   3.182 -1.8474 -0.0764 -0.6304
 6189SOL     OW29245   4.004   7.513   1.654  0.1896 -0.0063 -0.4704
 6189SOL    HW129246   3.920   7.462   1.637  0.6199 -0.9466  0.1877
 6189SOL    HW229247   4.083   7.453   1.642  0.6519  0.2168  1.3468
 6190SOL     OW29248   7.942   0.115   2.767  0.4958  0.3236 -0.3847
 6190SOL    HW129249   7.896   0.105   2.855  2.2617  1.4828  0.7013
 6190SOL    HW229250   7.928   0.032   2.713  0.9046 -1.1662  1.7231
 6191SOL     OW29251   0.188   3.009   1.354  0.3708 -0.0777  0.1913
 6191SOL    HW129252   0.202   2.932   1.415 -1.3899 -1.9287 -1.6406
 6191SOL    HW229253   0.104   2.994   1.301  0.0576  3.0384 -0.3072
 6192SOL     OW29254   3.258   3.550   0.501 -0.0157  0.1139  0.0024
 6192SOL    HW129255   3.167   3.527   0.467  0.6564  0.4211 -2.1109
 6192SOL    HW229256   3.270   3.649   0.500  0.3840  0.0699  0.1839
 6193SOL     OW29257   4.288   1.418   3.200  0.8744  0.3967  0.3834
 6193SOL    HW129258   4.327   1.332   3.169  0.3806 -0.4749  2.1421
 6193SOL    HW229259   4.249   1.467   3.121  3.4151  0.2388 -1.0446
 6194SOL     OW29260   3.274   1.505   3.599  0.4908 -0.6217  0.1652
 6194SOL    HW129261   3.212   1.522   3.522 -0.5144  0.8830  1.2812
 6194SOL    HW229262   3.357   1.460   3.566 -0.1635 -0.4743 -1.7149
 6195SOL     OW29263   4.407   3.785   1.687 -0.3657 -0.3972 -0.3334
 6195SOL    HW129264   4.491   3.792   1.740  0.8714  1.1877 -2.4262
 6195SOL    HW229265   4.375   3.690   1.687  1.2652 -0.9651  0.7190
 6196SOL     OW29266   8.213   8.749   2.602  0.5777 -0.5169 -0.1012
 6196SOL    HW129267   8.304   8.733   2.564  0.4670 -3.0382  0.5862
 6196SOL    HW229268   8.155   8.791   2.533  2.2695  1.2440 -0.5091
 6197SOL     OW29269   9.776   4.225   1.384 -0.6474  0.0988  0.0334
 6197SOL    HW129270   9.751   4.299   1.446 -1.1581  0.5068 -0.6525
 6197SOL    HW229271   9.819   4.151   1.436 -0.2170  0.8297  0.7360
 6198SOL     OW29272   2.635   0.515   3.415  0.2064  0.3342  0.5023
 6198SOL    HW129273   2.575   0.594   3.402  0.9475  1.0940  1.6286
 6198SOL    HW229274   2.581   0.431   3.410 -0.6861  0.9231 -0.0922
 6199SOL     OW29275   8.386   7.627   0.679 -0.5061 -0.0575  0.2238
 6199SOL    HW129276   8.379   7.725   0.662  1.4486  0.2055  0.7469
 6199SOL    HW229277   8.326   7.602   0.755 -0.3556  0.9005  0.6669
 6200SOL     OW29278   0.635   6.294   3.351  0.1097 -0.5464 -0.1666
 6200SOL    HW129279   0.626   6.345   3.266 -0.4193 -0.3907 -0.0214
 6200SOL    HW229280   0.713   6.232   3.346 -0.4432 -1.1728 -1.0957
 6201SOL     OW29281   9.393   6.850   4.505  0.0994  0.1713 -0.0314
 6201SOL    HW129282   9.344   6.929   4.468  0.2589  0.3432  0.1196
 6201SOL    HW229283   9.457   6.816   4.436  0.1756  0.3002 -0.0260
 6202SOL     OW29284   0.306   5.869   0.811 -0.0543  0.1774 -0.2354
 6202SOL    HW129285   0.256   5.937   0.757 -0.5505 -0.8210 -1.0397
 6202SOL    HW229286   0.355   5.916   0.885 -0.6226  1.3785 -0.5969
 6203SOL     OW29287   5.369   8.864   1.762 -0.7629 -0.3139 -0.3611
 6203SOL    HW129288   5.416   8.936   1.712  2.1375 -2.2944 -0.6191
 6203SOL    HW229289   5.365   8.888   1.859  1.0313 -0.1720 -0.2966
 6204SOL     OW29290   1.759   9.785   4.669 -0.1172  0.2831  0.1127
 6204SOL    HW129291   1.785   9.880   4.650  0.9649 -0.0896 -0.2910
 6204SOL    HW229292   1.798   9.725   4.599  1.6651 -0.7923  1.9665
 6205SOL     OW29293   8.921   4.134   2.917 -0.6227 -0.2823 -0.1937
 6205SOL    HW129294   8.983   4.076   2.970 -1.2690 -2.0879 -1.3569
 6205SOL    HW229295   8.947   4.230   2.928  1.5324 -0.9115  0.4013
 6206SOL     OW29296   4.864   1.367   2.354 -0.1322  0.0197  0.7523
 6206SOL    HW129297   4.893   1.418   2.435  1.4443 -1.5493  1.2081
 6206SOL    HW229298   4.800   1.296   2.380  0.6972 -0.7574  0.6894
 6207SOL     OW29299   0.711   3.798   0.645 -0.3832 -0.3553 -0.0304
 6207SOL    HW129300   0.760   3.830   0.726 -1.6570  0.1835  0.5556
 6207SOL    HW229301   0.709   3.870   0.576 -0.2477 -0.4137 -0.0939
 6208SOL     OW29302   4.725   1.742   3.194  0.4761  1.0623 -0.1256
 6208SOL    HW129303   4.706   1.656   3.240  2.0440  0.2364 -0.9811
 6208SOL    HW229304   4.642   1.799   3.194 -1.0625 -1.1042 -0.9591
 6209SOL     OW29305   8.542   1.288   3.438  0.2194  0.6377  0.0023
 6209SOL    HW129306   8.517   1.251   3.349 -2.3099  0.3498  0.7714
 6209SOL    HW229307   8.473   1.355   3.467  0.2379 -0.2619  2.3056
 6210SOL     OW29308   2.899   8.622   2.226  0.1481 -0.4518 -0.5140
 6210SOL    HW129309   2.866   8.713   2.251  0.3316 -0.8238  1.0977
 6210SOL    HW229310   2.836   8.553   2.260  1.9020 -1.1044  1.5010
 6211SOL     OW29311   8.294   7.724   2.418 -0.3636 -0.4606  0.4721
 6211SOL    HW129312   8.222   7.752   2.481 -1.6962 -2.0715 -0.3011
 6211SOL    HW229313   8.262   7.734   2.323  0.5240 -0.9336  0.1121
 6212SOL     OW29314   9.510   4.158   1.286 -0.3348 -0.0420 -0.0822
 6212SOL    HW129315   9.511   4.200   1.195  0.1340  1.3211  0.5406
 6212SOL    HW229316   9.604   4.141   1.315 -0.2734  2.7652  1.5940
 6213SOL     OW29317   4.056   6.690   2.207  0.5787 -0.1364  0.1906
 6213SOL    HW129318   4.017   6.687   2.115  1.3886  0.0968 -0.1583
 6213SOL    HW229319   4.021   6.770   2.256  1.7195  0.8741 -0.6184
 6214SOL     OW29320   9.045   2.533   1.556  0.5167  0.4484  0.4332
 6214SOL    HW129321   9.113   2.597   1.592  0.8040  1.9871 -2.6049
 6214SOL    HW229322   8.959   2.581   1.543  0.3998 -0.0694 -0.7719
 6215SOL     OW29323   7.763   1.603   1.165 -0.2880 -0.5853  0.2654
 6215SOL    HW129324   7.827   1.680   1.171 -1.1291  0.2214 -0.8029
 6215SOL    HW229325   7.714   1.594   1.251  1.1223 -1.0994  1.0381
 6216SOL     OW29326   5.579   9.943   3.108  0.6541  0.5174  0.1084
 6216SOL    HW129327   5.564  10.000   3.027  0.8154 -0.6924 -0.7729
 6216SOL    HW229328   5.499   9.950   3.168 -0.9515 -1.1911 -1.7391
 6217SOL     OW29329   8.942   0.477   2.107  0.3103 -0.1118 -0.0701
 6217SOL    HW129330   8.857   0.504   2.150  0.7760 -1.9939  2.1157
 6217SOL    HW229331   9.008   0.552   2.113 -1.1871  1.4077 -1.9160
 6218SOL     OW29332   1.074   0.176   0.660  0.6845 -0.2915  0.4728
 6218SOL    HW129333   1.134   0.116   0.607 -0.6019 -0.4574 -0.8473
 6218SOL    HW229334   0.999   0.207   0.601 -0.2570  0.2817  1.9608
 6219SOL     OW29335   3.913   0.273   4.014 -0.3428  0.3349 -0.4616
 6219SOL    HW129336   3.848   0.309   3.948 -0.7916  0.7528  0.2058
 6219SOL    HW229337   3.908   0.325   4.099 -0.3460 -0.7092  0.1973
 6220SOL     OW29338   9.464   4.498   3.317 -0.7168  0.1142  0.0105
 6220SOL    HW129339   9.403   4.468   3.243  1.2440 -0.3925 -1.4574
 6220SOL    HW229340   9.548   4.534   3.277  0.1551  0.3141  2.0126
 6221SOL     OW29341   9.265   7.005   2.853 -0.2007  0.0983  0.1298
 6221SOL    HW129342   9.350   7.052   2.878 -0.0477  0.5609 -1.2502
 6221SOL    HW229343   9.254   7.006   2.754 -1.1365 -1.1676  0.2156
 6222SOL     OW29344   3.621   1.272   0.268  0.3290 -0.7173 -0.6045
 6222SOL    HW129345   3.681   1.293   0.344  0.2329  0.7601 -0.9359
 6222SOL    HW229346   3.540   1.223   0.302  0.7960 -1.0064  0.0929
 6223SOL     OW29347   7.206   7.564   3.366 -0.1234  0.4437  0.1050
 6223SOL    HW129348   7.134   7.562   3.296 -0.1124  1.8738  0.0354
 6223SOL    HW229349   7.216   7.473   3.406  0.1198 -0.4982 -2.0118
 6224SOL     OW29350   8.184   7.686   0.903 -0.1463 -1.1377 -0.7833
 6224SOL    HW129351   8.146   7.729   0.985  1.4386  0.7700 -1.0036
 6224SOL    HW229352   8.221   7.596   0.926 -0.3757 -0.9251  0.4389
 6225SOL     OW29353   0.610   2.875   2.822  0.2093  0.4705  0.0572
 6225SOL    HW129354   0.582   2.956   2.873 -0.6482 -0.9303  1.8735
 6225SOL    HW229355   0.547   2.859   2.746  0.4420  1.5459 -0.3677
 6226SOL     OW29356   7.155   9.783   0.530  0.4922  0.3762  0.7897
 6226SOL    HW129357   7.207   9.798   0.446  0.2803  0.7687  0.7279
 6226SOL    HW229358   7.092   9.859   0.544  0.5036  0.2932  1.2863
 6227SOL     OW29359   2.167   5.938   2.118  0.7090 -0.3528  0.4082
 6227SOL    HW129360   2.170   5.880   2.200 -1.1858 -0.6608  0.2897
 6227SOL    HW229361   2.098   6.010   2.132  0.7087 -0.1342 -0.7328
 6228SOL     OW29362   4.889   3.876   0.168 -1.1447  0.0617 -0.0555
 6228SOL    HW129363   4.937   3.929   0.238 -2.0649  0.0209  0.6153
 6228SOL    HW229364   4.794   3.863   0.196 -1.2648 -0.7952 -0.8562
 6229SOL     OW29365   8.922   5.705   4.588 -0.2358  0.6373 -0.0743
 6229SOL    HW129366   8.956   5.711   4.494 -0.6006  1.2828 -0.1667
 6229SOL    HW229367   8.845   5.768   4.600 -2.3798 -1.8411 -0.2845
 6230SOL     OW29368   2.736   0.396   4.127  0.9289 -0.2572 -0.3833
 6230SOL    HW129369   2.790   0.346   4.060  2.0915 -0.0606  0.3931
 6230SOL    HW229370   2.700   0.333   4.195  1.1881 -0.2420 -0.2280
 6231SOL     OW29371   1.561   1.767   1.601  0.2452  0.6620  0.4987
 6231SOL    HW129372   1.608   1.684   1.569  1.0503  1.2074  0.2362
 6231SOL    HW229373   1.466   1.765   1.571  1.0449  1.2991 -2.2810
 6232SOL     OW29374   3.147   5.743   1.271 -0.0642 -0.2329 -0.0101
 6232SOL    HW129375   3.137   5.768   1.174 -0.3643  1.0668  0.3513
 6232SOL    HW229376   3.105   5.654   1.286 -0.1884 -0.3582 -1.0473
 6233SOL     OW29377   2.602   5.867   3.514  0.4651 -0.0696 -0.5013
 6233SOL    HW129378   2.674   5.936   3.521  0.1721  0.1458  0.4465
 6233SOL    HW229379   2.588   5.843   3.418  0.3677  1.4110 -0.8707
 6234SOL     OW29380   9.690   4.334   1.145 -0.6139 -0.5031 -0.5164
 6234SOL    HW129381   9.759   4.304   1.078 -0.6055  0.5229 -0.9806
 6234SOL    HW229382   9.729   4.327   1.237  0.9348  2.1444 -0.9160
 6235SOL     OW29383   9.260   3.875   0.301  0.0063  0.0578  0.1620
 6235SOL    HW129384   9.217   3.787   0.279  2.2600 -1.0654  0.2188
 6235SOL    HW229385   9.326   3.864   0.374  0.9848  1.6376 -0.4510
 6236SOL     OW29386   2.612   4.885   0.905  0.1536 -1.2117  0.2711
 6236SOL    HW129387   2.706   4.896   0.871  0.1069  0.3089  0.6285
 6236SOL    HW229388   2.612   4.893   1.005 -0.6593  0.9731  0.1142
 6237SOL     OW29389   2.194   7.660   2.232  0.1754 -0.7820 -0.6620
 6237SOL    HW129390   2.177   7.731   2.300  1.9285 -0.3017 -0.6929
 6237SOL    HW229391   2.130   7.670   2.156  0.5755  0.9387 -0.7951
 6238SOL     OW29392   3.177   2.882   1.673 -0.4545 -0.0904 -0.1861
 6238SOL    HW129393   3.124   2.854   1.753 -0.9856  2.0291  0.2510
 6238SOL    HW229394   3.273   2.894   1.700 -0.6174  0.5441  0.1394
 6239SOL     OW29395   3.181   5.519   3.987 -0.0957 -0.3888  0.9604
 6239SOL    HW129396   3.258   5.459   4.008 -0.3679 -0.8170  0.7160
 6239SOL    HW229397   3.095   5.471   4.003 -0.3358 -1.2963 -2.7180
 6240SOL     OW29398   9.105   7.425   1.814  0.1850 -0.0046 -0.7648
 6240SOL    HW129399   9.154   7.339   1.796  0.9103  0.3640 -0.5521
 6240SOL    HW229400   9.059   7.455   1.731  1.2166  0.2225 -1.2544
 6241SOL     OW29401   0.807   2.721   3.837 -0.1314 -0.0578 -0.1342
 6241SOL    HW129402   0.822   2.659   3.760  0.7024  1.0070 -0.8515
 6241SOL    HW229403   0.737   2.788   3.812 -1.0099 -0.6830  0.6283
 6242SOL     OW29404   7.847   0.043   4.534  0.1625 -0.3125 -0.1592
 6242SOL    HW129405   7.853  -0.056   4.540  2.5910 -0.1451  0.4990
 6242SOL    HW229406   7.823   0.081   4.624  1.2188 -0.1748  0.0671
 6243SOL     OW29407   2.708   0.780   2.893 -0.1522  0.0870  0.3728
 6243SOL    HW129408   2.754   0.852   2.841 -0.0113 -0.2860 -0.0288
 6243SOL    HW229409   2.771   0.741   2.960  0.3144 -0.8310 -0.5848
 6244SOL     OW29410   4.138   1.907   0.970  0.0262  0.1644  0.0580
 6244SOL    HW129411   4.075   1.855   0.912  0.8190 -0.4906 -0.2302
 6244SOL    HW229412   4.216   1.937   0.915  0.4530  0.1091  0.6362
 6245SOL     OW29413   2.832   0.744   3.316 -0.2650 -0.0004  0.1961
 6245SOL    HW129414   2.917   0.764   3.366 -0.4332 -1.5484  1.1529
 6245SOL    HW229415   2.778   0.678   3.369 -1.2940 -0.2687 -1.1844
 6246SOL     OW29416   3.637   0.560   0.164 -0.0573  0.2325 -0.5449
 6246SOL    HW129417   3.619   0.604   0.252  0.1681 -1.1622  0.2232
 6246SOL    HW229418   3.611   0.463   0.169 -1.0182  0.3606 -2.3473
 6247SOL     OW29419   5.040   3.568   1.156  1.1481 -0.1405  0.3378
 6247SOL    HW129420   5.070   3.514   1.077  0.0581 -0.8915  0.4249
 6247SOL    HW229421   5.028   3.663   1.129  0.0765 -0.5322 -0.5752
 6248SOL     OW29422   9.441   7.748   4.489 -0.0806  0.5020  0.1828
 6248SOL    HW129423   9.447   7.834   4.539  0.3131  0.6313 -0.0899
 6248SOL    HW229424   9.532   7.719   4.460 -0.4087  1.0102 -1.4443
 6249SOL     OW29425   3.162   4.454   4.074  0.3374 -0.2034 -0.7177
 6249SOL    HW129426   3.083   4.508   4.104 -0.7841 -1.4327 -1.3961
 6249SOL    HW229427   3.243   4.482   4.125 -0.7580  0.3345  0.7692
 6250SOL     OW29428   0.362   9.813   4.313 -0.3405 -0.0913  0.8403
 6250SOL    HW129429   0.323   9.749   4.247  0.1978  1.6971 -1.2488
 6250SOL    HW229430   0.288   9.867   4.354 -0.4041  1.0563 -0.7365
 6251SOL     OW29431   4.017   9.336   1.295  0.1183 -0.7431  0.0726
 6251SOL    HW129432   4.117   9.336   1.295  0.1183 -0.0718 -1.3734
 6251SOL    HW229433   3.983   9.414   1.244 -1.1700  0.3428  2.4799
 6252SOL     OW29434   0.737   9.659   1.198 -0.1050 -0.0956 -0.4407
 6252SOL    HW129435   0.729   9.572   1.246  0.4490 -1.1922 -2.2756
 6252SOL    HW229436   0.822   9.704   1.225  0.6254 -1.1134 -1.0047
 6253SOL     OW29437   3.874   7.299   1.169 -0.2265 -0.0354 -0.3053
 6253SOL    HW129438   3.785   7.345   1.160 -0.0381  1.0922  2.6890
 6253SOL    HW229439   3.935   7.330   1.097 -1.0547  2.1964 -0.0964
 6254SOL     OW29440   2.343   5.291   3.053  0.1394 -0.2253 -0.0301
 6254SOL    HW129441   2.367   5.269   3.147 -0.3677  0.4156  0.2510
 6254SOL    HW229442   2.414   5.350   3.013  0.4903 -0.7177 -0.1431
 6255SOL     OW29443   0.670   8.976   3.108  0.0269 -0.1581  0.0361
 6255SOL    HW129444   0.639   9.048   3.170 -0.7149 -1.2084  0.9208
 6255SOL    HW229445   0.652   9.003   3.013  0.8313  1.3060  0.2858
 6256SOL     OW29446   1.940   8.097   1.639 -0.3213  0.3710 -0.0340
 6256SOL    HW129447   1.911   8.135   1.551 -0.8382  1.0021  0.4046
 6256SOL    HW229448   1.988   8.167   1.691 -0.6872  0.2178  0.5049
 6257SOL     OW29449   7.748   3.079   4.285  0.1522 -0.1701  0.1589
 6257SOL    HW129450   7.720   3.002   4.342  0.4799 -0.8345 -0.5741
 6257SOL    HW229451   7.674   3.147   4.283 -0.2349 -0.5730  0.6041
 6258SOL     OW29452   8.729   2.460   2.489  0.3447  0.9344 -0.3101
 6258SOL    HW129453   8.782   2.397   2.546  0.3266  0.7837 -0.4555
 6258SOL    HW229454   8.749   2.554   2.515 -0.4470  0.8415  0.6247
 6259SOL     OW29455   3.850   7.681   3.814  0.1848 -0.3006 -0.3817
 6259SOL    HW129456   3.809   7.650   3.900 -0.0051 -2.7908 -1.3179
 6259SOL    HW229457   3.948   7.696   3.827  0.1383 -0.5985  0.3075
 6260SOL     OW29458   2.496   7.007   4.723 -0.2071 -0.1852 -0.4602
 6260SOL    HW129459   2.427   6.966   4.663  1.4802 -2.3133 -0.9884
 6260SOL    HW229460   2.482   6.975   4.816  0.7826 -1.5682 -0.7783
 6261SOL     OW29461   3.923   2.622   0.776 -0.3476  0.3646  0.4671
 6261SOL    HW129462   3.991   2.671   0.720  0.1221  0.3391  1.0116
 6261SOL    HW229463   3.969   2.580   0.854 -0.8598 -0.3925  0.3592
 6262SOL     OW29464   2.236   6.825   3.838  0.3300 -0.1455  0.0967
 6262SOL    HW129465   2.219   6.729   3.815  0.9869 -0.4579  0.8764
 6262SOL    HW229466   2.251   6.877   3.754  0.6278 -0.8562 -0.2979
 6263SOL     OW29467   4.380   8.752   3.048  0.2143  0.0607 -0.7889
 6263SOL    HW129468   4.459   8.795   3.004 -0.2528  0.3572 -1.3479
 6263SOL    HW229469   4.376   8.655   3.023  0.7179 -0.0839 -0.3088
 6264SOL     OW29470   7.819   9.889   2.633  0.1580 -0.0042  0.2965
 6264SOL    HW129471   7.911   9.882   2.596  0.5771 -0.9835  1.5159
 6264SOL    HW229472   7.790   9.801   2.670 -1.5470  0.1061 -0.6864
 6265SOL     OW29473   5.445   6.937   2.806  0.5526 -0.1643  0.1317
 6265SOL    HW129474   5.483   7.029   2.794  0.0172  0.2222  1.4077
 6265SOL    HW229475   5.398   6.931   2.894 -1.3450 -0.9856 -0.9114
 6266SOL     OW29476   4.405   0.048   1.214  0.4324  0.7114  0.0111
 6266SOL    HW129477   4.375   0.109   1.140  1.1523  0.5096 -0.4546
 6266SOL    HW229478   4.390   0.093   1.302 -0.2005  1.0566 -0.2683
 6267SOL     OW29479   4.149   9.518   2.740 -0.1623 -0.9345 -0.1387
 6267SOL    HW129480   4.060   9.532   2.696 -1.0691 -0.9861  1.6761
 6267SOL    HW229481   4.211   9.475   2.674 -1.9452 -2.3924 -0.9139
 6268SOL     OW29482   9.547   8.623   1.578 -0.0162  0.1790  0.4425
 6268SOL    HW129483   9.552   8.527   1.605 -0.2315 -0.0313 -0.2433
 6268SOL    HW229484   9.452   8.646   1.556 -0.5773  1.4875  3.9375
 6269SOL     OW29485   6.885   8.736   3.118 -0.4084  0.2740  0.4749
 6269SOL    HW129486   6.806   8.755   3.061  0.9595  0.4555 -1.4226
 6269SOL    HW229487   6.902   8.813   3.179  0.4170  1.8044 -1.6324
 6270SOL     OW29488   1.914   4.248   3.610 -0.3812  0.5207 -0.4314
 6270SOL    HW129489   1.893   4.245   3.512 -0.7689  0.5182 -0.3493
 6270SOL    HW229490   1.966   4.331   3.630  1.1030 -0.2849 -0.9101
 6271SOL     OW29491   2.706   2.807   0.752  0.2645  0.0681  0.7183
 6271SOL    HW129492   2.690   2.867   0.831  1.7847 -0.0956  1.1816
 6271SOL    HW229493   2.735   2.717   0.784  2.2328  0.3984 -0.0011
 6272SOL     OW29494   7.593   4.829   0.427 -0.5349 -0.2348  0.5506
 6272SOL    HW129495   7.543   4.874   0.501 -0.1081 -0.6283  1.0792
 6272SOL    HW229496   7.676   4.786   0.463 -0.3212 -0.4326 -0.1543
 6273SOL     OW29497   8.967   5.524   1.358  0.0954  0.3743  0.5885
 6273SOL    HW129498   9.042   5.462   1.380  0.7830  1.4711  1.4257
 6273SOL    HW229499   8.931   5.503   1.267  1.8415  0.2596 -0.0934
 6274SOL     OW29500   8.123   2.694   2.345  0.1188 -0.1440  0.3907
 6274SOL    HW129501   8.093   2.623   2.410 -1.7817  0.8464  0.6504
 6274SOL    HW229502   8.123   2.656   2.253 -1.9558 -0.2173  0.3917
 6275SOL     OW29503   2.051   9.824   2.585 -0.0202  0.0190 -0.2713
 6275SOL    HW129504   1.993   9.802   2.664  0.9992 -0.3493  0.3858
 6275SOL    HW229505   2.121   9.889   2.613  1.8274 -1.9249 -0.2734
 6276SOL     OW29506   5.667   8.309   2.766 -0.1947 -0.6395 -0.2216
 6276SOL    HW129507   5.651   8.224   2.816  1.3570 -0.5493  0.4829
 6276SOL    HW229508   5.722   8.290   2.685 -1.2393 -0.5366 -0.9581
 6277SOL     OW29509   5.604   0.254   2.398 -0.0278  0.2648 -0.1511
 6277SOL    HW129510   5.689   0.201   2.405 -2.1520 -3.1953  0.8756
 6277SOL    HW229511   5.557   0.253   2.486 -0.7983  2.8101 -0.4925
 6278SOL     OW29512   4.436   3.384   3.471  0.1696 -0.0700 -0.4764
 6278SOL    HW129513   4.459   3.290   3.495 -0.4507 -0.1691 -0.2483
 6278SOL    HW229514   4.342   3.387   3.437  0.2157  0.4541 -0.5620
 6279SOL     OW29515   0.883   4.958   1.718  0.4960  0.3558 -0.1280
 6279SOL    HW129516   0.903   4.906   1.635  1.1896  0.3607  0.0386
 6279SOL    HW229517   0.816   5.029   1.696  0.0645 -0.1564 -0.5061
 6280SOL     OW29518   9.097   9.375   3.847  0.0097  0.3594  0.1845
 6280SOL    HW129519   9.018   9.353   3.903 -0.6521 -0.3221 -0.9979
 6280SOL    HW229520   9.067   9.403   3.756  1.0176  2.4832  0.4574
 6281SOL     OW29521   9.773   3.877   2.302  0.6972 -0.4895 -0.2005
 6281SOL    HW129522   9.774   3.779   2.286  0.0315 -1.0645  2.9572
 6281SOL    HW229523   9.855   3.904   2.351 -0.1691  0.1374  0.9341
 6282SOL     OW29524   1.629   4.518   4.573  0.1404 -0.1478  0.3134
 6282SOL    HW129525   1.670   4.427   4.558  1.7546  0.5377  0.4119
 6282SOL    HW229526   1.549   4.509   4.632 -1.0298 -1.7736 -1.4907
 6283SOL     OW29527   3.448   8.480   3.413 -0.0761  0.0070 -0.0626
 6283SOL    HW129528   3.520   8.412   3.406 -0.5354 -0.9668  3.8514
 6283SOL    HW229529   3.359   8.435   3.419 -0.7900  1.1211 -1.6400
 6284SOL     OW29530   2.535   6.244   4.293 -0.0548 -0.1386 -0.1408
 6284SOL    HW129531   2.497   6.197   4.213 -0.9032  0.7060 -0.2498
 6284SOL    HW229532   2.473   6.233   4.371 -0.7393  1.5361 -0.4096
 6285SOL     OW29533   9.305   3.386   4.386 -0.2834  0.1345  0.3796
 6285SOL    HW129534   9.297   3.351   4.480  0.0892  0.5794  0.5807
 6285SOL    HW229535   9.374   3.458   4.384  0.9741 -1.0917 -0.5880
 6286SOL     OW29536   4.382   8.392   4.624 -0.1085 -0.0974  0.7538
 6286SOL    HW129537   4.298   8.344   4.649  0.2664 -1.4206 -0.4850
 6286SOL    HW229538   4.457   8.326   4.615  0.4498  0.7327 -0.8157
 6287SOL     OW29539   4.426   6.981   2.873 -0.0087  0.0133 -0.6296
 6287SOL    HW129540   4.477   6.916   2.928  0.7523 -0.5088 -1.9313
 6287SOL    HW229541   4.476   7.068   2.869 -0.6478  0.4534  0.4619
 6288SOL     OW29542   2.223   5.597   1.209  0.3229  0.9042  0.2028
 6288SOL    HW129543   2.161   5.524   1.181  0.5195  0.2995  1.3040
 6288SOL    HW229544   2.310   5.558   1.240  0.9823  1.7018 -0.6194
 6289SOL     OW29545   8.554   2.366   4.642 -0.0704 -0.3777 -0.0470
 6289SOL    HW129546   8.509   2.369   4.552  0.4353  0.9441 -0.2705
 6289SOL    HW229547   8.629   2.300   4.638  0.3872  0.1773 -0.8116
 6290SOL     OW29548   0.265   8.716   3.687  0.1365 -0.1576  0.0215
 6290SOL    HW129549   0.210   8.751   3.763  0.5000 -1.4475  0.8808
 6290SOL    HW229550   0.236   8.623   3.664  0.0736  0.1956 -1.3841
 6291SOL     OW29551   7.453   7.299   2.438  0.1150  0.3233 -0.2486
 6291SOL    HW129552   7.433   7.220   2.381 -0.7288  0.4905 -0.1871
 6291SOL    HW229553   7.501   7.270   2.521 -1.1497 -0.2453  0.2842
 6292SOL     OW29554   1.879   9.775   4.320  0.0120 -0.1920 -0.3031
 6292SOL    HW129555   1.941   9.784   4.243  0.9538  1.0484  0.5746
 6292SOL    HW229556   1.801   9.837   4.308  0.2748  0.1708 -0.1575
 6293SOL     OW29557   3.680   4.951   0.635  0.0071  0.4605 -0.3759
 6293SOL    HW129558   3.660   5.049   0.625  0.0024  0.5700  0.6254
 6293SOL    HW229559   3.777   4.940   0.657 -0.0198  0.2488 -0.3677
 6294SOL     OW29560   4.237   8.102   2.494  0.1498 -0.5389 -0.1370
 6294SOL    HW129561   4.302   8.169   2.457  0.5541 -0.2468  1.0940
 6294SOL    HW229562   4.280   8.012   2.495  0.8493 -0.2115  1.4215
 6295SOL     OW29563   9.654   4.903   0.318  0.1526 -0.4243 -0.4074
 6295SOL    HW129564   9.665   4.932   0.413  0.3877  2.2314 -1.2066
 6295SOL    HW229565   9.694   4.812   0.307  1.8014 -0.0154  1.6319
 6296SOL     OW29566   2.319   8.768   3.699  0.0152 -0.1803  0.0533
 6296SOL    HW129567   2.293   8.712   3.619 -1.6828  1.0155 -0.2782
 6296SOL    HW229568   2.418   8.774   3.705  0.1773 -0.8586 -1.5902
 6297SOL     OW29569   3.585   3.886   1.184  0.3574  0.2644  0.0979
 6297SOL    HW129570   3.572   3.853   1.090  0.2840 -0.8891  0.4982
 6297SOL    HW229571   3.648   3.963   1.184 -0.5895  1.0539 -1.0355
 6298SOL     OW29572   4.066   8.290   0.538 -0.3232  0.1131  0.4006
 6298SOL    HW129573   4.080   8.250   0.448 -4.7943 -0.0615 -0.3181
 6298SOL    HW229574   4.143   8.265   0.598  0.6267 -3.3446 -2.1092
 6299SOL     OW29575   2.102   7.783   1.833 -0.3160  0.4145  0.4216
 6299SOL    HW129576   2.030   7.771   1.902 -0.1566  0.1346  0.5389
 6299SOL    HW229577   2.065   7.836   1.756 -0.3720  1.0948  0.9102
 6300SOL     OW29578   5.867   9.063   3.490 -0.7019 -0.3198 -0.2052
 6300SOL    HW129579   5.772   9.055   3.459 -0.8258  1.3158 -0.2824
 6300SOL    HW229580   5.904   9.152   3.463  1.2576 -1.4018 -1.2323
 6301SOL     OW29581   6.057   8.731   2.711 -0.1298  0.1774 -0.3170
 6301SOL    HW129582   6.045   8.823   2.674  1.2946  0.4853 -0.0223
 6301SOL    HW229583   5.972   8.680   2.698 -0.4900  1.0753 -1.7453
 6302SOL     OW29584   5.543   9.069   2.266  0.4346 -0.3126 -0.3935
 6302SOL    HW129585   5.556   9.167   2.285 -0.6041 -0.3518  0.5236
 6302SOL    HW229586   5.548   9.018   2.351 -0.6861 -0.8757 -0.6581
 6303SOL     OW29587   9.518   8.118   3.280  0.0942  0.4850  0.1311
 6303SOL    HW129588   9.542   8.213   3.299 -1.0607  0.6325  0.9316
 6303SOL    HW229589   9.451   8.114   3.206 -0.8864  0.3931  1.0155
 6304SOL     OW29590   5.098   8.243   2.954 -0.0778  0.8605  0.2153
 6304SOL    HW129591   5.057   8.317   3.008 -1.2763  0.0509  0.4291
 6304SOL    HW229592   5.067   8.155   2.989 -1.7298  0.3357 -2.4186
 6305SOL     OW29593   9.408   2.062   2.002 -0.4997 -0.2279  0.3929
 6305SOL    HW129594   9.478   2.128   2.030  0.5889 -0.6128 -1.3719
 6305SOL    HW229595   9.321   2.110   1.991 -0.3248  0.4173  1.7686
 6306SOL     OW29596   8.760   7.636   4.734  0.6919 -0.7400 -0.1569
 6306SOL    HW129597   8.808   7.658   4.649 -0.0352 -0.5635 -0.5294
 6306SOL    HW229598   8.688   7.704   4.749  0.3691 -1.1733  0.2382
 6307SOL     OW29599   8.161   9.527   0.727  0.1633 -0.6152  0.7285
 6307SOL    HW129600   8.163   9.565   0.819 -0.8006  0.6695  0.2310
 6307SOL    HW229601   8.214   9.586   0.665 -1.1066 -0.2149  0.0066
 6308SOL     OW29602   5.042   7.931   1.637  0.1389  0.1319  0.4746
 6308SOL    HW129603   5.016   8.024   1.612 -0.7187 -0.4340 -0.7965
 6308SOL    HW229604   5.141   7.926   1.650  0.2630  1.0733 -0.0718
 6309SOL     OW29605   2.251   0.771   0.764 -0.2082 -0.2024 -0.1247
 6309SOL    HW129606   2.167   0.734   0.726  0.0981  0.1040 -1.1283
 6309SOL    HW229607   2.230   0.833   0.840 -0.9327  0.4086 -0.8190
 6310SOL     OW29608   7.031   0.163   3.229 -0.7093  0.1513 -0.4135
 6310SOL    HW129609   6.959   0.096   3.250  0.8148 -1.0247  1.2702
 6310SOL    HW229610   7.115   0.114   3.204  0.1239  1.4529 -0.2098
 6311SOL     OW29611   1.486   9.294   0.574  0.6306  0.0445  0.5638
 6311SOL    HW129612   1.457   9.224   0.509 -1.1385  0.8864  0.4226
 6311SOL    HW229613   1.573   9.334   0.544  0.0301  0.1529 -1.0553
 6312SOL     OW29614   0.871   6.415   3.173 -0.1329  0.3748 -0.0708
 6312SOL    HW129615   0.852   6.490   3.237  0.0931  1.2067 -0.9775
 6312SOL    HW229616   0.791   6.398   3.117 -0.8445 -1.3509  1.4185
 6313SOL     OW29617   7.884   7.438   1.957  0.4224 -0.1339  0.1540
 6313SOL    HW129618   7.835   7.525   1.949  0.4113  0.0289  1.9046
 6313SOL    HW229619   7.905   7.403   1.865 -0.6077  1.1231 -0.5750
 6314SOL     OW29620   0.338   1.958   4.432 -0.4092 -0.3783  0.0449
 6314SOL    HW129621   0.328   1.973   4.333 -2.3077  0.5127  0.3511
 6314SOL    HW229622   0.341   1.860   4.451  0.9538 -0.5521 -0.9822
 6315SOL     OW29623   0.001   2.804   3.934  0.5299  0.2311  0.1911
 6315SOL    HW129624  -0.070   2.782   3.867  0.1397  2.2135 -0.0718
 6315SOL    HW229625   0.087   2.824   3.887  0.2638  1.6003  0.2723
 6316SOL     OW29626   3.000   1.673   2.579 -0.3117  0.3521 -0.2863
 6316SOL    HW129627   3.033   1.640   2.668  1.0645  2.1484 -0.1238
 6316SOL    HW229628   2.970   1.594   2.525 -1.7181 -0.7261  1.9703
 6317SOL     OW29629   1.083   8.741   3.729 -0.7438  0.4280  0.6150
 6317SOL    HW129630   1.068   8.840   3.729  0.5385  0.6432 -1.1906
 6317SOL    HW229631   1.116   8.712   3.818 -0.6343  1.7061  0.9935
 6318SOL     OW29632   9.281   4.885   1.769 -0.1745 -0.4711  0.2298
 6318SOL    HW129633   9.228   4.847   1.693 -0.3944  0.5418 -0.1326
 6318SOL    HW229634   9.363   4.929   1.732  0.7332 -1.6961  0.7510
 6319SOL     OW29635   9.250   9.776   2.250  0.1275  0.2414  0.1924
 6319SOL    HW129636   9.157   9.747   2.274  0.1544 -1.8094 -1.9891
 6319SOL    HW229637   9.250   9.812   2.156  1.6999 -0.6471 -0.1573
 6320SOL     OW29638   1.939   1.011   0.504  0.0193 -0.3539 -0.7933
 6320SOL    HW129639   1.850   0.968   0.519  0.9065 -1.1518  2.8593
 6320SOL    HW229640   1.996   0.952   0.448  0.2145 -2.6793  1.7481
 6321SOL     OW29641   4.096   8.179   1.512 -0.2747 -0.1456  0.4740
 6321SOL    HW129642   4.003   8.171   1.477  0.0651  1.2981 -0.8014
 6321SOL    HW229643   4.160   8.144   1.444  0.3431  1.9984 -0.0677
 6322SOL     OW29644   3.688   9.858   1.456 -0.2078 -0.1729  0.5952
 6322SOL    HW129645   3.657   9.763   1.464  2.3350 -1.0840  0.0518
 6322SOL    HW229646   3.670   9.906   1.542 -0.5598 -1.4341  1.2349
 6323SOL     OW29647   0.238   3.222   1.529  0.3065 -0.3618  0.1896
 6323SOL    HW129648   0.239   3.151   1.459 -0.7056 -0.2194  0.0198
 6323SOL    HW229649   0.313   3.286   1.513 -0.3937  0.1184 -1.2168
 6324SOL     OW29650   9.836   9.966   4.726  0.3560  0.2017  0.1899
 6324SOL    HW129651   9.739   9.958   4.702  0.8847 -1.6765 -1.5264
 6324SOL    HW229652   9.852  10.051   4.776 -2.1336  0.6353  0.2939
 6325SOL     OW29653   4.821   8.295   3.510 -0.1346  0.0276  0.2837
 6325SOL    HW129654   4.816   8.204   3.469  1.9963 -0.0238  0.0788
 6325SOL    HW229655   4.816   8.364   3.438 -1.3681  0.0751  0.4052
 6326SOL     OW29656   3.974   4.967   1.153 -0.2051  0.2418 -0.2426
 6326SOL    HW129657   3.889   4.922   1.125 -0.7696  0.9749  0.2685
 6326SOL    HW229658   3.957   5.021   1.235  1.1024 -0.7359  0.6887
 6327SOL     OW29659   8.127   9.369   4.403  0.1699 -0.0141  0.4200
 6327SOL    HW129660   8.225   9.347   4.401  0.4852  1.3254  0.8062
 6327SOL    HW229661   8.093   9.374   4.309 -0.2604 -3.5437  0.3193
 6328SOL     OW29662   4.532   8.473   4.142  0.2668  0.3657 -0.3130
 6328SOL    HW129663   4.581   8.511   4.220 -1.6890 -0.1350  1.1870
 6328SOL    HW229664   4.520   8.543   4.072 -1.4085  1.9135  1.5023
 6329SOL     OW29665   0.237   9.694   0.427  0.4511 -0.1589  0.0891
 6329SOL    HW129666   0.311   9.749   0.388  1.1366 -0.2969  1.1878
 6329SOL    HW229667   0.232   9.710   0.526 -0.5262 -0.6933  0.1334
 6330SOL     OW29668   1.734   2.657   1.205  0.4399 -0.3504 -0.3776
 6330SOL    HW129669   1.743   2.558   1.189  0.8880 -0.3297 -0.2567
 6330SOL    HW229670   1.816   2.691   1.250  1.3121  0.4928 -2.5140
 6331SOL     OW29671   3.957   2.795   2.705 -0.5985 -0.3140  0.3065
 6331SOL    HW129672   3.896   2.872   2.725 -0.1790  0.3053 -0.8150
 6331SOL    HW229673   4.038   2.828   2.658 -0.0872 -1.3529  0.4526
 6332SOL     OW29674   2.682   0.867   1.248 -0.2068  0.5071 -0.3012
 6332SOL    HW129675   2.592   0.895   1.281  0.0681  1.8606 -0.6749
 6332SOL    HW229676   2.731   0.820   1.321 -0.5715  1.2457  0.4225
 6333SOL     OW29677   1.723   1.039   3.753  0.5894 -0.6265 -0.1820
 6333SOL    HW129678   1.801   1.057   3.814  0.8744 -0.4591 -0.5930
 6333SOL    HW229679   1.706   0.940   3.750  0.4987 -0.6236  0.2628
 6334SOL     OW29680   0.483   7.301   4.759 -0.1059  0.0796  0.0604
 6334SOL    HW129681   0.387   7.330   4.755 -0.5948 -1.5978 -0.8148
 6334SOL    HW229682   0.524   7.308   4.668  0.6580  0.9076  0.4550
 6335SOL     OW29683   9.785   7.994   3.268  0.0488  0.2227 -0.7132
 6335SOL    HW129684   9.696   8.041   3.269 -0.1981 -0.1849 -2.4797
 6335SOL    HW229685   9.831   8.008   3.356 -1.1112  1.6838 -0.3211
 6336SOL     OW29686   9.825   4.342   4.014  0.1205  0.1537  0.2187
 6336SOL    HW129687   9.770   4.414   4.057  0.9161  0.5097  0.6391
 6336SOL    HW229688   9.785   4.319   3.926  1.0518  2.6254 -0.9029
 6337SOL     OW29689   0.201   0.590   1.863  0.1350 -0.6401  0.0982
 6337SOL    HW129690   0.264   0.597   1.941 -0.8871  1.6421  0.7485
 6337SOL    HW229691   0.205   0.674   1.809 -1.2409 -1.0827 -0.7181
 6338SOL     OW29692   9.932   2.944   1.230  0.5070  0.3353 -0.4653
 6338SOL    HW129693   9.929   2.971   1.134  1.6018 -1.0926 -0.9198
 6338SOL    HW229694   9.845   2.967   1.273 -0.3582  0.1208 -2.0445
 6339SOL     OW29695   5.375   0.092   1.672  0.4014  0.1277  0.2768
 6339SOL    HW129696   5.371   0.073   1.574  0.6120  1.7303 -0.0653
 6339SOL    HW229697   5.350   0.010   1.723 -1.5840 -0.2028 -1.1600
 6340SOL     OW29698   0.404   3.320   0.615  0.0320  0.1935  0.1951
 6340SOL    HW129699   0.338   3.248   0.638  0.5510 -1.0124 -2.0113
 6340SOL    HW229700   0.463   3.337   0.695 -2.1677  0.4787  1.8052
 6341SOL     OW29701   9.126   8.865   2.128  0.8170  0.5030  0.0426
 6341SOL    HW129702   9.047   8.836   2.181  0.5982 -1.8299 -1.4878
 6341SOL    HW229703   9.108   8.851   2.030  2.8755  0.5190 -0.3719
 6342SOL     OW29704   1.859   5.616   3.242 -0.0933  0.4984 -0.4895
 6342SOL    HW129705   1.929   5.581   3.304 -1.5100  0.8749  1.3649
 6342SOL    HW229706   1.866   5.569   3.154  0.4724 -1.7541  0.7052
 6343SOL     OW29707   1.437   6.321   0.256  0.1152  0.4615 -0.2470
 6343SOL    HW129708   1.397   6.406   0.289 -0.8129  0.2654 -0.8552
 6343SOL    HW229709   1.461   6.263   0.333  2.7172  2.1523  0.2584
 6344SOL     OW29710   4.032   0.096   2.726 -0.0509  0.1422 -0.4532
 6344SOL    HW129711   3.952   0.098   2.787 -0.2863 -0.7527 -0.7274
 6344SOL    HW229712   4.071   0.004   2.726  0.0111  0.1685 -1.5869
 6345SOL     OW29713   2.760   1.204   0.901  0.6184  0.8106 -0.9067
 6345SOL    HW129714   2.774   1.301   0.886 -0.9503  1.2781  0.4308
 6345SOL    HW229715   2.704   1.166   0.826  0.9661  1.0056 -1.2638
 6346SOL     OW29716   4.836   3.534   2.781 -1.2588  0.2585  0.5018
 6346SOL    HW129717   4.757   3.495   2.828 -0.8034 -2.4941 -0.9157
 6346SOL    HW229718   4.910   3.549   2.847 -1.2891 -1.8038  1.0502
 6347SOL     OW29719   8.630   7.279   0.324  0.2552 -0.4076 -0.2054
 6347SOL    HW129720   8.617   7.378   0.329 -3.3813 -0.7229 -1.4472
 6347SOL    HW229721   8.685   7.256   0.243  0.3591  0.5554 -0.4059
 6348SOL     OW29722   8.813   2.639   3.720 -0.2853  0.1503  0.6151
 6348SOL    HW129723   8.830   2.601   3.629 -0.8659  1.5873 -0.1098
 6348SOL    HW229724   8.755   2.575   3.772  0.7197 -1.0564  0.2906
 6349SOL     OW29725   3.610   1.138   3.809 -0.4064 -0.4067  0.1809
 6349SOL    HW129726   3.531   1.092   3.768 -0.7347 -0.1993  0.5847
 6349SOL    HW229727   3.623   1.227   3.765  0.3877 -0.9892 -0.7829
 6350SOL     OW29728   2.138   7.064   3.233  0.0559 -0.1603  0.2065
 6350SOL    HW129729   2.192   7.109   3.304  0.4488  0.2151 -0.3248
 6350SOL    HW229730   2.109   7.131   3.164  0.7734 -0.7377 -0.6728
 6351SOL     OW29731   4.415   8.343   2.669 -0.4700 -0.5385 -0.5672
 6351SOL    HW129732   4.331   8.311   2.627  0.4179  0.8613 -3.5842
 6351SOL    HW229733   4.493   8.293   2.631  0.4294  1.3045 -1.2593
 6352SOL     OW29734   8.164   2.448   3.881  0.3161 -0.4274 -0.0635
 6352SOL    HW129735   8.135   2.353   3.867 -0.3507 -0.1410 -0.6777
 6352SOL    HW229736   8.110   2.508   3.822 -0.6461  0.5593  1.7836
 6353SOL     OW29737   7.311   0.405   4.705  0.4056  0.0936  0.1292
 6353SOL    HW129738   7.232   0.348   4.725  1.2704 -0.5818  1.6437
 6353SOL    HW229739   7.376   0.353   4.650 -0.6880  1.0234 -2.1175
 6354SOL     OW29740   8.897   9.070   0.663  0.5382 -0.0526 -0.7807
 6354SOL    HW129741   8.831   9.144   0.650 -0.1743 -0.7817 -1.3237
 6354SOL    HW229742   8.989   9.104   0.644  0.3917  1.1317  0.5879
 6355SOL     OW29743   6.115   0.176   1.265 -0.4330  0.1438  0.0475
 6355SOL    HW129744   6.056   0.252   1.291 -0.6392 -0.8840  2.7997
 6355SOL    HW229745   6.189   0.166   1.332  1.7142  0.1205 -2.2179
 6356SOL     OW29746   0.761   0.275   0.883  0.1685 -0.2339  0.2442
 6356SOL    HW129747   0.688   0.278   0.814  1.6889 -3.5362 -1.6292
 6356SOL    HW229748   0.842   0.319   0.846  0.3863 -0.2688  0.6870
 6357SOL     OW29749   8.383   7.626   3.232 -0.1122  0.1247 -0.1569
 6357SOL    HW129750   8.459   7.639   3.167 -0.3111  1.7166 -0.1109
 6357SOL    HW229751   8.410   7.662   3.321 -0.6216 -0.0526  0.0649
 6358SOL     OW29752   5.326   2.023   1.001  0.3613  0.1420 -0.3412
 6358SOL    HW129753   5.276   2.095   1.049  0.5306  0.3940 -0.5445
 6358SOL    HW229754   5.421   2.050   0.989  0.2387  0.2335 -1.1353
 6359SOL     OW29755   8.651   6.437   0.427 -0.3320  0.2062 -0.8100
 6359SOL    HW129756   8.737   6.445   0.478 -0.9579  2.1246  0.0018
 6359SOL    HW229757   8.668   6.459   0.330  0.0254  1.0616 -0.5640
 6360SOL     OW29758   5.439   7.728   3.467  0.2032  0.2197 -0.3237
 6360SOL    HW129759   5.490   7.756   3.386 -0.8540  0.1881 -1.0076
 6360SOL    HW229760   5.500   7.727   3.546  1.5519 -1.0722 -1.3593
 6361SOL     OW29761   2.191   8.448   0.229  0.4186 -0.3987 -0.2063
 6361SOL    HW129762   2.106   8.427   0.278  0.7490 -1.3065 -0.0205
 6361SOL    HW229763   2.267   8.399   0.271  1.1796  1.0067  0.0983
 6362SOL     OW29764   1.653   0.990   4.102  0.3211 -0.6916  0.2503
 6362SOL    HW129765   1.714   1.054   4.056  0.2139 -0.1370  0.8695
 6362SOL    HW229766   1.706   0.911   4.134  0.4483 -0.9323 -0.5378
 6363SOL     OW29767   4.777   8.615   2.844  0.0156 -0.1010  0.5226
 6363SOL    HW129768   4.772   8.585   2.749  3.3755  4.2523 -1.2118
 6363SOL    HW229769   4.717   8.695   2.857  0.5593  0.1289  1.7054
 6364SOL     OW29770   9.286   4.671   3.859 -0.1941 -0.5962 -0.2606
 6364SOL    HW129771   9.334   4.592   3.821  0.7751 -0.3848  0.5311
 6364SOL    HW229772   9.351   4.744   3.879 -0.9910  0.1371 -0.2964
 6365SOL     OW29773   1.476   1.011   2.111 -0.2757 -0.7660 -0.3526
 6365SOL    HW129774   1.527   0.936   2.070  1.2612  0.2907 -0.4259
 6365SOL    HW229775   1.539   1.084   2.136 -1.8927  1.1029 -1.5818
 6366SOL     OW29776   2.573   2.180   3.803  0.1954 -0.4634  0.6671
 6366SOL    HW129777   2.556   2.146   3.895  1.2991  0.9101  1.4119
 6366SOL    HW229778   2.642   2.253   3.807 -1.0019  0.8014 -1.0327
 6367SOL     OW29779   3.449   2.021   1.660 -0.1963  0.3342 -0.1330
 6367SOL    HW129780   3.469   2.101   1.715  1.5633  1.0822 -1.8004
 6367SOL    HW229781   3.452   2.045   1.563 -0.6749 -1.5247 -0.6392
 6368SOL     OW29782   0.745   7.261   1.214  0.2421 -0.0472 -0.0430
 6368SOL    HW129783   0.813   7.311   1.160 -0.9932  1.9990  0.2488
 6368SOL    HW229784   0.670   7.235   1.154 -0.1151  0.3306  0.2395
 6369SOL     OW29785   1.868   7.239   4.527  0.8691 -0.5787  0.3211
 6369SOL    HW129786   1.893   7.311   4.463 -1.4460  0.8694  1.0097
 6369SOL    HW229787   1.874   7.274   4.621 -0.7283 -1.1258  0.6407
 6370SOL     OW29788   7.522   9.023   2.908  0.5000  0.1202  0.2224
 6370SOL    HW129789   7.554   8.966   2.833  2.0156 -0.4924  1.2887
 6370SOL    HW229790   7.510   8.967   2.990 -0.7859  0.8300  0.5434
 6371SOL     OW29791   1.960   6.031   0.019 -0.1123 -0.2854  0.6723
 6371SOL    HW129792   1.969   5.962   0.091  0.7977 -0.1415  0.7091
 6371SOL    HW229793   1.922   6.115   0.058  1.3393  0.1319  1.2177
 6372SOL     OW29794   0.040   9.890   2.946 -0.0838 -0.1488 -0.3731
 6372SOL    HW129795  -0.045   9.911   2.897 -1.1336  1.3464  1.9996
 6372SOL    HW229796   0.024   9.896   3.044  2.6553 -0.3954  0.1232
 6373SOL     OW29797   8.036   9.009   1.858  0.2142 -0.0808 -0.2591
 6373SOL    HW129798   7.996   9.100   1.870 -0.1026 -0.4025  1.1636
 6373SOL    HW229799   7.973   8.952   1.804 -0.1234  0.1718 -0.1308
 6374SOL     OW29800   0.055   9.321   2.805 -0.0267 -0.5480 -0.0398
 6374SOL    HW129801   0.052   9.419   2.822  2.7026 -0.4510  0.1535
 6374SOL    HW229802   0.139   9.283   2.844 -1.4420 -3.1228  0.6350
 6375SOL     OW29803   3.307   2.101   0.135  0.1940  0.5500  0.0640
 6375SOL    HW129804   3.398   2.081   0.170  0.4483 -1.5052 -1.6310
 6375SOL    HW229805   3.241   2.035   0.171 -0.5994  1.8849  1.1031
 6376SOL     OW29806   0.321   9.855   1.602  0.1002  0.4022 -0.3260
 6376SOL    HW129807   0.284   9.947   1.596 -0.8245 -0.0165 -1.1788
 6376SOL    HW229808   0.333   9.830   1.698 -1.2141  0.7916 -0.0554
 6377SOL     OW29809   4.063   7.990   2.299 -0.1495  0.3271 -0.1055
 6377SOL    HW129810   4.085   7.956   2.208 -0.2245 -1.0993  0.3896
 6377SOL    HW229811   4.145   8.030   2.341  0.7347 -1.9634  0.4462
 6378SOL     OW29812   8.238   3.842   3.149  0.0124  0.1710  0.1753
 6378SOL    HW129813   8.279   3.930   3.125  0.4466 -0.0866 -0.0430
 6378SOL    HW229814   8.236   3.784   3.068 -0.0865 -0.0923  0.3672
 6379SOL     OW29815   1.905   3.683   4.245  0.2935 -0.0349 -0.3254
 6379SOL    HW129816   1.895   3.701   4.147  0.8064 -0.0226 -0.3802
 6379SOL    HW229817   1.999   3.653   4.263  0.2531  0.1511  0.1879
 6380SOL     OW29818   9.038   2.056   4.492 -0.5008 -0.0389  0.3320
 6380SOL    HW129819   9.031   1.957   4.500 -2.0616  0.1872  2.2935
 6380SOL    HW229820   9.013   2.084   4.399 -3.3569 -1.2557  0.6681
 6381SOL     OW29821   5.464   8.440   2.666 -0.8606 -0.3416 -0.3552
 6381SOL    HW129822   5.491   8.510   2.600  0.8072  0.2190  0.9004
 6381SOL    HW229823   5.545   8.390   2.697 -1.7367 -1.1857  0.5981
 6382SOL     OW29824   2.094   2.873   4.078  0.1699  0.2248 -0.2744
 6382SOL    HW129825   2.106   2.781   4.116  2.4644  0.7287  0.2741
 6382SOL    HW229826   2.145   2.880   3.992 -0.9726  0.6427 -0.9326
 6383SOL     OW29827   4.753   1.817   1.408 -0.7001  0.2194  0.0742
 6383SOL    HW129828   4.809   1.818   1.325 -1.3828 -0.0906 -0.3902
 6383SOL    HW229829   4.739   1.911   1.439  0.4908  0.2768  0.4761
 6384SOL     OW29830   2.272   2.842   2.444  0.3316  0.0135 -0.1278
 6384SOL    HW129831   2.248   2.763   2.388 -1.4814  0.4691 -0.0175
 6384SOL    HW229832   2.339   2.815   2.513 -1.2230 -1.7620  0.7291
 6385SOL     OW29833   3.151   2.960   0.259  0.2832  0.1449  0.3016
 6385SOL    HW129834   3.127   2.869   0.293 -0.4326  0.4013  0.5035
 6385SOL    HW229835   3.106   2.976   0.171  0.0317  0.4698  0.4845
 6386SOL     OW29836   5.225   8.636   2.051 -0.5707 -0.6459 -0.2717
 6386SOL    HW129837   5.180   8.615   2.138  0.4050 -0.1312  0.3693
 6386SOL    HW229838   5.179   8.713   2.007 -1.4313 -1.2860 -0.5020
 6387SOL     OW29839   3.603   4.405   3.621 -0.5874 -0.4289  0.5904
 6387SOL    HW129840   3.638   4.450   3.703  1.3646 -1.0009  0.1090
 6387SOL    HW229841   3.506   4.425   3.611 -0.2579  1.8466  1.5809
 6388SOL     OW29842   9.551   2.402   0.619  0.0436  0.4286  0.1511
 6388SOL    HW129843   9.554   2.337   0.543 -2.6541  2.8982 -2.1917
 6388SOL    HW229844   9.635   2.394   0.673  0.4694 -3.8276 -0.9730
 6389SOL     OW29845   2.842   2.542   4.662 -0.9605  0.1413  0.0158
 6389SOL    HW129846   2.812   2.596   4.583 -2.0110 -0.5753 -0.0817
 6389SOL    HW229847   2.762   2.508   4.712 -0.3080 -0.4729  0.6597
 6390SOL     OW29848   3.211   0.292   3.040 -0.1032  0.1586  0.3292
 6390SOL    HW129849   3.219   0.221   3.110 -1.0447  0.4079  0.6921
 6390SOL    HW229850   3.186   0.250   2.953  0.6614 -0.1038  0.2303
 6391SOL     OW29851   2.935   2.780   1.245  0.2209 -0.6656 -0.0205
 6391SOL    HW129852   2.872   2.851   1.277  0.7011 -0.5634  0.7005
 6391SOL    HW229853   2.999   2.756   1.318  0.8003 -1.0165 -0.6341
 6392SOL     OW29854   8.653   6.427   4.507 -0.0259 -0.5379 -0.0813
 6392SOL    HW129855   8.720   6.470   4.568  0.4493 -1.1662 -0.1535
 6392SOL    HW229856   8.700   6.371   4.439 -0.6828 -2.8619  1.2896
 6393SOL     OW29857   9.123   4.081   3.773 -0.5040 -0.3746 -0.1906
 6393SOL    HW129858   9.072   4.003   3.809 -0.9591 -0.8111 -1.7062
 6393SOL    HW229859   9.164   4.133   3.848  1.5558 -3.2574  0.7496
 6394SOL     OW29860   1.747   3.847   2.211 -0.3782 -0.2071  0.0020
 6394SOL    HW129861   1.745   3.842   2.311  1.5889 -1.0565  0.0289
 6394SOL    HW229862   1.710   3.762   2.173 -0.5180 -0.1558  0.0250
 6395SOL     OW29863   9.843   9.815   3.751  0.1260 -0.0163  0.7020
 6395SOL    HW129864   9.876   9.729   3.710 -3.7630 -2.1616  1.7583
 6395SOL    HW229865   9.818   9.798   3.846 -0.4782  2.3641  0.9789
 6396SOL     OW29866   9.410   7.261   1.958 -0.5177 -0.8043  0.0826
 6396SOL    HW129867   9.322   7.236   1.916 -0.0112 -1.7108 -0.4428
 6396SOL    HW229868   9.438   7.188   2.021 -0.3760 -0.2890  0.6179
 6397SOL     OW29869   2.928   1.646   0.761  0.0004  0.0270 -0.4696
 6397SOL    HW129870   2.979   1.686   0.685 -0.1960  0.9047 -0.1486
 6397SOL    HW229871   2.969   1.675   0.848 -0.1924 -0.4053 -0.2319
 6398SOL     OW29872   3.093   5.761   4.620 -0.4800 -0.4193 -0.2329
 6398SOL    HW129873   3.067   5.761   4.524 -1.6207 -2.0436  0.0609
 6398SOL    HW229874   3.191   5.778   4.629 -0.2282 -1.1101 -1.7174
 6399SOL     OW29875   2.544   1.704   0.216 -0.4397 -0.1239 -0.4252
 6399SOL    HW129876   2.575   1.773   0.281 -0.7966 -0.2143 -0.1605
 6399SOL    HW229877   2.458   1.665   0.247 -1.2422  0.7144 -1.5841
 6400SOL     OW29878   8.385   7.067   4.656 -0.1451 -0.1963  0.4101
 6400SOL    HW129879   8.353   7.161   4.638  1.3344  0.2571  0.0693
 6400SOL    HW229880   8.356   7.008   4.581 -0.0472  0.2491  0.0162
 6401SOL     OW29881   7.273   6.821   2.720 -0.0241  0.3079 -0.0987
 6401SOL    HW129882   7.219   6.839   2.802 -1.9071 -0.2945 -1.1750
 6401SOL    HW229883   7.232   6.870   2.642  1.8116  0.9761 -0.6550
 6402SOL     OW29884   9.888   6.989   3.047  0.0263 -0.0996  0.2016
 6402SOL    HW129885   9.885   7.079   3.091  0.1874  0.5577 -1.1022
 6402SOL    HW229886   9.979   6.948   3.060  0.0043 -0.0120  0.6553
 6403SOL     OW29887   9.950   8.065   2.470 -0.1334 -0.0394  0.5416
 6403SOL    HW129888   9.966   8.079   2.567  0.0513 -1.9534  0.8155
 6403SOL    HW229889   9.853   8.082   2.449 -0.7077 -1.9771  1.5384
 6404SOL     OW29890   8.115   8.603   3.723 -0.3151  0.5614 -0.1434
 6404SOL    HW129891   8.193   8.618   3.782 -1.1269 -0.3728  1.1750
 6404SOL    HW229892   8.145   8.603   3.627  1.2320  0.4612  0.3351
 6405SOL     OW29893   9.913   6.992   4.013 -0.0453 -0.7658 -0.0054
 6405SOL    HW129894   9.877   7.067   4.069 -0.0674 -0.3278 -0.6069
 6405SOL    HW229895  10.003   6.965   4.048 -0.1923 -0.7029  0.4299
 6406SOL     OW29896   1.954   6.835   3.254  0.1090 -0.6796 -0.0642
 6406SOL    HW129897   1.982   6.771   3.326  1.0685 -1.1509 -0.8444
 6406SOL    HW229898   2.024   6.905   3.243  1.4931 -2.3572 -2.6215
 6407SOL     OW29899   7.757   8.757   2.509 -0.1634  0.0630  0.5417
 6407SOL    HW129900   7.829   8.689   2.502 -0.9771 -0.9213  1.6274
 6407SOL    HW229901   7.691   8.743   2.435 -0.5072 -0.5496  0.9591
 6408SOL     OW29902   3.704   7.840   2.190  0.4622 -0.2638 -0.1895
 6408SOL    HW129903   3.605   7.841   2.175  0.4198  1.8392  0.0467
 6408SOL    HW229904   3.726   7.784   2.270 -0.7717  1.1772  1.1778
 6409SOL     OW29905   9.434   2.131   2.622  0.7235 -0.6451  0.2941
 6409SOL    HW129906   9.362   2.151   2.689  0.5099 -0.8591  0.1326
 6409SOL    HW229907   9.478   2.045   2.645  1.4735 -0.1211  0.8461
 6410SOL     OW29908   2.576   3.656   2.272 -0.0156 -0.0647 -0.7370
 6410SOL    HW129909   2.621   3.582   2.221 -1.3126 -1.0997 -0.4148
 6410SOL    HW229910   2.522   3.711   2.208  1.3821  0.9420 -1.0621
 6411SOL     OW29911   4.213   8.418   1.563 -0.6587 -0.9031 -0.3260
 6411SOL    HW129912   4.179   8.325   1.550 -1.2486 -0.8237  0.5551
 6411SOL    HW229913   4.157   8.482   1.510  0.4291 -1.1577 -1.7964
 6412SOL     OW29914   9.691   9.076   3.244 -0.6500  0.3574  0.2381
 6412SOL    HW129915   9.781   9.058   3.204 -0.6337  1.7622 -0.4027
 6412SOL    HW229916   9.626   9.007   3.212  0.1769 -0.6148  0.6348
 6413SOL     OW29917   9.824   3.161   1.560  0.2249 -0.0839 -0.4855
 6413SOL    HW129918   9.838   3.063   1.544  2.0377 -0.1303  1.2718
 6413SOL    HW229919   9.728   3.183   1.543  0.0204 -1.9572 -1.9278
 6414SOL     OW29920   9.119   1.491   4.199 -0.8364  0.1462  0.0511
 6414SOL    HW129921   9.101   1.588   4.179  0.9370  0.6660  0.7999
 6414SOL    HW229922   9.080   1.468   4.288 -0.6040  0.3825  0.2164
 6415SOL     OW29923   2.696   0.308   0.341  0.0080  0.5265 -0.0207
 6415SOL    HW129924   2.641   0.277   0.263 -0.7847 -0.5202  0.9387
 6415SOL    HW229925   2.675   0.252   0.421  0.0956  2.2262  1.2147
 6416SOL     OW29926   4.023   7.964   2.604 -0.1685 -0.9741  0.1272
 6416SOL    HW129927   4.037   7.950   2.506 -0.2272  0.4475 -0.1050
 6416SOL    HW229928   3.926   7.980   2.622 -0.1204 -0.9682  0.3803
 6417SOL     OW29929   3.458   7.522   3.151 -0.0495 -0.5643 -0.2297
 6417SOL    HW129930   3.370   7.527   3.104  0.4977 -0.4465 -1.2524
 6417SOL    HW229931   3.460   7.441   3.210 -1.6882  0.6497  1.5461
 6418SOL     OW29932   1.344   4.236   4.630  0.7446 -0.1273  0.1351
 6418SOL    HW129933   1.346   4.166   4.701 -0.2039 -0.2703  0.0346
 6418SOL    HW229934   1.379   4.198   4.545  0.9898 -0.2406  0.2874
 6419SOL     OW29935   1.979   0.697   4.369  0.3576  0.0401  0.0949
 6419SOL    HW129936   2.010   0.692   4.464  0.8834 -0.2178 -0.0911
 6419SOL    HW229937   2.054   0.729   4.311  0.2088 -0.3618 -0.3211
 6420SOL     OW29938   3.731   1.637   3.301  0.0556 -0.4533 -0.0508
 6420SOL    HW129939   3.766   1.725   3.271  0.3903 -0.6286 -0.1805
 6420SOL    HW229940   3.636   1.647   3.333  0.8689  0.4111  2.1983
 6421SOL     OW29941   2.656   0.016   2.743  0.4434  0.0675 -0.7070
 6421SOL    HW129942   2.589   0.090   2.753  1.0129  0.3580  1.0282
 6421SOL    HW229943   2.630  -0.060   2.801 -0.2721 -1.2237 -2.6731
 6422SOL     OW29944   3.938   2.177   0.914  0.4504  0.2988  1.0262
 6422SOL    HW129945   3.965   2.131   0.830  1.5141  1.6775  0.6076
 6422SOL    HW229946   3.838   2.183   0.918  0.4182  0.6929 -0.3790
 6423SOL     OW29947   3.698   6.167   2.264 -0.7570 -0.2424 -0.1399
 6423SOL    HW129948   3.758   6.242   2.234  0.7336 -0.7115  1.5464
 6423SOL    HW229949   3.635   6.143   2.191  1.1313  0.2811 -1.9718
 6424SOL     OW29950   5.136   8.166   3.873  0.1008  0.4448 -0.5278
 6424SOL    HW129951   5.127   8.199   3.967 -1.8262  0.1640 -0.5887
 6424SOL    HW229952   5.049   8.178   3.825  0.6932 -0.5711 -1.8934
 6425SOL     OW29953   8.792   0.811   1.935 -0.5617  0.0211 -0.3504
 6425SOL    HW129954   8.834   0.796   2.025  0.9284  0.5870 -0.9309
 6425SOL    HW229955   8.701   0.770   1.933 -0.2098 -0.8530  1.0901
 6426SOL     OW29956   9.493   1.418   4.457 -0.0658  0.6069 -0.7941
 6426SOL    HW129957   9.588   1.445   4.475 -0.0395 -0.2778  0.4826
 6426SOL    HW229958   9.437   1.441   4.537 -0.2243 -2.1627 -0.0423
 6427SOL     OW29959   2.059   9.001   2.751  0.5916 -0.2171  0.1246
 6427SOL    HW129960   2.122   9.067   2.792  0.9556 -0.1162 -0.5891
 6427SOL    HW229961   2.043   9.026   2.655 -0.7277 -0.0898  0.3654
 6428SOL     OW29962   3.658   8.769   2.941  0.5148 -0.2199 -0.0078
 6428SOL    HW129963   3.572   8.789   2.894  0.1033 -0.1332  0.7678
 6428SOL    HW229964   3.639   8.712   3.022  1.3589 -1.4359 -0.6597
 6429SOL     OW29965   5.806   6.514   2.387 -0.2907  0.6477  0.4624
 6429SOL    HW129966   5.815   6.578   2.310  1.9137  0.7335  0.7417
 6429SOL    HW229967   5.880   6.446   2.382 -1.2076 -0.4432  1.4968
 6430SOL     OW29968   1.144   8.771   2.160 -0.5713  0.2111  0.0447
 6430SOL    HW129969   1.210   8.750   2.088 -1.9322  0.8103 -1.4014
 6430SOL    HW229970   1.110   8.685   2.199  0.2990 -0.1105  0.1171
 6431SOL     OW29971   3.339   8.470   1.282  0.3846 -0.0047  0.4543
 6431SOL    HW129972   3.263   8.418   1.243  0.1483 -0.4073  1.4567
 6431SOL    HW229973   3.371   8.536   1.214 -1.0080  0.3337  0.1071
 6432SOL     OW29974   8.742   1.609   3.768  0.0025  0.3447  0.2403
 6432SOL    HW129975   8.656   1.591   3.719  0.4773  0.4237 -0.6414
 6432SOL    HW229976   8.747   1.552   3.849 -1.3600  1.1012  0.8614
 6433SOL     OW29977   3.936   4.427   1.525 -0.5728  0.4054 -0.7186
 6433SOL    HW129978   3.922   4.363   1.600 -2.4804  2.9302  1.2009
 6433SOL    HW229979   3.907   4.386   1.439 -0.9996 -1.5531  0.3475
 6434SOL     OW29980   9.265   9.986   2.859 -0.0963  0.1954  0.6339
 6434SOL    HW129981   9.230   9.898   2.829  0.2037  0.0957  0.5820
 6434SOL    HW229982   9.233  10.005   2.953 -0.7708  0.3669  0.3740
 6435SOL     OW29983   9.624   9.978   1.135 -0.1317  0.1691  0.0170
 6435SOL    HW129984   9.697   9.927   1.090  1.1304  1.9471  0.0148
 6435SOL    HW229985   9.640  10.076   1.126 -2.1342  0.5991  0.6518
 6436SOL     OW29986   1.258   1.208   1.538  0.2980 -0.1503 -0.0616
 6436SOL    HW129987   1.260   1.127   1.596  0.2219 -0.2807 -0.2393
 6436SOL    HW229988   1.188   1.271   1.572  0.0020 -0.3866 -0.2201
 6437SOL     OW29989   6.775   0.016   0.409 -0.1274  1.0963 -0.4362
 6437SOL    HW129990   6.819   0.032   0.497 -0.6207 -0.8981  0.1858
 6437SOL    HW229991   6.727  -0.072   0.410 -1.2173  1.6316 -2.2630
 6438SOL     OW29992   2.701   3.351   0.428 -0.2399 -0.0966  0.5272
 6438SOL    HW129993   2.729   3.447   0.436 -2.2496  0.4742  1.0064
 6438SOL    HW229994   2.699   3.325   0.331 -2.2701  1.1779  0.1861
 6439SOL     OW29995   3.119   4.293   0.860 -0.0400 -0.0321  0.1729
 6439SOL    HW129996   3.160   4.242   0.935  1.8167 -0.3439 -1.0097
 6439SOL    HW229997   3.138   4.390   0.871  0.0530 -0.0545  0.2145
 6440SOL     OW29998   0.934   2.216   4.356  0.1660  0.3190  0.0232
 6440SOL    HW129999   0.971   2.308   4.354 -1.3140  0.9120 -1.5350
 6440SOL    HW230000   0.855   2.210   4.294  0.3279 -2.0220 -0.0233
 6441SOL     OW30001   2.333   7.529   3.420 -0.4663  0.5324  0.1593
 6441SOL    HW130002   2.315   7.591   3.344 -2.5638 -1.0933 -0.6984
 6441SOL    HW230003   2.426   7.493   3.412 -0.7345  0.2268 -1.7527
 6442SOL     OW30004   2.062   7.277   1.919 -0.0790 -0.0671  0.4188
 6442SOL    HW130005   1.983   7.323   1.879 -0.9170  0.5095  2.7076
 6442SOL    HW230006   2.133   7.344   1.939  0.5562 -0.4310 -0.5572
 6443SOL     OW30007   1.192   3.453   0.937 -0.0835 -0.7686  0.1438
 6443SOL    HW130008   1.152   3.541   0.909 -1.7444 -1.7080 -0.4790
 6443SOL    HW230009   1.239   3.412   0.859 -1.5942 -1.6656 -0.3245
 6444SOL     OW30010   0.190   3.766   4.241  0.0810  0.3828  0.5926
 6444SOL    HW130011   0.275   3.736   4.197  1.0087  0.1734  2.4810
 6444SOL    HW230012   0.204   3.856   4.282  0.1814 -0.7501  3.0986
 6445SOL     OW30013   9.876   9.182   2.969 -0.2452  0.1323 -0.3276
 6445SOL    HW130014   9.942   9.206   2.897  0.3087 -1.4390 -0.3685
 6445SOL    HW230015   9.924   9.176   3.057 -0.7729  1.2398  0.0502
 6446SOL     OW30016   2.323   8.192   1.062 -0.4990  0.0089  0.1475
 6446SOL    HW130017   2.244   8.239   1.100  0.3848  0.8729  0.9455
 6446SOL    HW230018   2.389   8.173   1.135  0.1081 -0.5431 -0.5372
 6447SOL     OW30019   8.630   7.978   1.064 -0.6775 -0.1196  0.7237
 6447SOL    HW130020   8.719   7.950   1.028 -0.4916  0.5217  0.6874
 6447SOL    HW230021   8.559   7.956   0.997 -0.6227 -1.1595  0.9919
 6448SOL     OW30022   5.865   9.708   2.676  0.0199 -0.0026 -0.1653
 6448SOL    HW130023   5.837   9.724   2.771  3.7872 -1.2942  1.2744
 6448SOL    HW230024   5.867   9.610   2.658 -1.1654  0.2543 -1.7551
 6449SOL     OW30025   9.655   7.277   2.704 -0.0289 -0.4156 -0.3455
 6449SOL    HW130026   9.588   7.278   2.778  0.7656  0.4023  0.3855
 6449SOL    HW230027   9.738   7.229   2.734  0.4577  0.2805 -0.5505
 6450SOL     OW30028   8.651   4.831   3.968  0.6086  0.2426 -1.1628
 6450SOL    HW130029   8.674   4.740   4.004  1.1389  1.2472  1.1104
 6450SOL    HW230030   8.649   4.827   3.868  2.1910 -1.9051 -1.1556
 6451SOL     OW30031   0.267   6.382   3.419 -0.3014  0.2156 -0.0965
 6451SOL    HW130032   0.315   6.294   3.430 -0.6190  0.1868  1.1222
 6451SOL    HW230033   0.172   6.372   3.449 -0.4637  0.8586 -0.3950
 6452SOL     OW30034   2.105   0.428   4.522  0.2268 -0.2308  0.0091
 6452SOL    HW130035   2.131   0.453   4.615 -1.5446  0.8505  0.2448
 6452SOL    HW230036   2.006   0.418   4.517  0.3745 -1.0169 -1.5972
 6453SOL     OW30037   8.067   9.230   2.966 -0.0170  0.2040 -0.1302
 6453SOL    HW130038   8.044   9.133   2.958 -1.0575  0.4318 -0.0068
 6453SOL    HW230039   8.163   9.243   2.944  0.1924 -0.8902  0.0985
 6454SOL     OW30040   1.314   7.634   2.614  0.2695 -0.4227 -0.1290
 6454SOL    HW130041   1.246   7.702   2.585  0.1154 -0.3692  0.3480
 6454SOL    HW230042   1.338   7.651   2.710  2.5383  0.8917 -0.8922
 6455SOL     OW30043   0.841   2.542   4.449 -0.2911  0.5039 -0.2470
 6455SOL    HW130044   0.829   2.625   4.504  0.9511  1.2953 -1.1430
 6455SOL    HW230045   0.937   2.532   4.424 -0.7347 -0.1271 -1.8006
 6456SOL     OW30046   0.943   1.221   2.155  0.2432  0.1134  0.5929
 6456SOL    HW130047   1.032   1.251   2.189  0.6251 -0.9670  0.5786
 6456SOL    HW230048   0.870   1.274   2.199  0.9863  3.0768 -1.5478
 6457SOL     OW30049   1.408   3.620   1.097 -0.1165 -0.3060  0.2602
 6457SOL    HW130050   1.400   3.705   1.044 -0.1721  0.6373  1.7363
 6457SOL    HW230051   1.489   3.570   1.067  0.9207  1.1462  0.5378
 6458SOL     OW30052   8.280   2.218   1.426  0.1270 -0.9495  0.4865
 6458SOL    HW130053   8.338   2.169   1.362  1.3031 -0.0832  0.8764
 6458SOL    HW230054   8.327   2.300   1.458 -2.4518  1.3269 -1.3829
 6459SOL     OW30055   2.556   0.139   4.635  0.3541 -1.0553 -0.2199
 6459SOL    HW130056   2.643   0.147   4.683 -1.1340  0.1046  2.3397
 6459SOL    HW230057   2.516   0.049   4.652 -1.0023 -0.0300  2.2288
 6460SOL     OW30058   1.326   3.746   2.522  0.1303 -1.1003  0.3737
 6460SOL    HW130059   1.426   3.752   2.515  0.1857  0.1236  1.9510
 6460SOL    HW230060   1.302   3.684   2.597 -0.2790 -0.8100  0.4827
 6461SOL     OW30061   2.827   1.427   2.705  0.0259 -0.1611  0.1512
 6461SOL    HW130062   2.872   1.342   2.677  0.8295 -0.2027  1.4788
 6461SOL    HW230063   2.804   1.421   2.803 -1.4848  0.4730 -0.1525
 6462SOL     OW30064   0.457   1.617   2.507  0.0164 -0.5998 -0.4618
 6462SOL    HW130065   0.520   1.635   2.584 -0.1535  0.1381 -0.4891
 6462SOL    HW230066   0.367   1.656   2.528 -0.0141 -0.3419 -1.0606
 6463SOL     OW30067   9.452   8.457   3.115 -0.0386 -0.0415 -0.2460
 6463SOL    HW130068   9.492   8.373   3.078  0.1905 -0.0105 -0.0665
 6463SOL    HW230069   9.375   8.485   3.058 -0.0971 -0.3591 -0.3208
 6464SOL     OW30070   4.137   2.594   2.926 -0.2481 -0.4136  0.5203
 6464SOL    HW130071   4.049   2.590   2.878 -0.0241 -1.5136  0.1898
 6464SOL    HW230072   4.196   2.661   2.882 -1.0418  0.6176  0.9734
 6465SOL     OW30073   0.251   1.324   1.260  0.0463 -0.1280 -0.6769
 6465SOL    HW130074   0.221   1.283   1.346 -0.5890 -1.0146 -1.3102
 6465SOL    HW230075   0.201   1.283   1.184  2.4398 -1.1878 -1.7200
 6466SOL     OW30076   8.849   4.196   0.887 -0.0893 -0.2319 -0.2854
 6466SOL    HW130077   8.751   4.218   0.894 -0.3728  0.0510 -4.1399
 6466SOL    HW230078   8.902   4.281   0.888 -0.0587 -0.2520 -0.2436
 6467SOL     OW30079   2.192   0.109   1.831  0.3531  0.4801  0.3174
 6467SOL    HW130080   2.098   0.114   1.864 -0.0690  0.6487 -0.8927
 6467SOL    HW230081   2.245   0.050   1.891 -0.3663  0.8967  1.3724
 6468SOL     OW30082   2.621   5.281   0.469  0.4315 -0.3018 -0.0589
 6468SOL    HW130083   2.685   5.311   0.399  1.1408 -1.7248 -0.0443
 6468SOL    HW230084   2.643   5.325   0.556  0.8884 -0.1587 -0.2469
 6469SOL     OW30085   4.606   0.522   0.431  0.3847 -0.0492 -0.1808
 6469SOL    HW130086   4.664   0.532   0.512 -0.0472 -0.0576  0.1255
 6469SOL    HW230087   4.596   0.424   0.409 -0.5570 -0.1150  0.5163
 6470SOL     OW30088   2.634   3.611   0.859  0.1159 -0.0721  0.0660
 6470SOL    HW130089   2.617   3.555   0.778  2.4598 -1.1380  0.2647
 6470SOL    HW230090   2.548   3.628   0.907 -0.7461 -2.9615 -0.3622
 6471SOL     OW30091   3.586   5.729   3.552 -0.4467  0.3503 -0.1120
 6471SOL    HW130092   3.596   5.816   3.601 -0.6407  0.0851  0.4022
 6471SOL    HW230093   3.497   5.728   3.504 -0.4095  0.4670 -0.1832
 6472SOL     OW30094   2.552   7.666   4.098  0.2526 -0.6295  0.4080
 6472SOL    HW130095   2.618   7.591   4.095  0.4449 -0.4428 -0.0437
 6472SOL    HW230096   2.576   7.728   4.172  1.3450  0.1342 -0.5660
 6473SOL     OW30097   1.192   9.714   0.979 -0.2699  0.2294  0.4309
 6473SOL    HW130098   1.243   9.746   1.058 -0.3209  0.4018  0.3930
 6473SOL    HW230099   1.147   9.791   0.934 -0.0035  0.1724  0.0633
 6474SOL     OW30100   8.546   4.239   2.224  0.9140 -0.0336  0.4097
 6474SOL    HW130101   8.464   4.206   2.271  0.3079 -0.1130 -0.6774
 6474SOL    HW230102   8.576   4.324   2.266 -0.2501  0.4625  0.2638
 6475SOL     OW30103   0.200   5.843   2.090 -0.1011 -0.4015  0.2467
 6475SOL    HW130104   0.140   5.831   2.011  0.2749 -0.2653 -0.0639
 6475SOL    HW230105   0.145   5.859   2.172 -0.4570  1.0402 -0.2660
 6476SOL     OW30106   8.579   7.402   0.634 -0.2151  0.8230 -0.3662
 6476SOL    HW130107   8.488   7.440   0.620 -0.1472  0.6520 -1.3052
 6476SOL    HW230108   8.637   7.469   0.681 -0.9295  0.7863  0.5774
 6477SOL     OW30109   9.341   8.929   1.655 -0.4223 -0.4423  0.2483
 6477SOL    HW130110   9.323   8.849   1.597  0.1452 -0.6450  0.3545
 6477SOL    HW230111   9.291   9.007   1.619  0.1250 -0.5037 -0.6626
 6478SOL     OW30112   9.188   2.607   3.243  0.0509 -0.5553  0.0959
 6478SOL    HW130113   9.247   2.661   3.183  2.3152 -1.5416  1.3681
 6478SOL    HW230114   9.118   2.666   3.284  0.7213  0.8195 -0.7262
 6479SOL     OW30115   8.809   6.925   2.432  0.0449  0.3021  1.5358
 6479SOL    HW130116   8.762   6.843   2.462 -0.1242 -0.5960 -1.1234
 6479SOL    HW230117   8.747   6.983   2.379  1.7878 -0.8558 -1.9247
 6480SOL     OW30118   2.442   0.391   4.761 -0.5985  0.6908 -0.5535
 6480SOL    HW130119   2.402   0.359   4.847 -1.5942  1.6814 -0.6365
 6480SOL    HW230120   2.493   0.317   4.718  0.1988  0.2817  1.0615
 6481SOL     OW30121   2.347   5.231   1.820 -0.4080 -0.0941 -0.2836
 6481SOL    HW130122   2.394   5.217   1.908  1.2517  0.2930 -1.0875
 6481SOL    HW230123   2.257   5.188   1.823  0.1282 -1.1531  1.1855
 6482SOL     OW30124   2.195   5.134   4.074 -0.2955  0.4857 -0.2091
 6482SOL    HW130125   2.206   5.228   4.042 -0.9966  0.7605  0.3428
 6482SOL    HW230126   2.212   5.130   4.172  0.5738 -0.1215 -0.3827
 6483SOL     OW30127   3.161   6.080   0.722 -0.5174  0.2705  0.4707
 6483SOL    HW130128   3.164   6.167   0.674  0.3652  1.0337  1.9003
 6483SOL    HW230129   3.165   6.095   0.821 -2.3849 -1.2758  0.8167
 6484SOL     OW30130   0.004   2.224   0.573 -0.3054 -0.3180 -0.0471
 6484SOL    HW130131  -0.024   2.317   0.546 -1.1109 -0.4663  0.2681
 6484SOL    HW230132   0.101   2.224   0.594 -0.5831  0.7732  1.3064
 6485SOL     OW30133   3.015   2.224   0.728  0.1561 -0.2325  0.4189
 6485SOL    HW130134   3.094   2.272   0.767  2.5496 -3.2973 -0.4397
 6485SOL    HW230135   3.034   2.203   0.632 -2.2975  0.1265 -0.1737
 6486SOL     OW30136   1.975   0.162   2.550  0.5907 -0.6035 -0.0731
 6486SOL    HW130137   1.906   0.099   2.514  1.6560 -2.1826  0.6158
 6486SOL    HW230138   2.050   0.110   2.590  1.0784  1.1089  1.2897
 6487SOL     OW30139   5.825   9.799   2.948  0.0373 -0.7913  0.1881
 6487SOL    HW130140   5.744   9.776   3.002 -0.5772 -2.0446 -1.2328
 6487SOL    HW230141   5.895   9.840   3.008 -1.7406  0.5694  1.3698
 6488SOL     OW30142   1.424   2.883   2.028 -0.3402 -0.2678  0.1513
 6488SOL    HW130143   1.521   2.858   2.030 -0.8375 -2.1638  1.5448
 6488SOL    HW230144   1.383   2.855   1.942  0.6287  1.7229 -0.9939
 6489SOL     OW30145   0.357   2.730   1.822 -0.1711  0.8251 -0.1069
 6489SOL    HW130146   0.387   2.695   1.733  1.3953  0.8411  0.3919
 6489SOL    HW230147   0.430   2.785   1.862 -0.7993  0.6705  1.2785
 6490SOL     OW30148   3.578   8.267   4.389  0.0186  0.5537 -0.2942
 6490SOL    HW130149   3.493   8.319   4.383 -1.0452 -1.2135 -1.2018
 6490SOL    HW230150   3.639   8.293   4.315 -0.1407  1.1337 -0.2218
 6491SOL     OW30151   7.468   6.173   3.339 -0.3673  0.9412  0.0512
 6491SOL    HW130152   7.510   6.263   3.347  1.2900  0.0528  1.7027
 6491SOL    HW230153   7.515   6.120   3.269  0.8580  0.1896  1.4227
 6492SOL     OW30154   1.685   1.153   0.792  0.5966 -0.3361 -0.4016
 6492SOL    HW130155   1.607   1.091   0.801 -0.5819  0.9326 -1.6283
 6492SOL    HW230156   1.676   1.228   0.856  1.6556 -1.0136  0.5736
 6493SOL     OW30157   4.930   1.144   4.341 -1.0381  0.0101 -0.8128
 6493SOL    HW130158   5.015   1.154   4.289 -0.5775 -0.9531 -0.2524
 6493SOL    HW230159   4.887   1.234   4.352  1.7847  1.0984  2.0571
 6494SOL     OW30160   2.709   2.769   4.180  0.2059 -0.2168  0.2083
 6494SOL    HW130161   2.790   2.826   4.169 -0.0529  0.0713 -0.1892
 6494SOL    HW230162   2.645   2.785   4.105 -0.4444 -0.0706  0.7813
 6495SOL     OW30163   0.541   1.072   0.579  0.2561  0.2262 -0.4208
 6495SOL    HW130164   0.544   1.164   0.617 -1.8306  0.7282 -1.4492
 6495SOL    HW230165   0.604   1.065   0.502  1.6433  0.2885  0.6771
 6496SOL     OW30166   1.942   8.414   0.665  0.9087  0.2150  0.0364
 6496SOL    HW130167   2.018   8.394   0.727  1.2888  2.5346  0.3597
 6496SOL    HW230168   1.861   8.363   0.694  1.5528 -0.0294  1.4422
 6497SOL     OW30169   2.462   0.188   2.838 -0.7159  0.2023 -0.7758
 6497SOL    HW130170   2.427   0.204   2.930 -0.0716 -2.3045 -0.0749
 6497SOL    HW230171   2.447   0.270   2.782 -1.4356  1.6120  1.4341
 6498SOL     OW30172   0.194   1.912   2.808 -0.4468  0.2513  0.1193
 6498SOL    HW130173   0.165   1.830   2.758  0.7963 -0.3638  0.3834
 6498SOL    HW230174   0.160   1.993   2.761 -0.1539 -0.3574 -1.1680
 6499SOL     OW30175   4.347   0.114   4.135 -0.3217  0.6080 -0.2500
 6499SOL    HW130176   4.266   0.111   4.193 -0.6749  0.8717 -0.7330
 6499SOL    HW230177   4.364   0.024   4.095  0.4366  0.1974  0.9701
 6500SOL     OW30178   8.054   1.518   4.711  0.7901  0.6970 -0.3311
 6500SOL    HW130179   8.071   1.518   4.809 -1.3606 -3.7720  0.1765
 6500SOL    HW230180   7.989   1.590   4.689  0.1039  0.7677  1.7982
 6501SOL     OW30181   2.293   9.131   0.778  0.4725 -0.0922 -0.1191
 6501SOL    HW130182   2.240   9.203   0.735  0.3484  0.0987  0.3534
 6501SOL    HW230183   2.363   9.098   0.714  2.2764  2.2651  0.5424
 6502SOL     OW30184   4.184   1.557   2.066 -0.0302 -0.0672  0.0049
 6502SOL    HW130185   4.195   1.494   1.989  0.1152  0.7999 -0.6999
 6502SOL    HW230186   4.248   1.633   2.055 -0.5961  0.4906  0.5447
 6503SOL     OW30187   2.301   7.113   2.785 -0.1668 -0.1424  0.1077
 6503SOL    HW130188   2.222   7.088   2.841  0.6950  1.2102  1.9551
 6503SOL    HW230189   2.273   7.180   2.717 -0.8332 -0.4615  0.0598
 6504SOL     OW30190   3.405   0.937   3.736 -0.1503  0.8216 -0.2207
 6504SOL    HW130191   3.334   1.005   3.719 -1.3919 -0.4287 -0.1568
 6504SOL    HW230192   3.399   0.864   3.667  0.0823 -0.0726  0.6846
 6505SOL     OW30193   5.217   9.791   2.351 -0.4466 -0.0211 -0.1040
 6505SOL    HW130194   5.120   9.772   2.361  0.0944 -2.4325  0.9196
 6505SOL    HW230195   5.242   9.866   2.412 -1.3670 -0.4601  0.8306
 6506SOL     OW30196   8.450   8.553   4.134  0.4975 -0.0547 -0.1408
 6506SOL    HW130197   8.497   8.577   4.219 -0.6955 -2.0105  1.0849
 6506SOL    HW230198   8.470   8.458   4.111  0.9500  0.5074 -2.1739
 6507SOL     OW30199   8.365   8.840   3.464 -0.6343 -0.2604  0.8580
 6507SOL    HW130200   8.449   8.808   3.419 -1.2248 -0.8794  0.1789
 6507SOL    HW230201   8.294   8.771   3.454 -1.6111  0.8077  0.3062
 6508SOL     OW30202   9.452   5.198   1.043  0.0694 -0.1573 -0.3579
 6508SOL    HW130203   9.503   5.113   1.028  0.3800 -0.2480  1.1895
 6508SOL    HW230204   9.379   5.182   1.109  0.6844  0.9785  0.6272
 6509SOL     OW30205   2.633   3.884   4.568 -0.1144  0.4015 -0.5706
 6509SOL    HW130206   2.618   3.983   4.569  0.1602  0.4381  0.1400
 6509SOL    HW230207   2.603   3.847   4.481  1.2205  1.3317 -1.4482
 6510SOL     OW30208   0.904   4.847   1.967 -0.4302 -0.2896  0.6276
 6510SOL    HW130209   0.808   4.847   1.996  0.0538  0.8650  2.2833
 6510SOL    HW230210   0.910   4.868   1.870 -1.8698 -0.5907  0.4674
 6511SOL     OW30211   4.401   3.494   1.814 -0.0865  0.0344  0.2319
 6511SOL    HW130212   4.426   3.539   1.900 -0.2573  0.5621  0.0073
 6511SOL    HW230213   4.319   3.439   1.828 -0.7318  0.9702  0.1469
 6512SOL     OW30214   3.044   7.361   0.124  0.0950  0.3977  0.5398
 6512SOL    HW130215   2.980   7.415   0.069 -1.9088 -2.6924 -0.2797
 6512SOL    HW230216   2.998   7.331   0.208  0.9670 -0.6264  0.6523
 6513SOL     OW30217   1.850   4.210   0.551 -0.4518  0.1064 -0.6411
 6513SOL    HW130218   1.854   4.123   0.599  1.0168  1.7136  2.2957
 6513SOL    HW230219   1.900   4.204   0.465  1.2612 -1.4145  0.4429
 6514SOL     OW30220   2.951   7.789   0.153 -0.2556  0.5960 -0.3031
 6514SOL    HW130221   3.022   7.772   0.221 -0.5850  0.8905  0.1228
 6514SOL    HW230222   2.952   7.886   0.128  1.2971  0.0930 -2.3498
 6515SOL     OW30223   3.407   0.017   1.770 -0.4364  0.2296  0.4697
 6515SOL    HW130224   3.369  -0.068   1.805  0.1111 -0.0849  0.2967
 6515SOL    HW230225   3.413   0.084   1.845  0.3191 -0.2936  0.8790
 6516SOL     OW30226   8.562   9.142   3.744 -0.7478  0.3123 -0.0122
 6516SOL    HW130227   8.656   9.174   3.758 -1.1408  0.4800  2.3684
 6516SOL    HW230228   8.554   9.047   3.773 -1.3592  0.3502 -0.0549
 6517SOL     OW30229   1.259   4.998   4.501 -0.0010 -0.4185  0.0372
 6517SOL    HW130230   1.240   5.034   4.592  0.0365 -1.7552  0.5899
 6517SOL    HW230231   1.226   5.062   4.432  0.2621  0.7585  0.9860
 6518SOL     OW30232   8.504   5.495   4.490 -0.1632  0.3082 -0.4280
 6518SOL    HW130233   8.601   5.504   4.468  0.0164 -1.1793 -0.2378
 6518SOL    HW230234   8.474   5.576   4.540  1.1112  0.5227  0.0104
 6519SOL     OW30235   8.927   4.091   2.323  0.3841  0.0768 -0.3065
 6519SOL    HW130236   8.909   4.176   2.274  2.8499  1.1193  0.5480
 6519SOL    HW230237   8.843   4.036   2.325 -1.2743  2.5110 -0.7672
 6520SOL     OW30238   0.909   1.543   3.749 -0.0016 -0.1359  0.1904
 6520SOL    HW130239   0.831   1.521   3.690  0.9863 -1.8817 -0.4969
 6520SOL    HW230240   0.978   1.593   3.696 -0.3098  0.7382  0.6015
 6521SOL     OW30241   8.893   4.760   1.697  0.2768 -0.2757  0.3420
 6521SOL    HW130242   8.978   4.744   1.648 -1.7654  0.8385 -3.7775
 6521SOL    HW230243   8.869   4.857   1.692 -1.3194 -0.5981  1.3347
 6522SOL     OW30244   2.732   3.544   2.958 -0.4375 -0.0042  0.5840
 6522SOL    HW130245   2.725   3.534   2.858 -0.6979 -0.0749  0.6105
 6522SOL    HW230246   2.737   3.454   3.000 -1.9248 -0.0069  0.7574
 6523SOL     OW30247   1.694   8.570   2.686  0.5467 -0.3919  0.2540
 6523SOL    HW130248   1.698   8.562   2.786 -2.5315 -0.3397  0.4135
 6523SOL    HW230249   1.689   8.667   2.661  1.8478 -0.3772 -0.0156
 6524SOL     OW30250   9.734   3.757   4.529 -0.7318 -0.6665 -0.4804
 6524SOL    HW130251   9.684   3.830   4.575  0.2496 -1.1327  1.3866
 6524SOL    HW230252   9.804   3.721   4.590  0.7388 -1.2145 -2.4174
 6525SOL     OW30253   2.579   9.867   1.412 -0.2712  0.6085 -0.1714
 6525SOL    HW130254   2.590   9.855   1.510 -0.5560  1.5202 -0.0219
 6525SOL    HW230255   2.668   9.883   1.370 -0.1881  0.5628 -0.0119
 6526SOL     OW30256   5.836   0.841   2.756 -0.2211 -0.1339 -0.5521
 6526SOL    HW130257   5.928   0.817   2.786 -0.0486 -0.0016 -0.9736
 6526SOL    HW230258   5.769   0.790   2.810  0.0930 -0.0645 -0.1000
 6527SOL     OW30259   9.055   8.215   0.837 -0.2498 -0.5677 -0.2036
 6527SOL    HW130260   8.959   8.190   0.820  0.2517 -2.1038 -0.8833
 6527SOL    HW230261   9.069   8.311   0.811 -1.6897 -0.2000  0.2956
 6528SOL     OW30262   9.631   3.373   3.843 -0.4742  0.0799 -0.3171
 6528SOL    HW130263   9.535   3.362   3.819 -0.4248  0.4417 -0.6902
 6528SOL    HW230264   9.645   3.348   3.939 -1.3160  1.9321  0.3033
 6529SOL     OW30265   8.614   0.615   1.010 -0.1690 -0.0379  0.4390
 6529SOL    HW130266   8.649   0.586   1.099  0.5866  0.9628  0.4774
 6529SOL    HW230267   8.671   0.578   0.938 -1.0113 -1.1759  0.3397
 6530SOL     OW30268   3.927   2.977   1.764 -0.0255  0.0747 -0.2420
 6530SOL    HW130269   3.927   3.062   1.817 -2.3937 -1.1393  1.8190
 6530SOL    HW230270   4.010   2.925   1.784 -0.0652  0.4552  0.9428
 6531SOL     OW30271   7.575   7.617   2.174 -0.0304  0.1442  0.2843
 6531SOL    HW130272   7.560   7.716   2.171  0.1404  0.1741  0.3982
 6531SOL    HW230273   7.607   7.585   2.085  1.1893  0.4011  0.6258
 6532SOL     OW30274   1.630   4.426   3.940  0.0272 -0.2851  0.3012
 6532SOL    HW130275   1.582   4.429   4.027  0.8162 -0.0429  0.7338
 6532SOL    HW230276   1.707   4.490   3.941 -0.1270 -0.0700 -0.6728
 6533SOL     OW30277   6.999   9.205   1.883  0.0180 -0.2730 -0.2724
 6533SOL    HW130278   7.004   9.189   1.785 -0.3915  0.5756 -0.4392
 6533SOL    HW230279   7.061   9.143   1.931  0.5099 -0.4205 -1.0967
 6534SOL     OW30280   9.850   9.691   2.611  0.0395 -0.4098 -0.0732
 6534SOL    HW130281   9.757   9.662   2.588 -0.3610  2.8263 -2.8115
 6534SOL    HW230282   9.847   9.766   2.677  0.7620 -1.0797  0.7363
 6535SOL     OW30283   1.345   3.345   2.625 -0.3234 -0.4780 -0.4254
 6535SOL    HW130284   1.279   3.286   2.672 -1.7217  0.1190 -1.5674
 6535SOL    HW230285   1.424   3.362   2.684 -1.9292  0.0828  1.6296
 6536SOL     OW30286   3.172   6.908   2.774  0.1760 -0.2119  0.3799
 6536SOL    HW130287   3.212   7.000   2.768 -0.4797  0.0287 -0.6428
 6536SOL    HW230288   3.230   6.843   2.725  1.2801 -0.5735  2.1692
 6537SOL     OW30289   4.510   4.538   0.827 -0.4314  0.0534  0.2978
 6537SOL    HW130290   4.428   4.590   0.802 -1.0536  0.6122  3.2758
 6537SOL    HW230291   4.486   4.442   0.840 -0.4021  0.0358  0.2258
 6538SOL     OW30292   8.781   2.628   0.426 -0.5570 -0.7043  0.0709
 6538SOL    HW130293   8.793   2.529   0.420 -1.9332 -0.8897  0.1994
 6538SOL    HW230294   8.846   2.673   0.365  1.2153 -1.6061  1.2458
 6539SOL     OW30295   8.937   9.452   0.695 -0.1403  0.5985 -0.1214
 6539SOL    HW130296   8.994   9.405   0.629  1.7102  0.0825  1.7955
 6539SOL    HW230297   8.844   9.416   0.691  0.3415 -0.5268 -1.3143
 6540SOL     OW30298   1.155   7.552   1.172 -0.5913 -0.5186  0.7271
 6540SOL    HW130299   1.058   7.535   1.185 -1.0079  0.6986 -0.6703
 6540SOL    HW230300   1.172   7.576   1.076  0.6397  2.2516  1.6054
 6541SOL     OW30301   4.999   0.080   4.265 -0.1047 -0.4651  0.0094
 6541SOL    HW130302   5.054  -0.003   4.251 -0.9300 -0.8672 -0.9161
 6541SOL    HW230303   4.915   0.074   4.211 -0.1231  1.0239 -0.1592
 6542SOL     OW30304   7.223   6.102   3.230 -0.3067 -0.4030 -0.0734
 6542SOL    HW130305   7.303   6.117   3.289  0.3906 -1.8961 -0.6187
 6542SOL    HW230306   7.148   6.161   3.260  0.8271  0.6318  0.7772
 6543SOL     OW30307   3.353   2.676   2.404 -0.0999 -0.6492 -1.2080
 6543SOL    HW130308   3.417   2.693   2.478 -0.7483 -0.2681 -0.7291
 6543SOL    HW230309   3.325   2.580   2.405  0.2847 -0.7626 -1.2772
 6544SOL     OW30310   4.985   7.278   2.982 -0.1327 -0.9227 -0.1870
 6544SOL    HW130311   5.010   7.311   2.891 -0.1054  2.7122  1.0634
 6544SOL    HW230312   5.067   7.257   3.034  0.0314  0.9437  0.3507
 6545SOL     OW30313   8.733   7.474   2.623  0.4478  0.2238 -0.1532
 6545SOL    HW130314   8.637   7.502   2.636  0.2055 -0.7991  0.3885
 6545SOL    HW230315   8.783   7.487   2.708  1.0472  1.7037 -0.7274
 6546SOL     OW30316   0.603   8.290   1.476  0.0225  0.3227 -0.0801
 6546SOL    HW130317   0.539   8.360   1.446 -0.8772 -0.7952 -0.8053
 6546SOL    HW230318   0.679   8.333   1.526 -0.4514  1.8069 -0.6182
 6547SOL     OW30319   3.046   9.055   3.874  0.4511  0.7842  1.0972
 6547SOL    HW130320   2.976   9.116   3.912 -0.4327 -0.1820  1.0307
 6547SOL    HW230321   3.050   8.971   3.928  0.0753 -0.0579 -0.1676
 6548SOL     OW30322   0.435   6.845   1.564  0.5571  0.2182 -0.0820
 6548SOL    HW130323   0.347   6.803   1.586  0.3138  0.1740 -1.0969
 6548SOL    HW230324   0.504   6.815   1.629 -0.3353  0.8167  1.1632
 6549SOL     OW30325   2.022   1.518   3.968 -0.1175  1.0971  0.0086
 6549SOL    HW130326   1.941   1.550   3.917 -0.5815  0.4129  0.3112
 6549SOL    HW230327   2.003   1.428   4.007  0.3354  1.4914  1.1605
 6550SOL     OW30328   9.007   1.719   2.567 -0.2618  0.2191 -0.4008
 6550SOL    HW130329   8.917   1.682   2.589 -0.3508  0.7905  0.2192
 6550SOL    HW230330   9.013   1.814   2.600  0.5741  0.1707 -0.4015
 6551SOL     OW30331   4.487   4.181   4.478  0.6323 -0.8094 -0.9042
 6551SOL    HW130332   4.518   4.166   4.384  3.1126 -2.4542  0.1203
 6551SOL    HW230333   4.414   4.116   4.500 -0.1442 -0.2362 -1.7606
 6552SOL     OW30334   0.471   1.603   4.692 -0.3262  0.7640  0.1979
 6552SOL    HW130335   0.509   1.519   4.653 -0.8824 -1.0409  3.4198
 6552SOL    HW230336   0.376   1.613   4.663 -0.6583 -0.4082  0.8872
 6553SOL     OW30337   0.336   9.116   3.756 -0.6342  0.4996  0.7836
 6553SOL    HW130338   0.292   9.088   3.671 -0.5226  0.5726  0.7010
 6553SOL    HW230339   0.391   9.041   3.792 -1.1885  0.2513  1.1283
 6554SOL     OW30340   2.262   5.217   2.321 -0.4349 -0.8748 -0.7850
 6554SOL    HW130341   2.271   5.257   2.412  0.8039 -0.8773 -0.8870
 6554SOL    HW230342   2.262   5.290   2.252 -3.7057 -0.7140 -0.6744
 6555SOL     OW30343   2.056   5.433   2.717 -0.2675 -0.0445 -0.5223
 6555SOL    HW130344   2.060   5.531   2.698  2.0319 -0.0380 -0.0648
 6555SOL    HW230345   1.971   5.396   2.679 -0.5848  1.8867 -1.7722
 6556SOL     OW30346   0.665   1.219   4.166  0.0939 -0.1170  0.2743
 6556SOL    HW130347   0.730   1.277   4.216  0.0837 -0.2583  0.4545
 6556SOL    HW230348   0.700   1.125   4.164 -0.1391 -0.2055  0.4306
 6557SOL     OW30349   8.089   9.951   1.911 -0.6522 -0.6696  0.7210
 6557SOL    HW130350   8.157   9.878   1.899 -0.8564 -0.8659  0.7489
 6557SOL    HW230351   8.130  10.039   1.888 -0.7350 -0.9182 -0.4233
 6558SOL     OW30352   2.585   9.942   0.103  0.0504  0.0856 -0.1998
 6558SOL    HW130353   2.682   9.960   0.090  0.5830 -1.1667  1.8104
 6558SOL    HW230354   2.547   9.904   0.019  1.6016 -0.6317 -0.5939
 6559SOL     OW30355   2.703   5.477   4.031 -0.0291  0.2165 -0.1215
 6559SOL    HW130356   2.653   5.503   4.114 -2.1868 -1.4466 -0.8417
 6559SOL    HW230357   2.743   5.558   3.989 -1.8134  1.5538  0.6958
 6560SOL     OW30358   4.554   0.891   2.944 -0.2742  0.5897  0.0878
 6560SOL    HW130359   4.578   0.892   2.847 -3.1442  1.2486 -0.6690
 6560SOL    HW230360   4.479   0.826   2.959  1.8016 -1.4333  2.3491
 6561SOL     OW30361   1.664   8.396   3.632  0.7284 -0.2218  0.5812
 6561SOL    HW130362   1.683   8.310   3.678 -0.5442  0.4147  2.3507
 6561SOL    HW230363   1.631   8.379   3.540  1.3577 -1.5818  0.6028
 6562SOL     OW30364   7.410   6.625   3.739  0.2785  0.0888  0.4463
 6562SOL    HW130365   7.391   6.538   3.693  0.2340  1.0278 -1.3871
 6562SOL    HW230366   7.508   6.631   3.758  0.5197  0.2435 -0.7652
 6563SOL     OW30367   1.989   6.926   0.267  0.1813 -0.3389 -0.0696
 6563SOL    HW130368   2.024   6.985   0.340  0.1022 -1.9833  1.3588
 6563SOL    HW230369   2.064   6.903   0.205 -0.0455  2.1629 -1.3013
 6564SOL     OW30370   4.521   2.443   1.758 -0.5581  0.4970  0.5687
 6564SOL    HW130371   4.590   2.416   1.690  1.4788  2.0827  1.9432
 6564SOL    HW230372   4.451   2.500   1.714 -0.8475 -0.8462 -0.7727
 6565SOL     OW30373   1.914   1.024   2.969 -0.1002 -0.7083 -0.1478
 6565SOL    HW130374   1.864   1.088   3.028 -1.0609 -1.5990  0.0071
 6565SOL    HW230375   1.918   1.062   2.877  1.2146  0.5877  0.4200
 6566SOL     OW30376   7.667   9.449   1.025 -0.1563  0.1191  0.1885
 6566SOL    HW130377   7.674   9.419   0.930  1.0519  1.6684 -0.2347
 6566SOL    HW230378   7.576   9.428   1.061 -0.5772 -0.5775 -1.2696
 6567SOL     OW30379   1.463   4.430   1.328  0.6607  0.4257  0.0315
 6567SOL    HW130380   1.458   4.390   1.236 -0.5814 -1.0471  0.7210
 6567SOL    HW230381   1.556   4.420   1.363  0.8206 -0.2133 -0.5478
 6568SOL     OW30382   2.421   0.933   2.686 -0.4064 -0.4204 -0.7445
 6568SOL    HW130383   2.414   1.020   2.638  0.4369  1.0538  1.6685
 6568SOL    HW230384   2.482   0.872   2.636  2.2311  1.8732 -0.4683
 6569SOL     OW30385   3.219   5.783   1.863 -0.0164 -0.2026 -0.3882
 6569SOL    HW130386   3.208   5.735   1.950  1.2076 -0.6948 -0.4877
 6569SOL    HW230387   3.248   5.718   1.793 -0.2633  0.3277 -0.9793
 6570SOL     OW30388   1.395   6.479   3.727  0.0044 -0.0161 -0.3046
 6570SOL    HW130389   1.466   6.451   3.662 -0.1720  0.3050 -0.6402
 6570SOL    HW230390   1.327   6.406   3.736  0.4520 -0.3766  0.1192
 6571SOL     OW30391   7.538   0.352   3.258  0.0444 -0.0788 -0.5111
 6571SOL    HW130392   7.485   0.335   3.175 -1.5434 -0.2872  0.5266
 6571SOL    HW230393   7.635   0.337   3.239 -0.4446 -1.6602 -1.9307
 6572SOL     OW30394   2.201   5.387   3.437 -0.4776 -0.0795  0.3133
 6572SOL    HW130395   2.245   5.453   3.497 -1.4986 -2.0025  3.2464
 6572SOL    HW230396   2.104   5.409   3.428 -0.2496  0.4360 -0.9885
 6573SOL     OW30397   3.431   3.293   1.549 -0.6762  0.4747  0.5851
 6573SOL    HW130398   3.416   3.378   1.599 -0.3726  0.0767  1.3611
 6573SOL    HW230399   3.466   3.314   1.458 -0.3828  1.1736  0.8525
 6574SOL     OW30400   3.470   4.921   2.029 -0.0298  0.1439 -0.2638
 6574SOL    HW130401   3.541   4.956   1.968 -0.6842  1.2552 -0.4186
 6574SOL    HW230402   3.381   4.958   2.000 -0.4704 -0.0683  0.8017
 6575SOL     OW30403   0.598   4.647   1.220 -0.5395  0.0705 -0.3731
 6575SOL    HW130404   0.528   4.689   1.279 -0.6167  1.3522 -1.3585
 6575SOL    HW230405   0.606   4.700   1.136  0.7900 -0.7690 -0.7789
 6576SOL     OW30406   2.327   2.292   0.671 -0.1593 -0.0692 -0.4956
 6576SOL    HW130407   2.349   2.195   0.682 -1.1544 -0.4333 -1.6481
 6576SOL    HW230408   2.314   2.313   0.575  1.3006  1.5073 -0.3764
 6577SOL     OW30409   9.968   9.869   1.515 -0.2799  0.6333 -0.1475
 6577SOL    HW130410  10.059   9.838   1.543 -0.6035 -0.7547 -0.5926
 6577SOL    HW230411   9.959   9.967   1.532  0.3659  0.2947  2.3986
 6578SOL     OW30412   2.822   6.140   3.038  0.0946 -0.2691 -0.2590
 6578SOL    HW130413   2.866   6.223   3.072  0.4177 -1.0899  1.3766
 6578SOL    HW230414   2.805   6.078   3.114 -3.5377 -0.1600 -0.8929
 6579SOL     OW30415   3.927   4.760   1.541  0.2076 -0.0444  0.0207
 6579SOL    HW130416   3.861   4.688   1.522 -1.7089  1.6218  0.1829
 6579SOL    HW230417   3.902   4.807   1.626  1.0742  1.2057 -0.4043
 6580SOL     OW30418   2.849   3.944   1.442  0.2148 -0.0454 -0.2130
 6580SOL    HW130419   2.806   3.907   1.524 -1.2190 -0.1092 -0.9699
 6580SOL    HW230420   2.947   3.926   1.444 -0.0485 -1.4069  0.7404
 6581SOL     OW30421   8.823   5.210   2.090 -0.0070 -0.3976  0.1496
 6581SOL    HW130422   8.753   5.158   2.040  0.2225 -1.1351  0.5795
 6581SOL    HW230423   8.831   5.301   2.051 -0.9434 -0.4322 -0.1524
 6582SOL     OW30424   1.443   1.358   4.442  0.0858  0.6219 -0.2936
 6582SOL    HW130425   1.413   1.280   4.388 -0.2751  1.5283 -1.4347
 6582SOL    HW230426   1.392   1.362   4.528  1.8527 -1.8110  0.9433
 6583SOL     OW30427   2.708   7.070   0.949  0.1828  0.4501 -0.1466
 6583SOL    HW130428   2.729   7.167   0.935  1.8935  0.1517  0.1922
 6583SOL    HW230429   2.755   7.016   0.879 -1.3903 -0.0987 -0.8115
 6584SOL     OW30430   8.701   5.019   2.633  0.3517 -0.0150 -0.3266
 6584SOL    HW130431   8.791   5.029   2.676  0.3392 -0.4661 -0.1907
 6584SOL    HW230432   8.642   5.095   2.660  1.4307  1.5424 -2.2831
 6585SOL     OW30433   0.386   0.999   3.410 -0.4490  0.2450  0.4496
 6585SOL    HW130434   0.459   0.939   3.377  0.9611  2.7210 -1.1329
 6585SOL    HW230435   0.300   0.973   3.368  0.2053 -0.4514 -0.4940
 6586SOL     OW30436   2.625   3.280   3.144 -0.0392  0.2540 -0.7040
 6586SOL    HW130437   2.659   3.199   3.192 -1.2716 -0.5474 -1.1547
 6586SOL    HW230438   2.568   3.334   3.206  1.4282  1.2338 -0.1580
 6587SOL     OW30439   4.735   1.326   3.500 -0.2448  0.0158 -0.3838
 6587SOL    HW130440   4.668   1.287   3.562 -0.3645  0.6562 -0.1135
 6587SOL    HW230441   4.792   1.252   3.462 -0.5742 -0.4373  0.0002
 6588SOL     OW30442   4.338   0.028   0.822 -0.2641 -0.5836 -0.2929
 6588SOL    HW130443   4.257   0.082   0.844 -0.2133 -0.3808 -0.6001
 6588SOL    HW230444   4.382   0.066   0.741 -0.1208 -0.9738 -0.3975
 6589SOL     OW30445   7.012   7.597   3.150 -0.9132 -0.4408 -0.0795
 6589SOL    HW130446   7.047   7.605   3.057 -1.4442 -1.6257 -0.3887
 6589SOL    HW230447   6.932   7.657   3.160 -0.2861  0.4074 -0.0945
 6590SOL     OW30448   3.257   4.122   1.017 -0.1613 -0.4419 -0.1784
 6590SOL    HW130449   3.231   4.117   1.114  0.8892 -0.6660  0.0980
 6590SOL    HW230450   3.294   4.034   0.988  1.2649  0.1699 -0.2708
 6591SOL     OW30451   9.626   7.063   2.244  0.2296 -0.0640  0.2472
 6591SOL    HW130452   9.721   7.083   2.270 -0.3585  1.7393  1.1030
 6591SOL    HW230453   9.573   7.148   2.247 -1.3318 -1.0016 -0.5801
 6592SOL     OW30454   7.333   9.840   4.147  0.4999 -0.4043 -0.0287
 6592SOL    HW130455   7.316   9.829   4.245 -0.1325 -1.0144 -0.2002
 6592SOL    HW230456   7.352   9.936   4.126 -0.4743 -0.0844  0.5272
 6593SOL     OW30457   2.873   8.984   3.363  0.2307 -0.2217  0.2149
 6593SOL    HW130458   2.800   8.937   3.412 -0.1887 -0.4533 -0.6205
 6593SOL    HW230459   2.898   8.931   3.282  2.2651 -0.8187  1.2172
 6594SOL     OW30460   8.368   3.704   0.520 -0.5909 -0.4273 -0.3750
 6594SOL    HW130461   8.301   3.707   0.594  0.0546  0.2811  0.1838
 6594SOL    HW230462   8.385   3.608   0.494  1.0062 -0.8349  2.0600
 6595SOL     OW30463   2.640   9.232   3.218 -0.2441  0.4206  0.2502
 6595SOL    HW130464   2.694   9.313   3.243  1.6274 -1.3941  2.2754
 6595SOL    HW230465   2.606   9.188   3.301 -2.9263  0.2035 -0.9254
 6596SOL     OW30466   4.312   1.880   4.357 -0.4949  0.1214 -0.0932
 6596SOL    HW130467   4.323   1.974   4.324  1.4344  0.0278  0.2508
 6596SOL    HW230468   4.401   1.836   4.363 -0.9598 -0.5184  3.3507
 6597SOL     OW30469   9.091   9.095   4.127 -0.0711  0.8803  0.3018
 6597SOL    HW130470   9.156   9.029   4.164  1.6065  1.9184 -0.7089
 6597SOL    HW230471   9.090   9.176   4.186 -0.5882  0.7934  0.4120
 6598SOL     OW30472   1.072   2.376   2.590  0.0315 -0.0416  0.0946
 6598SOL    HW130473   1.102   2.301   2.532  0.0594 -0.2137  0.3319
 6598SOL    HW230474   1.119   2.371   2.678  1.6993  1.5334 -0.6671
 6599SOL     OW30475   2.259   6.797   0.415  0.0930  0.7368  0.0954
 6599SOL    HW130476   2.331   6.840   0.470 -0.0478 -0.7209  1.4638
 6599SOL    HW230477   2.175   6.790   0.469 -0.6129  0.9948 -0.9570
 6600SOL     OW30478   0.255   7.423   3.293  0.3955  0.3984 -0.4295
 6600SOL    HW130479   0.331   7.485   3.278  0.7163 -0.0162 -0.5269
 6600SOL    HW230480   0.247   7.360   3.216 -0.6308  1.0436 -0.8542
 6601SOL     OW30481   3.872   7.912   0.231 -0.0770 -0.0581 -0.1102
 6601SOL    HW130482   3.884   7.830   0.287 -0.2888  0.6389  0.9771
 6601SOL    HW230483   3.787   7.957   0.256  0.7459  1.2842  0.3411
 6602SOL     OW30484   6.782   0.066   2.924  0.4361  0.2490 -0.1082
 6602SOL    HW130485   6.812   0.142   2.982 -0.1050 -0.0734  0.6085
 6602SOL    HW230486   6.807  -0.021   2.968  1.6819  0.0087 -1.2602
 6603SOL     OW30487   2.179   4.845   4.102  0.8827 -0.3043  0.3421
 6603SOL    HW130488   2.238   4.826   4.180 -0.1245  0.2248  1.2546
 6603SOL    HW230489   2.186   4.942   4.078  1.7225 -0.6096 -0.6860
 6604SOL     OW30490   2.730   4.402   4.439 -0.3863  0.5671 -0.1151
 6604SOL    HW130491   2.709   4.430   4.533  0.3029  0.2191  0.1456
 6604SOL    HW230492   2.824   4.368   4.434 -1.0996 -1.4346 -0.4753
 6605SOL     OW30493   7.572   0.296   2.180  0.2325 -0.1478 -0.1288
 6605SOL    HW130494   7.583   0.341   2.092  1.1029  5.2045  2.4617
 6605SOL    HW230495   7.659   0.298   2.230 -0.4681 -2.2068  1.2461
 6606SOL     OW30496   2.795   6.363   4.691  0.3752  0.1946  0.6090
 6606SOL    HW130497   2.719   6.424   4.666 -0.3515 -0.7579  0.4806
 6606SOL    HW230498   2.801   6.289   4.624 -0.0247 -0.9983  1.8825
 6607SOL     OW30499   4.311   8.589   4.476  0.3708 -0.0135  0.2078
 6607SOL    HW130500   4.347   8.668   4.525  0.1046 -0.6205  1.3939
 6607SOL    HW230501   4.326   8.506   4.530  1.2582 -0.8806 -1.3246
 6608SOL     OW30502   1.854   0.229   4.142  0.4964  0.2481  0.2970
 6608SOL    HW130503   1.953   0.228   4.155  0.3759 -0.3682  1.1976
 6608SOL    HW230504   1.826   0.152   4.086  0.4314 -0.0879  0.7869
 6609SOL     OW30505   1.865   1.595   3.778  0.0746  0.2449 -0.3333
 6609SOL    HW130506   1.769   1.568   3.783 -0.3697  1.8165 -0.3095
 6609SOL    HW230507   1.908   1.550   3.700 -0.3878 -1.3288  0.2847
 6610SOL     OW30508   0.131   8.811   4.349 -0.2386 -0.4768 -0.5143
 6610SOL    HW130509   0.048   8.825   4.403  0.9656 -0.2097  1.3155
 6610SOL    HW230510   0.200   8.766   4.405  1.0107 -0.2909 -1.8725
 6611SOL     OW30511   8.305   8.433   0.984 -0.0483  0.3898  0.0432
 6611SOL    HW130512   8.396   8.392   0.985  0.1971  0.9268  1.1178
 6611SOL    HW230513   8.276   8.453   1.078 -1.0462  0.7193 -0.3205
 6612SOL     OW30514   9.567   6.317   3.225 -1.2509 -0.2677 -0.0913
 6612SOL    HW130515   9.649   6.319   3.282 -2.3255 -0.9994  1.5421
 6612SOL    HW230516   9.591   6.290   3.132  0.3087 -0.8315  0.4629
 6613SOL     OW30517   2.248   2.209   3.425  0.0858 -0.3219 -0.0232
 6613SOL    HW130518   2.307   2.232   3.347 -0.7256  0.8659 -0.3062
 6613SOL    HW230519   2.296   2.145   3.485  1.5654  0.4107 -0.3838
 6614SOL     OW30520   2.604   3.017   3.425 -0.0357 -0.3029 -0.2170
 6614SOL    HW130521   2.631   2.926   3.454  1.9277  0.1726 -0.4371
 6614SOL    HW230522   2.547   3.011   3.343  0.6678 -1.3101 -0.6409
 6615SOL     OW30523   6.915   6.645   3.104  0.0373  0.4620 -0.5543
 6615SOL    HW130524   6.984   6.574   3.114 -1.0563 -0.2987  2.0331
 6615SOL    HW230525   6.923   6.710   3.180 -3.5149 -0.9731  1.1946
 6616SOL     OW30526   9.800   4.363   1.960 -0.1367  0.2964 -0.4227
 6616SOL    HW130527   9.782   4.410   2.047 -0.5669  1.3560 -1.0756
 6616SOL    HW230528   9.834   4.271   1.978  1.9669  1.2953  0.8992
 6617SOL     OW30529   1.575   9.345   4.383  0.6496 -0.2295 -0.3255
 6617SOL    HW130530   1.534   9.429   4.417  0.3173 -0.4644 -0.1380
 6617SOL    HW230531   1.608   9.290   4.461 -2.8531 -2.1896 -0.1235
 6618SOL     OW30532   3.592   2.651   3.768 -0.2154 -0.1939 -0.2296
 6618SOL    HW130533   3.555   2.594   3.841 -1.1243 -0.4013 -0.8397
 6618SOL    HW230534   3.651   2.596   3.709  1.2814  0.1891  0.8744
 6619SOL     OW30535   7.933   8.239   2.555  0.0851  0.0819 -0.3920
 6619SOL    HW130536   7.877   8.193   2.623 -0.0477  0.7225 -0.0646
 6619SOL    HW230537   8.029   8.211   2.565 -0.0630 -0.4552 -0.4818
 6620SOL     OW30538   3.040   8.153   3.802  0.8273 -0.3448  0.2595
 6620SOL    HW130539   2.980   8.073   3.798  0.9031 -0.3964  0.1629
 6620SOL    HW230540   3.134   8.124   3.819  0.4057 -0.0887  3.3293
 6621SOL     OW30541   3.935   0.570   2.820 -0.2724 -0.1382  0.7740
 6621SOL    HW130542   3.975   0.484   2.789 -0.2990  0.0527  0.1969
 6621SOL    HW230543   3.859   0.550   2.883 -1.7701 -0.6281 -1.1254
 6622SOL     OW30544   2.404   7.411   3.847 -0.3006  0.8969 -0.6922
 6622SOL    HW130545   2.445   7.322   3.827  1.9322  1.7277  0.0202
 6622SOL    HW230546   2.339   7.435   3.775  0.0393 -0.7013 -1.5606
 6623SOL     OW30547   7.828   9.156   0.499  0.8728 -0.3416  0.1781
 6623SOL    HW130548   7.849   9.102   0.417 -0.6908  1.3925 -1.4065
 6623SOL    HW230549   7.847   9.253   0.481 -0.2901  0.1654  1.5708
 6624SOL     OW30550   7.907   0.807   2.665 -0.6870 -0.2488  0.2333
 6624SOL    HW130551   7.986   0.868   2.664 -1.3688  0.6458 -0.3499
 6624SOL    HW230552   7.892   0.771   2.573 -0.4732 -1.0692  0.5122
 6625SOL     OW30553   4.017   5.815   2.569 -0.4925  0.0017  0.5190
 6625SOL    HW130554   4.043   5.730   2.524 -0.9599  0.4918 -0.7146
 6625SOL    HW230555   3.950   5.864   2.512  0.7961  1.8434  0.5489
 6626SOL     OW30556   0.191   6.073   1.589  0.7181 -0.4776 -0.2091
 6626SOL    HW130557   0.255   6.133   1.540  0.9988 -0.1494  0.5567
 6626SOL    HW230558   0.100   6.114   1.588  1.0253  0.2428  0.7959
 6627SOL     OW30559   1.409   6.732   3.570 -0.2800  0.6834  0.0368
 6627SOL    HW130560   1.470   6.810   3.585  0.2975  0.2922 -0.2572
 6627SOL    HW230561   1.397   6.682   3.655  2.0787 -0.8730 -0.5100
 6628SOL     OW30562   6.873   9.654   4.354  0.0831  0.7424 -0.5817
 6628SOL    HW130563   6.785   9.678   4.314  0.4112  0.3992 -1.5126
 6628SOL    HW230564   6.922   9.593   4.292  1.1874  1.3326 -0.2929
 6629SOL     OW30565   2.935   4.875   1.556 -0.2380  0.4627  0.5266
 6629SOL    HW130566   2.853   4.829   1.590 -0.9618 -0.0423 -1.8139
 6629SOL    HW230567   2.909   4.952   1.498  0.9170 -0.3050 -1.0367
 6630SOL     OW30568   2.668   7.637   0.781  0.4935  0.1848 -0.0944
 6630SOL    HW130569   2.693   7.595   0.694  0.7959 -0.6509  0.3888
 6630SOL    HW230570   2.568   7.643   0.788  0.4006 -1.6948  0.3980
 6631SOL     OW30571   3.171   8.333   3.336 -0.0380  0.0692  0.2089
 6631SOL    HW130572   3.104   8.329   3.261  0.0518 -0.2324  0.1425
 6631SOL    HW230573   3.177   8.243   3.379  1.6086 -0.3642 -0.9113
 6632SOL     OW30574   9.169   2.417   4.265 -0.0304  0.4478  0.4406
 6632SOL    HW130575   9.167   2.434   4.167  1.8084 -0.0811  0.2771
 6632SOL    HW230576   9.078   2.429   4.304 -0.7508  0.7421 -1.3136
 6633SOL     OW30577   3.304   2.916   0.695  0.6449 -0.2068 -0.3071
 6633SOL    HW130578   3.378   2.959   0.747 -0.3119  2.5569 -1.1504
 6633SOL    HW230579   3.334   2.900   0.601  0.8192 -0.9390 -0.1322
 6634SOL     OW30580   3.329   8.286   4.220  0.2517 -0.5124 -0.0924
 6634SOL    HW130581   3.254   8.299   4.156  0.4402  0.1506 -0.1764
 6634SOL    HW230582   3.404   8.237   4.175  0.2770 -0.2786 -0.3032
 6635SOL     OW30583   8.387   2.442   4.418  1.2192  0.0022 -0.2395
 6635SOL    HW130584   8.310   2.401   4.466  1.4274 -2.3839 -1.8288
 6635SOL    HW230585   8.354   2.514   4.357  0.3963 -0.2140 -0.0496
 6636SOL     OW30586   9.696   4.997   1.136  0.0333  0.6156  0.4344
 6636SOL    HW130587   9.656   4.987   1.227 -0.6050 -0.5987  0.0290
 6636SOL    HW230588   9.770   4.930   1.124 -0.8722 -0.2470 -0.4671
 6637SOL     OW30589   8.002   8.564   4.706 -0.5587  0.3880 -0.1508
 6637SOL    HW130590   7.998   8.516   4.619 -0.3182  2.2705 -1.2250
 6637SOL    HW230591   7.918   8.617   4.719 -0.3952  0.4813  0.5626
 6638SOL     OW30592   6.670   8.605   2.162 -0.4326  0.5711  0.2856
 6638SOL    HW130593   6.642   8.616   2.258 -0.8187  2.2753 -0.0126
 6638SOL    HW230594   6.592   8.624   2.102 -0.4785 -1.5478 -0.3451
 6639SOL     OW30595   7.227   1.208   3.018  0.4387  0.2396  0.2310
 6639SOL    HW130596   7.245   1.151   2.938  0.7710  0.5166  0.1088
 6639SOL    HW230597   7.220   1.150   3.100  0.2068 -0.0306  0.0197
 6640SOL     OW30598   8.406   8.940   0.520 -0.4463 -0.1278  0.0744
 6640SOL    HW130599   8.365   8.925   0.430  0.3764  1.2821 -0.5544
 6640SOL    HW230600   8.446   9.032   0.523  0.6673 -0.6464  1.4488
 6641SOL     OW30601   2.299   9.125   2.791 -0.0158  0.3988  0.6803
 6641SOL    HW130602   2.324   9.073   2.709 -1.2766  1.6670 -0.5331
 6641SOL    HW230603   2.370   9.114   2.861 -0.0466 -2.6019  0.3024
 6642SOL     OW30604   0.738   0.156   1.378 -0.3993 -0.4123  0.1089
 6642SOL    HW130605   0.711   0.062   1.354 -1.4190 -0.3630  0.9955
 6642SOL    HW230606   0.797   0.193   1.307  0.0952 -1.7663 -0.2029
 6643SOL     OW30607   9.996   8.882   1.173 -0.0949 -0.3282  0.1294
 6643SOL    HW130608  10.056   8.908   1.098 -0.0986  0.6114  0.4467
 6643SOL    HW230609   9.983   8.783   1.173  2.1662 -0.6548  0.6062
 6644SOL     OW30610   0.793   9.000   0.287 -0.3243  0.0569 -0.2036
 6644SOL    HW130611   0.828   9.071   0.348  0.9947 -0.4294 -0.3617
 6644SOL    HW230612   0.746   8.930   0.340 -1.1397  0.7628  0.0097
 6645SOL     OW30613   2.432   6.206   2.189 -0.5173 -0.0346 -0.1441
 6645SOL    HW130614   2.523   6.166   2.201 -0.1967  0.2679 -1.5322
 6645SOL    HW230615   2.377   6.146   2.130 -0.9418  0.2139 -0.0016
 6646SOL     OW30616   0.697   2.756   0.738  0.0472  0.0196 -0.4265
 6646SOL    HW130617   0.701   2.726   0.642 -1.7049 -0.7919 -0.2593
 6646SOL    HW230618   0.776   2.813   0.757  2.6354 -3.0953 -1.2436
 6647SOL     OW30619   4.265   9.074   3.666 -0.4360  0.3134  0.1507
 6647SOL    HW130620   4.243   9.085   3.763 -1.8534 -0.1795 -0.0996
 6647SOL    HW230621   4.192   9.023   3.621 -1.0512  2.7078 -1.6859
 6648SOL     OW30622   2.189   1.847   0.334  0.1430 -0.2584 -0.3002
 6648SOL    HW130623   2.136   1.867   0.416  0.9348 -0.7328  0.3345
 6648SOL    HW230624   2.218   1.752   0.335 -0.2979 -0.4161 -1.4013
 6649SOL     OW30625   9.020   9.692   4.521  0.1683 -0.0990 -0.4247
 6649SOL    HW130626   9.112   9.675   4.558 -0.1265 -0.3065  0.2171
 6649SOL    HW230627   8.952   9.672   4.591 -0.3883 -0.3694 -1.0427
 6650SOL     OW30628   8.200   2.181   3.879 -0.4107 -0.1352 -0.4824
 6650SOL    HW130629   8.187   2.119   3.802 -0.2354 -0.3056 -0.3765
 6650SOL    HW230630   8.289   2.227   3.871 -0.0071 -0.8099  0.0755
 6651SOL     OW30631   7.644   1.907   0.110  0.4025  0.0194  0.6475
 6651SOL    HW130632   7.686   1.827   0.154 -0.1526 -0.5164  0.2171
 6651SOL    HW230633   7.598   1.878   0.026 -1.4115  0.4791  1.4657
 6652SOL     OW30634   7.673   0.329   2.861 -0.9631  0.3813  0.6231
 6652SOL    HW130635   7.728   0.249   2.838 -1.1441  1.0373 -2.3915
 6652SOL    HW230636   7.615   0.309   2.940 -0.1213 -2.0376  0.6540
 6653SOL     OW30637   1.840   1.765   2.986  0.5491  0.2822  0.1376
 6653SOL    HW130638   1.898   1.737   3.062  1.0813  1.3047  0.1115
 6653SOL    HW230639   1.816   1.685   2.931 -0.9584 -0.6950  2.1378
 6654SOL     OW30640   0.662   0.170   1.888 -0.4052 -0.1527 -0.0914
 6654SOL    HW130641   0.615   0.181   1.800 -0.6374 -1.6742 -0.1805
 6654SOL    HW230642   0.606   0.113   1.948 -0.0687  0.5681  0.9187
 6655SOL     OW30643   9.248   6.910   3.113  0.2745  0.4322 -0.6150
 6655SOL    HW130644   9.238   6.993   3.169 -4.1257  0.3421 -1.0618
 6655SOL    HW230645   9.268   6.936   3.019  1.1236  0.8715 -0.3205
 6656SOL     OW30646   1.861   5.874   0.686 -0.5231 -0.2620 -0.1053
 6656SOL    HW130647   1.909   5.830   0.610 -0.1266  0.6912 -0.4245
 6656SOL    HW230648   1.908   5.852   0.772 -1.2966 -1.7932 -0.0583
 6657SOL     OW30649   9.566   0.036   3.385  0.0874 -0.2223 -0.7404
 6657SOL    HW130650   9.524   0.126   3.374 -1.0908 -0.6656  0.0670
 6657SOL    HW230651   9.621   0.035   3.469  0.1031 -0.2504 -0.7512
 6658SOL     OW30652   0.699   3.021   1.595 -0.1104 -0.1332  0.3900
 6658SOL    HW130653   0.660   2.956   1.659 -0.4457 -2.0095 -1.6589
 6658SOL    HW230654   0.795   2.998   1.579 -0.5125 -0.8327 -1.1595
 6659SOL     OW30655   9.957   6.193   1.649 -0.5201  0.3355 -0.8571
 6659SOL    HW130656   9.930   6.154   1.737  0.4844  1.8227  0.1293
 6659SOL    HW230657   9.923   6.287   1.643  1.3965  1.0423 -1.0487
 6660SOL     OW30658   4.617   9.373   3.691 -0.2348  0.0034  0.2223
 6660SOL    HW130659   4.651   9.395   3.782  2.2717  1.2451 -0.9801
 6660SOL    HW230660   4.683   9.316   3.643 -1.6409 -0.8403 -0.7653
 6661SOL     OW30661   3.179   9.756   2.437 -0.1183 -0.0061 -0.4654
 6661SOL    HW130662   3.148   9.851   2.428 -0.5115  0.0259  1.1603
 6661SOL    HW230663   3.189   9.716   2.346  0.7245  1.8101 -1.2047
 6662SOL     OW30664   3.773   9.440   3.392  0.3607 -0.1835 -0.6755
 6662SOL    HW130665   3.790   9.406   3.300 -0.5042  2.2743 -1.7854
 6662SOL    HW230666   3.857   9.482   3.428  1.0931 -2.3644  0.2340
 6663SOL     OW30667   2.049   6.740   0.580  0.2714  0.2417  0.0969
 6663SOL    HW130668   2.027   6.814   0.643  1.1684 -0.0556  0.7633
 6663SOL    HW230669   1.980   6.737   0.507 -1.4103 -0.0981  1.6542
 6664SOL     OW30670   1.160   8.552   1.420  0.5314 -0.4119 -0.1889
 6664SOL    HW130671   1.157   8.651   1.427  1.1967 -0.2795 -1.5814
 6664SOL    HW230672   1.087   8.520   1.359  0.3552 -0.7728  0.2089
 6665SOL     OW30673   2.434   5.733   4.521 -0.1900 -0.3261 -0.6001
 6665SOL    HW130674   2.497   5.791   4.572  0.5099  0.0960 -1.9075
 6665SOL    HW230675   2.396   5.663   4.581 -1.5618  1.8791  1.1505
 6666SOL     OW30676   8.070   6.392   3.877  0.0895 -0.2894 -0.0655
 6666SOL    HW130677   8.114   6.304   3.863 -1.0724 -0.9889  0.5814
 6666SOL    HW230678   7.993   6.401   3.814  1.5726  1.2437 -1.7201
 6667SOL     OW30679   1.302   9.148   2.376  0.5791  0.0796  0.7389
 6667SOL    HW130680   1.216   9.119   2.336  1.6435 -1.4386 -0.5069
 6667SOL    HW230681   1.295   9.148   2.476 -1.5040  2.0760  0.6407
 6668SOL     OW30682   2.851   5.841   1.384 -0.7084  0.2162  0.1940
 6668SOL    HW130683   2.920   5.769   1.382 -0.3378  0.6036 -0.7557
 6668SOL    HW230684   2.814   5.855   1.292 -1.6580  0.4001  0.5899
 6669SOL     OW30685   4.624   7.859   0.055  0.2717 -0.0758 -0.0763
 6669SOL    HW130686   4.545   7.919   0.063  0.9527  0.8965 -0.4598
 6669SOL    HW230687   4.664   7.868  -0.037  1.4950  0.3324  0.4761
 6670SOL     OW30688   2.199   9.801   4.620  0.0339 -0.0516  0.2130
 6670SOL    HW130689   2.180   9.708   4.590  2.2313 -0.2260 -0.7674
 6670SOL    HW230690   2.145   9.866   4.566  1.4110 -0.5568 -1.7911
 6671SOL     OW30691   0.915   6.896   2.753  0.4521  0.3146 -0.0643
 6671SOL    HW130692   0.947   6.920   2.661  1.7999  1.2121  0.6260
 6671SOL    HW230693   0.973   6.824   2.791 -0.7108 -0.7648 -0.2796
 6672SOL     OW30694   6.808   9.402   3.239 -0.1443 -0.4629  0.5248
 6672SOL    HW130695   6.779   9.480   3.183 -0.2179 -1.0626 -0.2774
 6672SOL    HW230696   6.908   9.395   3.236 -0.0206  0.5074  1.8255
 6673SOL     OW30697   1.678   6.470   0.704  0.3600 -0.3200  0.7776
 6673SOL    HW130698   1.775   6.482   0.725  0.4362  2.5176 -0.9470
 6673SOL    HW230699   1.667   6.448   0.607 -0.8507  2.5645  0.2013
 6674SOL     OW30700   8.220   2.256   0.410 -0.2618  0.6934  0.0136
 6674SOL    HW130701   8.126   2.280   0.436 -0.6573 -0.8946  0.0670
 6674SOL    HW230702   8.221   2.168   0.364  1.3520  0.1826  0.9662
 6675SOL     OW30703   1.327   3.359   4.573  0.1401 -0.0334 -0.3467
 6675SOL    HW130704   1.275   3.344   4.657  0.1208  0.5860 -0.2472
 6675SOL    HW230705   1.424   3.367   4.595  0.3473 -1.6827 -0.5853
 6676SOL     OW30706   3.328   1.424   1.856 -0.2492  0.0939 -0.7213
 6676SOL    HW130707   3.317   1.334   1.814 -0.7341  0.5671 -1.6219
 6676SOL    HW230708   3.426   1.443   1.868 -0.1678 -1.1822  0.8805
 6677SOL     OW30709   3.391   9.432   2.802  0.3508 -0.0595  0.0290
 6677SOL    HW130710   3.489   9.425   2.823  0.7658  0.5149 -1.5953
 6677SOL    HW230711   3.376   9.510   2.742 -0.9610 -0.7793 -0.6019
 6678SOL     OW30712   8.456   9.727   0.894  0.2791  0.3165 -0.3685
 6678SOL    HW130713   8.367   9.766   0.873  0.5527  1.6104  0.8037
 6678SOL    HW230714   8.510   9.793   0.947 -0.5180 -2.8921  4.7866
 6679SOL     OW30715   3.578   4.766   0.387 -0.5748 -0.1700  0.2466
 6679SOL    HW130716   3.670   4.775   0.425 -0.8008 -0.9747  0.9806
 6679SOL    HW230717   3.552   4.670   0.383 -0.7250 -0.0770 -1.5604
 6680SOL     OW30718   4.072   2.662   0.042 -0.1768  0.5259 -0.2590
 6680SOL    HW130719   4.055   2.596   0.115  1.8811  1.0093  0.7060
 6680SOL    HW230720   4.023   2.747   0.061 -1.6519 -0.2039 -0.7514
 6681SOL     OW30721   9.770   6.703   2.327  0.0533  0.2623 -0.0929
 6681SOL    HW130722   9.790   6.617   2.280 -1.7174  0.6816 -1.6710
 6681SOL    HW230723   9.854   6.738   2.369  0.9462 -1.8592 -0.0260
 6682SOL     OW30724   8.680   8.533   0.040 -0.2315  0.0481 -0.3829
 6682SOL    HW130725   8.604   8.496   0.093 -0.2211  0.2199 -0.2453
 6682SOL    HW230726   8.745   8.577   0.103  0.7275 -1.4039 -0.3343
 6683SOL     OW30727   0.008   0.777   4.400  0.6788  0.5442 -0.2276
 6683SOL    HW130728   0.002   0.861   4.454 -0.9884  0.6744 -0.5734
 6683SOL    HW230729  -0.029   0.793   4.309  0.2176 -0.5958 -0.2518
 6684SOL     OW30730   8.564   7.070   1.935 -0.5135  0.4967 -0.3940
 6684SOL    HW130731   8.550   6.972   1.950 -1.7182  0.5287 -1.2262
 6684SOL    HW230732   8.518   7.122   2.007  1.2873  0.4392  0.8410
 6685SOL     OW30733   7.828   3.487   4.082  0.1541 -0.0096 -0.4874
 6685SOL    HW130734   7.786   3.489   4.173 -0.1763 -1.3866 -0.5990
 6685SOL    HW230735   7.807   3.400   4.037  0.2950  0.6692 -1.8984
 6686SOL     OW30736   3.296   8.832   1.156  0.6972 -0.7407 -0.2372
 6686SOL    HW130737   3.340   8.750   1.118  0.4017 -1.3232  0.6611
 6686SOL    HW230738   3.362   8.906   1.162  0.8994 -0.8242 -1.3295
 6687SOL     OW30739   2.048   8.379   2.998  0.0653 -0.2178 -0.0201
 6687SOL    HW130740   2.022   8.320   2.921  0.2964 -1.5978  0.9359
 6687SOL    HW230741   1.973   8.441   3.019 -0.2803 -0.3241 -0.8966
 6688SOL     OW30742   2.541   0.096   0.527 -0.1236 -0.4430  0.0505
 6688SOL    HW130743   2.489   0.175   0.495  0.5506 -0.2758 -0.6403
 6688SOL    HW230744   2.498   0.060   0.610  0.0721  1.1997  0.9019
 6689SOL     OW30745   1.897   1.113   3.540 -0.0206 -0.1606  0.1080
 6689SOL    HW130746   1.974   1.074   3.590 -0.6879 -1.7602 -0.0879
 6689SOL    HW230747   1.812   1.098   3.591 -0.2840  1.1430  0.0803
 6690SOL     OW30748   6.620   7.677   2.310 -0.9113 -0.3370 -0.4405
 6690SOL    HW130749   6.568   7.721   2.236 -1.1672 -0.8215 -0.5481
 6690SOL    HW230750   6.560   7.665   2.390 -0.9661 -0.8974 -0.5647
 6691SOL     OW30751   9.214   8.411   3.779 -0.0103  0.1628 -0.6101
 6691SOL    HW130752   9.290   8.397   3.842 -0.7463 -0.2417  0.2030
 6691SOL    HW230753   9.155   8.484   3.813 -1.4684 -1.3587  0.1796
 6692SOL     OW30754   2.220   3.592   2.216 -0.1826 -0.0318 -0.2587
 6692SOL    HW130755   2.148   3.568   2.281  1.1439  0.3043  1.3631
 6692SOL    HW230756   2.218   3.528   2.140 -0.1442 -1.9859  1.3483
 6693SOL     OW30757   0.897   1.891   0.020  0.6705 -0.4746 -0.1619
 6693SOL    HW130758   0.968   1.856   0.081 -1.3249 -0.3778  2.3019
 6693SOL    HW230759   0.823   1.824   0.014 -1.5308  1.6679  1.7193
 6694SOL     OW30760   0.022   5.926   4.300  0.1454 -0.2486 -0.1549
 6694SOL    HW130761   0.080   5.898   4.377 -1.2866 -1.8182  0.3805
 6694SOL    HW230762   0.080   5.944   4.220  1.5752  0.6163  1.0448
 6695SOL     OW30763   8.935   1.188   3.300 -0.3467 -0.3507 -0.3753
 6695SOL    HW130764   8.866   1.117   3.291 -0.5186 -0.0177 -1.7786
 6695SOL    HW230765   8.910   1.250   3.375 -0.7353 -1.1377  0.1565
 6696SOL     OW30766   1.831   7.940   1.832 -0.3459 -0.1158 -0.1797
 6696SOL    HW130767   1.881   7.959   1.916 -0.5346  1.8950 -0.4977
 6696SOL    HW230768   1.877   7.983   1.754  0.1637 -2.4638 -1.2348
 6697SOL     OW30769   1.234   4.906   3.140  0.0574 -0.2348  0.5216
 6697SOL    HW130770   1.177   4.868   3.068  1.5310  0.5332 -1.0887
 6697SOL    HW230771   1.232   5.006   3.135  2.7582 -0.1878 -0.6166
 6698SOL     OW30772   2.975   8.192   4.324  0.2714  0.2725 -0.4022
 6698SOL    HW130773   3.058   8.185   4.379 -1.3952  0.0725  2.1645
 6698SOL    HW230774   2.991   8.148   4.235  3.0963  0.8379 -0.2443
 6699SOL     OW30775   9.027   3.317   2.075  0.0470 -0.1178 -0.2999
 6699SOL    HW130776   9.033   3.230   2.125 -0.7424 -0.1701 -0.2868
 6699SOL    HW230777   9.026   3.393   2.140 -0.3562 -0.1575 -0.2537
 6700SOL     OW30778   4.456   1.528   4.327 -0.1577  0.3487 -0.0042
 6700SOL    HW130779   4.377   1.543   4.388  0.0871 -0.2880  0.4770
 6700SOL    HW230780   4.450   1.437   4.287 -0.4087  0.8332 -1.0804
 6701SOL     OW30781   9.254   1.758   1.112  0.5704  0.3762  0.0657
 6701SOL    HW130782   9.183   1.697   1.075  1.0265 -0.2759  0.2643
 6701SOL    HW230783   9.211   1.831   1.165  0.1751 -1.4885  2.3697
 6702SOL     OW30784   6.354   7.961   3.106  0.6520 -0.2827  0.0682
 6702SOL    HW130785   6.299   8.005   3.177 -0.2989 -2.1361  0.5130
 6702SOL    HW230786   6.312   7.977   3.017  2.6087  3.2525 -0.3220
 6703SOL     OW30787   2.891   0.407   1.902 -0.2788 -0.2337  0.0264
 6703SOL    HW130788   2.932   0.479   1.846  0.3001 -0.9904 -0.5342
 6703SOL    HW230789   2.886   0.322   1.849  0.0496 -0.8962  1.0351
 6704SOL     OW30790   0.073   3.001   0.170 -0.7313  0.2094  0.2691
 6704SOL    HW130791   0.010   3.037   0.100  0.7210  0.8546 -0.7263
 6704SOL    HW230792   0.130   2.929   0.129  0.9057  1.3772  0.4782
 6705SOL     OW30793   1.261   0.837   0.484 -0.1979 -0.2452 -0.1482
 6705SOL    HW130794   1.214   0.870   0.566  0.1943 -0.5438  0.1954
 6705SOL    HW230795   1.226   0.747   0.460  1.8460 -1.5035  1.4694
 6706SOL     OW30796   0.328   0.881   1.886 -0.1970 -0.2815 -0.4597
 6706SOL    HW130797   0.275   0.907   1.966  2.0611  0.8093  0.7350
 6706SOL    HW230798   0.334   0.959   1.824 -2.0267 -1.1544 -1.7753
 6707SOL     OW30799   7.706   5.774   3.079  0.0318 -0.3022 -0.6660
 6707SOL    HW130800   7.771   5.729   3.140  1.5540  1.7378 -0.7073
 6707SOL    HW230801   7.671   5.857   3.123 -0.8666 -0.2092 -1.5267
 6708SOL     OW30802   6.967   9.610   2.636  0.8207  0.0255  0.2103
 6708SOL    HW130803   6.904   9.544   2.677  0.6397  0.3372  0.4294
 6708SOL    HW230804   7.022   9.652   2.707 -0.3496  1.4731  0.2715
 6709SOL     OW30805   9.032   8.819   3.051  0.5513  0.1096  0.5617
 6709SOL    HW130806   9.018   8.721   3.059  1.6783  0.0725  2.4295
 6709SOL    HW230807   9.019   8.847   2.956  3.9078 -2.4582 -0.7707
 6710SOL     OW30808   4.823   8.581   0.264  0.1240  0.1669  0.4071
 6710SOL    HW130809   4.878   8.609   0.185  0.2794 -1.1812  0.0320
 6710SOL    HW230810   4.730   8.618   0.255  0.2453  0.3212 -0.2222
 6711SOL     OW30811   1.495   2.731   3.750  0.3582 -0.4885  0.3375
 6711SOL    HW130812   1.415   2.790   3.758  0.1750 -0.5973 -0.6273
 6711SOL    HW230813   1.547   2.734   3.835 -0.3976 -0.0257  0.7912
 6712SOL     OW30814   1.723   7.000   4.219 -0.2256  0.0724  0.0458
 6712SOL    HW130815   1.730   6.973   4.315  0.0118  0.8742  0.2629
 6712SOL    HW230816   1.774   7.085   4.205 -0.4381  0.0739 -0.7463
 6713SOL     OW30817   9.817   7.541   2.294  1.0961  0.3082 -0.1730
 6713SOL    HW130818   9.873   7.619   2.321  2.0238 -0.7463  1.1013
 6713SOL    HW230819   9.755   7.517   2.369 -0.4679  0.9149 -1.2395
 6714SOL     OW30820   4.799   1.549   4.129  0.2280  0.0334  0.5548
 6714SOL    HW130821   4.805   1.562   4.030  0.2813  0.4583  0.6145
 6714SOL    HW230822   4.728   1.609   4.167  0.5251  0.2042  0.8390
 6715SOL     OW30823   5.467   9.567   2.730 -0.5666  0.1792  0.6889
 6715SOL    HW130824   5.488   9.473   2.706  2.9633  0.4549  2.3859
 6715SOL    HW230825   5.430   9.570   2.823 -2.1349  0.3469  0.0735
 6716SOL     OW30826   8.598   0.486   4.114  0.3149  0.3927  0.2876
 6716SOL    HW130827   8.541   0.568   4.117 -1.4666 -0.8147  0.0773
 6716SOL    HW230828   8.693   0.513   4.100 -0.0222  2.5090  1.7377
 6717SOL     OW30829   7.994   8.565   3.182  0.0835 -0.2220  0.5699
 6717SOL    HW130830   7.951   8.477   3.204 -0.2319  0.0422  1.0018
 6717SOL    HW230831   8.085   8.548   3.143 -1.2762 -0.8963 -2.5233
 6718SOL     OW30832   8.239   9.645   1.310 -0.3573  0.3569  0.6706
 6718SOL    HW130833   8.164   9.702   1.276  0.6013  1.3640  0.2222
 6718SOL    HW230834   8.253   9.568   1.247  0.4188  1.3768 -0.4238
 6719SOL     OW30835   2.827   3.757   1.698  0.3778  0.9355  0.3290
 6719SOL    HW130836   2.785   3.683   1.646  0.8630  1.4806 -0.8478
 6719SOL    HW230837   2.835   3.729   1.794  0.2018 -0.3856 -0.0221
 6720SOL     OW30838   5.003   0.056   2.554  0.0383 -0.2862 -0.2422
 6720SOL    HW130839   5.044  -0.035   2.549  1.2405  0.2877 -0.9485
 6720SOL    HW230840   5.022   0.106   2.470  0.7794  1.2134  0.7994
 6721SOL     OW30841   2.784   5.715   3.895  0.1244 -0.3726  1.3140
 6721SOL    HW130842   2.844   5.786   3.860  0.0858 -1.1674 -0.3877
 6721SOL    HW230843   2.728   5.753   3.969  1.0365  0.9995  1.3163
 6722SOL     OW30844   4.702   2.954   0.539  0.1706 -0.5697  0.0540
 6722SOL    HW130845   4.639   2.879   0.522  0.3213 -0.1296 -2.6548
 6722SOL    HW230846   4.711   2.969   0.638 -3.8222 -0.7403  0.5069
 6723SOL     OW30847   8.390   8.075   3.588  0.6216 -0.0319  0.4335
 6723SOL    HW130848   8.386   8.154   3.649 -0.0726 -0.4082  0.8927
 6723SOL    HW230849   8.301   8.029   3.588  0.7615 -0.3110 -0.5005
 6724SOL     OW30850   4.293   9.172   1.765  0.4610 -0.4160  0.3252
 6724SOL    HW130851   4.297   9.251   1.704 -1.2727 -0.1287  0.5317
 6724SOL    HW230852   4.257   9.093   1.715  0.7318 -0.6529  0.5049
 6725SOL     OW30853   8.441   9.494   1.007 -0.6675  0.0348 -0.2817
 6725SOL    HW130854   8.455   9.584   0.966 -1.2011 -0.1359 -0.8613
 6725SOL    HW230855   8.345   9.484   1.033  0.1025  1.0287  3.2069
 6726SOL     OW30856   6.342   0.205   2.445 -0.0811  0.0174 -0.3219
 6726SOL    HW130857   6.388   0.292   2.461 -0.5166  0.1093  0.4442
 6726SOL    HW230858   6.393   0.131   2.488  0.0628 -0.0540 -0.6124
 6727SOL     OW30859   9.352   7.646   2.328 -0.0729  0.1507 -0.1990
 6727SOL    HW130860   9.373   7.594   2.245 -0.5757 -1.6557  0.7766
 6727SOL    HW230861   9.255   7.668   2.330  0.0777  0.8711 -0.4457
 6728SOL     OW30862   3.793   4.216   2.077 -0.0081  0.5429 -0.0033
 6728SOL    HW130863   3.714   4.252   2.126  1.2123  2.0788  0.8904
 6728SOL    HW230864   3.860   4.181   2.143  0.4816  0.1479 -0.6988
 6729SOL     OW30865   3.856   4.204   4.513  0.4350 -0.2710 -0.1771
 6729SOL    HW130866   3.954   4.216   4.523  0.2416  0.8375  0.3439
 6729SOL    HW230867   3.820   4.156   4.593  0.3410  0.4750  0.2242
 6730SOL     OW30868   0.636   1.355   2.855  0.0701  0.0196 -0.5956
 6730SOL    HW130869   0.623   1.264   2.895 -0.7941  0.3025 -0.2141
 6730SOL    HW230870   0.573   1.367   2.778  0.3710  0.1988 -0.8143
 6731SOL     OW30871   0.594   1.038   1.155 -0.5272  0.0347 -0.1525
 6731SOL    HW130872   0.675   1.029   1.097 -0.0239 -0.0360  0.5535
 6731SOL    HW230873   0.552   0.948   1.169 -0.0774 -0.0946  0.3964
 6732SOL     OW30874   7.545   4.184   4.576  0.3029  0.4315  0.0221
 6732SOL    HW130875   7.495   4.219   4.497 -1.4619 -0.6012  0.6522
 6732SOL    HW230876   7.481   4.168   4.651  1.5586 -1.0531  0.8048
 6733SOL     OW30877   7.522   4.544   4.316  0.1141  0.1098  0.1120
 6733SOL    HW130878   7.549   4.566   4.222  0.7386 -0.1158  0.2393
 6733SOL    HW230879   7.587   4.583   4.380 -0.3553  0.3292  0.4607
 6734SOL     OW30880   0.287   6.641   2.784  0.4202 -0.4275 -0.2915
 6734SOL    HW130881   0.264   6.731   2.821 -1.8880 -1.0387 -0.1368
 6734SOL    HW230882   0.373   6.609   2.824  0.2783  0.8828  1.0995
 6735SOL     OW30883   0.099   5.163   2.565  0.2849 -0.0853  0.1840
 6735SOL    HW130884   0.109   5.178   2.467 -2.2197 -0.4300 -0.1630
 6735SOL    HW230885   0.122   5.248   2.614  1.5634  0.0832 -0.6749
 6736SOL     OW30886   3.627   2.080   4.222 -0.0451  0.2176 -0.2069
 6736SOL    HW130887   3.707   2.122   4.266  0.4601  0.8615 -1.7039
 6736SOL    HW230888   3.645   1.983   4.206 -0.6034 -0.2410  1.8444
 6737SOL     OW30889   3.022   9.123   0.750 -0.3268  0.4108 -0.2022
 6737SOL    HW130890   2.994   9.037   0.708  0.9580 -0.0887 -0.0440
 6737SOL    HW230891   3.058   9.185   0.680  1.9179 -0.4641  0.1453
 6738SOL     OW30892   1.164   3.862   0.425 -0.4424  0.0556  0.0199
 6738SOL    HW130893   1.177   3.871   0.523  1.7969  0.9438 -0.3298
 6738SOL    HW230894   1.069   3.837   0.406 -1.1500  0.8693  2.3365
 6739SOL     OW30895   3.560   9.910   4.342 -0.8289  0.5322 -0.1254
 6739SOL    HW130896   3.606   9.849   4.407 -0.0187 -0.0657 -1.2392
 6739SOL    HW230897   3.466   9.925   4.371 -0.9408 -0.9842  0.3423
 6740SOL     OW30898   8.098   2.535   2.104  0.0302 -0.5019 -0.1705
 6740SOL    HW130899   8.097   2.435   2.105 -0.3566 -0.5216 -1.3230
 6740SOL    HW230900   8.137   2.566   2.017  0.9588  0.3555  0.5419
 6741SOL     OW30901   0.674   4.394   0.462  0.2089  0.3447  0.1704
 6741SOL    HW130902   0.616   4.327   0.415  0.6030 -0.9915  1.5514
 6741SOL    HW230903   0.627   4.428   0.544 -0.0945  1.9734 -0.6509
 6742SOL     OW30904   0.130   5.792   3.406  0.1440 -0.2821 -0.7208
 6742SOL    HW130905   0.230   5.795   3.399  0.2335 -0.5581  0.3932
 6742SOL    HW230906   0.099   5.697   3.401 -0.0366 -0.2265 -0.6486
 6743SOL     OW30907   8.198   7.318   2.388  0.0895 -0.1956  0.6133
 6743SOL    HW130908   8.192   7.227   2.348 -1.1291 -0.0794  0.5124
 6743SOL    HW230909   8.212   7.386   2.315 -1.5616 -0.0429  0.4204
 6744SOL     OW30910   3.620   5.045   0.156  0.3025 -0.7305  0.7380
 6744SOL    HW130911   3.660   5.100   0.083 -2.1666  1.3381  0.8682
 6744SOL    HW230912   3.628   4.948   0.133  0.9805 -0.1680 -1.5304
 6745SOL     OW30913   4.682   4.725   1.152 -0.6069  0.1808  0.8097
 6745SOL    HW130914   4.742   4.736   1.072  0.0265 -1.1050  1.1091
 6745SOL    HW230915   4.689   4.806   1.210  0.7405  0.0984  0.7759
 6746SOL     OW30916   1.201   9.416   4.427  0.7169  0.0806 -0.2776
 6746SOL    HW130917   1.248   9.363   4.357  1.7365  1.0374 -0.3377
 6746SOL    HW230918   1.102   9.401   4.420  0.8878 -0.6638 -1.2170
 6747SOL     OW30919   1.649   5.026   4.596 -0.0787 -0.3627 -0.2715
 6747SOL    HW130920   1.742   5.061   4.582 -0.2278 -0.5263 -1.7316
 6747SOL    HW230921   1.629   4.956   4.528 -1.3147 -0.2769 -0.0095
 6748SOL     OW30922   4.501   7.634   3.901  0.0403  0.2497 -0.8683
 6748SOL    HW130923   4.599   7.641   3.886  0.1191 -0.6348 -0.7532
 6748SOL    HW230924   4.453   7.665   3.819  0.4124  0.5524 -0.9747
 6749SOL     OW30925   7.774   3.480   0.597  0.3930  0.1890  0.2427
 6749SOL    HW130926   7.811   3.571   0.614 -1.4708  0.6935  1.7836
 6749SOL    HW230927   7.848   3.413   0.605  1.7094  1.5093 -0.5432
 6750SOL     OW30928   6.327   7.560   2.955 -0.3563 -0.0067  0.0726
 6750SOL    HW130929   6.279   7.634   3.002 -1.4390 -1.1637  0.8241
 6750SOL    HW230930   6.286   7.545   2.865  0.8815  1.3384 -0.7413
 6751SOL     OW30931   9.578   7.871   1.789 -0.3473  0.3452  0.3068
 6751SOL    HW130932   9.601   7.780   1.754 -0.2233  0.4512  0.1123
 6751SOL    HW230933   9.659   7.913   1.830 -0.3706  0.4201  0.2785
 6752SOL     OW30934   8.645   9.340   0.942  0.4843  0.3914  0.0930
 6752SOL    HW130935   8.574   9.410   0.954 -0.4986 -0.7708  1.2202
 6752SOL    HW230936   8.716   9.352   1.010 -0.6512 -0.8548  1.5180
 6753SOL     OW30937   3.091   2.992   2.098  0.3614 -0.4209 -0.8320
 6753SOL    HW130938   3.100   3.049   2.180  2.1279 -1.3685 -0.3364
 6753SOL    HW230939   3.001   2.949   2.096 -0.2480  0.8176 -0.1824
 6754SOL     OW30940   6.116   0.853   2.269  0.2711  0.3777  0.2763
 6754SOL    HW130941   6.215   0.858   2.275  0.2093  2.8885 -0.1196
 6754SOL    HW230942   6.086   0.885   2.179 -0.7666 -3.3110 -0.7855
 6755SOL     OW30943   3.050   4.646   2.891  0.3287  0.4546  0.2042
 6755SOL    HW130944   3.021   4.593   2.812 -0.1194 -0.5865  1.0534
 6755SOL    HW230945   2.989   4.725   2.902  0.4914  0.6927 -0.5770
 6756SOL     OW30946   2.794   3.995   0.238 -0.3306 -0.4382  0.2849
 6756SOL    HW130947   2.711   3.965   0.193 -1.7754  1.2113  1.7569
 6756SOL    HW230948   2.793   3.966   0.334  1.1877 -1.1379  0.1082
 6757SOL     OW30949   4.392   3.101   0.063  0.2776  0.0896  0.3197
 6757SOL    HW130950   4.303   3.132   0.096 -0.2711 -0.4877 -0.5866
 6757SOL    HW230951   4.448   3.072   0.140 -0.9879 -1.2632  0.7559
 6758SOL     OW30952   3.129   4.382   1.833  0.3870  0.5349  0.3862
 6758SOL    HW130953   3.084   4.388   1.923 -1.2879 -2.2127 -0.2089
 6758SOL    HW230954   3.223   4.415   1.841 -0.3590  2.3124  2.6635
 6759SOL     OW30955   2.058   4.847   4.700 -0.4239  0.2691  0.3339
 6759SOL    HW130956   2.016   4.842   4.609  0.1549 -1.7957  0.1607
 6759SOL    HW230957   2.002   4.795   4.765  1.2839 -1.6477  0.3107
 6760SOL     OW30958   2.070   7.104   2.914 -0.3592  0.0098 -0.1741
 6760SOL    HW130959   2.002   7.153   2.860 -1.1539 -1.0876 -0.2046
 6760SOL    HW230960   2.035   7.012   2.935  0.8212 -0.3112  0.4146
 6761SOL     OW30961   8.292   1.582   1.867 -0.4105  0.0991 -0.4266
 6761SOL    HW130962   8.242   1.509   1.820 -0.0243 -1.2355  1.1498
 6761SOL    HW230963   8.335   1.544   1.950 -0.5759  2.2344  0.6640
 6762SOL     OW30964   9.248   7.027   0.723  0.6482 -0.1075  0.2575
 6762SOL    HW130965   9.334   7.077   0.717 -0.3482  1.4758 -1.6252
 6762SOL    HW230966   9.192   7.048   0.643 -0.7777 -2.4705  0.5891
 6763SOL     OW30967   1.157   5.972   1.490  0.3563  1.0652  0.3564
 6763SOL    HW130968   1.222   5.932   1.555  0.5315  0.7622 -0.0058
 6763SOL    HW230969   1.068   5.984   1.536  0.1255 -0.3102  0.2958
 6764SOL     OW30970   8.555   2.796   2.300  0.3272  0.0136  0.5610
 6764SOL    HW130971   8.496   2.754   2.369 -0.1676 -0.5348 -0.1834
 6764SOL    HW230972   8.530   2.762   2.209  0.5769  1.1701  0.0423
 6765SOL     OW30973   7.796   8.368   3.834  0.5088 -0.4039 -0.0567
 6765SOL    HW130974   7.837   8.381   3.744  2.0457 -0.4973  0.6067
 6765SOL    HW230975   7.738   8.288   3.833  1.2697 -0.9568 -0.7194
 6766SOL     OW30976   4.515   7.242   2.468 -0.8924 -0.2523 -0.2745
 6766SOL    HW130977   4.447   7.209   2.534  0.1226  0.5754  1.1950
 6766SOL    HW230978   4.607   7.230   2.506 -0.2093 -1.0675 -2.1203
 6767SOL     OW30979   7.753   2.153   1.295  0.7005  0.2226  0.6418
 6767SOL    HW130980   7.725   2.076   1.238  1.4692  0.8382 -0.5835
 6767SOL    HW230981   7.757   2.236   1.240  0.4248  1.0411  1.8310
 6768SOL     OW30982   3.094   5.359   2.314  0.1836 -0.8682  0.2753
 6768SOL    HW130983   3.065   5.265   2.297 -0.2849 -0.6073 -0.3978
 6768SOL    HW230984   3.038   5.398   2.388  1.4367 -1.6200  1.6632
 6769SOL     OW30985   7.787   1.107   1.314  0.2447  0.1375 -0.0598
 6769SOL    HW130986   7.734   1.179   1.269  1.5345  0.0359 -1.8404
 6769SOL    HW230987   7.877   1.143   1.339  0.7357 -0.7166 -0.5598
 6770SOL     OW30988   7.146   7.698   2.149  0.1290 -0.4365 -0.3271
 6770SOL    HW130989   7.152   7.679   2.247  0.2800  0.0601 -0.2372
 6770SOL    HW230990   7.195   7.783   2.128  0.5158 -0.7922 -0.9096
 6771SOL     OW30991   9.036   2.772   3.422 -0.4038 -0.2985 -0.0613
 6771SOL    HW130992   9.081   2.771   3.511  0.6600 -0.7146 -0.5979
 6771SOL    HW230993   8.937   2.782   3.435 -0.6167 -3.4984  1.2894
 6772SOL     OW30994   7.672   0.033   0.484  0.5056  0.5041 -0.3578
 6772SOL    HW130995   7.698   0.039   0.581  2.3805  0.0193 -0.7993
 6772SOL    HW230996   7.573   0.044   0.475  0.3262  0.7042  1.5987
 6773SOL     OW30997   8.540   7.697   2.255 -0.7623 -0.5606 -0.5367
 6773SOL    HW130998   8.505   7.728   2.167 -0.5275 -0.5322 -0.6217
 6773SOL    HW230999   8.478   7.725   2.328 -0.8701 -0.4355 -0.6779
 6774SOL     OW31000   3.216   9.140   4.765 -0.4489  0.3194  0.0439
 6774SOL    HW131001   3.311   9.121   4.741  0.1612  1.8256  1.2281
 6774SOL    HW231002   3.160   9.059   4.745  1.1428 -0.7330 -0.2437
 6775SOL     OW31003   1.067   9.008   3.765  0.3813  0.4052 -0.1912
 6775SOL    HW131004   1.114   9.039   3.682  1.2380 -0.5813 -0.0812
 6775SOL    HW231005   0.970   8.995   3.746  0.9658 -2.0476 -1.6578
 6776SOL     OW31006   0.335   0.479   3.834 -0.5695  0.2697 -0.4354
 6776SOL    HW131007   0.324   0.522   3.924  0.9715 -0.0415 -0.0834
 6776SOL    HW231008   0.314   0.381   3.841  0.4708  0.0519 -0.1799
 6777SOL     OW31009   2.277   4.961   0.579  0.1818 -0.0791 -0.4664
 6777SOL    HW131010   2.367   4.996   0.604  0.0891  0.0565 -0.3202
 6777SOL    HW231011   2.229   4.930   0.661  0.7484 -1.7142 -0.7382
 6778SOL     OW31012   3.727   0.933   3.287  0.0275 -0.0301 -0.2205
 6778SOL    HW131013   3.805   0.878   3.316  1.0954  0.6901 -1.6672
 6778SOL    HW231014   3.661   0.874   3.240  0.1873 -0.4550  0.0873
 6779SOL     OW31015   6.645   9.335   2.520 -0.4372  0.3829  0.3403
 6779SOL    HW131016   6.591   9.380   2.449 -0.1572  1.2249  0.6502
 6779SOL    HW231017   6.695   9.258   2.481 -0.9273  0.3366 -0.1992
 6780SOL     OW31018   0.107   7.636   4.754 -0.1853 -0.3803  0.0245
 6780SOL    HW131019   0.204   7.645   4.732 -0.4107 -0.5742 -1.0732
 6780SOL    HW231020   0.074   7.721   4.796  0.3366 -0.1284 -0.0743
 6781SOL     OW31021   7.078   0.302   3.905 -0.3843 -0.4702 -0.4982
 6781SOL    HW131022   7.109   0.215   3.869  0.2267 -1.4358  2.1954
 6781SOL    HW231023   7.049   0.362   3.830  0.6269 -2.4117 -2.4795
 6782SOL     OW31024   9.556   5.602   1.961 -0.0379  0.0068 -0.0100
 6782SOL    HW131025   9.584   5.638   2.050 -1.2153  0.7464  0.0641
 6782SOL    HW231026   9.459   5.579   1.963 -0.6913  2.4229 -1.8605
 6783SOL     OW31027   2.858   0.634   4.214 -0.4603 -0.2410 -0.2263
 6783SOL    HW131028   2.905   0.639   4.125 -1.0223 -1.1030 -0.5823
 6783SOL    HW231029   2.804   0.549   4.218 -0.5444 -0.1386  0.8880
 6784SOL     OW31030   3.320   6.005   2.473 -0.2094 -0.4085 -0.0712
 6784SOL    HW131031   3.246   6.019   2.539 -0.5605  0.7831 -0.6991
 6784SOL    HW231032   3.375   6.089   2.466  0.5806 -0.9458 -0.3697
 6785SOL     OW31033   0.169   8.468   2.446 -0.3215  0.1749 -0.5807
 6785SOL    HW131034   0.178   8.566   2.465  0.6934 -0.3315  1.5880
 6785SOL    HW231035   0.184   8.452   2.348  0.4800  2.0671 -0.7894
 6786SOL     OW31036   3.907   7.023   0.366  0.4509 -0.1484  0.6586
 6786SOL    HW131037   3.919   7.122   0.365  3.2407 -0.4632 -0.4333
 6786SOL    HW231038   3.852   6.996   0.286 -0.4493  0.5114  1.0424
 6787SOL     OW31039   1.597   8.388   2.496 -0.5483 -0.0637 -0.5713
 6787SOL    HW131040   1.613   8.463   2.561 -0.9136 -1.1025  0.7546
 6787SOL    HW231041   1.507   8.399   2.454 -0.0149  1.0122 -1.4730
 6788SOL     OW31042   1.843   3.075   0.309  0.5469 -0.5793  0.3619
 6788SOL    HW131043   1.933   3.038   0.285  0.8448 -1.5834  2.9232
 6788SOL    HW231044   1.825   3.059   0.406 -1.8864  0.7105  0.1539
 6789SOL     OW31045   2.304   7.941   0.959 -0.0755  0.2859  0.3642
 6789SOL    HW131046   2.312   8.038   0.982  0.2265  0.3686 -0.0894
 6789SOL    HW231047   2.208   7.912   0.967 -0.1806  0.6465  0.3879
 6790SOL     OW31048   9.226   2.098   3.397  0.0743 -0.1968 -0.3668
 6790SOL    HW131049   9.323   2.106   3.419  0.1666  1.4736 -1.3045
 6790SOL    HW231050   9.203   2.164   3.325 -2.2366  0.9330  1.3755
 6791SOL     OW31051   5.000   1.819   2.599 -0.5264 -0.0779 -0.1264
 6791SOL    HW131052   4.996   1.898   2.661  1.1130 -1.3117  1.6148
 6791SOL    HW231053   4.963   1.845   2.510 -0.6727  2.4465  0.6219
 6792SOL     OW31054   0.965   7.436   1.611 -0.1763  0.0412  0.1267
 6792SOL    HW131055   0.999   7.354   1.566  0.9618  0.8441 -0.4895
 6792SOL    HW231056   0.875   7.460   1.574  0.3811  0.2236 -1.1081
 6793SOL     OW31057   2.178   2.475   1.479  1.1066  0.1778 -0.2339
 6793SOL    HW131058   2.108   2.494   1.547  1.6851  0.8167  0.1921
 6793SOL    HW231059   2.218   2.561   1.447  0.5632 -0.0944 -1.6828
 6794SOL     OW31060   3.485   5.716   3.139  0.2560  0.1092  0.3042
 6794SOL    HW131061   3.583   5.705   3.130  0.4540  1.2619  0.9177
 6794SOL    HW231062   3.448   5.761   3.057  0.3770  0.4480  0.4327
 6795SOL     OW31063   7.731   8.685   4.729  0.7766 -0.1424  0.1420
 6795SOL    HW131064   7.727   8.585   4.730  2.9788 -0.2812 -1.7214
 6795SOL    HW231065   7.653   8.720   4.676  0.7955 -0.9414 -0.4306
 6796SOL     OW31066   8.378   2.020   2.900 -0.2735 -0.1621 -0.4438
 6796SOL    HW131067   8.461   2.076   2.902 -1.1830  1.2171 -0.4776
 6796SOL    HW231068   8.386   1.946   2.967  0.5587  0.5851  0.3039
 6797SOL     OW31069   2.127   7.813   3.291  0.4031 -0.0667 -0.0996
 6797SOL    HW131070   2.203   7.784   3.233  0.6127  0.1760  0.0524
 6797SOL    HW231071   2.064   7.737   3.304  0.2443 -0.0565 -0.8273
 6798SOL     OW31072   3.621   7.621   1.515  0.7372 -0.8714 -0.4402
 6798SOL    HW131073   3.715   7.608   1.484  1.0851  1.5062 -0.4550
 6798SOL    HW231074   3.615   7.704   1.570 -1.4130 -0.8525 -0.6474
 6799SOL     OW31075   7.729   3.097   0.792 -0.0151  0.1014  0.2498
 6799SOL    HW131076   7.706   3.000   0.788  0.2965  0.0468 -0.2756
 6799SOL    HW231077   7.646   3.152   0.777 -0.1300 -0.0859  0.1989
 6800SOL     OW31078   9.005   6.582   1.845  0.5603  0.0188  1.1944
 6800SOL    HW131079   9.067   6.633   1.785  0.5702  0.1562  1.3226
 6800SOL    HW231080   9.044   6.492   1.864  1.2076  0.4881  2.1016
 6801SOL     OW31081   0.426   1.358   2.670 -0.2749  0.1213  0.0012
 6801SOL    HW131082   0.396   1.419   2.743  0.9635  0.0498  0.5703
 6801SOL    HW231083   0.431   1.409   2.584  0.0555  0.6487  0.3315
 6802SOL     OW31084   4.910   3.100   0.382  0.3884 -0.0499  0.0106
 6802SOL    HW131085   4.848   3.077   0.457 -0.9568 -0.9703 -1.3583
 6802SOL    HW231086   4.905   3.199   0.365 -0.3578 -0.0413  0.2270
 6803SOL     OW31087   3.264   6.846   2.372 -0.5157 -0.3643 -0.8473
 6803SOL    HW131088   3.348   6.818   2.418  0.5145  1.1994 -1.7314
 6803SOL    HW231089   3.192   6.859   2.440  0.3623 -0.2791  0.0777
 6804SOL     OW31090   2.414   8.035   2.915  0.0317  0.2703  0.5249
 6804SOL    HW131091   2.318   8.053   2.893 -0.3322 -0.5602  1.4049
 6804SOL    HW231092   2.467   8.031   2.830 -1.0942 -1.4870 -0.1193
 6805SOL     OW31093   8.022   9.240   1.025 -0.2877  0.6913  0.5021
 6805SOL    HW131094   7.953   9.168   1.033 -1.0261  1.4895  1.3275
 6805SOL    HW231095   8.058   9.241   0.931 -1.5677  0.4359 -0.0065
 6806SOL     OW31096   3.472   7.695   1.280 -0.2195 -0.0060 -0.1582
 6806SOL    HW131097   3.518   7.662   1.362 -0.0220 -1.3955 -0.8206
 6806SOL    HW231098   3.539   7.711   1.208 -0.3320  1.7055  0.0992
 6807SOL     OW31099   3.497   2.510   1.663 -0.0570  0.5006  0.6283
 6807SOL    HW131100   3.569   2.517   1.731 -0.0933  0.2906  0.6909
 6807SOL    HW231101   3.460   2.417   1.664  1.1810 -0.0286 -0.9413
 6808SOL     OW31102   0.651   1.453   4.379 -0.6074  0.1576  0.3789
 6808SOL    HW131103   0.708   1.468   4.298 -0.2687  0.6983  0.7208
 6808SOL    HW231104   0.555   1.464   4.354 -0.4681  1.0068  0.1965
 6809SOL     OW31105   3.429   3.477   2.495 -0.1205  0.2260 -0.7231
 6809SOL    HW131106   3.466   3.481   2.587 -0.7438  2.3072 -0.5390
 6809SOL    HW231107   3.498   3.505   2.429  0.3472 -1.3280 -0.9142
 6810SOL     OW31108   9.561   8.857   4.177  0.1731 -1.0571 -0.4643
 6810SOL    HW131109   9.462   8.868   4.169  0.3198  0.5474 -0.1650
 6810SOL    HW231110   9.581   8.780   4.238 -0.8932  1.0883  2.6974
 6811SOL     OW31111   5.201   7.758   2.007  0.2692 -0.3045  0.6869
 6811SOL    HW131112   5.140   7.831   2.037  1.5827  0.6229  1.1642
 6811SOL    HW231113   5.155   7.703   1.937 -0.0921  2.1644 -1.1242
 6812SOL     OW31114   2.807   4.242   0.125  0.1469  0.3719  0.0389
 6812SOL    HW131115   2.805   4.151   0.167 -0.8890  0.9093  1.1735
 6812SOL    HW231116   2.729   4.295   0.157  2.3521  2.7224  1.7838
 6813SOL     OW31117   8.262   8.847   4.283  0.0071 -0.3050  0.4491
 6813SOL    HW131118   8.245   8.796   4.367  1.2065  2.0395  2.1798
 6813SOL    HW231119   8.328   8.920   4.300  1.6220 -0.8440 -2.9647
 6814SOL     OW31120   8.446   2.793   3.813 -0.4207  0.1444  0.0662
 6814SOL    HW131121   8.482   2.767   3.902 -1.2547 -0.0088  0.3695
 6814SOL    HW231122   8.356   2.836   3.825 -1.8781 -2.5253 -0.9298
 6815SOL     OW31123   9.024   9.001   3.511 -0.4487 -0.3494  0.1958
 6815SOL    HW131124   9.046   8.948   3.593  2.1903 -1.9793 -1.4983
 6815SOL    HW231125   9.106   9.048   3.478 -1.6207  0.7708 -1.1995
 6816SOL     OW31126   9.211   7.644   1.940 -0.0327  0.2518 -0.0066
 6816SOL    HW131127   9.179   7.566   1.886  0.9284  0.2393 -0.5751
 6816SOL    HW231128   9.133   7.700   1.967 -0.5326  0.3093 -1.5052
 6817SOL     OW31129   7.797   9.630   2.269 -0.0821 -0.4728  0.0046
 6817SOL    HW131130   7.731   9.602   2.199 -0.9965  1.5763  0.0048
 6817SOL    HW231131   7.761   9.610   2.360 -0.6443  0.4685 -0.0018
 6818SOL     OW31132   1.270   5.689   4.488 -0.3389  0.4837  0.2621
 6818SOL    HW131133   1.211   5.634   4.427 -0.4450  0.9857 -0.0889
 6818SOL    HW231134   1.260   5.786   4.465  3.5857  0.3548 -2.4667
 6819SOL     OW31135   0.024   0.223   1.355 -0.5249 -0.3054  0.2326
 6819SOL    HW131136  -0.038   0.188   1.426 -1.3560  0.9438  0.1345
 6819SOL    HW231137  -0.024   0.223   1.267 -0.1485  0.0075  0.0313
 6820SOL     OW31138   0.003   6.048   1.090 -0.4086 -0.2538 -0.0119
 6820SOL    HW131139  -0.049   6.009   1.166  0.6296  0.7909  1.2618
 6820SOL    HW231140   0.024   5.976   1.023 -0.2212 -1.4591  1.3326
 6821SOL     OW31141   8.286   1.132   3.359  0.1114  0.5739  0.1123
 6821SOL    HW131142   8.309   1.070   3.285  1.5995 -0.1494  1.1501
 6821SOL    HW231143   8.329   1.101   3.444 -1.6914  1.2859  1.3395
 6822SOL     OW31144   9.355   6.602   3.879 -0.2974 -0.5604  0.4010
 6822SOL    HW131145   9.369   6.604   3.780  1.2102  0.1932  0.6117
 6822SOL    HW231146   9.414   6.532   3.919 -0.9722 -0.9245  0.7518
 6823SOL     OW31147   0.872   2.698   4.718  0.3386 -0.1009 -0.1419
 6823SOL    HW131148   0.780   2.734   4.733  0.5358 -0.2208  1.4439
 6823SOL    HW231149   0.899   2.642   4.796  1.9207  0.2843 -0.3924
 6824SOL     OW31150   1.317   8.399   3.131  0.0871  0.0914 -0.2563
 6824SOL    HW131151   1.387   8.466   3.155 -0.3485 -0.1101  1.6908
 6824SOL    HW231152   1.351   8.307   3.149 -0.9220  0.0295  1.4529
 6825SOL     OW31153   9.588   9.648   1.128 -0.5093 -1.2382 -0.1781
 6825SOL    HW131154   9.622   9.630   1.036  0.6742  0.5740 -0.1153
 6825SOL    HW231155   9.652   9.611   1.195 -0.8885 -1.7060 -0.0685
 6826SOL     OW31156   3.784   3.504   3.972 -0.2339 -0.0963 -0.0466
 6826SOL    HW131157   3.779   3.409   3.941  2.6755 -0.3705  0.1861
 6826SOL    HW231158   3.805   3.505   4.070 -1.7439  0.8107  0.2838
 6827SOL     OW31159   2.292   6.644   2.082 -0.2261  0.2060 -0.3835
 6827SOL    HW131160   2.281   6.620   1.986 -0.8775 -0.9576 -0.0342
 6827SOL    HW231161   2.244   6.729   2.101 -0.4040  0.2468 -1.0138
 6828SOL     OW31162   3.909   5.051   2.651  0.2090 -0.1506  0.1854
 6828SOL    HW131163   3.863   5.092   2.729  0.4995 -1.8541  1.2761
 6828SOL    HW231164   3.843   5.003   2.593  0.3544 -1.1982  0.8680
 6829SOL     OW31165   7.554   9.670   4.744  0.4987 -0.3005 -0.2559
 6829SOL    HW131166   7.585   9.577   4.725  0.7332 -0.8084  2.3661
 6829SOL    HW231167   7.628   9.721   4.789  0.8561  1.6188 -2.9160
 6830SOL     OW31168   2.685   1.032   4.257 -0.3044 -1.1506 -0.1790
 6830SOL    HW131169   2.722   0.997   4.343  2.9825  1.1693 -0.5267
 6830SOL    HW231170   2.619   1.104   4.276  0.1667 -0.8722  0.4195
 6831SOL     OW31171   3.051   0.561   2.179  0.4208 -0.6293  0.1017
 6831SOL    HW131172   3.046   0.462   2.170  1.7999 -0.7700  0.8936
 6831SOL    HW231173   2.971   0.602   2.134  0.0375 -2.0639 -0.5517
 6832SOL     OW31174   9.373   3.190   2.835 -0.4067  0.1513 -0.5917
 6832SOL    HW131175   9.314   3.257   2.791 -0.1297  1.8088  1.4678
 6832SOL    HW231176   9.456   3.177   2.781 -0.6264  1.2116 -1.1899
 6833SOL     OW31177   3.734   5.307   3.078  0.2985 -0.0593 -0.7375
 6833SOL    HW131178   3.810   5.257   3.036  0.3509 -0.5909 -0.0151
 6833SOL    HW231179   3.658   5.244   3.095  0.5783 -0.0239  0.7052
 6834SOL     OW31180   2.110   0.830   3.117  0.5704 -0.0899 -0.6654
 6834SOL    HW131181   2.026   0.881   3.099  1.0331  1.0481  0.2905
 6834SOL    HW231182   2.168   0.831   3.036  0.0332 -0.1283 -1.0463
 6835SOL     OW31183   9.146   0.757   3.152 -0.3105  0.5062  0.2689
 6835SOL    HW131184   9.151   0.847   3.196 -2.8225  1.9330 -2.2153
 6835SOL    HW231185   9.185   0.762   3.060 -1.1407 -0.7550 -0.1744
 6836SOL     OW31186   4.740   8.458   2.556 -0.6779  0.3456  0.5668
 6836SOL    HW131187   4.706   8.368   2.582  1.8997 -0.0874  2.5385
 6836SOL    HW231188   4.675   8.500   2.491 -2.1990 -2.6359  0.0606
 6837SOL     OW31189   1.118   2.509   0.855  0.2673 -0.3055  0.6442
 6837SOL    HW131190   1.128   2.601   0.892 -1.1152  0.3182 -0.4880
 6837SOL    HW231191   1.026   2.475   0.874  0.1515 -0.7060 -0.5829
 6838SOL     OW31192   8.919   9.354   3.277  0.1408  0.5702  0.0933
 6838SOL    HW131193   8.836   9.302   3.257  1.6274 -1.7382 -0.3429
 6838SOL    HW231194   8.957   9.391   3.191  0.3382  0.3868  0.1004
 6839SOL     OW31195   4.480   9.429   2.066 -0.1180 -0.0276  0.1219
 6839SOL    HW131196   4.545   9.497   2.030 -1.2015  1.1432  0.3156
 6839SOL    HW231197   4.387   9.459   2.045 -0.6893 -0.4082  2.0521
 6840SOL     OW31198   2.738   6.877   2.462 -0.3290  0.0269  0.0188
 6840SOL    HW131199   2.728   6.806   2.392 -2.3941 -0.1231  0.4316
 6840SOL    HW231200   2.812   6.851   2.525 -0.6629 -1.4629 -0.1843
 6841SOL     OW31201   3.443   5.183   4.245  0.6655  0.1459 -0.0160
 6841SOL    HW131202   3.477   5.089   4.232  0.7510  0.3816 -1.7155
 6841SOL    HW231203   3.371   5.183   4.314 -1.9695 -1.8631 -2.6092
 6842SOL     OW31204   6.864   8.962   3.292  0.5064 -0.5329  0.1962
 6842SOL    HW131205   6.801   9.019   3.238 -0.3813 -1.4544  0.2302
 6842SOL    HW231206   6.840   8.968   3.389  0.8522 -0.4093  0.2729
 6843SOL     OW31207   5.039   0.210   3.159 -0.6030 -0.1329 -0.1381
 6843SOL    HW131208   5.136   0.208   3.134 -0.5289 -2.0622  0.2141
 6843SOL    HW231209   4.990   0.141   3.107 -1.1912 -1.3554  1.9530
 6844SOL     OW31210   8.445   3.600   3.255 -0.1313 -0.1448 -0.3208
 6844SOL    HW131211   8.354   3.618   3.293  0.2427 -3.3202  2.2863
 6844SOL    HW231212   8.438   3.576   3.159 -1.9738  0.1380 -0.2611
 6845SOL     OW31213   9.127   0.913   1.433  0.0098 -0.1589 -0.0439
 6845SOL    HW131214   9.060   0.927   1.360 -1.5537 -0.1028  1.3829
 6845SOL    HW231215   9.088   0.942   1.520  1.5777 -0.9758  0.9485
 6846SOL     OW31216   1.597   1.016   4.419 -0.3401 -0.1101  0.1414
 6846SOL    HW131217   1.672   0.956   4.390 -0.3920  0.1158 -0.4453
 6846SOL    HW231218   1.510   0.980   4.386 -0.4635 -0.2078  0.5684
 6847SOL     OW31219   9.584   0.521   3.420 -0.2632  0.1991 -0.3702
 6847SOL    HW131220   9.642   0.588   3.465 -0.9449 -0.0327  0.8704
 6847SOL    HW231221   9.606   0.518   3.323  1.4994  0.4320 -0.0009
 6848SOL     OW31222   0.226   9.382   1.861 -0.6739 -0.0745 -0.1287
 6848SOL    HW131223   0.321   9.403   1.882 -1.1989  0.4299  1.8568
 6848SOL    HW231224   0.185   9.458   1.809 -0.7755  0.9760  1.4672
 6849SOL     OW31225   7.902   2.031   0.294  0.1332 -0.1106  0.4569
 6849SOL    HW131226   7.864   2.044   0.203 -1.3958 -0.1808  1.0569
 6849SOL    HW231227   8.001   2.032   0.290  0.0734  0.2667 -1.1484
 6850SOL     OW31228   8.066   5.043   0.133 -0.4793 -0.1279 -0.0682
 6850SOL    HW131229   8.065   5.140   0.105 -0.0885 -0.3021 -0.6927
 6850SOL    HW231230   8.010   4.990   0.069  1.2331 -0.6904 -1.1398
 6851SOL     OW31231   8.235   1.692   2.808  0.3175 -0.0591 -0.1223
 6851SOL    HW131232   8.264   1.621   2.743  0.1997  0.5731 -0.8679
 6851SOL    HW231233   8.165   1.750   2.765 -0.2551 -0.0571  0.8057
 6852SOL     OW31234   6.676   0.539   3.220 -0.2885 -0.6417  0.0630
 6852SOL    HW131235   6.619   0.457   3.220 -1.1854 -0.0704  2.7955
 6852SOL    HW231236   6.767   0.517   3.257 -0.3773 -0.5228  0.3559
 6853SOL     OW31237   9.259   1.481   4.637 -0.1516  0.3644 -0.5123
 6853SOL    HW131238   9.308   1.430   4.708  0.3545 -0.4936 -1.4604
 6853SOL    HW231239   9.206   1.554   4.679  1.6634  1.1035  0.5917
 6854SOL     OW31240   3.054   3.568   3.060 -0.1225 -0.5591  0.3669
 6854SOL    HW131241   3.092   3.644   3.112 -2.0888 -0.3375  1.5364
 6854SOL    HW231242   3.000   3.604   2.984 -1.4872 -0.7369  1.2278
 6855SOL     OW31243   1.897   1.311   4.116  0.1454 -0.4306 -0.1195
 6855SOL    HW131244   1.956   1.230   4.114 -0.3294 -0.7552 -1.5765
 6855SOL    HW231245   1.836   1.306   4.195  1.7709 -0.2905  1.1743
 6856SOL     OW31246   8.529   6.869   3.296  0.3502  0.0992  0.9300
 6856SOL    HW131247   8.433   6.878   3.322 -0.1964  2.6393 -1.7233
 6856SOL    HW231248   8.538   6.810   3.216  1.0609 -0.4268  1.3829
 6857SOL     OW31249   2.568   6.823   1.021 -0.4051 -0.0891  0.0098
 6857SOL    HW131250   2.481   6.817   0.972  0.0191  0.6735 -0.8742
 6857SOL    HW231251   2.608   6.914   1.005 -0.1633  0.1037  1.6325
 6858SOL     OW31252   0.731   1.547   3.533 -0.3059 -0.2747  0.3058
 6858SOL    HW131253   0.795   1.501   3.472  0.0202 -0.5731  0.8684
 6858SOL    HW231254   0.668   1.604   3.480  0.2345 -0.2168 -0.2715
 6859SOL     OW31255   9.659   3.294   4.113 -0.5946  0.0753  0.1026
 6859SOL    HW131256   9.705   3.346   4.185  0.9856 -0.5215 -0.4533
 6859SOL    HW231257   9.600   3.225   4.155  3.4695 -3.1291  0.9803
 6860SOL     OW31258   0.033   8.797   0.671  0.6120  0.0961  0.1105
 6860SOL    HW131259  -0.006   8.748   0.749  1.9335 -0.6961  0.2971
 6860SOL    HW231260   0.001   8.755   0.586  1.1334 -0.6202  0.2630
 6861SOL     OW31261   8.418   0.946   1.742 -0.1353  0.0095  0.2979
 6861SOL    HW131262   8.425   0.923   1.839 -0.7710  0.3361  0.4202
 6861SOL    HW231263   8.421   1.046   1.731  2.9796 -0.0782 -0.2460
 6862SOL     OW31264   4.181   2.223   1.058  0.0235 -0.1873  0.1702
 6862SOL    HW131265   4.178   2.183   1.150  0.4212 -0.7242 -0.0471
 6862SOL    HW231266   4.100   2.194   1.007  0.5544 -1.1257 -0.1503
 6863SOL     OW31267   0.871   7.195   4.483 -0.3554  0.1315  1.0186
 6863SOL    HW131268   0.788   7.246   4.463  0.3002  0.8745  0.1429
 6863SOL    HW231269   0.937   7.256   4.527 -0.7856 -0.8055  3.0409
 6864SOL     OW31270   8.847   7.125   0.904 -0.6975  0.3416  0.6634
 6864SOL    HW131271   8.823   7.218   0.879 -0.7139  0.4081  0.9281
 6864SOL    HW231272   8.820   7.062   0.831 -0.4100  0.5802  0.3531
 6865SOL     OW31273   8.452   8.615   2.510 -0.0356  0.2153 -0.6439
 6865SOL    HW131274   8.500   8.696   2.475  0.4635  0.1815 -0.0406
 6865SOL    HW231275   8.516   8.558   2.561 -0.3795 -0.5925 -1.1069
 6866SOL     OW31276   9.656   3.038   2.435  0.3700 -0.2597 -0.3759
 6866SOL    HW131277   9.723   2.987   2.489  0.4934  0.3567  0.0672
 6866SOL    HW231278   9.581   3.067   2.495 -1.4259 -2.8242 -1.2834
 6867SOL     OW31279   4.486   4.278   1.608 -0.4130  0.0577 -0.3125
 6867SOL    HW131280   4.414   4.268   1.539 -0.9489 -0.5547  0.3146
 6867SOL    HW231281   4.562   4.330   1.571 -0.0001 -1.6247 -1.9037
 6868SOL     OW31282   1.943   0.614   2.248 -0.0331  0.3408 -0.6595
 6868SOL    HW131283   1.994   0.575   2.324  0.4300  1.7585 -0.2242
 6868SOL    HW231284   2.006   0.636   2.173 -0.0537  1.6158 -0.3209
 6869SOL     OW31285   3.888   6.753   1.984  0.1369 -0.1846  0.3775
 6869SOL    HW131286   3.897   6.835   1.927 -0.1808 -1.4110 -1.4546
 6869SOL    HW231287   3.794   6.746   2.018  0.1544  0.1822  0.5064
 6870SOL     OW31288   7.325   3.326   0.391 -0.6413 -0.0831 -0.4225
 6870SOL    HW131289   7.400   3.372   0.343 -0.0355 -0.7712 -0.1467
 6870SOL    HW231290   7.271   3.272   0.325 -0.4427 -0.1827 -0.5046
 6871SOL     OW31291   4.719   2.620   0.883  0.7753 -0.1247 -0.1100
 6871SOL    HW131292   4.806   2.611   0.836  0.9558 -0.9123  0.3834
 6871SOL    HW231293   4.647   2.575   0.829  0.7679  0.0356 -0.2358
 6872SOL     OW31294   1.989   6.339   3.324  0.3767 -0.1601 -0.5237
 6872SOL    HW131295   1.966   6.429   3.287 -1.3490 -0.6175 -0.6279
 6872SOL    HW231296   1.941   6.269   3.272  1.1907 -1.0908 -0.0279
 6873SOL     OW31297   5.989   8.753   1.863  0.3051 -0.0333  0.3576
 6873SOL    HW131298   5.997   8.705   1.775 -1.6700 -2.1029  1.2714
 6873SOL    HW231299   6.010   8.850   1.849  0.1543 -0.3327 -2.3775
 6874SOL     OW31300   4.105   7.378   2.393  0.2754 -0.0876 -0.1901
 6874SOL    HW131301   4.041   7.436   2.343  0.3150 -0.3991 -0.6030
 6874SOL    HW231302   4.111   7.410   2.488  0.4236  0.6842 -0.4531
 6875SOL     OW31303   5.369   3.425   1.040  0.2527  0.0012  0.5318
 6875SOL    HW131304   5.345   3.519   1.016 -1.2545 -0.8047 -1.2100
 6875SOL    HW231305   5.325   3.400   1.127 -1.4516  0.0745 -0.2935
 6876SOL     OW31306   3.400   5.528   1.382  0.1029  0.5389 -0.7758
 6876SOL    HW131307   3.401   5.628   1.378  0.6102  0.6450  1.3675
 6876SOL    HW231308   3.490   5.495   1.410 -0.1892 -0.4991 -1.0467
 6877SOL     OW31309   9.299   1.077   2.055  0.7371  0.2458 -0.0103
 6877SOL    HW131310   9.305   1.020   1.973  0.3644  0.4752 -0.2013
 6877SOL    HW231311   9.277   1.020   2.134  0.1325  0.1494 -0.2415
 6878SOL     OW31312   9.262   1.816   3.417  0.5441 -0.2995  0.4668
 6878SOL    HW131313   9.292   1.821   3.512 -0.5435  2.3102  0.7150
 6878SOL    HW231314   9.234   1.907   3.386 -2.6027 -1.7694 -1.2183
 6879SOL     OW31315   0.702   2.581   1.771  0.1565  0.5427 -0.4478
 6879SOL    HW131316   0.658   2.540   1.691 -0.3228  0.6361 -0.2379
 6879SOL    HW231317   0.663   2.540   1.854 -0.1385  1.2414 -0.2411
 6880SOL     OW31318   0.951   5.643   1.591  0.2208  0.3801 -0.0890
 6880SOL    HW131319   0.961   5.544   1.600  3.1715  0.5165 -1.1969
 6880SOL    HW231320   0.891   5.678   1.663 -1.1984 -2.2319  0.0647
 6881SOL     OW31321   2.166   3.738   0.176 -0.5130  0.1548  0.7699
 6881SOL    HW131322   2.123   3.652   0.205 -2.6980  1.3889  1.2737
 6881SOL    HW231323   2.195   3.789   0.257 -1.7050  1.1262  0.5941
 6882SOL     OW31324   0.190   0.163   2.888 -0.3112  0.3537  0.1713
 6882SOL    HW131325   0.172   0.071   2.855  0.4943  0.3854 -0.3836
 6882SOL    HW231326   0.197   0.162   2.988  3.0176 -0.8087 -0.0211
 6883SOL     OW31327   0.828   6.616   1.651  0.3216  0.2110 -0.4064
 6883SOL    HW131328   0.750   6.656   1.700  2.4298  0.8827  2.5290
 6883SOL    HW231329   0.826   6.517   1.662 -0.1676  0.2110 -0.4503
 6884SOL     OW31330   0.987   0.029   1.108  0.4293  0.2499 -0.0955
 6884SOL    HW131331   0.983   0.015   1.009  0.8973  3.8236 -0.6878
 6884SOL    HW231332   0.943   0.115   1.131  0.2354 -0.5997  2.8564
 6885SOL     OW31333   3.062   1.765   0.517  0.1242 -0.0012  0.4812
 6885SOL    HW131334   3.134   1.733   0.456  0.4620  0.9374  0.3849
 6885SOL    HW231335   3.083   1.857   0.549 -1.3363  0.5251 -0.0218
 6886SOL     OW31336   7.770   5.236   0.057 -0.0204  0.4367  0.6610
 6886SOL    HW131337   7.708   5.296   0.005 -1.3887 -1.3689  0.1346
 6886SOL    HW231338   7.716   5.169   0.107  1.5129 -0.9542  0.4776
 6887SOL     OW31339   3.506   0.007   1.334  0.3072 -0.1651 -0.2319
 6887SOL    HW131340   3.453  -0.057   1.278 -0.6874  1.6317 -1.4063
 6887SOL    HW231341   3.586  -0.039   1.371 -0.2612 -2.0135 -1.2473
 6888SOL     OW31342   0.951   7.962   2.681 -0.0564  0.6659 -0.9232
 6888SOL    HW131343   1.029   7.979   2.742  0.1026 -2.2143 -0.2791
 6888SOL    HW231344   0.867   7.992   2.725  0.2042 -0.2431  0.2338
 6889SOL     OW31345   0.268   8.078   2.758  0.4947 -0.3383  0.0694
 6889SOL    HW131346   0.320   8.026   2.691  0.3076  0.4842 -0.7237
 6889SOL    HW231347   0.307   8.064   2.849  0.6184 -1.6214 -0.1771
 6890SOL     OW31348   2.277   3.296   3.394  0.0858  0.4299  0.1418
 6890SOL    HW131349   2.183   3.329   3.386  0.9108  2.3244 -2.1179
 6890SOL    HW231350   2.276   3.200   3.425 -2.5272  0.6836  0.9775
 6891SOL     OW31351   1.857   3.987   0.733  0.2733  0.1841 -0.1460
 6891SOL    HW131352   1.898   4.037   0.809 -0.8197  1.2629 -0.2475
 6891SOL    HW231353   1.905   3.900   0.720  0.9925  0.3655  1.2387
 6892SOL     OW31354   1.490   3.366   3.618  0.2918  0.2882 -0.3844
 6892SOL    HW131355   1.538   3.341   3.702  0.1400 -0.5720 -0.5508
 6892SOL    HW231356   1.545   3.342   3.539  0.0864  0.3684 -0.5536
 6893SOL     OW31357   8.059   3.379   0.563 -0.6604 -0.3629 -0.1654
 6893SOL    HW131358   8.154   3.368   0.534 -0.6078 -0.3843  0.0104
 6893SOL    HW231359   8.005   3.301   0.531 -0.3719 -0.9433  0.7286
 6894SOL     OW31360   0.936   2.263   0.234 -0.6312  0.7961  0.0333
 6894SOL    HW131361   0.928   2.269   0.135 -1.6866  0.6267  0.1071
 6894SOL    HW231362   0.988   2.181   0.259  0.3856  1.2989 -0.4057
 6895SOL     OW31363   5.643   0.390   3.745 -0.2821 -0.0634 -0.5022
 6895SOL    HW131364   5.602   0.433   3.826 -0.2479 -0.3218 -0.3457
 6895SOL    HW231365   5.684   0.302   3.772  1.4700  0.7561 -0.4036
 6896SOL     OW31366   3.846   0.184   0.457  0.0208 -0.4792  0.2093
 6896SOL    HW131367   3.797   0.267   0.485  0.4109 -0.7047  1.5931
 6896SOL    HW231368   3.806   0.105   0.502 -1.9605 -1.4105 -3.0126
 6897SOL     OW31369   8.460   3.146   2.108 -0.1496  0.2426  0.1076
 6897SOL    HW131370   8.443   3.050   2.131  0.7360  0.0895  0.1467
 6897SOL    HW231371   8.406   3.172   2.028 -0.8483 -0.1167  0.4612
 6898SOL     OW31372   7.142   8.578   2.639 -0.2645 -0.2349 -0.1837
 6898SOL    HW131373   7.065   8.519   2.663 -0.3633  0.4679  1.2433
 6898SOL    HW231374   7.166   8.636   2.717  1.9822 -0.7340 -0.4482
 6899SOL     OW31375   8.583   1.888   2.051  0.1576 -0.5447  0.2449
 6899SOL    HW131376   8.657   1.902   1.986  0.9519 -1.1078  1.0244
 6899SOL    HW231377   8.574   1.791   2.073  0.1745 -0.3228  1.2984
 6900SOL     OW31378   2.631   6.272   0.468  0.4545  0.6482  0.2889
 6900SOL    HW131379   2.619   6.174   0.455  1.4833  0.4793  0.5790
 6900SOL    HW231380   2.637   6.292   0.566 -0.6810  1.1192  0.2755
 6901SOL     OW31381   3.244   1.086   0.129 -0.3634  0.6413  0.3813
 6901SOL    HW131382   3.233   0.998   0.082 -1.5019  1.4860 -0.9853
 6901SOL    HW231383   3.294   1.149   0.070  0.6797  0.8359  1.4661
 6902SOL     OW31384   4.591   1.542   3.350  0.1952  0.1173 -0.3674
 6902SOL    HW131385   4.635   1.457   3.377  0.0513  0.3591  0.6323
 6902SOL    HW231386   4.513   1.560   3.409  0.1263  0.8654 -0.6770
 6903SOL     OW31387   7.596   5.604   3.403 -0.3229  0.3922 -0.0940
 6903SOL    HW131388   7.617   5.507   3.417 -1.3283  0.0237 -1.0731
 6903SOL    HW231389   7.680   5.658   3.413  0.3632 -0.6434 -0.1538
 6904SOL     OW31390   3.655   8.808   2.379 -0.3122  0.1930 -0.0716
 6904SOL    HW131391   3.627   8.718   2.414  1.2841  0.3417  1.6920
 6904SOL    HW231392   3.628   8.878   2.445  0.8477  0.7186 -0.1623
 6905SOL     OW31393   1.330   3.188   1.071  0.0252 -0.0914 -0.5387
 6905SOL    HW131394   1.385   3.214   0.991 -0.0300  0.2384 -0.4700
 6905SOL    HW231395   1.306   3.270   1.123 -0.2204 -0.2728 -0.3658
 6906SOL     OW31396   2.872   9.800   0.229 -0.7216 -0.2514 -0.1977
 6906SOL    HW131397   2.821   9.864   0.286  0.5071 -0.3782  1.0552
 6906SOL    HW231398   2.970   9.820   0.235 -0.3415 -2.1117  0.0492
 6907SOL     OW31399   0.131   0.510   0.842 -0.3470  0.0268 -0.0606
 6907SOL    HW131400   0.094   0.601   0.857 -1.1614 -0.6322  2.1272
 6907SOL    HW231401   0.087   0.468   0.763  0.3565  1.6698 -1.3549
 6908SOL     OW31402   8.097   7.706   4.237 -0.3294 -0.0888 -0.1148
 6908SOL    HW131403   8.050   7.685   4.151  0.3298 -0.5031 -0.3769
 6908SOL    HW231404   8.113   7.621   4.287 -2.1574  0.3042  1.1735
 6909SOL     OW31405   9.314   1.219   3.342  0.2161 -0.6783 -0.7368
 6909SOL    HW131406   9.400   1.267   3.323 -0.2539  0.1029 -0.9486
 6909SOL    HW231407   9.311   1.194   3.439  0.4865 -0.2900 -0.6230
 6910SOL     OW31408   3.824   3.321   2.124 -0.1527  0.5247 -0.8633
 6910SOL    HW131409   3.805   3.372   2.208 -0.5341  0.1717 -0.7360
 6910SOL    HW231410   3.765   3.240   2.120  0.2786  0.2242 -1.1833
 6911SOL     OW31411   8.469   7.820   2.969 -0.2527  0.3799  0.0302
 6911SOL    HW131412   8.425   7.741   2.926  1.0025  0.3937 -1.3182
 6911SOL    HW231413   8.406   7.897   2.969  0.1612  0.7625 -3.0002
 6912SOL     OW31414   1.857   4.821   0.811 -0.1815 -0.1402 -0.3202
 6912SOL    HW131415   1.871   4.724   0.830 -0.2604  0.0164  0.5416
 6912SOL    HW231416   1.839   4.833   0.713  1.2426 -0.8384 -0.6927
 6913SOL     OW31417   0.299   1.674   4.365 -0.0245  0.4699  0.1963
 6913SOL    HW131418   0.317   1.600   4.430  0.2928  0.3050 -0.0776
 6913SOL    HW231419   0.279   1.636   4.275 -0.0711  0.7114  0.1024
 6914SOL     OW31420   7.658   0.779   3.081  0.1501  0.5536  0.4170
 6914SOL    HW131421   7.644   0.722   3.000  0.9486 -0.9934  1.3546
 6914SOL    HW231422   7.750   0.817   3.081 -0.6097  2.5195 -0.5863
 6915SOL     OW31423   3.022   2.074   1.338  0.0190 -0.1052  0.1982
 6915SOL    HW131424   3.096   2.141   1.336 -0.7137  0.6944 -2.5204
 6915SOL    HW231425   2.937   2.116   1.304 -1.2637 -1.5011  1.5694
 6916SOL     OW31426   5.915   0.048   1.457  0.2725 -0.1693  0.1254
 6916SOL    HW131427   5.977   0.105   1.403  0.1263  1.1203  1.2805
 6916SOL    HW231428   5.883   0.100   1.536 -1.2572 -1.2677  0.2507
 6917SOL     OW31429   1.035   8.205   4.487  0.2015  0.2162 -0.4116
 6917SOL    HW131430   0.994   8.283   4.535  0.8257  0.8196 -0.8484
 6917SOL    HW231431   0.965   8.136   4.469 -0.2630  0.4762  0.3835
 6918SOL     OW31432   0.218   7.489   0.800  0.1094  0.0488  0.4834
 6918SOL    HW131433   0.187   7.436   0.879  0.0370  0.1498  0.5221
 6918SOL    HW231434   0.304   7.450   0.767 -0.5349 -0.8123 -0.1998
 6919SOL     OW31435   7.801   0.673   4.000 -0.1204  0.1521 -0.2176
 6919SOL    HW131436   7.720   0.628   3.962  0.0299  0.3234 -0.7516
 6919SOL    HW231437   7.784   0.771   4.009 -0.2267  0.0830  0.3560
 6920SOL     OW31438   2.402   4.411   1.016 -0.2153  0.3600 -0.1288
 6920SOL    HW131439   2.421   4.503   1.049 -3.5991  0.6342  1.3006
 6920SOL    HW231440   2.328   4.371   1.071 -0.4911 -2.2831 -2.3175
 6921SOL     OW31441   4.878   1.886   2.379 -0.3334 -0.0651  0.1097
 6921SOL    HW131442   4.895   1.893   2.281 -0.2421  2.4066  0.2727
 6921SOL    HW231443   4.789   1.927   2.401 -0.1751 -0.2254  1.1175
 6922SOL     OW31444   9.857   2.973   3.628  0.4924  0.5475 -0.2235
 6922SOL    HW131445   9.792   3.043   3.599  0.7072  1.3250  1.1144
 6922SOL    HW231446   9.809   2.899   3.675  0.4220  0.4723 -0.4137
 6923SOL     OW31447   3.576   0.798   1.406  0.1295  0.4825  0.6918
 6923SOL    HW131448   3.609   0.836   1.492  0.7491  0.9586  0.2454
 6923SOL    HW231449   3.609   0.704   1.396 -1.5242 -0.2499  1.8646
 6924SOL     OW31450   9.209   2.651   1.974 -0.3314  0.3400  0.5514
 6924SOL    HW131451   9.187   2.714   2.048  1.3896  0.5973  0.8445
 6924SOL    HW231452   9.293   2.601   1.995  0.3260  0.6087 -1.3444
 6925SOL     OW31453   0.269   9.043   2.468 -0.3908 -0.4378  0.7580
 6925SOL    HW131454   0.180   8.999   2.473 -0.5006 -0.3644 -0.3970
 6925SOL    HW231455   0.297   9.050   2.372 -0.0686  1.4012  0.9778
 6926SOL     OW31456   1.017   3.182   0.914  0.1075  0.2841 -0.1560
 6926SOL    HW131457   1.090   3.136   0.864  0.0827 -0.4624  0.4727
 6926SOL    HW231458   1.054   3.223   0.998  0.1243  1.3968 -0.6985
 6927SOL     OW31459   1.288   8.277   4.650 -0.0019 -0.2675  0.1561
 6927SOL    HW131460   1.250   8.288   4.742  0.2979 -0.3730  0.2940
 6927SOL    HW231461   1.213   8.274   4.583 -0.2442 -0.6513  0.4430
 6928SOL     OW31462   9.988   6.251   4.308 -0.0142 -0.0840 -0.3767
 6928SOL    HW131463   9.974   6.154   4.287  1.5967 -0.5984  0.7788
 6928SOL    HW231464   9.900   6.292   4.333 -0.5513 -1.5297  0.2153
 6929SOL     OW31465   0.117   0.749   0.541  0.1347  0.1897  0.0469
 6929SOL    HW131466   0.161   0.798   0.616  0.2354 -0.7315  0.5927
 6929SOL    HW231467   0.019   0.745   0.557 -0.1737  2.2020 -1.1463
 6930SOL     OW31468   0.053   4.883   3.846  0.1789  0.2796 -0.2561
 6930SOL    HW131469   0.092   4.883   3.938  1.3088  0.6911 -0.7179
 6930SOL    HW231470   0.006   4.797   3.828  0.8602 -0.2114  0.3335
 6931SOL     OW31471   2.033   5.374   1.225  0.3136 -0.2454  1.0444
 6931SOL    HW131472   1.940   5.408   1.241  0.3478  0.3980 -0.0660
 6931SOL    HW231473   2.052   5.375   1.127  1.5154 -0.3158  1.2742
 6932SOL     OW31474   8.690   8.956   0.955  0.1147  0.4680 -0.1551
 6932SOL    HW131475   8.763   9.001   0.903  0.6855 -0.2020  0.0473
 6932SOL    HW231476   8.717   8.951   1.052 -0.1873  0.2037 -0.0838
 6933SOL     OW31477   9.599   2.568   1.639  0.3785  0.1756  0.3929
 6933SOL    HW131478   9.618   2.634   1.567 -1.6005  3.3182  2.6448
 6933SOL    HW231479   9.516   2.517   1.616 -0.3733  1.3284  0.5171
 6934SOL     OW31480   7.740   4.142   0.412 -0.3421  0.2558  0.0286
 6934SOL    HW131481   7.739   4.124   0.314  0.5800  1.4295 -0.2018
 6934SOL    HW231482   7.696   4.230   0.430  0.7495  0.6960  0.5344
 6935SOL     OW31483   3.784   9.476   0.269  0.3902  0.2097  0.2106
 6935SOL    HW131484   3.828   9.424   0.342 -1.2474 -1.6060 -0.0234
 6935SOL    HW231485   3.839   9.469   0.186  0.8186 -0.1239  0.5176
 6936SOL     OW31486   5.567   0.736   2.551  0.1000  0.3495 -0.1529
 6936SOL    HW131487   5.630   0.691   2.615 -0.9310 -0.5021  0.2827
 6936SOL    HW231488   5.617   0.761   2.468  1.6241  2.1138  1.2422
 6937SOL     OW31489   4.953   2.123   1.105 -0.0983 -0.4251 -0.0724
 6937SOL    HW131490   4.962   2.168   1.016  1.7211 -1.7874 -0.6202
 6937SOL    HW231491   5.020   2.162   1.168 -0.4678 -0.4002  0.3039
 6938SOL     OW31492   7.325   3.084   0.142  0.2475 -0.1385  0.1727
 6938SOL    HW131493   7.243   3.096   0.197 -0.2754 -0.3560 -0.5512
 6938SOL    HW231494   7.405   3.083   0.201 -0.2915 -0.1359  0.9027
 6939SOL     OW31495   0.992   3.803   4.387  0.4890 -0.0371  0.0859
 6939SOL    HW131496   1.038   3.795   4.475  0.3762 -0.0651  0.1428
 6939SOL    HW231497   1.060   3.812   4.314  0.5824 -0.0226  0.1745
 6940SOL     OW31498   2.558   6.983   2.828 -0.3415 -0.4104 -0.2241
 6940SOL    HW131499   2.551   6.894   2.783  0.8391 -0.8314  0.3897
 6940SOL    HW231500   2.478   7.039   2.806 -0.5182 -1.1754 -1.5913
 6941SOL     OW31501   7.583   8.961   4.217  0.2015  0.1361  0.3749
 6941SOL    HW131502   7.617   9.017   4.141 -0.3327  0.0940  0.1007
 6941SOL    HW231503   7.512   8.899   4.183  0.1580 -0.0732  0.8541
 6942SOL     OW31504   2.943   2.455   1.530  0.2060  0.0260  0.0093
 6942SOL    HW131505   2.885   2.464   1.449 -0.8707  0.9181  0.8575
 6942SOL    HW231506   3.011   2.528   1.531 -0.1840  0.3931  0.2140
 6943SOL     OW31507   0.241   4.258   3.260  0.2125  0.2428 -0.6632
 6943SOL    HW131508   0.332   4.287   3.289  0.6025  0.3400 -1.9456
 6943SOL    HW231509   0.247   4.167   3.217 -0.7843 -1.1711  2.0759
 6944SOL     OW31510   9.763   1.902   4.606 -0.5546 -0.2302  0.0819
 6944SOL    HW131511   9.683   1.841   4.607 -1.0529  0.4306  0.9958
 6944SOL    HW231512   9.765   1.956   4.690  1.4201 -0.9557  0.5333
 6945SOL     OW31513   2.933   4.030   1.139  0.1792  0.0586 -0.1328
 6945SOL    HW131514   2.842   4.002   1.110 -0.0547 -0.1027  0.7354
 6945SOL    HW231515   2.986   3.949   1.164  0.0137  0.2673  0.9206
 6946SOL     OW31516   8.449   8.981   4.451 -0.4877  0.4925 -0.1755
 6946SOL    HW131517   8.440   8.902   4.511 -2.2859 -0.0198 -1.0911
 6946SOL    HW231518   8.543   9.016   4.456  0.5851 -2.2113 -0.3688
 6947SOL     OW31519   0.781   3.210   0.016  0.2705 -0.2090  0.1871
 6947SOL    HW131520   0.764   3.266   0.098  0.5822  0.6288 -0.3075
 6947SOL    HW231521   0.803   3.270  -0.060  1.6581 -1.0676 -0.1065
 6948SOL     OW31522   1.984   4.847   3.442  0.1136 -0.2886  0.2500
 6948SOL    HW131523   1.913   4.850   3.372 -0.8192  0.1186  1.2128
 6948SOL    HW231524   2.066   4.804   3.404 -0.3838 -0.0626 -1.0934
 6949SOL     OW31525   7.279   9.257   1.247 -0.5581 -0.3564 -0.1016
 6949SOL    HW131526   7.187   9.219   1.241  0.0871 -1.7986 -1.2295
 6949SOL    HW231527   7.295   9.294   1.339 -2.3053  0.0808  0.0396
 6950SOL     OW31528   9.676   1.160   1.173 -0.3006  0.1295 -0.4410
 6950SOL    HW131529   9.630   1.182   1.259  0.4861 -2.1346  0.6113
 6950SOL    HW231530   9.697   1.062   1.171  1.9643  0.6082 -2.0993
 6951SOL     OW31531   2.802   2.917   2.477  0.0561 -0.1431  0.1472
 6951SOL    HW131532   2.784   2.866   2.561  0.3826 -0.6499 -0.0879
 6951SOL    HW231533   2.796   3.015   2.496 -0.7460 -0.2653  0.5637
 6952SOL     OW31534   4.144   1.565   2.998  0.2089  0.2336  0.2434
 6952SOL    HW131535   4.089   1.525   2.925  1.3394 -0.4687 -0.2368
 6952SOL    HW231536   4.097   1.645   3.035 -0.9385 -0.1185 -0.4316
 6953SOL     OW31537   3.051   8.376   2.410  0.0018  0.1326  0.2251
 6953SOL    HW131538   3.004   8.463   2.427  1.6160  1.3614 -1.4295
 6953SOL    HW231539   3.010   8.332   2.330 -0.3195 -0.2750  0.6113
 6954SOL     OW31540   0.552   8.920   3.869 -0.1651  0.2817 -0.1049
 6954SOL    HW131541   0.605   8.841   3.839  1.2133 -0.0194  2.9906
 6954SOL    HW231542   0.598   9.004   3.841 -1.1747  0.0354 -2.6189
 6955SOL     OW31543   9.333   6.822   1.592  0.6241 -0.0100  0.1224
 6955SOL    HW131544   9.385   6.861   1.667  1.0727  0.0842 -0.2343
 6955SOL    HW231545   9.373   6.850   1.505  0.1673 -0.1957 -0.1529
 6956SOL     OW31546   1.005   6.603   1.316 -0.5645  0.1915 -0.3826
 6956SOL    HW131547   0.983   6.675   1.382  0.9392  0.7758 -0.5076
 6956SOL    HW231548   0.982   6.514   1.355 -4.9599  0.8308 -1.2200
 6957SOL     OW31549   1.442   9.822   3.997  0.0543  0.1126  0.7546
 6957SOL    HW131550   1.383   9.812   3.917  0.3494 -1.3945  0.7085
 6957SOL    HW231551   1.459   9.919   4.014 -0.2763  0.4635 -0.8111
 6958SOL     OW31552   9.467   4.310   1.525 -0.0989  0.5727 -0.0024
 6958SOL    HW131553   9.484   4.239   1.594  0.6441  0.4481 -0.3047
 6958SOL    HW231554   9.480   4.271   1.434  0.1766  1.0584 -0.1732
 6959SOL     OW31555   9.354   8.144   3.064 -0.3171  0.0135  0.1930
 6959SOL    HW131556   9.269   8.193   3.044 -0.4101 -0.8958 -1.8320
 6959SOL    HW231557   9.405   8.130   2.979  0.4560 -2.0168  0.9562
 6960SOL     OW31558   8.707   7.729   4.221 -0.1501 -0.2120 -0.1423
 6960SOL    HW131559   8.792   7.780   4.206 -0.5836  0.3512 -0.7291
 6960SOL    HW231560   8.668   7.704   4.132 -2.0223  1.9156  0.0303
 6961SOL     OW31561   2.558   8.409   1.563  0.4595 -0.8615 -0.1994
 6961SOL    HW131562   2.615   8.360   1.629  0.1188 -0.8379  0.1141
 6961SOL    HW231563   2.479   8.352   1.540  0.1673 -0.5381  0.0144
 6962SOL     OW31564   3.994   4.118   4.230 -0.1229  0.1053  0.1930
 6962SOL    HW131565   3.922   4.159   4.285  0.3717  0.9987  0.1868
 6962SOL    HW231566   3.984   4.148   4.135 -1.0847 -1.5753 -0.2534
 6963SOL     OW31567   2.519   5.016   0.691  0.0984 -0.4363 -0.0068
 6963SOL    HW131568   2.604   5.063   0.668 -0.2646  1.4270  2.2026
 6963SOL    HW231569   2.532   4.963   0.775 -0.3145 -2.0251 -0.9125
 6964SOL     OW31570   2.389   1.240   3.076 -0.0085 -0.0751  0.0053
 6964SOL    HW131571   2.363   1.185   3.155 -1.6529  2.0665  1.0087
 6964SOL    HW231572   2.342   1.205   2.995  1.4502 -2.0876 -0.0185
 6965SOL     OW31573   1.862   9.291   2.628 -0.0432  0.3530 -0.3828
 6965SOL    HW131574   1.794   9.217   2.629 -0.0932  0.3935  1.2335
 6965SOL    HW231575   1.823   9.371   2.582 -0.7890  0.0992 -0.2060
 6966SOL     OW31576   0.772   1.286   1.078  0.5865 -0.2431 -0.1419
 6966SOL    HW131577   0.699   1.307   1.143  0.1165 -1.4767 -0.2560
 6966SOL    HW231578   0.846   1.237   1.125 -0.5811 -2.7901 -0.8791
 6967SOL     OW31579   0.435   6.018   4.750 -0.3941  0.4471  0.3595
 6967SOL    HW131580   0.408   5.941   4.808 -1.3264 -0.5048 -1.2746
 6967SOL    HW231581   0.438   6.102   4.804 -0.4173 -0.5502  1.9405
 6968SOL     OW31582   4.545   0.304   0.927  0.3724  0.1062 -0.1477
 6968SOL    HW131583   4.532   0.207   0.947 -2.4029  0.4595 -0.1125
 6968SOL    HW231584   4.631   0.335   0.968  1.3159 -2.3233 -0.1950
 6969SOL     OW31585   1.422   1.030   1.327 -0.3156 -0.3360  0.0487
 6969SOL    HW131586   1.443   1.086   1.408  2.3794  1.3277 -1.7115
 6969SOL    HW231587   1.373   1.086   1.260 -2.0762 -1.5607  0.2723
 6970SOL     OW31588   9.632   5.276   2.146 -0.3323 -0.0370 -0.4494
 6970SOL    HW131589   9.594   5.205   2.087 -2.0191  2.1085 -2.0506
 6970SOL    HW231590   9.731   5.280   2.134 -0.3058 -1.6485 -0.8495
 6971SOL     OW31591   5.021   8.165   2.506  0.0205 -0.2393 -0.1119
 6971SOL    HW131592   5.106   8.212   2.482 -0.4082  0.8668  0.4572
 6971SOL    HW231593   5.040   8.069   2.525  0.7282 -0.6183 -2.5580
 6972SOL     OW31594   4.251   3.535   0.888  0.3892  0.0023  0.0274
 6972SOL    HW131595   4.242   3.535   0.988  2.8608 -1.4310  0.2863
 6972SOL    HW231596   4.347   3.534   0.864 -0.2025 -0.4036 -2.3948
 6973SOL     OW31597   2.927   2.330   1.963 -0.0589 -0.6611 -0.4545
 6973SOL    HW131598   2.948   2.246   2.013  0.7148 -0.0427  0.2665
 6973SOL    HW231599   2.908   2.308   1.867  0.5520 -1.6110 -0.3638
 6974SOL     OW31600   3.575   0.337   2.220  0.3331 -0.0761  0.2340
 6974SOL    HW131601   3.492   0.391   2.210  1.2919  0.9808 -2.5888
 6974SOL    HW231602   3.616   0.354   2.310 -0.5747  2.1674  0.2490
 6975SOL     OW31603   1.496   6.894   2.519 -0.1506  0.3980 -0.4111
 6975SOL    HW131604   1.512   6.800   2.548 -0.9965  0.4512  0.2586
 6975SOL    HW231605   1.435   6.894   2.440  1.0753  0.3169 -1.3675
 6976SOL     OW31606   0.746   3.605   4.450  0.1050 -0.8030 -0.5170
 6976SOL    HW131607   0.675   3.579   4.384 -0.5042 -0.9218  0.1816
 6976SOL    HW231608   0.804   3.676   4.409  1.3240 -2.6772 -2.1474
 6977SOL     OW31609   0.106   2.920   4.251 -0.2198  0.2647  0.3358
 6977SOL    HW131610   0.131   2.834   4.294 -0.9864 -0.4684 -0.6679
 6977SOL    HW231611   0.014   2.912   4.211  0.0911  1.2401 -0.5959
 6978SOL     OW31612   0.897   3.812   0.322 -0.1532  0.1065  0.3551
 6978SOL    HW131613   0.939   3.751   0.255 -2.2621  0.1215 -1.0207
 6978SOL    HW231614   0.801   3.787   0.333 -0.4045  1.6154  1.6249
 6979SOL     OW31615   2.976   4.276   4.698  0.1322 -0.2540  0.3002
 6979SOL    HW131616   2.934   4.247   4.784  0.7391  0.7045  0.9287
 6979SOL    HW231617   3.062   4.227   4.685 -0.3433 -0.9660 -0.1405
 6980SOL     OW31618   3.262   2.234   1.362 -0.7291 -0.2180  0.2737
 6980SOL    HW131619   3.280   2.308   1.298  0.1941 -1.7682 -1.2925
 6980SOL    HW231620   3.339   2.170   1.362 -1.1879 -0.8034  2.1452
 6981SOL     OW31621   9.048   3.670   1.245  0.7456  0.0819 -0.0086
 6981SOL    HW131622   9.031   3.760   1.285  0.7963 -0.4066  1.1193
 6981SOL    HW231623   9.065   3.603   1.317 -0.5844 -1.1246 -0.7696
 6982SOL     OW31624   2.775   2.299   1.706  0.5220  0.2913  0.7954
 6982SOL    HW131625   2.838   2.361   1.660 -1.9243  1.1227 -1.5533
 6982SOL    HW231626   2.754   2.222   1.645 -0.8856  0.1341  1.4565
 6983SOL     OW31627   3.619   5.154   3.714  0.4763 -0.0256  0.1308
 6983SOL    HW131628   3.708   5.117   3.743 -0.7163 -0.6128  3.2152
 6983SOL    HW231629   3.563   5.080   3.677  0.6302  0.0178 -0.1906
 6984SOL     OW31630   0.553   0.134   1.066 -0.3147 -0.2754 -0.2838
 6984SOL    HW131631   0.465   0.142   1.112 -0.7720 -0.0012 -1.1920
 6984SOL    HW231632   0.613   0.208   1.095 -1.5451  1.5000 -2.1807
 6985SOL     OW31633   0.507   4.255   1.306  0.3396 -0.0956 -0.1049
 6985SOL    HW131634   0.579   4.238   1.238 -0.1144 -2.0173 -0.1186
 6985SOL    HW231635   0.457   4.171   1.323  0.4478  0.3702  2.6505
 6986SOL     OW31636   0.503   6.794   2.455 -0.4050  0.3546 -0.0508
 6986SOL    HW131637   0.528   6.737   2.377 -0.4027  0.9438 -0.4931
 6986SOL    HW231638   0.581   6.804   2.516 -0.5054 -0.3806  0.2000
 6987SOL     OW31639   3.922   9.335   2.853  0.3158 -0.2185  0.0227
 6987SOL    HW131640   3.943   9.248   2.807  0.2996 -1.0640  1.5798
 6987SOL    HW231641   3.998   9.361   2.912 -0.0454  0.3721  0.2310
 6988SOL     OW31642   3.718   0.470   3.004  0.3386 -0.3713 -0.1949
 6988SOL    HW131643   3.663   0.395   2.968 -1.2125  0.8833 -0.5107
 6988SOL    HW231644   3.718   0.466   3.104  1.5172 -1.6494 -0.2310
 6989SOL     OW31645   8.565   5.495   0.773 -0.7102 -0.0192 -0.0504
 6989SOL    HW131646   8.648   5.487   0.830 -0.2538 -0.9087 -0.8311
 6989SOL    HW231647   8.489   5.525   0.831  0.3550  1.7774  0.4953
 6990SOL     OW31648   1.310   8.097   4.038  0.0266 -0.1369 -0.2914
 6990SOL    HW131649   1.347   8.167   3.976 -3.0979  1.3806 -0.5591
 6990SOL    HW231650   1.295   8.138   4.128  0.2086 -1.0593  0.1568
 6991SOL     OW31651   3.298   6.959   4.574  0.2700 -0.1292  0.3125
 6991SOL    HW131652   3.259   6.974   4.483 -0.0563  0.8030  0.6048
 6991SOL    HW231653   3.258   7.023   4.639  0.3175 -0.9608  1.1749
 6992SOL     OW31654   9.596   3.790   0.763 -0.0357  0.2944 -0.3237
 6992SOL    HW131655   9.562   3.846   0.839  1.3517 -0.7979  1.1600
 6992SOL    HW231656   9.686   3.824   0.735  0.0734 -0.1561 -0.5281
 6993SOL     OW31657   9.930   8.358   4.075 -0.3504  0.2764 -0.7443
 6993SOL    HW131658  10.000   8.429   4.068 -1.0427  0.8426 -2.1289
 6993SOL    HW231659   9.957   8.279   4.020 -0.7406  0.4536 -1.1927
 6994SOL     OW31660   8.742   0.976   3.299 -0.7848 -0.0750  0.4111
 6994SOL    HW131661   8.779   0.917   3.227 -0.2398 -0.1560  0.7585
 6994SOL    HW231662   8.708   0.920   3.374  2.6522  0.0922  2.1963
 6995SOL     OW31663   7.376   1.622   2.383  0.1613  1.0175 -0.0281
 6995SOL    HW131664   7.317   1.543   2.369 -0.4288  1.3134  0.7611
 6995SOL    HW231665   7.469   1.601   2.351  0.2719 -0.3663  1.1408
 6996SOL     OW31666   1.532   2.965   0.521 -0.1720  0.2898 -0.1209
 6996SOL    HW131667   1.494   2.881   0.560  0.8298  0.8892  2.2861
 6996SOL    HW231668   1.630   2.968   0.537 -0.4553  2.7532  1.5395
 6997SOL     OW31669   8.348   0.528   2.682  0.0137  0.2421 -0.6190
 6997SOL    HW131670   8.289   0.595   2.727 -0.4992  0.4378 -1.5641
 6997SOL    HW231671   8.385   0.465   2.750 -2.8931 -1.1192 -0.2046
 6998SOL     OW31672   9.895   8.155   4.590  0.1367 -0.0640 -0.0871
 6998SOL    HW131673   9.915   8.109   4.503 -0.7110  0.8968 -0.7847
 6998SOL    HW231674   9.797   8.151   4.608  0.4953 -1.7219  1.6549
 6999SOL     OW31675   4.288   8.801   1.321 -1.3370 -0.7075 -0.4284
 6999SOL    HW131676   4.357   8.807   1.393 -0.4039  0.1078 -1.3873
 6999SOL    HW231677   4.207   8.852   1.349 -1.4326 -1.3619  0.5395
 7000SOL     OW31678   5.255   2.191   0.782 -0.5955 -0.1424  0.3560
 7000SOL    HW131679   5.317   2.116   0.808 -0.5977 -0.1398  0.3686
 7000SOL    HW231680   5.174   2.153   0.737 -1.0759 -0.2239  1.2798
 7001SOL     OW31681   8.821   4.554   1.463 -0.1134 -0.3265 -0.1431
 7001SOL    HW131682   8.769   4.508   1.390 -0.4886 -0.8058  0.4195
 7001SOL    HW231683   8.757   4.597   1.527  0.2177  0.1363 -0.1195
 7002SOL     OW31684   0.766   3.136   3.264 -0.1941 -0.6619  0.2484
 7002SOL    HW131685   0.698   3.148   3.192 -1.3365  0.1000  1.4090
 7002SOL    HW231686   0.858   3.139   3.225 -0.7471  1.4162 -0.9576
 7003SOL     OW31687   2.272   6.742   4.610  0.8614  0.1791 -0.5139
 7003SOL    HW131688   2.296   6.823   4.557  0.1109  0.3348 -0.6292
 7003SOL    HW231689   2.188   6.760   4.662  0.1224 -0.8501 -1.3241
 7004SOL     OW31690   8.566   1.685   2.713  0.2510 -0.3862 -0.1289
 7004SOL    HW131691   8.561   1.783   2.693 -1.4661 -0.4177  0.0912
 7004SOL    HW231692   8.505   1.636   2.651  2.0522 -1.4641 -1.0864
 7005SOL     OW31693   7.598   8.165   3.884  0.3594 -0.4346 -0.3591
 7005SOL    HW131694   7.522   8.217   3.924  0.5049 -0.3602 -0.1763
 7005SOL    HW231695   7.643   8.112   3.956 -0.8951 -2.2133 -0.8595
 7006SOL     OW31696   0.034   8.404   1.269  0.7253 -0.0394 -0.7775
 7006SOL    HW131697   0.046   8.354   1.355 -1.1775 -0.5015 -0.7574
 7006SOL    HW231698   0.061   8.346   1.193  2.3705  0.3549 -0.5020
 7007SOL     OW31699   9.022   5.240   2.639  0.5047 -0.0163  0.0754
 7007SOL    HW131700   8.986   5.321   2.592  1.5367  0.4501  0.0816
 7007SOL    HW231701   8.952   5.203   2.700 -0.1613  0.5480 -0.3435
 7008SOL     OW31702   4.235   4.168   2.116  0.6167 -0.0979 -0.5358
 7008SOL    HW131703   4.293   4.165   2.034  0.9783  0.8502 -0.3291
 7008SOL    HW231704   4.193   4.259   2.123 -2.0649 -1.2174 -1.4674
 7009SOL     OW31705   4.642   2.305   0.889  0.2923 -0.6840 -0.3818
 7009SOL    HW131706   4.704   2.339   0.960  0.3720 -2.4120  0.4073
 7009SOL    HW231707   4.567   2.255   0.932  0.4207 -1.8885 -1.5210
 7010SOL     OW31708   8.805   7.376   1.910 -0.9966  0.8414  0.0545
 7010SOL    HW131709   8.815   7.287   1.867  1.3614  0.3832  1.4534
 7010SOL    HW231710   8.760   7.366   1.999 -0.7907  1.0316  0.1835
 7011SOL     OW31711   0.224   2.271   3.794  0.1059  0.3032 -0.4130
 7011SOL    HW131712   0.315   2.232   3.781 -0.6113 -0.7631 -2.5184
 7011SOL    HW231713   0.174   2.219   3.862  0.3218 -0.4358 -0.8200
 7012SOL     OW31714   9.144   6.769   3.966  0.3188 -0.3254 -0.4104
 7012SOL    HW131715   9.162   6.778   4.064 -0.5620  0.8417 -0.3422
 7012SOL    HW231716   9.205   6.701   3.927  0.9534 -0.5081  0.8762
 7013SOL     OW31717   2.826   8.715   0.699 -0.0587 -0.0852  0.1932
 7013SOL    HW131718   2.822   8.619   0.671  0.7174  0.0866 -0.5063
 7013SOL    HW231719   2.781   8.725   0.788  1.5232 -1.4151  1.1619
 7014SOL     OW31720   3.801   8.340   2.622 -0.0100 -0.1788  0.0098
 7014SOL    HW131721   3.874   8.346   2.691 -0.7340 -0.9540  0.8658
 7014SOL    HW231722   3.836   8.294   2.540  0.6086 -0.0853  0.2197
 7015SOL     OW31723   9.082   2.973   1.090 -0.0203  0.0859  0.7191
 7015SOL    HW131724   9.141   2.922   1.028 -1.5419 -0.1383 -0.5752
 7015SOL    HW231725   9.001   2.918   1.111  0.0715  0.5122  2.2265
 7016SOL     OW31726   2.880   4.026   3.591  0.2369 -0.0809 -0.0724
 7016SOL    HW131727   2.919   3.936   3.571  1.7639  0.2001  1.4789
 7016SOL    HW231728   2.874   4.037   3.690 -1.1175  1.0464 -0.2732
 7017SOL     OW31729   8.290   2.103   4.631 -0.1257 -0.1437  0.1299
 7017SOL    HW131730   8.383   2.133   4.653  0.2261 -2.1377  1.5298
 7017SOL    HW231731   8.245   2.070   4.714 -0.5116 -3.2902 -1.2467
 7018SOL     OW31732   9.762   7.406   0.593  0.5037  0.1432 -0.1055
 7018SOL    HW131733   9.770   7.313   0.556 -0.3781  1.2199 -3.1768
 7018SOL    HW231734   9.853   7.447   0.601  0.8972 -0.9716  1.2969
 7019SOL     OW31735   8.198   4.083   0.238  0.0397  0.1697 -0.0856
 7019SOL    HW131736   8.267   4.017   0.267 -1.5510 -1.5963 -0.2524
 7019SOL    HW231737   8.141   4.109   0.316  0.4911  1.1606 -0.0739
 7020SOL     OW31738   7.452   8.773   3.356  0.0280 -0.5537  0.9248
 7020SOL    HW131739   7.538   8.759   3.405  0.2614  0.2291  0.7467
 7020SOL    HW231740   7.404   8.852   3.395  0.8916  0.9797 -1.0194
 7021SOL     OW31741   9.117   5.921   4.330 -0.2993  0.3701  0.0306
 7021SOL    HW131742   9.080   5.996   4.385 -1.3503  0.5863 -0.9509
 7021SOL    HW231743   9.127   5.951   4.235 -1.6243 -0.9930 -0.5633
 7022SOL     OW31744   2.048   4.349   4.346 -0.2721  0.2125  0.3482
 7022SOL    HW131745   2.074   4.254   4.365  0.3399  0.3213  0.0709
 7022SOL    HW231746   2.086   4.376   4.257  0.2089  0.9645  0.7774
 7023SOL     OW31747   8.610   5.581   1.186 -0.0781  0.7389  0.4247
 7023SOL    HW131748   8.517   5.620   1.186 -0.0704  0.7641 -0.0374
 7023SOL    HW231749   8.676   5.654   1.206 -0.0563  0.9957 -0.5533
 7024SOL     OW31750   2.912   2.241   1.002 -0.2295 -0.2772  0.0519
 7024SOL    HW131751   2.816   2.233   0.976  0.3906  1.5954 -3.1685
 7024SOL    HW231752   2.970   2.220   0.923  2.0247 -1.1498  1.8740
 7025SOL     OW31753   9.463   2.629   2.673 -0.0038 -0.0091  0.0912
 7025SOL    HW131754   9.532   2.701   2.687  0.4348 -0.2993 -0.5255
 7025SOL    HW231755   9.417   2.645   2.586  1.8918 -1.9164 -1.3141
 7026SOL     OW31756   3.646   9.289   2.302 -0.2640  0.3552 -0.2845
 7026SOL    HW131757   3.621   9.306   2.207 -0.6114  2.0997  0.1034
 7026SOL    HW231758   3.568   9.247   2.350 -0.3371  0.1407 -0.5927
 7027SOL     OW31759   5.600   7.929   2.343  0.4920 -0.0230  0.0752
 7027SOL    HW131760   5.682   7.891   2.301 -0.4117 -0.7536 -1.0439
 7027SOL    HW231761   5.623   7.966   2.433  2.4704  1.6979 -1.1115
 7028SOL     OW31762   8.644   5.273   3.529  0.0040  0.1346  0.1556
 7028SOL    HW131763   8.676   5.208   3.597  1.1199  0.8546  0.3369
 7028SOL    HW231764   8.610   5.224   3.449  0.2270 -0.6746  0.5507
 7029SOL     OW31765   9.544   7.659   3.017 -0.7796 -0.1323  0.3321
 7029SOL    HW131766   9.533   7.560   3.008 -0.8799 -0.0934  0.0180
 7029SOL    HW231767   9.458   7.704   2.991 -0.1930  0.1285 -1.2115
 7030SOL     OW31768   1.014   9.105   4.042 -0.1298  0.1411 -0.3047
 7030SOL    HW131769   1.036   9.202   4.036 -0.5148  0.2596  0.1839
 7030SOL    HW231770   1.049   9.058   3.961  2.3949  0.2222  0.7066
 7031SOL     OW31771   8.177   9.954   0.266  0.0672 -0.0095 -0.0096
 7031SOL    HW131772   8.137   9.959   0.357 -1.3930 -1.3336 -0.5562
 7031SOL    HW231773   8.153  10.036   0.214  2.7042  1.7780  1.4663
 7032SOL     OW31774   8.590   2.623   0.186  0.0720 -0.0109  0.7104
 7032SOL    HW131775   8.620   2.648   0.278  1.2704  0.8181  0.1072
 7032SOL    HW231776   8.610   2.698   0.123 -1.1535 -0.3965 -0.1392
 7033SOL     OW31777   1.174   5.914   2.836 -0.4271 -0.3461  0.0958
 7033SOL    HW131778   1.237   5.908   2.758 -2.0652  0.8712 -1.3772
 7033SOL    HW231779   1.172   6.008   2.869 -0.2077 -0.7361  1.2373
 7034SOL     OW31780   3.658   8.744   0.356  0.0472  0.4465  0.2445
 7034SOL    HW131781   3.621   8.812   0.292  1.2849  1.2395  0.3566
 7034SOL    HW231782   3.749   8.715   0.325  0.7202  0.9339  1.6894
 7035SOL     OW31783   3.911   4.781   3.243 -0.0590  0.3856 -0.3883
 7035SOL    HW131784   3.812   4.770   3.257 -0.0602  0.0497 -0.6439
 7035SOL    HW231785   3.927   4.835   3.160 -0.0292  0.4115 -0.3654
 7036SOL     OW31786   8.256   9.990   4.213 -0.6028 -0.4033 -0.2456
 7036SOL    HW131787   8.208   9.939   4.142 -0.8757 -1.1509  0.4657
 7036SOL    HW231788   8.193  10.012   4.288 -0.2822  0.2286 -0.1568
 7037SOL     OW31789   1.578   8.665   4.442  0.0873 -0.2682  0.1033
 7037SOL    HW131790   1.619   8.756   4.452  2.4260 -1.3735  1.2133
 7037SOL    HW231791   1.537   8.638   4.529 -1.3182  0.0423 -0.4573
 7038SOL     OW31792   1.085   1.943   3.444 -0.6840  0.4640  0.8742
 7038SOL    HW131793   1.156   1.876   3.465 -1.9876 -2.0222 -2.1694
 7038SOL    HW231794   0.997   1.908   3.475 -1.1456  1.4903  0.7123
 7039SOL     OW31795   1.755   1.797   0.534  0.1812 -0.9861 -0.2301
 7039SOL    HW131796   1.728   1.734   0.606  0.8774  0.2535  1.1269
 7039SOL    HW231797   1.732   1.891   0.560 -0.8303 -0.6383 -2.2116
 7040SOL     OW31798   1.621   3.320   3.390 -0.8243 -0.2350 -0.0096
 7040SOL    HW131799   1.669   3.251   3.335 -3.6769 -1.2417 -1.3960
 7040SOL    HW231800   1.607   3.402   3.335 -1.5847 -0.3472  0.0069
 7041SOL     OW31801   1.698   7.165   3.431  0.1874 -0.7425 -0.2479
 7041SOL    HW131802   1.600   7.143   3.428  0.1394 -0.8626  1.5624
 7041SOL    HW231803   1.718   7.236   3.363 -1.3009 -0.2212 -0.1740
 7042SOL     OW31804   1.851   4.860   3.146 -0.5238  0.2328  0.6550
 7042SOL    HW131805   1.913   4.782   3.138 -0.1487  0.5192  0.7849
 7042SOL    HW231806   1.773   4.847   3.084 -0.2009  0.0026  0.2952
 7043SOL     OW31807   8.596   4.216   4.293 -0.2873  0.1896  0.1801
 7043SOL    HW131808   8.527   4.177   4.232 -0.1202  0.8634 -0.4335
 7043SOL    HW231809   8.669   4.149   4.308 -0.7772 -0.3065  0.3623
 7044SOL     OW31810   2.553   2.310   4.455 -0.0540  0.0552  0.5949
 7044SOL    HW131811   2.540   2.399   4.499 -1.7171  0.2353 -0.2439
 7044SOL    HW231812   2.490   2.244   4.496 -2.3409  0.4558 -2.1470
 7045SOL     OW31813   3.489   6.688   1.454  0.2890 -0.2869 -0.2672
 7045SOL    HW131814   3.543   6.752   1.401 -0.4266  0.2214 -0.3935
 7045SOL    HW231815   3.398   6.680   1.414 -1.1450  2.0558  2.2832
 7046SOL     OW31816   8.461   9.941   0.238 -0.0670 -0.2527 -0.2161
 7046SOL    HW131817   8.365   9.926   0.262 -0.0256 -1.0700 -0.5307
 7046SOL    HW231818   8.491  10.030   0.272 -0.7461 -0.2799  0.4781
 7047SOL     OW31819   1.000   6.784   1.528  0.0757 -0.1276 -0.1253
 7047SOL    HW131820   0.953   6.870   1.509  1.7241  0.6835 -0.7136
 7047SOL    HW231821   0.946   6.728   1.590 -1.3043  1.0674 -0.2359
 7048SOL     OW31822   0.668   0.448   0.237 -0.1524  0.1784 -0.1383
 7048SOL    HW131823   0.687   0.480   0.330 -2.2793  0.7810  0.1121
 7048SOL    HW231824   0.658   0.349   0.238  1.2070  0.0295  0.0134
 7049SOL     OW31825   2.869   3.532   3.273 -0.1739  0.0817  0.1782
 7049SOL    HW131826   2.779   3.546   3.233 -1.3348  0.5993  2.8846
 7049SOL    HW231827   2.937   3.526   3.200 -2.2243  0.8421 -1.8521
 7050SOL     OW31828   9.637   0.755   3.959 -0.1385  0.0256  0.1566
 7050SOL    HW131829   9.607   0.671   4.004 -0.3881  0.1218  0.1710
 7050SOL    HW231830   9.617   0.749   3.861  0.0122 -0.0087  0.1275
 7051SOL     OW31831   7.407   9.995   1.071  0.0763 -0.0631 -0.6443
 7051SOL    HW131832   7.489   9.962   1.024  0.6281  0.3604  0.0132
 7051SOL    HW231833   7.334   9.926   1.064  0.5666 -0.5426 -1.0294
 7052SOL     OW31834   5.287   7.122   3.716 -0.2970 -0.2251 -0.4729
 7052SOL    HW131835   5.289   7.123   3.816 -0.6920 -0.7322 -0.4609
 7052SOL    HW231836   5.194   7.106   3.685 -0.3378  0.8614 -0.9322
 7053SOL     OW31837   3.007   8.054   0.012 -0.0397 -0.1318 -0.5294
 7053SOL    HW131838   3.075   8.121  -0.017  0.9801 -1.0804 -0.3712
 7053SOL    HW231839   2.917   8.083  -0.018  0.2245  1.8932  0.5075
 7054SOL     OW31840   1.439   2.704   0.601 -0.4237 -0.2201 -0.3862
 7054SOL    HW131841   1.357   2.650   0.623 -0.7804 -0.0781 -1.3626
 7054SOL    HW231842   1.485   2.730   0.686 -1.7974  0.3206  0.2177
 7055SOL     OW31843   3.089   0.521   3.138 -0.3067  0.0097 -0.1876
 7055SOL    HW131844   3.131   0.446   3.088 -1.2932 -0.3580 -0.4725
 7055SOL    HW231845   3.101   0.507   3.237 -0.7532 -0.6781 -0.2295
 7056SOL     OW31846   0.318   9.758   0.956  0.1431 -0.7667  0.2252
 7056SOL    HW131847   0.354   9.709   1.036 -0.0409 -0.8633  0.2486
 7056SOL    HW231848   0.244   9.819   0.985 -0.5711 -1.5101 -0.0119
 7057SOL     OW31849   2.640   5.700   0.377 -0.0915 -0.8345  0.2644
 7057SOL    HW131850   2.670   5.775   0.318 -0.5094 -0.8408  0.0423
 7057SOL    HW231851   2.591   5.632   0.322  1.9740 -2.2306  0.0978
 7058SOL     OW31852   2.728   0.796   3.770  0.1902 -0.2092  0.5936
 7058SOL    HW131853   2.786   0.877   3.762  0.2458 -0.3341 -0.3902
 7058SOL    HW231854   2.634   0.820   3.746  0.9470 -1.3147 -4.1739
 7059SOL     OW31855   9.892   1.525   1.142 -0.0759  0.6108  0.4554
 7059SOL    HW131856   9.947   1.573   1.211 -2.0692  0.8882  1.9108
 7059SOL    HW231857   9.798   1.516   1.176 -0.5769 -1.1427 -1.3501
 7060SOL     OW31858   9.858   2.210   3.887 -0.4368  0.1254  0.3740
 7060SOL    HW131859   9.858   2.301   3.847  0.0341 -0.2360 -0.4490
 7060SOL    HW231860   9.775   2.198   3.942 -0.0306  1.3960  1.2863
 7061SOL     OW31861   9.378   1.037   1.449  0.0999 -0.3426 -0.1924
 7061SOL    HW131862   9.438   0.995   1.517  0.5332  0.0213 -0.3448
 7061SOL    HW231863   9.284   1.010   1.466  0.2497 -0.5221  0.3496
 7062SOL     OW31864   1.508   5.969   0.209 -0.0612 -0.4181  0.4525
 7062SOL    HW131865   1.575   5.898   0.185 -0.0587  0.3502 -1.8707
 7062SOL    HW231866   1.499   6.034   0.134 -1.8816  0.6822  1.5816
 7063SOL     OW31867   2.287   4.254   1.189  0.2184 -0.0477 -0.4554
 7063SOL    HW131868   2.207   4.216   1.236  0.7329 -0.4861  0.0780
 7063SOL    HW231869   2.367   4.245   1.248  0.4109  1.6108 -0.4470
 7064SOL     OW31870   9.981   4.139   1.206 -0.0495  0.4516  0.1554
 7064SOL    HW131871   9.948   4.176   1.120  0.1593  0.7979  0.2250
 7064SOL    HW231872   9.928   4.179   1.282 -1.0798 -0.7869  0.1092
 7065SOL     OW31873   9.338   3.231   0.475 -1.2104  0.0012 -0.1613
 7065SOL    HW131874   9.287   3.178   0.407  2.8852 -3.2658 -0.9144
 7065SOL    HW231875   9.392   3.301   0.429 -1.6699  0.5871  0.1867
 7066SOL     OW31876   3.758   3.478   3.611  0.0294  0.0056  0.6805
 7066SOL    HW131877   3.692   3.411   3.646 -2.7030  2.0114 -0.4852
 7066SOL    HW231878   3.742   3.567   3.655  1.7622  0.6158  0.1226
 7067SOL     OW31879   0.855   9.738   2.715  0.3038 -0.0487  0.2806
 7067SOL    HW131880   0.798   9.718   2.795  0.5287  0.5608  0.5928
 7067SOL    HW231881   0.829   9.827   2.677 -0.0255 -0.4832 -0.5229
 7068SOL     OW31882   1.070   1.717   4.122 -0.2426 -0.6985  0.1765
 7068SOL    HW131883   1.072   1.707   4.222 -1.2599 -1.3148  0.1541
 7068SOL    HW231884   0.996   1.660   4.085 -1.6091  1.5654 -0.6819
 7069SOL     OW31885   8.365   5.605   2.749  0.2896  0.4759  0.8084
 7069SOL    HW131886   8.334   5.679   2.690 -0.3369 -0.0678  0.4461
 7069SOL    HW231887   8.294   5.583   2.816  0.3728  0.0429  0.7564
 7070SOL     OW31888   8.650   3.799   3.244 -0.3816  0.4757 -0.8189
 7070SOL    HW131889   8.582   3.727   3.259  0.9108 -0.8592 -1.2584
 7070SOL    HW231890   8.637   3.872   3.311 -2.1965  0.2119 -0.8493
 7071SOL     OW31891   1.181   5.161   2.695  0.5204 -0.0858 -0.1092
 7071SOL    HW131892   1.209   5.065   2.693 -0.2445 -0.3029 -0.8434
 7071SOL    HW231893   1.132   5.183   2.610  0.0562  0.7563  0.3743
 7072SOL     OW31894   9.476   9.247   2.470  0.2653  0.2479 -0.5604
 7072SOL    HW131895   9.414   9.241   2.549 -0.1388  1.6841 -0.7645
 7072SOL    HW231896   9.426   9.222   2.387  0.6054 -0.9535 -0.4097
 7073SOL     OW31897   2.850   6.468   0.820  0.2571 -0.1698 -0.2018
 7073SOL    HW131898   2.881   6.375   0.842 -0.2945 -0.5726 -1.1093
 7073SOL    HW231899   2.888   6.496   0.732 -2.4912 -0.9678 -1.7196
 7074SOL     OW31900   1.417   7.751   4.372 -0.1272  0.4766  0.0782
 7074SOL    HW131901   1.397   7.810   4.450 -0.1529  0.0787  0.3750
 7074SOL    HW231902   1.393   7.798   4.287 -2.5739 -0.0782  0.4177
 7075SOL     OW31903   0.825   1.648   3.987  0.1485 -0.0751  0.1201
 7075SOL    HW131904   0.853   1.610   3.898 -1.0446  0.6986 -0.5898
 7075SOL    HW231905   0.811   1.746   3.978 -4.0792 -0.5906  0.1078
 7076SOL     OW31906   8.828   1.453   4.369 -0.3706 -0.7387 -0.2962
 7076SOL    HW131907   8.806   1.528   4.305 -1.0371  0.3017  1.1280
 7076SOL    HW231908   8.925   1.456   4.391 -0.5622  0.2696  0.4472
 7077SOL     OW31909   3.587   0.635   1.069  0.1647  0.1402 -0.3658
 7077SOL    HW131910   3.543   0.709   1.120 -1.2928  0.4985 -2.0947
 7077SOL    HW231911   3.665   0.671   1.019  1.2440 -0.0962  1.1179
 7078SOL     OW31912   8.524   8.315   2.646  0.0042 -0.6060 -0.3365
 7078SOL    HW131913   8.480   8.374   2.713 -1.1062 -0.7192 -0.9567
 7078SOL    HW231914   8.521   8.221   2.678  2.2699 -0.2869  0.9136
 7079SOL     OW31915   9.946   3.805   0.983  0.1036 -0.2423  0.0809
 7079SOL    HW131916   9.890   3.775   1.061 -1.2132 -0.7664 -1.0363
 7079SOL    HW231917   9.891   3.864   0.924  0.8850 -0.3519 -0.7674
 7080SOL     OW31918   1.607   0.318   2.504  0.0485 -0.0136  0.1336
 7080SOL    HW131919   1.629   0.224   2.531  0.7750  0.5382  1.5182
 7080SOL    HW231920   1.566   0.367   2.581 -0.3464  0.8014 -0.5830
 7081SOL     OW31921   8.853   0.560   3.833  0.1530 -0.2200 -0.0390
 7081SOL    HW131922   8.893   0.618   3.762 -1.2272  0.8474  0.0456
 7081SOL    HW231923   8.786   0.498   3.792 -1.1583  0.8759  0.4073
 7082SOL     OW31924   4.250   2.376   0.134  0.0700 -0.4845 -0.4957
 7082SOL    HW131925   4.345   2.353   0.156  0.1423 -0.3761 -0.6940
 7082SOL    HW231926   4.214   2.311   0.067 -0.1265 -0.7708 -0.1136
 7083SOL     OW31927   2.294   1.765   2.340 -0.3891  0.0843  0.3223
 7083SOL    HW131928   2.380   1.715   2.351  0.4237  0.7588 -2.4468
 7083SOL    HW231929   2.288   1.836   2.410  0.3330 -1.2737  1.7976
 7084SOL     OW31930   1.016   3.299   0.531 -0.2310  0.5132  0.1572
 7084SOL    HW131931   0.971   3.211   0.546 -0.8855  0.9591  0.8707
 7084SOL    HW231932   1.014   3.352   0.616 -0.1302  1.3458 -0.3572
 7085SOL     OW31933   9.656   9.819   0.506  0.2451  0.3069  0.2634
 7085SOL    HW131934   9.639   9.721   0.517 -1.0179  0.6689  1.7474
 7085SOL    HW231935   9.716   9.834   0.428 -0.2153 -1.5933 -0.4762
 7086SOL     OW31936   1.151   8.444   1.059  0.5266  0.2006  0.7318
 7086SOL    HW131937   1.230   8.463   1.118 -0.1775  1.3233  1.3264
 7086SOL    HW231938   1.067   8.474   1.105 -0.1025  0.4022 -0.5342
 7087SOL     OW31939   8.455   7.168   2.992  0.0113 -0.1307 -0.1798
 7087SOL    HW131940   8.356   7.181   2.988  0.3436  2.9076  0.5003
 7087SOL    HW231941   8.485   7.166   3.087  0.8706  1.2500 -0.4137
 7088SOL     OW31942   4.038   1.566   4.127  0.3373 -0.1979 -0.0092
 7088SOL    HW131943   4.124   1.514   4.118  0.3625 -0.0881 -0.4357
 7088SOL    HW231944   4.059   1.659   4.156  0.2207 -0.7014  1.7872
 7089SOL     OW31945   4.035   8.583   3.090 -0.1258  0.3713  0.8362
 7089SOL    HW131946   4.117   8.539   3.125  1.5608  1.6600 -1.3654
 7089SOL    HW231947   3.988   8.520   3.027  0.1257  0.2746  0.7441
 7090SOL     OW31948   2.204   3.766   3.911 -0.2740  0.0936  0.5204
 7090SOL    HW131949   2.263   3.719   3.977  0.8041 -0.1982 -0.6422
 7090SOL    HW231950   2.260   3.812   3.842 -1.3914  0.0255 -0.4590
 7091SOL     OW31951   7.555   9.047   0.142  0.2843  0.1292 -0.1857
 7091SOL    HW131952   7.545   9.095   0.229 -1.2215 -0.5509  0.0237
 7091SOL    HW231953   7.575   8.951   0.159  1.5540  0.3107 -0.6029
 7092SOL     OW31954   7.960   0.591   2.820  0.1954 -0.5066 -0.4930
 7092SOL    HW131955   7.964   0.671   2.761  2.7587 -0.0612  0.1949
 7092SOL    HW231956   7.953   0.508   2.764  0.6518  0.0238 -1.3476
 7093SOL     OW31957   6.707   8.941   2.699 -0.1230  0.4430  0.4075
 7093SOL    HW131958   6.643   9.012   2.669 -0.4031 -0.6419 -1.6893
 7093SOL    HW231959   6.774   8.981   2.761 -0.4903  2.4757 -0.4433
 7094SOL     OW31960   6.984   8.103   1.803 -0.1558  0.6611  0.6942
 7094SOL    HW131961   6.994   8.143   1.712 -2.4456 -1.7821 -0.7043
 7094SOL    HW231962   7.074   8.082   1.840  0.8387  2.4417 -0.6446
 7095SOL     OW31963   5.619   9.752   2.219  0.0400 -0.2694 -0.1058
 7095SOL    HW131964   5.714   9.767   2.192 -0.0735  1.9514  0.6259
 7095SOL    HW231965   5.609   9.658   2.251  1.8411 -0.7260 -0.7696
 7096SOL     OW31966   2.553   2.147   2.845 -0.6667  0.3751  0.4924
 7096SOL    HW131967   2.589   2.128   2.937  0.6609  1.4256  0.2014
 7096SOL    HW231968   2.538   2.061   2.797 -0.3601 -0.1411  1.3068
 7097SOL     OW31969   3.553   4.294   4.114 -0.7094  0.5414 -0.2803
 7097SOL    HW131970   3.526   4.390   4.105 -4.2131 -0.4369 -0.7802
 7097SOL    HW231971   3.560   4.252   4.024 -0.4163 -0.0135 -0.0027
 7098SOL     OW31972   0.774   6.948   1.881  0.4314 -0.0175  0.7535
 7098SOL    HW131973   0.775   7.032   1.934  2.1492 -1.2354  2.7027
 7098SOL    HW231974   0.830   6.960   1.798  0.4635  0.8288  0.8941
 7099SOL     OW31975   8.078   1.815   2.596 -0.4199 -0.3842  0.4059
 7099SOL    HW131976   8.088   1.725   2.553  0.0877 -0.2614  0.2612
 7099SOL    HW231977   7.991   1.819   2.644 -0.1815 -1.1709  0.9138
 7100SOL     OW31978   1.791   9.512   2.436  0.4425  0.0481  0.2185
 7100SOL    HW131979   1.883   9.547   2.422  0.3935  0.2734  0.4498
 7100SOL    HW231980   1.739   9.577   2.491 -0.4230  0.8143 -1.4499
 7101SOL     OW31981   1.824   5.107   0.961 -1.1868  0.2979  0.5477
 7101SOL    HW131982   1.740   5.152   0.992 -1.8797 -1.3051  1.0672
 7101SOL    HW231983   1.829   5.015   1.001 -0.3586 -0.5129 -1.3696
 7102SOL     OW31984   8.659   2.665   4.418  0.0518  0.0974  0.1233
 7102SOL    HW131985   8.583   2.604   4.441 -1.0213  1.1982 -0.4151
 7102SOL    HW231986   8.720   2.620   4.353 -0.0130 -0.8721  0.7198
 7103SOL     OW31987   0.881   6.314   2.626 -0.0905 -0.7334  0.4055
 7103SOL    HW131988   0.878   6.239   2.561  0.4297 -0.8881  0.5534
 7103SOL    HW231989   0.899   6.400   2.578 -1.6134 -0.5594  0.1290
 7104SOL     OW31990   1.994   9.390   0.409 -0.2723  0.0061 -0.2233
 7104SOL    HW131991   1.942   9.383   0.323  1.1562 -1.9050 -0.9650
 7104SOL    HW231992   2.067   9.457   0.398  0.3962 -0.7966 -0.7843
 7105SOL     OW31993   9.725   6.303   0.882  0.2816  0.3343 -0.5301
 7105SOL    HW131994   9.813   6.312   0.928  0.0570  1.6312 -0.3149
 7105SOL    HW231995   9.736   6.253   0.797  1.3498  1.0914 -0.8357
 7106SOL     OW31996   9.972   0.569   3.113  0.1581  0.4078 -0.0784
 7106SOL    HW131997   9.957   0.494   3.049 -0.8333  0.9866 -0.5327
 7106SOL    HW231998  10.044   0.629   3.078 -1.5579  1.6749 -1.5216
 7107SOL     OW31999   2.195   3.252   4.126  0.3206 -0.1013 -0.3429
 7107SOL    HW132000   2.243   3.214   4.047 -2.2008 -1.9294 -1.0564
 7107SOL    HW232001   2.142   3.332   4.098  0.1213 -0.2327 -0.3480
 7108SOL     OW32002   7.179   9.057   4.231  0.2277  0.2285  0.3036
 7108SOL    HW132003   7.174   8.974   4.286  0.7498 -0.4798 -0.6938
 7108SOL    HW232004   7.166   9.137   4.289 -3.6896 -0.6676  0.8076
 7109SOL     OW32005   1.657   0.675   2.696  0.2592  0.1655  0.1902
 7109SOL    HW132006   1.662   0.716   2.605 -0.2578  1.8648  0.9021
 7109SOL    HW232007   1.744   0.631   2.717  1.1389  1.6356 -0.2872
 7110SOL     OW32008   5.285   9.496   3.429  0.6530 -0.2563 -0.5228
 7110SOL    HW132009   5.258   9.511   3.524  2.6896 -3.2050  0.6043
 7110SOL    HW232010   5.368   9.547   3.410  2.1013 -2.2108  0.3450
 7111SOL     OW32011   1.590   0.310   4.135 -0.0545 -0.0114 -0.1819
 7111SOL    HW132012   1.684   0.277   4.142 -0.7768 -2.4045 -1.3265
 7111SOL    HW232013   1.540   0.254   4.069 -2.6788  0.3268  1.4663
 7112SOL     OW32014   9.012   0.414   0.171  0.0116 -0.4788 -0.0908
 7112SOL    HW132015   8.971   0.397   0.082  1.2419 -0.0622 -0.7554
 7112SOL    HW232016   9.040   0.328   0.212 -1.8182 -0.7963  0.5242
 7113SOL     OW32017   2.979   0.595   4.451 -0.4385  0.6935 -0.0197
 7113SOL    HW132018   2.931   0.611   4.365  0.8951 -1.3912 -1.1889
 7113SOL    HW232019   3.078   0.594   4.435 -0.2105 -0.7777  1.3447
 7114SOL     OW32020   3.986   1.545   2.484  0.0709  0.0383  0.0167
 7114SOL    HW132021   3.985   1.482   2.406  0.4050  0.4961 -0.3626
 7114SOL    HW232022   4.080   1.558   2.516 -0.2526 -1.6112  1.7098
 7115SOL     OW32023   2.660   7.877   4.265 -0.2074  0.1006 -0.6140
 7115SOL    HW132024   2.751   7.868   4.307 -0.7040 -1.2800  0.2326
 7115SOL    HW232025   2.664   7.941   4.189  1.5270 -0.0879 -0.7053
 7116SOL     OW32026   1.933   7.455   0.322 -0.3956  0.4371 -0.4815
 7116SOL    HW132027   1.854   7.508   0.288  0.2203  0.4492 -1.9213
 7116SOL    HW232028   2.014   7.514   0.322 -0.4925  0.5783  1.5155
 7117SOL     OW32029   1.201   5.910   0.850  0.5374  0.3754  0.2163
 7117SOL    HW132030   1.127   5.873   0.907  0.6334  0.5453  0.4506
 7117SOL    HW232031   1.178   6.003   0.821  1.4415  1.0813  1.7279
 7118SOL     OW32032   8.272   7.049   3.668  0.2917  0.1588  0.5183
 7118SOL    HW132033   8.342   7.004   3.724 -0.1105 -0.4370  0.5504
 7118SOL    HW232034   8.296   7.043   3.572  1.3630  1.8387  0.6623
 7119SOL     OW32035   1.011   3.050   0.263 -0.0026 -0.6962  0.3727
 7119SOL    HW132036   1.102   3.085   0.286 -0.7417  0.2574  1.9159
 7119SOL    HW232037   1.000   3.050   0.164  0.3227  2.8518  0.2543
 7120SOL     OW32038   9.421   8.547   3.391  0.1674 -0.3713 -0.0482
 7120SOL    HW132039   9.466   8.516   3.307 -1.0419  0.9020 -1.2027
 7120SOL    HW232040   9.346   8.609   3.367  0.4804  0.8438  2.0286
 7121SOL     OW32041   2.807   8.802   2.752 -0.4999  0.5612 -0.5904
 7121SOL    HW132042   2.742   8.827   2.824 -0.7480 -1.1681 -0.1781
 7121SOL    HW232043   2.900   8.817   2.784 -0.6196  0.0905 -0.0129
 7122SOL     OW32044   4.640   2.069   2.474 -0.2761 -0.2281  0.1792
 7122SOL    HW132045   4.650   2.129   2.395  1.0820 -0.4337  0.1743
 7122SOL    HW232046   4.689   2.108   2.552  0.2557 -1.1079  0.2975
 7123SOL     OW32047   0.963   6.531   0.745  0.0204  0.1371  0.4851
 7123SOL    HW132048   1.045   6.580   0.716 -0.4723  0.3582 -0.5518
 7123SOL    HW232049   0.925   6.479   0.668 -0.6163 -0.2322  1.0396
 7124SOL     OW32050   1.501   1.667   4.177  0.4364  0.0438  0.4039
 7124SOL    HW132051   1.589   1.620   4.179  1.6298  2.0559 -2.4491
 7124SOL    HW232052   1.497   1.733   4.252  1.1872 -0.3462  0.7899
 7125SOL     OW32053   9.367   8.694   2.023  0.1190  0.6237 -0.0583
 7125SOL    HW132054   9.273   8.717   2.048 -0.9092 -1.4451 -1.8645
 7125SOL    HW232055   9.410   8.773   1.979 -2.5172  0.0417 -3.9024
 7126SOL     OW32056   2.985   1.300   0.499 -0.6881  0.1195 -0.2622
 7126SOL    HW132057   2.931   1.384   0.491 -1.7545 -0.6479 -1.2582
 7126SOL    HW232058   3.000   1.260   0.409  1.3313  0.1545  0.0231
 7127SOL     OW32059   0.206   6.101   4.616  0.0297 -0.5285  0.5558
 7127SOL    HW132060   0.282   6.046   4.651 -0.6093  0.3273  3.3637
 7127SOL    HW232061   0.121   6.050   4.626 -0.2791  0.0981  1.1312
 7128SOL     OW32062   2.194   1.833   2.109 -0.1441 -0.3583 -0.4620
 7128SOL    HW132063   2.169   1.929   2.119  1.1593 -0.1985  1.4803
 7128SOL    HW232064   2.238   1.801   2.193  0.7983 -2.2389 -1.6364
 7129SOL     OW32065   0.265   9.457   3.475  0.2165  0.9319 -0.6913
 7129SOL    HW132066   0.171   9.473   3.505 -0.0400 -0.2582 -0.8462
 7129SOL    HW232067   0.270   9.372   3.424  1.5416  0.5196  0.0924
 7130SOL     OW32068   5.849   0.195   1.659 -0.0012  0.4394 -0.0330
 7130SOL    HW132069   5.909   0.198   1.739  0.6238  0.2307 -0.4917
 7130SOL    HW232070   5.766   0.247   1.678  0.2719  0.6327  0.6488
 7131SOL     OW32071   0.478   2.627   3.864  0.0162 -0.2538 -0.2053
 7131SOL    HW132072   0.493   2.692   3.789 -0.1508 -0.4314 -0.3948
 7131SOL    HW232073   0.386   2.588   3.855  0.7068 -1.7220 -1.0238
 7132SOL     OW32074   0.134   5.393   2.737  0.6152 -1.1534 -0.0814
 7132SOL    HW132075   0.197   5.456   2.693 -1.8631  1.1152 -0.5605
 7132SOL    HW232076   0.149   5.394   2.836 -1.6826  3.0370  0.3435
 7133SOL     OW32077   4.287   2.803   2.837 -0.2417 -0.2463 -0.1677
 7133SOL    HW132078   4.349   2.842   2.905  0.9422 -0.0759 -1.3224
 7133SOL    HW232079   4.200   2.852   2.839 -0.4337 -0.6376  1.6276
 7134SOL     OW32080   0.909   7.098   1.676 -0.0547 -0.1234  0.6674
 7134SOL    HW132081   0.867   7.182   1.711  0.1387 -1.1273  3.4731
 7134SOL    HW232082   0.839   7.040   1.634 -0.7753  0.0037  1.6765
 7135SOL     OW32083   8.715   2.404   1.609  0.4585 -0.4720  0.2641
 7135SOL    HW132084   8.745   2.496   1.583 -3.5322  0.2462 -2.3332
 7135SOL    HW232085   8.730   2.341   1.533 -0.9006 -0.9100  0.3334
 7136SOL     OW32086   8.009   1.113   2.453 -0.4106 -0.5014 -0.3278
 7136SOL    HW132087   7.962   1.195   2.485 -0.5867 -0.6048 -0.3234
 7136SOL    HW232088   8.036   1.057   2.532 -1.0432 -0.8664 -0.3740
 7137SOL     OW32089   9.109   5.332   4.425 -0.2765  0.7258  0.4314
 7137SOL    HW132090   9.154   5.322   4.514  0.4281  0.4101  0.0443
 7137SOL    HW232091   9.158   5.399   4.370  0.6251 -0.6843 -0.5433
 7138SOL     OW32092   1.526   4.185   1.142  0.0936 -0.5275 -0.5696
 7138SOL    HW132093   1.527   4.151   1.236  0.8178 -1.2597 -0.8355
 7138SOL    HW232094   1.577   4.123   1.083 -0.1420  0.0555 -1.4092
 7139SOL     OW32095   0.947   8.457   0.663  0.0749  0.4455 -0.6481
 7139SOL    HW132096   1.000   8.413   0.590 -0.3603 -0.4085 -0.4619
 7139SOL    HW232097   0.937   8.393   0.739 -1.4031  0.5081 -0.7764
 7140SOL     OW32098   2.124   9.660   2.159  0.0716 -0.1698  0.1296
 7140SOL    HW132099   2.035   9.683   2.120  0.4298 -0.0261 -0.5945
 7140SOL    HW232100   2.178   9.608   2.092  0.4561 -0.4323  0.6363
 7141SOL     OW32101   4.348   9.300   4.604 -0.2902 -0.5353 -0.2194
 7141SOL    HW132102   4.344   9.373   4.672 -3.4834 -0.9070  0.0552
 7141SOL    HW232103   4.277   9.232   4.624 -0.2528 -1.4510 -3.0106
 7142SOL     OW32104   9.131   7.323   2.614  0.3646 -0.2447  0.2294
 7142SOL    HW132105   9.156   7.352   2.522 -0.1194 -1.3535 -0.2556
 7142SOL    HW232106   9.079   7.238   2.610 -2.4211  1.3081  1.2541
 7143SOL     OW32107   1.344   8.187   2.256  0.5743 -0.0178  0.1833
 7143SOL    HW132108   1.377   8.169   2.163  0.4450  0.1370  0.1070
 7143SOL    HW232109   1.247   8.211   2.253  0.2978 -1.0488  0.4671
 7144SOL     OW32110   5.549   8.083   2.018  0.1395  0.2224  0.0715
 7144SOL    HW132111   5.641   8.076   2.056 -1.2585 -0.8969  3.5532
 7144SOL    HW232112   5.501   7.996   2.033 -1.3334  0.6471 -2.0784
 7145SOL     OW32113   3.611   0.795   4.146  0.3320 -0.3340  0.4071
 7145SOL    HW132114   3.628   0.697   4.136  0.7577 -0.2409  0.2310
 7145SOL    HW232115   3.514   0.810   4.165  0.4952 -0.8741  1.6915
 7146SOL     OW32116   1.471   7.854   1.551 -0.5302  0.3597 -0.4365
 7146SOL    HW132117   1.526   7.911   1.612  0.0749 -3.0422  2.3680
 7146SOL    HW232118   1.512   7.853   1.460  0.9716  2.1079  0.1898
 7147SOL     OW32119   9.059   8.659   4.101 -0.1586  0.7190 -0.4098
 7147SOL    HW132120   9.061   8.618   4.192 -1.2210  0.6435 -0.4160
 7147SOL    HW232121   8.964   8.677   4.074  0.1809  1.2844 -1.2579
 7148SOL     OW32122   2.016   3.595   2.401 -0.0925 -0.0472  0.5663
 7148SOL    HW132123   2.052   3.546   2.480 -1.6068 -1.8384  0.1771
 7148SOL    HW232124   1.945   3.660   2.430 -0.6041 -0.6591  0.6909
 7149SOL     OW32125   3.728   5.611   2.264 -0.0743 -1.1381 -0.8644
 7149SOL    HW132126   3.714   5.670   2.343 -0.0731  0.6970 -2.1808
 7149SOL    HW232127   3.663   5.535   2.266 -2.1703  0.5970 -0.6841
 7150SOL     OW32128   3.469   8.746   2.729  0.0702  0.5871  0.2988
 7150SOL    HW132129   3.372   8.755   2.705  0.4451 -0.9362 -1.8685
 7150SOL    HW232130   3.498   8.651   2.718  2.4797  1.4883 -1.6714
 7151SOL     OW32131   6.801   9.184   2.331  0.2698 -0.5626  0.2293
 7151SOL    HW132132   6.793   9.095   2.286  1.1182 -1.0890  1.1014
 7151SOL    HW232133   6.892   9.221   2.315 -0.0101  0.0480  0.0522
 7152SOL     OW32134   8.345   3.958   1.109 -0.1595  0.3928 -0.4313
 7152SOL    HW132135   8.329   3.870   1.066  0.8493 -0.4798  0.9353
 7152SOL    HW232136   8.302   3.960   1.199 -0.1108  1.2631 -0.4183
 7153SOL     OW32137   0.622   2.783   4.662  0.6599 -0.3323 -0.4290
 7153SOL    HW132138   0.596   2.687   4.650  0.5923 -0.5514  1.3691
 7153SOL    HW232139   0.563   2.825   4.732  1.9879  0.4878  0.2139
 7154SOL     OW32140   9.272   3.222   3.338  0.5211 -0.5839 -0.0264
 7154SOL    HW132141   9.256   3.123   3.332  0.3173 -0.4577 -2.0244
 7154SOL    HW232142   9.363   3.243   3.301  0.7132 -0.0657  0.7406
 7155SOL     OW32143   3.740   0.173   2.054 -0.0722  0.3867 -0.6169
 7155SOL    HW132144   3.685   0.133   1.980 -0.7671 -0.3580  0.2807
 7155SOL    HW232145   3.679   0.210   2.124  0.5507 -0.6892  0.5160
 7156SOL     OW32146   0.110   4.729   3.098  0.6809 -0.0690 -0.4960
 7156SOL    HW132147   0.087   4.695   3.189  0.1418  0.1914 -0.5351
 7156SOL    HW232148   0.077   4.664   3.029 -1.4579  1.1087 -0.6279
 7157SOL     OW32149   3.325   4.073   0.643 -0.4405  0.1450 -0.5556
 7157SOL    HW132150   3.396   4.109   0.703  2.0609 -0.0260 -3.3132
 7157SOL    HW232151   3.265   4.148   0.613 -0.6565  0.5063  0.7792
 7158SOL     OW32152   9.852   6.914   4.742  0.1234  0.0919 -0.0589
 7158SOL    HW132153   9.877   6.818   4.759 -0.3240 -0.0738 -0.3480
 7158SOL    HW232154   9.754   6.921   4.727  0.2674  0.4835 -0.8376
 7159SOL     OW32155   0.772   9.919   2.218  0.6632  0.2351 -0.1041
 7159SOL    HW132156   0.776   9.819   2.220  2.2929  0.3066  1.2513
 7159SOL    HW232157   0.823   9.953   2.139  0.0227 -0.0016 -0.6234
 7160SOL     OW32158   8.851   5.598   0.279  0.2158 -0.5610  0.2630
 7160SOL    HW132159   8.931   5.626   0.227 -0.2486 -0.1433 -0.2372
 7160SOL    HW232160   8.842   5.499   0.278  1.4049 -0.6948  1.3416
 7161SOL     OW32161   0.021   8.803   2.091 -0.2588  0.1476 -0.1759
 7161SOL    HW132162  -0.044   8.868   2.052 -1.2118  0.0554  1.2306
 7161SOL    HW232163   0.114   8.825   2.060 -0.8771  0.6096 -1.7544
 7162SOL     OW32164   8.366   2.460   4.082 -0.5608 -0.2432  0.3100
 7162SOL    HW132165   8.299   2.467   4.008  1.7841 -0.7949 -1.9645
 7162SOL    HW232166   8.345   2.380   4.139 -1.0849 -1.1550 -1.1413
 7163SOL     OW32167   5.557   8.593   4.082 -0.1064  0.7274  0.3345
 7163SOL    HW132168   5.621   8.530   4.038 -1.1254  2.0638 -3.2085
 7163SOL    HW232169   5.602   8.682   4.093 -1.2494  1.6636 -2.1454
 7164SOL     OW32170   9.294   3.393   2.347 -0.2351  0.2631  0.5180
 7164SOL    HW132171   9.206   3.439   2.333  0.1232  0.8971  0.3446
 7164SOL    HW232172   9.331   3.363   2.259 -0.2758  0.0042  0.5899
 7165SOL     OW32173   4.350   8.620   0.890 -0.1971 -0.3347  0.2339
 7165SOL    HW132174   4.331   8.677   0.970  1.0093 -0.0662  0.3386
 7165SOL    HW232175   4.388   8.532   0.919 -2.2416 -1.2887  0.0824
 7166SOL     OW32176   0.265   8.376   4.605  0.0836 -0.2992  0.3293
 7166SOL    HW132177   0.183   8.358   4.550 -0.1611  0.0614  0.5791
 7166SOL    HW232178   0.312   8.456   4.570  0.5671 -0.7570 -0.0813
 7167SOL     OW32179   3.753   1.708   2.990  0.3096  0.0341 -0.0804
 7167SOL    HW132180   3.700   1.791   2.971  0.8067 -0.1779 -2.5658
 7167SOL    HW232181   3.691   1.632   3.006 -0.1421  0.5706  0.7665
 7168SOL     OW32182   1.961   5.101   3.561  0.3136  0.0483 -0.2837
 7168SOL    HW132183   2.028   5.136   3.627  1.9272 -1.8406 -0.8846
 7168SOL    HW232184   1.988   5.010   3.530 -1.9506 -0.2866 -1.4067
 7169SOL     OW32185   2.667   3.171   1.320 -0.2943 -0.5952 -0.1519
 7169SOL    HW132186   2.718   3.255   1.336 -1.0116 -0.4127  1.1921
 7169SOL    HW232187   2.582   3.192   1.273  0.8079 -0.8983 -2.3765
 7170SOL     OW32188   4.569   4.557   1.629  0.0042  0.0426 -0.2732
 7170SOL    HW132189   4.516   4.475   1.605 -0.7489  0.1591  0.9578
 7170SOL    HW232190   4.509   4.623   1.674  0.6007  1.2914 -1.2568
 7171SOL     OW32191   3.453   0.781   3.517 -0.1540 -0.0239 -0.1382
 7171SOL    HW132192   3.464   0.683   3.528 -1.0727 -0.0223  0.8577
 7171SOL    HW232193   3.406   0.800   3.431 -0.2711 -0.4787 -0.1734
 7172SOL     OW32194   4.373   3.179   2.010  0.3659  0.1445 -0.1138
 7172SOL    HW132195   4.339   3.090   2.041 -0.3134  0.4168 -0.0659
 7172SOL    HW232196   4.375   3.242   2.088 -0.3409  0.5267 -0.3959
 7173SOL     OW32197   1.645   2.660   4.042  0.2477 -0.0788 -0.4646
 7173SOL    HW132198   1.720   2.620   3.989 -0.5841  0.6613 -2.2345
 7173SOL    HW232199   1.681   2.729   4.103  1.2794 -1.2170  0.2395
 7174SOL     OW32200   7.995   8.874   3.739 -0.1763 -0.5509  0.3735
 7174SOL    HW132201   8.013   8.775   3.743 -1.6368 -0.8124  0.7202
 7174SOL    HW232202   8.010   8.906   3.646 -0.5423 -1.2758  0.0575
 7175SOL     OW32203   9.578   6.550   0.243  0.5178  0.8217 -0.1874
 7175SOL    HW132204   9.566   6.647   0.221 -5.4366  0.6770  1.5195
 7175SOL    HW232205   9.555   6.495   0.162  1.9560  0.7501 -0.5600
 7176SOL     OW32206   7.864   7.495   2.942 -0.5585 -0.9616  0.1203
 7176SOL    HW132207   7.882   7.497   3.040  0.7916 -1.4242 -0.1025
 7176SOL    HW232208   7.863   7.588   2.906  0.7338 -0.8669  0.2819
 7177SOL     OW32209   8.454   6.960   1.173  0.2574  0.0042  0.6228
 7177SOL    HW132210   8.363   6.988   1.205  0.2116 -0.5320  0.9799
 7177SOL    HW232211   8.444   6.910   1.086  0.1169 -0.8276  1.1108
 7178SOL     OW32212   1.870   0.588   2.838 -0.3331  0.0288  0.7580
 7178SOL    HW132213   1.852   0.583   2.937  0.2712  2.2294  1.0100
 7178SOL    HW232214   1.887   0.496   2.803 -0.9770 -0.8352  2.6263
 7179SOL     OW32215   2.862   9.930   2.295  0.0364  0.2595  0.5558
 7179SOL    HW132216   2.796  10.006   2.302  0.7883  1.4125 -3.3014
 7179SOL    HW232217   2.941   9.948   2.353 -1.3886  0.6539  2.4120
 7180SOL     OW32218   7.055   7.422   2.149  0.2824  0.2630  0.3290
 7180SOL    HW132219   6.984   7.475   2.196  0.4663  0.7704  0.0446
 7180SOL    HW232220   7.145   7.447   2.186  0.4214  0.6040 -0.2248
 7181SOL     OW32221   0.793   2.674   2.628 -0.3272  0.2695  0.4113
 7181SOL    HW132222   0.881   2.721   2.628 -0.7860  1.1445 -1.3849
 7181SOL    HW232223   0.808   2.575   2.623  0.5502  0.4913 -1.9199
 7182SOL     OW32224   1.218   1.231   2.225 -0.5637 -0.5172  0.0917
 7182SOL    HW132225   1.256   1.269   2.141  1.0996 -1.0036  0.6106
 7182SOL    HW232226   1.221   1.131   2.221 -0.3241 -0.5395  0.8076
 7183SOL     OW32227   9.717   4.389   3.018  0.4591 -0.4014  0.3341
 7183SOL    HW132228   9.808   4.361   2.988  0.0019  1.0102 -2.5710
 7183SOL    HW232229   9.724   4.468   3.079  1.1332  0.2248 -0.5500
 7184SOL     OW32230   2.006   3.990   2.818  0.2270  0.3794  0.4185
 7184SOL    HW132231   1.934   4.011   2.884  0.1582  1.4440  0.0071
 7184SOL    HW232232   2.093   4.028   2.850  0.0338  1.6034 -0.4954
 7185SOL     OW32233   0.294   4.600   2.535 -0.5224 -0.1771  0.2894
 7185SOL    HW132234   0.354   4.559   2.603 -0.7948 -1.8909 -0.4737
 7185SOL    HW232235   0.293   4.699   2.547  1.2097 -0.2554  1.3231
 7186SOL     OW32236   8.558   3.132   1.041 -0.1575  0.2237  0.0830
 7186SOL    HW132237   8.540   3.130   0.943 -0.4412 -0.3983  0.1422
 7186SOL    HW232238   8.635   3.071   1.062 -1.1984 -0.9892  0.4589
 7187SOL     OW32239   5.841   8.758   3.996  0.4362 -0.2694  0.0581
 7187SOL    HW132240   5.753   8.805   3.995  0.8265  0.5224  1.9336
 7187SOL    HW232241   5.830   8.666   3.957 -1.0321  0.1370 -0.5017
 7188SOL     OW32242   0.778   7.724   1.651  0.2490 -0.6124  0.0935
 7188SOL    HW132243   0.758   7.636   1.694  2.2126 -0.4306  1.4204
 7188SOL    HW232244   0.702   7.787   1.667 -0.0256 -1.2587  1.3461
 7189SOL     OW32245   8.570   5.506   3.429  0.4699 -0.6180 -0.4049
 7189SOL    HW132246   8.474   5.504   3.458  0.7995 -0.7190  0.6983
 7189SOL    HW232247   8.616   5.424   3.464  1.2673  0.0657  0.1495
 7190SOL     OW32248   4.910   7.591   1.348  0.1977  0.3556 -0.1938
 7190SOL    HW132249   4.848   7.546   1.283  1.0294 -0.1963 -0.6163
 7190SOL    HW232250   4.936   7.681   1.311 -0.8808  0.8858  0.3070
 7191SOL     OW32251   1.611   1.278   1.493  0.2315  0.2408  0.2948
 7191SOL    HW132252   1.689   1.293   1.432  1.2663  1.0363  1.7866
 7191SOL    HW232253   1.541   1.347   1.473  1.2140  1.4820  1.0268
 7192SOL     OW32254   2.139   0.187   1.122 -0.3303 -0.0659 -0.2997
 7192SOL    HW132255   2.078   0.239   1.062 -1.1140  0.3775  0.8603
 7192SOL    HW232256   2.130   0.089   1.103 -2.1496 -0.0750  0.5173
 7193SOL     OW32257   2.064   3.950   2.543  0.7499  0.3674 -0.6220
 7193SOL    HW132258   2.046   3.982   2.636 -0.6344 -0.7998 -0.4680
 7193SOL    HW232259   2.134   3.879   2.545 -1.9832 -2.4461  0.0556
 7194SOL     OW32260   4.106   0.613   0.956  0.2513  0.2087  0.6036
 7194SOL    HW132261   4.191   0.578   0.997  0.8681 -0.9106 -1.5724
 7194SOL    HW232262   4.028   0.581   1.010  1.0000 -1.9040  0.5115
 7195SOL     OW32263   3.878   4.830   0.308 -0.5202  0.2579  0.1091
 7195SOL    HW132264   3.806   4.819   0.240 -1.4186 -0.2406  1.1288
 7195SOL    HW232265   3.925   4.917   0.293 -1.7884  0.9138 -0.1353
 7196SOL     OW32266   8.002   8.477   4.223 -0.3509 -0.0151  0.6521
 7196SOL    HW132267   7.955   8.541   4.283  1.3702  1.7413  0.1853
 7196SOL    HW232268   8.056   8.528   4.156  1.0119 -1.9445  0.2336
 7197SOL     OW32269   4.664   7.856   2.053  0.3185 -0.2260 -0.2318
 7197SOL    HW132270   4.715   7.931   2.011  0.5201 -0.9239 -1.2591
 7197SOL    HW232271   4.566   7.875   2.048  0.4041  0.2930  0.1264
 7198SOL     OW32272   3.174   2.934   3.395  0.0471  0.4816 -0.0711
 7198SOL    HW132273   3.177   2.852   3.338  2.2052  1.0559 -0.8676
 7198SOL    HW232274   3.198   3.014   3.339 -0.3020  1.4125  1.0854
 7199SOL     OW32275   0.926   6.042   0.661 -0.2015  0.5168  0.0120
 7199SOL    HW132276   0.959   5.953   0.631 -1.1042  0.0533  0.3841
 7199SOL    HW232277   1.002   6.096   0.697  0.1542 -0.5492  0.8779
 7200SOL     OW32278   0.276   2.144   0.618 -0.2958  0.2047 -0.0702
 7200SOL    HW132279   0.363   2.192   0.617 -0.1897  0.0121 -0.6603
 7200SOL    HW232280   0.267   2.090   0.534 -1.4650  1.0870 -0.5202
 7201SOL     OW32281   0.886   5.849   1.887  0.4770  0.1734 -0.5010
 7201SOL    HW132282   0.986   5.849   1.882  0.4376 -0.0912 -1.2368
 7201SOL    HW232283   0.858   5.884   1.976  1.2015  2.1312 -1.0122
 7202SOL     OW32284   0.237   4.382   2.806 -0.3164  0.4348  0.6550
 7202SOL    HW132285   0.239   4.305   2.743 -1.5763  0.2877  0.7951
 7202SOL    HW232286   0.307   4.369   2.877  0.6614  0.2896 -0.3274
 7203SOL     OW32287   4.236   3.456   2.704  0.2386  0.3096  0.4433
 7203SOL    HW132288   4.162   3.411   2.753 -0.1484 -0.5207 -0.8736
 7203SOL    HW232289   4.203   3.488   2.615  1.9575 -1.9377 -1.0632
 7204SOL     OW32290   8.863   6.171   0.650 -0.1053 -0.2466 -0.6611
 7204SOL    HW132291   8.895   6.099   0.712  0.0829 -1.0764 -1.7048
 7204SOL    HW232292   8.789   6.135   0.593 -0.9830  0.8249 -0.2028
 7205SOL     OW32293   8.405   3.779   3.542 -0.5333 -0.1627  0.0925
 7205SOL    HW132294   8.407   3.712   3.616 -0.6539 -0.9788 -0.6355
 7205SOL    HW232295   8.356   3.741   3.464 -0.1882  0.5922 -0.5001
 7206SOL     OW32296   2.179   0.433   1.820  0.0894 -0.0571 -0.1279
 7206SOL    HW132297   2.095   0.463   1.775  1.5422  0.7256 -2.4462
 7206SOL    HW232298   2.192   0.335   1.803 -1.8882 -0.9205  2.8801
 7207SOL     OW32299   2.731   0.178   0.769  0.0710 -0.5193  0.3252
 7207SOL    HW132300   2.664   0.244   0.802 -1.2571 -2.2001  1.1010
 7207SOL    HW232301   2.723   0.168   0.669  1.4759  1.7299 -0.0538
 7208SOL     OW32302   1.807   0.061   3.154 -0.1199  0.0753  0.9088
 7208SOL    HW132303   1.747  -0.015   3.130 -0.5283  0.8135 -0.4792
 7208SOL    HW232304   1.902   0.035   3.140 -0.3315  0.3886 -1.3191
 7209SOL     OW32305   0.777   5.898   4.421  0.1645 -0.4881 -0.4945
 7209SOL    HW132306   0.680   5.907   4.445  0.2744 -0.8771  0.1337
 7209SOL    HW232307   0.822   5.839   4.489  0.3988 -1.9738 -1.9220
 7210SOL     OW32308   2.433   5.387   1.155  0.3625  0.2274 -0.0361
 7210SOL    HW132309   2.412   5.433   1.069  0.9468  1.0768  0.2679
 7210SOL    HW232310   2.468   5.295   1.136 -1.0207 -0.1844 -0.6368
 7211SOL     OW32311   8.415   9.858   1.660  0.1474  0.2542 -0.1339
 7211SOL    HW132312   8.405   9.925   1.734 -1.6341 -0.6880  0.5192
 7211SOL    HW232313   8.472   9.896   1.588 -0.9158  2.5344  0.1713
 7212SOL     OW32314   7.391   9.382   1.496 -0.1551  0.4157 -0.5186
 7212SOL    HW132315   7.423   9.461   1.549  1.1290  0.2789 -1.0638
 7212SOL    HW232316   7.409   9.298   1.547  0.3914  0.3391 -0.8248
 7213SOL     OW32317   1.595   8.362   1.710 -0.3975 -0.0486  0.1766
 7213SOL    HW132318   1.501   8.397   1.707 -0.0087  1.0024  0.0336
 7213SOL    HW232319   1.622   8.333   1.619 -1.4384 -2.7151  0.6553
 7214SOL     OW32320   7.836   8.299   1.257  0.2158 -0.0929 -0.2781
 7214SOL    HW132321   7.867   8.380   1.308  1.1902  0.4847 -1.7499
 7214SOL    HW232322   7.907   8.228   1.261  0.1061 -0.2111 -0.4548
 7215SOL     OW32323   2.266   2.697   0.580 -0.1678  0.2943  0.2651
 7215SOL    HW132324   2.210   2.616   0.562 -0.4981  0.5169  0.2953
 7215SOL    HW232325   2.208   2.778   0.587 -0.0313  0.2418  2.1720
 7216SOL     OW32326   9.795   7.985   2.145 -0.6755 -0.0251  0.3424
 7216SOL    HW132327   9.779   7.888   2.162  0.9016 -0.5180 -0.9247
 7216SOL    HW232328   9.723   8.021   2.086 -0.6775 -0.6706 -0.0451
 7217SOL     OW32329   3.192   8.129   0.491  0.3104  0.2479  0.1025
 7217SOL    HW132330   3.190   8.047   0.549  1.0389 -0.9551 -1.5238
 7217SOL    HW232331   3.117   8.124   0.425  0.4598  0.8132 -0.1061
 7218SOL     OW32332   0.524   5.070   4.230 -0.0411  0.0758  0.1812
 7218SOL    HW132333   0.471   5.081   4.146  0.9793 -1.0221 -0.6274
 7218SOL    HW232334   0.521   4.974   4.259  0.2193  0.3081  0.9918
 7219SOL     OW32335   0.305   7.695   2.382 -0.0495 -0.1665  0.0147
 7219SOL    HW132336   0.246   7.631   2.331 -2.5580 -1.0470  3.8006
 7219SOL    HW232337   0.254   7.779   2.401  1.2841  0.6537 -0.0045
 7220SOL     OW32338   1.261   6.955   2.993 -0.3589  0.3414  0.2180
 7220SOL    HW132339   1.339   6.928   2.936  0.6838  0.2057  1.6836
 7220SOL    HW232340   1.294   6.987   3.082 -1.8705  2.0230  0.2049
 7221SOL     OW32341   7.913   8.480   1.028 -0.2702 -0.0523 -0.2229
 7221SOL    HW132342   8.004   8.440   1.038  0.1194  0.7398 -0.5888
 7221SOL    HW232343   7.847   8.424   1.078  0.7581  0.6389  1.9691
 7222SOL     OW32344   4.868   8.780   4.357 -0.7054 -0.0817  0.1262
 7222SOL    HW132345   4.829   8.872   4.354 -3.5879 -1.1786  1.7285
 7222SOL    HW232346   4.884   8.748   4.264 -2.0823  1.0879 -0.5457
 7223SOL     OW32347   0.960   0.651   1.494  0.1233  0.3250 -0.0006
 7223SOL    HW132348   1.044   0.703   1.475 -0.1287  1.6895  2.4901
 7223SOL    HW232349   0.982   0.573   1.551 -0.1935  0.2089 -0.0368
 7224SOL     OW32350   7.835   1.748   0.263 -0.0108 -0.0668  0.3713
 7224SOL    HW132351   7.779   1.720   0.340  1.1088 -1.1964  0.7929
 7224SOL    HW232352   7.870   1.841   0.279  1.4813 -0.8780  1.9704
 7225SOL     OW32353   8.173   3.005   4.283  0.0216  0.8589 -0.3689
 7225SOL    HW132354   8.119   2.954   4.349  0.9990  0.6196  0.2592
 7225SOL    HW232355   8.268   2.972   4.284  0.4484  2.0287 -0.6416
 7226SOL     OW32356   8.866   0.289   2.438 -0.1977  0.3225  0.0284
 7226SOL    HW132357   8.780   0.333   2.411 -0.2564  0.6500  0.7403
 7226SOL    HW232358   8.847   0.209   2.494 -0.1269 -1.2395 -2.1178
 7227SOL     OW32359   2.980   0.251   0.824  0.2366  0.1163  0.3877
 7227SOL    HW132360   2.886   0.229   0.800  0.2788  0.0105  0.3199
 7227SOL    HW232361   3.001   0.345   0.797  0.8639 -0.5889 -1.7191
 7228SOL     OW32362   2.044   9.335   3.319 -0.2510  0.2248  0.0157
 7228SOL    HW132363   2.133   9.337   3.275 -0.7227  1.0606 -0.9153
 7228SOL    HW232364   2.030   9.419   3.371 -0.2373 -0.1829  0.6882
 7229SOL     OW32365   6.970   9.686   1.713  0.7900 -0.9828 -0.2454
 7229SOL    HW132366   7.010   9.666   1.623  0.4669  1.0749 -0.8821
 7229SOL    HW232367   6.919   9.772   1.708  1.2901 -0.5303  2.0742
 7230SOL     OW32368   1.422   1.889   3.004 -0.0067 -0.4939 -0.8091
 7230SOL    HW132369   1.473   1.962   2.959 -2.1637  1.4165 -0.2683
 7230SOL    HW232370   1.474   1.856   3.083  1.8820 -0.9411 -2.2239
 7231SOL     OW32371   4.352   3.781   2.433 -0.0165 -0.4999 -0.2817
 7231SOL    HW132372   4.327   3.785   2.530  0.3281 -1.0843 -0.1634
 7231SOL    HW232373   4.318   3.862   2.386  0.9766  0.4535  0.5982
 7232SOL     OW32374   0.792   0.950   0.975 -0.5353  0.2666  0.4701
 7232SOL    HW132375   0.799   0.856   1.008 -0.8865  0.7938  2.0616
 7232SOL    HW232376   0.802   0.950   0.875 -0.6848 -1.4690  0.4277
 7233SOL     OW32377   0.237   0.640   4.336  0.2218  0.1487 -0.0316
 7233SOL    HW132378   0.309   0.710   4.344 -0.0657  0.4393  0.0120
 7233SOL    HW232379   0.153   0.674   4.376  0.2676 -0.4955  0.6241
 7234SOL     OW32380   1.050   0.609   3.090 -0.1470  0.1586  0.0358
 7234SOL    HW132381   0.974   0.642   3.147  0.0642 -0.0766  0.4589
 7234SOL    HW232382   1.128   0.672   3.100 -0.9652  1.5571 -2.0027
 7235SOL     OW32383   2.744   9.637   4.412  0.0042  0.1677  0.5295
 7235SOL    HW132384   2.797   9.560   4.377 -0.5515 -0.1801  0.4384
 7235SOL    HW232385   2.789   9.675   4.493  1.1572  0.8149 -0.4050
 7236SOL     OW32386   2.522   4.521   2.527  0.0776 -0.0407 -0.7702
 7236SOL    HW132387   2.448   4.587   2.543 -0.8145 -1.0079 -0.9355
 7236SOL    HW232388   2.532   4.462   2.608 -0.2520 -0.8171 -1.2948
 7237SOL     OW32389   1.428   6.592   0.407  0.2007 -0.4144  0.1771
 7237SOL    HW132390   1.442   6.673   0.463 -0.7031 -0.6284  0.7100
 7237SOL    HW232391   1.517   6.561   0.372  0.7110  0.0153  1.0651
 7238SOL     OW32392   1.209   3.678   2.241 -0.3270 -0.1229 -0.1064
 7238SOL    HW132393   1.137   3.727   2.290  0.5270  0.2333  0.7992
 7238SOL    HW232394   1.283   3.655   2.304  0.7571  0.2891 -1.2110
 7239SOL     OW32395   1.542   9.184   1.280  0.0288  0.2165 -0.1923
 7239SOL    HW132396   1.525   9.087   1.299  0.3142  0.1832 -0.1063
 7239SOL    HW232397   1.455   9.230   1.261 -0.3488  0.4028  1.9010
 7240SOL     OW32398   2.769   2.588   3.421 -0.0397  0.2055  0.3169
 7240SOL    HW132399   2.782   2.573   3.519  0.8763 -0.4919  0.0963
 7240SOL    HW232400   2.831   2.528   3.370 -2.1054 -1.1231 -0.7330
 7241SOL     OW32401   3.378   5.787   3.381  0.3345 -0.0643  0.3034
 7241SOL    HW132402   3.409   5.786   3.286 -0.2478 -0.3401  0.1202
 7241SOL    HW232403   3.396   5.877   3.421  1.7696 -0.3524  0.3264
 7242SOL     OW32404   1.063   6.612   4.475  0.2216  0.3756  0.4521
 7242SOL    HW132405   1.019   6.547   4.537  0.3166 -0.4272 -0.3097
 7242SOL    HW232406   1.126   6.670   4.527 -0.8541  0.7531  1.3527
 7243SOL     OW32407   4.267   1.008   1.918 -0.2149 -0.9040 -0.2984
 7243SOL    HW132408   4.198   0.936   1.933 -1.5924  0.2657 -0.9312
 7243SOL    HW232409   4.246   1.086   1.976 -0.1835 -0.0079 -1.4909
 7244SOL     OW32410   9.846   9.102   1.227 -0.4637  0.2446 -0.1550
 7244SOL    HW132411   9.900   9.021   1.204  0.7421  1.4623 -1.7921
 7244SOL    HW232412   9.841   9.111   1.326  0.0369 -1.4100  0.0373
 7245SOL     OW32413   5.242   9.966   1.459  0.4145 -0.5820  0.4693
 7245SOL    HW132414   5.213   9.871   1.465  0.7341 -0.6467  1.0782
 7245SOL    HW232415   5.162  10.025   1.446  0.3280 -1.0251 -1.0980
 7246SOL     OW32416   2.180   8.618   1.924 -0.2636  0.0893  0.0024
 7246SOL    HW132417   2.187   8.593   2.020 -0.8010  0.3604  0.1117
 7246SOL    HW232418   2.252   8.571   1.872  1.0400  1.1939  0.7810
 7247SOL     OW32419   1.702   1.138   2.272  0.0520 -0.3798 -0.0917
 7247SOL    HW132420   1.785   1.096   2.311 -0.0621 -2.3923 -1.9193
 7247SOL    HW232421   1.728   1.199   2.197 -0.0303 -0.1041  0.1060
 7248SOL     OW32422   0.275   5.312   1.532  0.3052 -0.1749 -0.1035
 7248SOL    HW132423   0.344   5.265   1.477 -1.1131 -1.5796 -0.7019
 7248SOL    HW232424   0.260   5.262   1.617 -1.5783 -1.1118 -0.9725
 7249SOL     OW32425   8.125   9.364   1.597 -0.0402 -0.1389  0.2147
 7249SOL    HW132426   8.175   9.440   1.555  0.6997 -1.0831 -0.6327
 7249SOL    HW232427   8.130   9.284   1.538 -3.1853 -0.0607 -0.2436
 7250SOL     OW32428   9.931   3.777   3.286  0.3792 -0.0686 -0.3868
 7250SOL    HW132429   9.984   3.726   3.217 -1.1573 -0.6062 -1.2003
 7250SOL    HW232430   9.844   3.805   3.246 -0.5125 -0.3435  1.3315
 7251SOL     OW32431   8.997   4.607   4.721 -1.1358 -0.2816  0.5573
 7251SOL    HW132432   9.002   4.705   4.737 -0.5611  0.1540 -2.0412
 7251SOL    HW232433   8.910   4.584   4.679 -0.8661 -0.7388  0.2392
 7252SOL     OW32434   5.314   8.827   4.144  0.7220  0.0459 -0.7928
 7252SOL    HW132435   5.355   8.917   4.127  2.0205 -0.4528 -0.3406
 7252SOL    HW232436   5.384   8.764   4.179 -0.7657 -0.3554  1.5827
 7253SOL     OW32437   8.001   9.136   0.765 -0.7191  0.1477  0.0475
 7253SOL    HW132438   8.018   9.047   0.809 -0.8265  0.1638  0.1214
 7253SOL    HW232439   7.957   9.121   0.677  1.3702  0.0011 -0.9972
 7254SOL     OW32440   1.213   7.678   0.900  0.2399 -0.5859 -0.6204
 7254SOL    HW132441   1.119   7.708   0.887  1.1440  2.2482 -0.9188
 7254SOL    HW232442   1.256   7.661   0.811  0.6645  0.3264 -0.6016
 7255SOL     OW32443   4.085   8.274   4.276 -0.4530 -0.1930 -0.1088
 7255SOL    HW132444   4.045   8.306   4.361 -0.2762 -1.8420  0.6172
 7255SOL    HW232445   4.069   8.342   4.204 -1.5182  0.7333  0.9765
 7256SOL     OW32446   2.151   1.980   1.510  0.1259 -0.0318 -0.2991
 7256SOL    HW132447   2.181   2.074   1.526 -1.7861  0.6877 -0.8273
 7256SOL    HW232448   2.158   1.959   1.412 -1.3472  0.2488 -0.4743
 7257SOL     OW32449   0.456   0.787   3.066 -0.2408  0.6621  0.7076
 7257SOL    HW132450   0.550   0.754   3.074 -0.2293  1.0053  2.1002
 7257SOL    HW232451   0.427   0.825   3.154 -1.6568  0.6207  0.2573
 7258SOL     OW32452   0.461   3.225   2.141 -0.0670  0.3389  0.0759
 7258SOL    HW132453   0.503   3.269   2.062 -1.4896  1.6734  0.0206
 7258SOL    HW232454   0.386   3.166   2.111 -0.6396  0.8811  0.3978
 7259SOL     OW32455   0.593   3.828   3.661  0.3156 -0.0253  0.0249
 7259SOL    HW132456   0.675   3.772   3.654 -0.7722 -1.3994 -2.5434
 7259SOL    HW232457   0.513   3.768   3.671 -0.5023  1.2443  1.2493
 7260SOL     OW32458   7.767   8.974   3.412  0.3163 -0.1182 -0.3310
 7260SOL    HW132459   7.697   9.043   3.430 -2.2993 -2.6971 -0.2204
 7260SOL    HW232460   7.773   8.957   3.314  1.4261  0.7351 -0.4115
 7261SOL     OW32461   1.898   2.241   2.249 -0.2692  0.4312 -0.0201
 7261SOL    HW132462   1.819   2.265   2.192  1.2011  1.7955 -1.5559
 7261SOL    HW232463   1.964   2.317   2.247  1.8735 -1.4032 -0.2225
 7262SOL     OW32464   4.604   0.232   2.855 -0.1665 -0.0224 -0.0559
 7262SOL    HW132465   4.675   0.183   2.805  0.5450  1.2499 -0.3230
 7262SOL    HW232466   4.515   0.216   2.811  0.5908  1.8876 -2.4196
 7263SOL     OW32467   1.562   7.617   1.227 -0.3415 -0.8460 -0.6723
 7263SOL    HW132468   1.475   7.598   1.272 -0.0263  1.6111  1.0846
 7263SOL    HW232469   1.636   7.571   1.277 -0.3088 -0.5767 -0.4766
 7264SOL     OW32470   8.802   4.027   4.354 -0.0266  0.0320 -0.1577
 7264SOL    HW132471   8.841   4.014   4.445  0.4965  1.4810 -0.1570
 7264SOL    HW232472   8.823   3.948   4.297  0.5270 -0.4274  0.6741
 7265SOL     OW32473   1.476   9.416   2.163  0.2370 -0.4280  0.1115
 7265SOL    HW132474   1.377   9.405   2.162 -0.0423  1.8843 -1.8263
 7265SOL    HW232475   1.509   9.428   2.069  2.4518 -1.9098  0.6688
 7266SOL     OW32476   3.227   5.677   2.782 -0.2558 -0.3434  0.1498
 7266SOL    HW132477   3.150   5.724   2.824  0.4531  0.7223  0.2929
 7266SOL    HW232478   3.216   5.678   2.682  0.3480  1.2114  0.0845
 7267SOL     OW32479   2.838   7.106   2.360 -0.4713  0.3972  0.1755
 7267SOL    HW132480   2.809   7.016   2.394  2.5883 -0.8946 -0.5088
 7267SOL    HW232481   2.882   7.157   2.433 -1.0927  0.8458  0.2384
 7268SOL     OW32482   8.458   6.143   0.251 -0.3413  0.2357 -0.1223
 7268SOL    HW132483   8.517   6.063   0.246 -0.3289  0.1991  0.5131
 7268SOL    HW232484   8.469   6.187   0.340  0.0400  1.2461 -0.6608
 7269SOL     OW32485   0.564   7.798   0.649  0.6081 -0.1887  0.0039
 7269SOL    HW132486   0.479   7.774   0.697  1.1760 -1.5208  0.3799
 7269SOL    HW232487   0.591   7.721   0.590  1.0039  0.6326 -0.9029
 7270SOL     OW32488   9.158   7.211   3.044  0.4598 -0.3912  0.3785
 7270SOL    HW132489   9.152   7.304   3.008  1.1814 -0.4572  0.0845
 7270SOL    HW232490   9.146   7.145   2.970  1.6680 -0.5277  0.2921
 7271SOL     OW32491   9.607   7.623   0.965 -0.6284 -0.1548  0.3828
 7271SOL    HW132492   9.543   7.619   1.041 -1.4403 -0.0369 -0.2836
 7271SOL    HW232493   9.560   7.657   0.884  0.6394  1.3029  0.2480
 7272SOL     OW32494   4.296   9.298   1.348 -0.2060  0.6065  1.0533
 7272SOL    HW132495   4.323   9.207   1.381  1.8470  1.2646  1.2943
 7272SOL    HW232496   4.371   9.337   1.294 -1.1199  2.1136  0.8395
 7273SOL     OW32497   7.451   8.019   1.701 -0.4682  0.0971  0.0142
 7273SOL    HW132498   7.424   7.931   1.741  0.5382 -0.7282 -1.0981
 7273SOL    HW232499   7.545   8.040   1.727 -0.4206  0.4347 -0.4230
 7274SOL     OW32500   1.981   0.229   2.106 -0.0983 -0.7516  0.0261
 7274SOL    HW132501   1.937   0.253   2.019  1.9612  1.1411 -0.5587
 7274SOL    HW232502   1.917   0.244   2.181 -0.2292  2.8436 -0.7140
 7275SOL     OW32503   9.902   2.574   4.554  0.3045 -0.6961  0.8567
 7275SOL    HW132504   9.856   2.556   4.467  0.3251 -0.5785  0.8207
 7275SOL    HW232505   9.924   2.487   4.598 -0.3180 -0.7527  1.0690
 7276SOL     OW32506   0.057   1.717   3.540 -0.3266  0.6255  0.4718
 7276SOL    HW132507   0.025   1.632   3.583 -0.4469  0.6796  0.4900
 7276SOL    HW232508   0.085   1.697   3.446 -0.9720  0.6868  0.2625
 7277SOL     OW32509   9.789   7.092   0.150  0.0151 -0.1652 -0.5923
 7277SOL    HW132510   9.810   7.051   0.062 -2.2910 -0.1152 -1.1969
 7277SOL    HW232511   9.845   7.174   0.164  0.2457 -0.0651 -2.0977
 7278SOL     OW32512   0.114   0.501   1.412 -0.0000 -0.1411  0.4496
 7278SOL    HW132513   0.022   0.525   1.380  0.7711  0.6363 -1.2635
 7278SOL    HW232514   0.132   0.405   1.390  0.4273  0.3177 -1.3046
 7279SOL     OW32515   0.321   2.313   4.535 -0.1446  0.8756 -0.5897
 7279SOL    HW132516   0.406   2.283   4.492  0.1713 -0.0319  0.6653
 7279SOL    HW232517   0.277   2.235   4.579 -0.9531  1.6190 -0.0772
 7280SOL     OW32518   0.883   7.522   1.075 -0.0307 -0.4999  0.2252
 7280SOL    HW132519   0.860   7.544   0.980 -0.4909 -0.2084  0.4049
 7280SOL    HW232520   0.831   7.581   1.137  0.0949 -0.8474  0.6646
 7281SOL     OW32521   3.519   6.043   2.095 -0.0924 -0.5487  0.0424
 7281SOL    HW132522   3.442   6.095   2.131 -0.6050 -1.5996  0.4861
 7281SOL    HW232523   3.491   5.995   2.012  0.1899 -0.6405  0.0003
 7282SOL     OW32524   8.426   5.781   3.664 -0.1239  0.0539 -0.7795
 7282SOL    HW132525   8.474   5.862   3.631 -1.1638  0.8698 -0.3180
 7282SOL    HW232526   8.492   5.717   3.704  0.9873 -0.4255 -3.3322
 7283SOL     OW32527   1.562   9.862   2.091  0.3663 -0.3333 -0.7904
 7283SOL    HW132528   1.629   9.900   2.028 -0.0607 -0.6367 -1.4402
 7283SOL    HW232529   1.601   9.782   2.137  0.8485  0.1789 -0.3036
 7284SOL     OW32530   9.929   5.240   3.870 -0.0303 -0.3239  0.0144
 7284SOL    HW132531   9.883   5.327   3.888 -0.3053 -0.6306  0.7944
 7284SOL    HW232532  10.017   5.238   3.919  0.9492  0.3615 -1.6619
 7285SOL     OW32533   4.968   2.377   2.482 -0.0707  0.0132  0.6123
 7285SOL    HW132534   4.970   2.301   2.417 -1.3541 -0.7742  1.4842
 7285SOL    HW232535   4.881   2.426   2.473  0.0978  0.4163  1.1635
 7286SOL     OW32536   2.100   4.175   4.672 -0.6831  0.2503  0.1971
 7286SOL    HW132537   2.167   4.225   4.618 -1.3438 -0.0683 -0.9267
 7286SOL    HW232538   2.086   4.084   4.632 -0.4058 -0.3935  1.5033
 7287SOL     OW32539   8.780   6.612   2.449  0.5246  0.0985 -0.2316
 7287SOL    HW132540   8.878   6.629   2.460  0.4195  0.5904 -0.0574
 7287SOL    HW232541   8.747   6.557   2.525  0.3339  1.3079  0.5749
 7288SOL     OW32542   3.434   8.358   3.785 -0.1031  0.0072  0.2561
 7288SOL    HW132543   3.367   8.427   3.815  0.8275 -0.5351  3.7322
 7288SOL    HW232544   3.395   8.267   3.794  0.3424 -0.1981  0.1404
 7289SOL     OW32545   2.678   1.794   3.075  0.4634  0.2597  0.9140
 7289SOL    HW132546   2.615   1.844   3.135 -0.2229 -1.0505  1.2990
 7289SOL    HW232547   2.635   1.710   3.044  1.8051 -0.3557  0.6976
 7290SOL     OW32548   2.053   8.299   1.784 -0.1775 -0.6807  0.1653
 7290SOL    HW132549   2.150   8.310   1.805 -0.4468 -2.2996  2.4940
 7290SOL    HW232550   2.012   8.390   1.770  1.5005  0.0619 -0.0517
 7291SOL     OW32551   1.237   2.658   3.277 -0.1939 -0.0488  0.3437
 7291SOL    HW132552   1.157   2.716   3.295  0.1920  0.5054  0.2978
 7291SOL    HW232553   1.312   2.685   3.338 -0.2455 -0.9871  0.8210
 7292SOL     OW32554   8.715   5.405   0.987 -0.0959 -0.0047 -0.5550
 7292SOL    HW132555   8.694   5.487   1.041 -2.7019 -1.5451  0.8433
 7292SOL    HW232556   8.734   5.329   1.048  1.1182 -0.7700 -1.8588
 7293SOL     OW32557   1.465   1.494   1.580 -0.0773 -0.1881  0.3870
 7293SOL    HW132558   1.366   1.484   1.589  0.0515 -0.7401  1.2315
 7293SOL    HW232559   1.509   1.478   1.668  0.8224 -0.6962 -0.1369
 7294SOL     OW32560   2.105   1.166   1.131 -0.2379  0.3491 -0.3097
 7294SOL    HW132561   2.041   1.091   1.110 -0.0621 -0.0439  0.5431
 7294SOL    HW232562   2.110   1.228   1.052 -1.8234  0.5036 -0.3132
 7295SOL     OW32563   1.944   2.198   0.938 -0.4763  0.4597  0.5429
 7295SOL    HW132564   2.028   2.249   0.916  0.2047 -0.9962 -0.3131
 7295SOL    HW232565   1.881   2.258   0.986 -0.9313  3.0532 -3.0706
 7296SOL     OW32566   3.975   4.483   1.060 -0.4308 -0.6005 -0.2998
 7296SOL    HW132567   3.964   4.397   1.110  0.6529 -0.5532  0.0495
 7296SOL    HW232568   3.887   4.512   1.023 -0.8948 -1.6144 -0.0165
 7297SOL     OW32569   7.818   4.303   4.313  0.7253 -0.4627  0.1240
 7297SOL    HW132570   7.874   4.262   4.241  1.3585 -0.8322  0.8219
 7297SOL    HW232571   7.819   4.402   4.302  1.5526 -0.4592  0.1483
 7298SOL     OW32572   9.755   9.618   2.994  0.0525  0.0761  0.2386
 7298SOL    HW132573   9.746   9.543   2.928  0.3573 -0.3577  0.6818
 7298SOL    HW232574   9.818   9.591   3.067  0.6157  0.9862  0.0963
 7299SOL     OW32575   0.455   9.792   3.182  0.5500  0.4403  0.5172
 7299SOL    HW132576   0.393   9.801   3.104 -0.7055 -1.4139  1.2451
 7299SOL    HW232577   0.406   9.818   3.266  0.5675 -1.4959  1.1561
 7300SOL     OW32578   7.555   0.646   3.299  0.0751 -0.5336 -0.2551
 7300SOL    HW132579   7.566   0.547   3.293 -0.3243 -0.5026 -1.7018
 7300SOL    HW232580   7.605   0.690   3.224 -0.9235  0.2667 -0.4651
 7301SOL     OW32581   1.827   5.434   4.525  0.5313 -0.9059  0.6430
 7301SOL    HW132582   1.802   5.471   4.436 -1.9594 -1.6900  0.9746
 7301SOL    HW232583   1.906   5.483   4.561  0.2893  0.7927 -1.0824
 7302SOL     OW32584   4.498   7.629   2.730 -0.3593 -0.7105  0.4528
 7302SOL    HW132585   4.457   7.590   2.813 -0.4293 -0.5357  0.5010
 7302SOL    HW232586   4.478   7.727   2.726  1.3218 -0.2997  1.2585
 7303SOL     OW32587   7.768   9.355   0.784 -0.1271 -0.4510  0.3224
 7303SOL    HW132588   7.853   9.304   0.795 -0.5282 -1.5737 -1.4403
 7303SOL    HW232589   7.740   9.353   0.687 -0.8530  2.0116  0.4297
 7304SOL     OW32590   7.506   7.971   1.302  0.1129 -0.6355 -0.1788
 7304SOL    HW132591   7.571   8.041   1.270  0.2309 -1.5767 -2.0854
 7304SOL    HW232592   7.557   7.891   1.335 -0.0486 -1.8077 -2.6833
 7305SOL     OW32593   1.697   8.486   1.937  0.2207 -0.1831 -0.0771
 7305SOL    HW132594   1.666   8.438   1.854 -0.1360  3.0238 -1.8622
 7305SOL    HW232595   1.789   8.524   1.921  1.6875 -2.5782  2.3032
 7306SOL     OW32596   3.585   9.619   1.481 -0.0544  0.0968  0.1567
 7306SOL    HW132597   3.517   9.609   1.554  0.1077  0.2282  0.3283
 7306SOL    HW232598   3.627   9.531   1.462 -1.8394 -0.4314 -1.4945
 7307SOL     OW32599   0.540   3.510   4.290  0.5094  0.0075  0.2746
 7307SOL    HW132600   0.476   3.581   4.262 -0.8144 -1.2571  0.0685
 7307SOL    HW232601   0.492   3.439   4.340  1.6686 -1.1571 -0.2301
 7308SOL     OW32602   9.389   2.230   3.592 -0.0671 -0.7137  0.2917
 7308SOL    HW132603   9.473   2.205   3.641 -0.4232 -1.0202  0.7491
 7308SOL    HW232604   9.412   2.291   3.516  0.5183 -0.4267  0.6918
 7309SOL     OW32605   9.889   0.644   4.621 -0.2718 -0.3824 -0.1929
 7309SOL    HW132606   9.792   0.640   4.598 -0.2616  0.3203 -0.3674
 7309SOL    HW232607   9.939   0.688   4.547  0.0834 -0.1511  0.1813
 7310SOL     OW32608   3.706   7.459   4.670  0.0410 -0.3975  0.1054
 7310SOL    HW132609   3.677   7.480   4.763 -1.7440  0.0222 -0.5217
 7310SOL    HW232610   3.651   7.384   4.633  0.0496  0.1024 -0.9469
 7311SOL     OW32611   0.758   9.381   0.696  0.4861  0.6043  0.3969
 7311SOL    HW132612   0.802   9.411   0.612  0.3376 -0.4532 -0.0667
 7311SOL    HW232613   0.811   9.306   0.736 -0.7838 -0.5763 -0.0879
 7312SOL     OW32614   5.553   9.999   4.604 -0.1569  0.2022 -0.2387
 7312SOL    HW132615   5.603   9.914   4.620 -1.7860 -0.7436 -0.1243
 7312SOL    HW232616   5.464   9.978   4.566 -0.4276  1.8929 -0.5448
 7313SOL     OW32617   1.017   3.073   4.759 -0.3101  0.2114 -0.3277
 7313SOL    HW132618   0.924   3.109   4.757 -1.1412 -1.8504 -0.0224
 7313SOL    HW232619   1.032   3.016   4.678  0.5478  0.1965 -0.1585
 7314SOL     OW32620   3.328   1.321   1.528  0.0631  0.0273 -0.4761
 7314SOL    HW132621   3.310   1.279   1.617  1.6791 -0.5888 -0.4292
 7314SOL    HW232622   3.272   1.277   1.458  0.3893 -0.9658 -0.1165
 7315SOL     OW32623   9.286   0.996   1.177  0.2137 -0.1014 -0.0488
 7315SOL    HW132624   9.282   0.907   1.131 -1.3111  0.1667 -0.4712
 7315SOL    HW232625   9.270   0.984   1.275 -2.6466 -0.0541 -0.4580
 7316SOL     OW32626   5.559   9.138   1.707  0.1519 -0.1552  0.8491
 7316SOL    HW132627   5.622   9.207   1.671 -1.6833  1.0189 -0.2574
 7316SOL    HW232628   5.541   9.156   1.804 -1.6394  2.0610  0.1763
 7317SOL     OW32629   9.668   7.979   4.345  0.0610  0.1648  0.6613
 7317SOL    HW132630   9.704   7.938   4.429  2.5338  0.2218 -0.3412
 7317SOL    HW232631   9.641   7.906   4.282  2.3985  0.0454 -0.2439
 7318SOL     OW32632   7.168   0.407   3.202 -0.0154  0.3919 -0.1772
 7318SOL    HW132633   7.118   0.333   3.247 -1.0598  1.0711 -0.1830
 7318SOL    HW232634   7.259   0.376   3.175 -0.2472 -0.7134  0.3170
 7319SOL     OW32635   3.911   7.949   0.929  0.0452  0.0129  0.3605
 7319SOL    HW132636   3.983   8.017   0.912 -0.1910 -0.0147 -0.7972
 7319SOL    HW232637   3.916   7.918   1.024  1.8383 -0.2997  0.1811
 7320SOL     OW32638   8.613   0.185   1.012  0.2756  0.3350 -0.1691
 7320SOL    HW132639   8.585   0.246   0.938 -1.7885 -1.0501 -0.5824
 7320SOL    HW232640   8.553   0.198   1.091  0.8830  0.0219  0.3465
 7321SOL     OW32641   0.170   2.818   4.749 -0.4120 -0.5327 -0.1226
 7321SOL    HW132642   0.220   2.734   4.729  1.0262  0.0110  1.0780
 7321SOL    HW232643   0.072   2.800   4.745 -0.1235 -2.0210 -0.8756
 7322SOL     OW32644   0.995   0.842   3.470  0.2797  0.0352  0.4796
 7322SOL    HW132645   1.077   0.890   3.437 -0.5130 -0.1549 -1.9126
 7322SOL    HW232646   0.915   0.901   3.459 -0.6344 -1.5606 -2.0117
 7323SOL     OW32647   3.191   6.632   1.262  0.1354  0.4103 -0.4390
 7323SOL    HW132648   3.210   6.570   1.338 -0.0262  0.6323 -0.2146
 7323SOL    HW232649   3.105   6.607   1.219  0.7498 -0.3642 -1.2188
 7324SOL     OW32650   8.149   8.210   3.117 -0.4060 -0.8158 -0.6546
 7324SOL    HW132651   8.118   8.223   3.211 -0.5043 -1.2376 -0.6299
 7324SOL    HW232652   8.077   8.239   3.054  0.6046  1.8880 -0.6247
 7325SOL     OW32653   2.168   5.354   4.432  0.2897 -0.0147 -0.3521
 7325SOL    HW132654   2.106   5.371   4.355 -0.0179  1.6056  0.2413
 7325SOL    HW232655   2.232   5.281   4.407  0.0803  0.3593 -2.0982
 7326SOL     OW32656   2.561   7.948   0.392  0.1000 -0.3809  0.5771
 7326SOL    HW132657   2.581   7.859   0.350  0.3784 -0.7571  1.4974
 7326SOL    HW232658   2.504   8.002   0.329 -1.1567 -1.6969  0.5429
 7327SOL     OW32659   0.341   0.872   3.668  0.1324 -0.3859 -0.3386
 7327SOL    HW132660   0.340   0.919   3.580  1.4835  1.5971  0.6552
 7327SOL    HW232661   0.416   0.806   3.670 -0.3837 -0.9943 -0.9465
 7328SOL     OW32662   1.530   5.534   0.002 -0.0259  0.2048 -0.4369
 7328SOL    HW132663   1.468   5.534   0.080 -0.1082 -1.0407 -0.4960
 7328SOL    HW232664   1.576   5.446  -0.004  0.1434  0.3687 -1.6729
 7329SOL     OW32665   7.343   1.878   2.903 -0.5998  0.1134  0.2114
 7329SOL    HW132666   7.385   1.787   2.899  0.0210  0.4098 -0.1057
 7329SOL    HW232667   7.375   1.926   2.985  0.3696  0.6640 -0.4729
 7330SOL     OW32668   9.265   4.754   4.509  0.1859  0.3274  0.1114
 7330SOL    HW132669   9.165   4.756   4.506  0.1694  0.4852  0.6793
 7330SOL    HW232670   9.301   4.825   4.449 -0.0182 -0.8960 -1.4680
 7331SOL     OW32671   0.053   3.387   4.049 -0.2497  0.6740  0.1879
 7331SOL    HW132672   0.133   3.380   3.989 -1.0945  0.9142 -0.9821
 7331SOL    HW232673  -0.030   3.387   3.994 -1.1347 -0.9414  1.4533
 7332SOL     OW32674   1.566   4.147   1.669  0.3182 -0.8225  0.1272
 7332SOL    HW132675   1.583   4.242   1.696 -0.6329 -0.4187 -0.6731
 7332SOL    HW232676   1.594   4.085   1.743 -0.7326  0.1718  1.3766
 7333SOL     OW32677   4.164   3.749   3.636 -0.4655 -0.4532 -0.6658
 7333SOL    HW132678   4.087   3.707   3.684  0.8833 -1.4193  0.6611
 7333SOL    HW232679   4.181   3.840   3.672 -1.4270  0.0542 -1.4557
 7334SOL     OW32680   3.426   1.235   2.759  0.2100  0.3392 -0.4576
 7334SOL    HW132681   3.400   1.202   2.850 -1.8161  1.8218 -0.4924
 7334SOL    HW232682   3.525   1.228   2.749  0.2035 -2.3651  0.8603
 7335SOL     OW32683   9.920   7.288   4.402 -0.6864  0.5080 -0.0558
 7335SOL    HW132684   9.988   7.331   4.344  1.0328 -0.3436  1.2781
 7335SOL    HW232685   9.866   7.223   4.348  0.0132  0.7005 -0.9869
 7336SOL     OW32686   9.443   3.451   2.584  0.1860 -0.3278 -0.1049
 7336SOL    HW132687   9.393   3.483   2.665 -0.4822  0.2440 -0.7384
 7336SOL    HW232688   9.382   3.453   2.505  0.8603 -0.8231 -0.6347
 7337SOL     OW32689   3.257   7.256   3.355  0.3472  0.2109 -0.0719
 7337SOL    HW132690   3.329   7.284   3.418  1.0989 -1.5626 -0.0996
 7337SOL    HW232691   3.183   7.212   3.406  1.3994 -2.1157 -0.4614
 7338SOL     OW32692   2.751   4.657   1.281  0.4735 -0.3143  0.7347
 7338SOL    HW132693   2.703   4.569   1.282  0.7988 -0.4848  1.8969
 7338SOL    HW232694   2.842   4.646   1.321  0.9496  0.3161 -0.1571
 7339SOL     OW32695   0.040   8.995   1.701 -0.9015 -0.5466 -0.1548
 7339SOL    HW132696  -0.004   9.042   1.625 -2.5131 -0.4180  0.8293
 7339SOL    HW232697   0.026   8.896   1.692 -0.5171 -0.5832 -0.3717
 7340SOL     OW32698   2.991   7.752   2.288 -0.1356 -0.4381 -0.2323
 7340SOL    HW132699   3.035   7.761   2.199 -1.2770  2.5076 -0.5326
 7340SOL    HW232700   3.022   7.825   2.349  0.4564 -2.2674  1.7559
 7341SOL     OW32701   6.572   8.958   3.722  0.3221  0.3161  0.1291
 7341SOL    HW132702   6.514   9.039   3.724  2.0388  1.5691 -0.0019
 7341SOL    HW232703   6.520   8.881   3.686 -1.1013  1.5418 -0.4716
 7342SOL     OW32704   3.546   0.733   2.268  0.2591 -0.8850 -0.1744
 7342SOL    HW132705   3.464   0.790   2.280 -0.3181 -1.8564  0.6196
 7342SOL    HW232706   3.553   0.669   2.345  2.4012 -0.0499  0.3698
 7343SOL     OW32707   1.943   4.196   0.305  0.3439  0.4307  0.5500
 7343SOL    HW132708   2.016   4.173   0.241 -0.4750 -0.2565 -0.1586
 7343SOL    HW232709   1.855   4.193   0.257 -0.0429  2.3834  1.1103
 7344SOL     OW32710   4.169   9.853   2.399  0.5732 -0.4799  0.0792
 7344SOL    HW132711   4.186   9.940   2.354 -0.1586  0.0187  0.7432
 7344SOL    HW232712   4.243   9.790   2.379  1.3357  0.4419 -0.0399
 7345SOL     OW32713   8.409   7.364   3.536 -0.1894  0.1899 -0.0955
 7345SOL    HW132714   8.425   7.348   3.633 -2.4548  0.0830  0.2895
 7345SOL    HW232715   8.342   7.298   3.502  1.9924 -1.0540 -2.2247
 7346SOL     OW32716   1.726   9.085   2.438 -0.4764 -0.1310 -0.6121
 7346SOL    HW132717   1.656   9.132   2.384 -0.7635  0.5094  0.2969
 7346SOL    HW232718   1.810   9.075   2.384 -0.9441 -0.0135 -1.3612
 7347SOL     OW32719   0.417   0.412   2.225  0.1463  0.2801  0.0335
 7347SOL    HW132720   0.475   0.488   2.198  0.1685  0.8464  1.6051
 7347SOL    HW232721   0.372   0.434   2.312 -0.2715 -1.2702  0.2212
 7348SOL     OW32722   0.978   9.523   2.913  0.3611  0.6208  0.1795
 7348SOL    HW132723   0.990   9.568   3.002 -0.0296  1.5829 -0.2494
 7348SOL    HW232724   1.037   9.566   2.845 -0.0307  0.5047 -0.2398
 7349SOL     OW32725   1.703   8.899   4.447 -0.2139 -0.1270 -0.5700
 7349SOL    HW132726   1.785   8.952   4.423  0.7397 -0.7908  1.0990
 7349SOL    HW232727   1.624   8.960   4.451  0.7656  1.0793  0.8038
 7350SOL     OW32728   1.099   4.556   2.340  0.6701 -0.4227  0.5264
 7350SOL    HW132729   1.116   4.459   2.361 -0.8258 -0.5441  1.2368
 7350SOL    HW232730   1.077   4.565   2.242  0.8769 -0.7988  0.4446
 7351SOL     OW32731   1.339   9.058   0.381  0.1237 -0.3471 -0.0401
 7351SOL    HW132732   1.304   9.037   0.289 -0.1270 -1.9845  0.4190
 7351SOL    HW232733   1.410   8.992   0.406 -1.2071 -1.1522  1.7402
 7352SOL     OW32734   4.024   8.219   2.912  0.2607 -0.5953 -0.3363
 7352SOL    HW132735   3.973   8.304   2.909  0.9590  0.0124  2.8758
 7352SOL    HW232736   3.962   8.143   2.934  0.3719 -0.1692  1.5182
 7353SOL     OW32737   0.400   9.806   2.135 -0.0264 -0.3710  0.0886
 7353SOL    HW132738   0.462   9.809   2.213  1.7459 -1.4800 -1.2279
 7353SOL    HW232739   0.342   9.725   2.140  0.0187 -0.3897  0.3042
 7354SOL     OW32740   2.436   0.031   0.802  0.8335  0.0748  0.1216
 7354SOL    HW132741   2.356   0.090   0.791 -1.5266 -2.9197  0.4954
 7354SOL    HW232742   2.483   0.055   0.887 -1.2832  0.1191  1.3190
 7355SOL     OW32743   8.041   5.932   2.150  0.0624  0.1486 -0.2083
 7355SOL    HW132744   8.095   5.916   2.233  0.0585 -0.0152 -0.2371
 7355SOL    HW232745   8.042   5.850   2.093 -1.3870 -0.3683  0.4658
 7356SOL     OW32746   7.657   1.317   1.213  0.4824 -0.1569  0.3520
 7356SOL    HW132747   7.686   1.410   1.234 -0.2045  0.1425  0.0178
 7356SOL    HW232748   7.569   1.320   1.164  0.9863 -0.9283 -0.6155
 7357SOL     OW32749   2.872   1.450   3.006  0.0608 -0.3048 -0.3924
 7357SOL    HW132750   2.803   1.501   3.058  0.4195 -0.2126 -0.0036
 7357SOL    HW232751   2.865   1.353   3.028 -0.9819 -0.5002 -1.5466
 7358SOL     OW32752   0.792   2.489   1.435 -0.2393  0.0431 -0.1637
 7358SOL    HW132753   0.750   2.552   1.370  1.2911  0.2130 -1.0030
 7358SOL    HW232754   0.885   2.518   1.455  0.0045 -1.1703  0.5097
 7359SOL     OW32755   9.389   7.840   1.989 -0.2951  0.2697  0.0718
 7359SOL    HW132756   9.325   7.765   1.974  1.1937 -0.9661 -0.2021
 7359SOL    HW232757   9.466   7.831   1.926  1.0841  0.6510  1.6668
 7360SOL     OW32758   7.614   9.881   0.918  0.9457  0.3634  0.3606
 7360SOL    HW132759   7.672   9.812   0.875 -1.1764 -1.0870 -0.2822
 7360SOL    HW232760   7.533   9.897   0.861  0.5408  2.1081  1.3686
 7361SOL     OW32761   0.407   2.281   2.758  0.1453  0.0125 -0.0127
 7361SOL    HW132762   0.488   2.340   2.758 -1.1687  1.8774 -0.3731
 7361SOL    HW232763   0.386   2.254   2.664  0.3678 -0.4859  0.0820
 7362SOL     OW32764   3.911   3.901   4.640  0.3631 -0.0159  1.1807
 7362SOL    HW132765   3.945   3.947   4.558 -1.3870 -0.2177  0.3126
 7362SOL    HW232766   3.975   3.828   4.666  2.1052  1.5400  1.3756
 7363SOL     OW32767   4.142   0.238   1.900  0.0076  0.5353  0.5051
 7363SOL    HW132768   4.052   0.280   1.911 -0.2878 -0.3632  1.5198
 7363SOL    HW232769   4.135   0.161   1.836  0.4083  1.5378 -0.7769
 7364SOL     OW32770   0.768   1.726   0.894  0.4567 -0.1224  0.1053
 7364SOL    HW132771   0.683   1.689   0.933  1.0325 -0.7601  0.7715
 7364SOL    HW232772   0.795   1.807   0.945 -0.9393  1.3947 -1.5108
 7365SOL     OW32773   3.012   8.023   1.529 -0.9421 -0.0078 -0.2410
 7365SOL    HW132774   2.931   7.965   1.521  1.1665 -3.2006  0.4462
 7365SOL    HW232775   3.071   8.008   1.450  0.2800  0.1362  0.6302
 7366SOL     OW32776   4.182   1.096   0.054 -0.0006  0.6831 -0.1070
 7366SOL    HW132777   4.227   1.142  -0.022  1.0740 -1.0532 -0.5491
 7366SOL    HW232778   4.237   1.018   0.083 -2.8919 -1.7519 -0.9214
 7367SOL     OW32779   2.263   3.184   3.044  0.1843  0.3055  0.1862
 7367SOL    HW132780   2.303   3.265   3.087  0.3916  0.3348 -0.0612
 7367SOL    HW232781   2.336   3.123   3.014  0.0274  0.0224  0.3799
 7368SOL     OW32782   9.392   6.540   4.307 -0.2789  0.1725  0.1022
 7368SOL    HW132783   9.456   6.468   4.280  1.9740  1.4756  1.7060
 7368SOL    HW232784   9.361   6.524   4.401 -1.7207 -0.0175 -0.3938
 7369SOL     OW32785   3.012   3.512   0.701  0.3988  0.7299 -0.4959
 7369SOL    HW132786   3.102   3.490   0.740 -0.4633 -2.5413 -0.2100
 7369SOL    HW232787   2.995   3.454   0.621 -2.4972 -0.5460  0.9846
 7370SOL     OW32788   3.724   1.678   1.987 -0.1829 -0.1904 -0.1477
 7370SOL    HW132789   3.663   1.742   1.941  0.5875 -0.3036 -1.3381
 7370SOL    HW232790   3.671   1.615   2.044 -0.9479  1.4956  1.0337
 7371SOL     OW32791   5.005   2.790   2.342 -0.0002 -0.0354 -0.2846
 7371SOL    HW132792   4.912   2.790   2.306 -1.1512  1.0623  2.5295
 7371SOL    HW232793   5.038   2.884   2.349  0.8597 -0.3446 -0.1641
 7372SOL     OW32794   2.662   5.274   2.544  0.1922 -0.2883  0.6071
 7372SOL    HW132795   2.634   5.363   2.508  1.3068 -0.7411 -1.5199
 7372SOL    HW232796   2.584   5.228   2.585 -0.9815  0.6274 -0.5549
 7373SOL     OW32797   5.116   3.004   2.595 -0.2142  0.1770  0.4184
 7373SOL    HW132798   5.134   2.938   2.668  0.9565  1.1258  1.0123
 7373SOL    HW232799   5.037   3.061   2.619 -1.6367 -1.4126 -0.3941
 7374SOL     OW32800   0.384   8.596   3.190  0.5400  0.0476  0.0878
 7374SOL    HW132801   0.457   8.607   3.257 -0.5911  1.1044  1.1618
 7374SOL    HW232802   0.299   8.571   3.236 -0.4699  1.6577 -0.8439
 7375SOL     OW32803   9.149   3.487   3.990 -0.1198 -0.3476  0.0425
 7375SOL    HW132804   9.061   3.478   3.943  0.1114 -0.0946 -0.4425
 7375SOL    HW232805   9.216   3.426   3.946  0.1043 -0.0925  0.0279
 7376SOL     OW32806   9.821   9.206   3.728 -0.4460 -0.0909 -0.3999
 7376SOL    HW132807   9.818   9.285   3.788  0.9253  0.0387 -0.4773
 7376SOL    HW232808   9.851   9.126   3.780  2.9551  0.4975 -1.3439
 7377SOL     OW32809   3.868   3.142   3.229  0.7611 -0.1921  0.1322
 7377SOL    HW132810   3.779   3.105   3.258  0.7334 -0.6493 -0.5274
 7377SOL    HW232811   3.926   3.156   3.310  0.2662 -0.3457  0.5192
 7378SOL     OW32812   0.361   6.573   1.743  0.3002 -1.0986  0.0704
 7378SOL    HW132813   0.310   6.645   1.791  0.8200 -0.8852  0.3053
 7378SOL    HW232814   0.459   6.588   1.755  0.4437 -0.9798 -1.1497
 7379SOL     OW32815   9.437   0.211   0.895  0.5199  0.5126 -0.2706
 7379SOL    HW132816   9.418   0.242   0.988 -0.5867  1.4405 -0.7995
 7379SOL    HW232817   9.395   0.121   0.880  0.4582  0.4909  0.0369
 7380SOL     OW32818   2.430   6.127   0.817 -0.3702 -0.0197 -0.2726
 7380SOL    HW132819   2.379   6.140   0.903 -1.1010  0.5030 -0.7789
 7380SOL    HW232820   2.446   6.030   0.802  1.2082 -0.0311  1.2936
 7381SOL     OW32821   7.074   9.263   2.328 -0.5768 -0.2554  0.6693
 7381SOL    HW132822   7.097   9.243   2.424 -1.2385  0.8226  1.0698
 7381SOL    HW232823   7.104   9.356   2.306 -0.7574 -0.3695 -0.0685
 7382SOL     OW32824   1.634   0.506   0.398  0.2204 -0.7792 -0.1276
 7382SOL    HW132825   1.602   0.418   0.363 -1.1635  0.2609 -1.6046
 7382SOL    HW232826   1.693   0.549   0.329 -2.4550  1.2549 -1.2345
 7383SOL     OW32827   0.690   8.902   2.606  0.2936  0.0163 -0.2175
 7383SOL    HW132828   0.754   8.884   2.681  1.5100  2.6448 -0.5818
 7383SOL    HW232829   0.726   8.862   2.521  0.2797 -0.5636  0.0491
 7384SOL     OW32830   7.776   3.008   1.188 -0.6783 -0.0723 -0.1864
 7384SOL    HW132831   7.702   2.980   1.249 -1.3947  0.6325 -0.7334
 7384SOL    HW232832   7.807   2.929   1.135 -0.6898 -0.4764  0.3959
 7385SOL     OW32833   0.543   2.170   4.426  1.0344 -0.2816 -0.0458
 7385SOL    HW132834   0.491   2.088   4.400  1.4343 -1.0813  1.6437
 7385SOL    HW232835   0.639   2.146   4.439  1.0961  0.3951  0.7796
 7386SOL     OW32836   0.656   4.957   1.963 -0.5722 -0.2613 -0.5483
 7386SOL    HW132837   0.580   4.991   2.019  0.0125  3.2637 -1.7786
 7386SOL    HW232838   0.621   4.935   1.872 -0.7085 -1.8216 -0.1291
 7387SOL     OW32839   3.097   4.314   3.335 -0.5087  0.0656  0.3481
 7387SOL    HW132840   3.152   4.245   3.289 -0.7183  0.3039 -0.2585
 7387SOL    HW232841   3.105   4.401   3.287 -0.5255  0.3827  0.9077
 7388SOL     OW32842   9.783   3.119   4.415  0.0022 -0.2232 -0.2624
 7388SOL    HW132843   9.881   3.132   4.433 -0.2451  0.8007  0.4194
 7388SOL    HW232844   9.737   3.208   4.419 -1.2449 -0.9220  1.1560
 7389SOL     OW32845   1.794   4.720   0.535 -0.6053 -0.1292  0.4091
 7389SOL    HW132846   1.790   4.626   0.501  1.6486 -0.1242  0.0587
 7389SOL    HW232847   1.886   4.757   0.519 -0.8566  1.4206  2.4397
 7390SOL     OW32848   0.179   9.105   4.324 -0.2210  1.0168  0.4231
 7390SOL    HW132849   0.248   9.121   4.394 -0.4716 -0.2565  0.9799
 7390SOL    HW232850   0.147   9.010   4.329  0.0529  0.7837 -1.6922
 7391SOL     OW32851   0.233   0.182   2.220 -0.1539  0.2023 -0.6831
 7391SOL    HW132852   0.232   0.124   2.302 -0.4074  1.4133  0.1786
 7391SOL    HW232853   0.310   0.246   2.226 -1.0076  1.2445 -0.7171
 7392SOL     OW32854   4.818   7.622   2.002 -0.2020 -1.0686  0.3995
 7392SOL    HW132855   4.773   7.712   2.008 -2.9388 -2.3904  0.3527
 7392SOL    HW232856   4.912   7.634   1.971 -1.0103  1.6606 -1.1363
 7393SOL     OW32857   7.835   7.899   1.288 -0.5234 -0.7009  0.5469
 7393SOL    HW132858   7.800   7.844   1.364 -0.9912  0.5694  1.2721
 7393SOL    HW232859   7.872   7.985   1.323  2.0394 -1.3790 -0.3695
 7394SOL     OW32860   9.621   6.482   3.737  0.1521 -0.2987  0.5577
 7394SOL    HW132861   9.709   6.519   3.764  0.1030 -0.7348  1.3171
 7394SOL    HW232862   9.632   6.388   3.704 -0.0183 -0.3242  0.5702
 7395SOL     OW32863   3.030   0.509   1.234 -0.2139  0.1997  0.7718
 7395SOL    HW132864   3.114   0.520   1.182 -0.1700  1.9803  1.1761
 7395SOL    HW232865   2.980   0.428   1.202  1.5117 -0.7212  0.3695
 7396SOL     OW32866   9.870   7.513   3.494 -0.0981  0.1854  0.2869
 7396SOL    HW132867   9.968   7.498   3.506 -0.0884 -0.7716 -0.9207
 7396SOL    HW232868   9.849   7.529   3.398 -1.1598  0.1703  0.5037
 7397SOL     OW32869   2.624   6.326   3.880 -0.3808  0.0110  0.1937
 7397SOL    HW132870   2.572   6.242   3.863 -1.6848  0.6845  0.8338
 7397SOL    HW232871   2.696   6.307   3.946  0.6437 -1.0927 -1.1954
 7398SOL     OW32872   1.187   1.587   1.569 -0.9847  0.2621 -0.3222
 7398SOL    HW132873   1.206   1.681   1.542 -2.9556  0.5129 -0.9060
 7398SOL    HW232874   1.109   1.585   1.632 -0.8516 -0.9705 -0.1782
 7399SOL     OW32875   6.879   9.258   4.322  0.1589  0.1835  0.6611
 7399SOL    HW132876   6.836   9.321   4.257  1.6549 -0.6675 -1.2128
 7399SOL    HW232877   6.897   9.306   4.408 -0.3696  1.8067 -0.1158
 7400SOL     OW32878   8.081   7.327   3.564 -0.1268 -1.0139 -0.3477
 7400SOL    HW132879   7.990   7.285   3.568 -0.5920  0.0471  0.4715
 7400SOL    HW232880   8.118   7.334   3.656  1.0356 -1.9371 -0.7283
 7401SOL     OW32881   1.883   4.270   2.758 -0.3549  0.6745 -0.3910
 7401SOL    HW132882   1.873   4.238   2.852  0.5600  1.1790 -0.1196
 7401SOL    HW232883   1.861   4.195   2.695  1.0488 -0.2701  0.2292
 7402SOL     OW32884   1.919   0.777   1.614 -0.0692 -0.4659  0.1990
 7402SOL    HW132885   1.986   0.829   1.667 -2.6481  0.1882  2.9794
 7402SOL    HW232886   1.836   0.832   1.604 -1.9612 -3.0830  1.0557
 7403SOL     OW32887   9.068   4.717   0.417  0.0647  0.6844  0.1178
 7403SOL    HW132888   9.032   4.647   0.480  0.8164  1.2270  1.1682
 7403SOL    HW232889   9.144   4.765   0.461  1.3313  0.3183 -1.6524
 7404SOL     OW32890   6.584   9.539   4.505 -0.5348  0.0160 -0.2510
 7404SOL    HW132891   6.579   9.606   4.430  2.1912 -1.1476 -1.5253
 7404SOL    HW232892   6.537   9.455   4.477 -0.8187  0.1059 -0.0506
 7405SOL     OW32893   2.809   0.130   4.752 -0.0598 -0.4085  0.0015
 7405SOL    HW132894   2.843   0.204   4.810  0.6392 -0.8013  0.1028
 7405SOL    HW232895   2.881   0.099   4.691 -0.2881 -1.1337  0.0915
 7406SOL     OW32896   3.452   5.023   1.639  0.1761  0.2986  0.0169
 7406SOL    HW132897   3.380   5.023   1.708 -0.8801  0.9241 -1.0815
 7406SOL    HW232898   3.413   5.004   1.549  1.6771 -1.4548 -0.2982
 7407SOL     OW32899   2.732   4.918   1.185 -0.1067 -0.2756 -0.0548
 7407SOL    HW132900   2.751   4.828   1.224  0.4952  0.3829  1.2213
 7407SOL    HW232901   2.819   4.966   1.171 -0.3775 -0.2120 -1.4949
 7408SOL     OW32902   0.785   1.019   3.460 -0.3987  0.3522 -0.1634
 7408SOL    HW132903   0.778   1.051   3.554 -0.5069  0.2864 -0.1491
 7408SOL    HW232904   0.751   1.089   3.398 -0.7211  0.2314 -0.1259
 7409SOL     OW32905   6.534   7.827   2.724  0.2878 -0.6691  0.2748
 7409SOL    HW132906   6.594   7.903   2.698  0.9452 -1.3984 -0.3636
 7409SOL    HW232907   6.443   7.862   2.743 -0.1431 -0.0249 -2.7409
 7410SOL     OW32908   2.048   5.345   1.640 -0.1872 -0.0036  0.1817
 7410SOL    HW132909   2.096   5.431   1.624  1.1499 -0.5506  1.1258
 7410SOL    HW232910   2.017   5.342   1.735  2.1109 -1.6683  0.9198
 7411SOL     OW32911   2.562   5.959   4.616 -0.6899 -0.2077  0.1311
 7411SOL    HW132912   2.638   6.011   4.656  0.6586 -1.4640 -0.7307
 7411SOL    HW232913   2.512   6.017   4.552  0.2903  0.2712 -0.2098
 7412SOL     OW32914   4.462   1.430   0.632 -0.2807  0.1038 -0.0593
 7412SOL    HW132915   4.381   1.414   0.575 -0.3308  2.6384 -0.7719
 7412SOL    HW232916   4.441   1.503   0.698  1.2876  0.5108  0.0011
 7413SOL     OW32917   2.550   8.951   2.364  0.5995  0.3855 -0.5577
 7413SOL    HW132918   2.608   9.014   2.415  1.2896 -1.2215  0.7019
 7413SOL    HW232919   2.454   8.963   2.391  0.9226 -0.2378  0.9283
 7414SOL     OW32920   2.790   7.134   2.775 -0.0482  0.3714 -0.2784
 7414SOL    HW132921   2.722   7.062   2.791  0.3502  0.1964  0.6842
 7414SOL    HW232922   2.743   7.218   2.746 -0.5443 -0.1626 -1.0521
 7415SOL     OW32923   0.350   0.144   0.362  0.6633  0.1328  0.5046
 7415SOL    HW132924   0.343   0.220   0.298 -0.6596 -1.4537 -1.2977
 7415SOL    HW232925   0.444   0.109   0.362  0.8014  0.5020 -0.1313
 7416SOL     OW32926   9.502   3.957   3.769  0.5450  0.2746  0.0173
 7416SOL    HW132927   9.480   3.918   3.679  1.5087 -0.2204 -0.0123
 7416SOL    HW232928   9.595   3.994   3.767  0.8966 -0.5578  1.0904
 7417SOL     OW32929   9.193   3.146   3.754 -0.4573  0.9572  0.3462
 7417SOL    HW132930   9.251   3.188   3.823 -0.0170  2.0469 -0.6843
 7417SOL    HW232931   9.168   3.214   3.684 -2.3924  0.3396  0.3986
 7418SOL     OW32932   2.387   1.618   1.094  0.1921 -0.0751  0.3753
 7418SOL    HW132933   2.355   1.707   1.125 -2.9608 -1.3078  0.8610
 7418SOL    HW232934   2.477   1.599   1.133  1.6135  3.4948 -0.9373
 7419SOL     OW32935   8.141   7.648   3.094 -0.1643  0.7873 -0.1747
 7419SOL    HW132936   8.204   7.638   3.171 -0.2814 -0.0805 -0.1835
 7419SOL    HW232937   8.053   7.607   3.117  0.6342 -1.9563 -1.7177
 7420SOL     OW32938   4.780   4.780   1.862  0.6150 -0.2616 -0.2995
 7420SOL    HW132939   4.791   4.879   1.851 -1.1115 -0.0639 -0.3555
 7420SOL    HW232940   4.692   4.760   1.904  0.5863 -1.8129 -1.0373
 7421SOL     OW32941   0.253   0.605   3.094  0.4795 -0.6045 -0.0518
 7421SOL    HW132942   0.307   0.674   3.046 -1.1248  1.0677  0.4717
 7421SOL    HW232943   0.301   0.576   3.177  0.6890  0.7109  0.3039
 7422SOL     OW32944   5.169   6.328   2.619 -0.2245  1.0150  0.2866
 7422SOL    HW132945   5.146   6.291   2.529 -0.8935 -2.5256  1.8224
 7422SOL    HW232946   5.268   6.340   2.626  0.0970 -1.1382 -0.0965
 7423SOL     OW32947   3.284   9.608   4.206 -0.1069  0.4287 -0.2870
 7423SOL    HW132948   3.306   9.705   4.217  0.6787  0.6136 -3.0247
 7423SOL    HW232949   3.224   9.595   4.127 -0.8257 -1.2506  0.4944
 7424SOL     OW32950   0.920   0.135   3.888 -0.3992  0.2311  0.2453
 7424SOL    HW132951   0.832   0.102   3.852 -0.6875 -0.5153  1.5922
 7424SOL    HW232952   0.911   0.231   3.914 -0.2314  0.7331 -1.4882
 7425SOL     OW32953   8.891   4.376   1.166 -0.5763  0.2230 -0.2766
 7425SOL    HW132954   8.962   4.357   1.233 -0.9434  0.4578  0.1775
 7425SOL    HW232955   8.927   4.360   1.074  0.6275  2.1471 -0.1510
 7426SOL     OW32956   1.603   6.175   0.808  0.0912 -0.0405 -0.3830
 7426SOL    HW132957   1.525   6.238   0.811  0.6918  0.7128 -0.3369
 7426SOL    HW232958   1.571   6.082   0.825 -0.5515  0.5014  1.5900
 7427SOL     OW32959   0.967   0.434   4.286 -0.0919 -0.1879  0.2382
 7427SOL    HW132960   0.921   0.373   4.351 -0.5684  0.9423  0.9609
 7427SOL    HW232961   1.060   0.400   4.271 -1.3230 -2.9040 -1.7931
 7428SOL     OW32962   1.578   5.586   2.411 -0.0449 -0.0028 -0.1719
 7428SOL    HW132963   1.489   5.543   2.429 -0.0461  0.1103  0.0958
 7428SOL    HW232964   1.620   5.543   2.331 -1.0115  0.9217 -1.2001
 7429SOL     OW32965   0.409   9.984   4.580 -0.0844  0.0327 -0.1081
 7429SOL    HW132966   0.445  10.016   4.493  2.0671  1.6208  1.3017
 7429SOL    HW232967   0.335  10.044   4.610  0.3589  0.5509 -0.0277
 7430SOL     OW32968   1.872   3.131   4.480 -0.6895  0.0460 -0.0960
 7430SOL    HW132969   1.931   3.118   4.560 -0.8459 -0.5840 -0.0786
 7430SOL    HW232970   1.914   3.086   4.401 -1.8412 -1.6566  0.2353
 7431SOL     OW32971   4.157   8.860   2.125 -0.3752 -0.3496  0.3734
 7431SOL    HW132972   4.062   8.889   2.134 -0.4773 -1.1560  1.9917
 7431SOL    HW232973   4.180   8.797   2.200  1.6392  0.4181  0.4099
 7432SOL     OW32974   3.189   7.400   1.651  0.2608 -0.4292  0.0287
 7432SOL    HW132975   3.150   7.311   1.630  0.9892 -0.4579 -1.2698
 7432SOL    HW232976   3.286   7.402   1.625  0.5162  0.4193  0.9728
 7433SOL     OW32977   8.630   0.982   4.296  0.1451  0.0783 -0.7973
 7433SOL    HW132978   8.583   1.004   4.210 -0.6512  1.0431 -0.1325
 7433SOL    HW232979   8.720   1.026   4.297  0.9479 -1.5238 -1.9476
 7434SOL     OW32980   9.528   9.792   3.062  0.1157 -0.0794 -0.3009
 7434SOL    HW132981   9.611   9.740   3.082  0.4226  0.6746  0.4175
 7434SOL    HW232982   9.534   9.829   2.969  0.3627 -0.4523 -0.4327
 7435SOL     OW32983   4.757   4.311   0.141 -0.0329 -0.0845 -0.2410
 7435SOL    HW132984   4.741   4.256   0.059  0.4227 -0.3071 -0.1809
 7435SOL    HW232985   4.681   4.374   0.154  0.5990  1.0081 -1.6888
 7436SOL     OW32986   9.688   0.664   2.099 -0.3325  0.3746  0.5280
 7436SOL    HW132987   9.682   0.564   2.094  1.3141  0.2235  1.1050
 7436SOL    HW232988   9.744   0.697   2.023 -1.9989  0.9957 -0.4474
 7437SOL     OW32989   1.761   7.764   0.714 -0.4771 -0.7581  0.3072
 7437SOL    HW132990   1.776   7.753   0.615 -1.9257 -2.0512  0.2232
 7437SOL    HW232991   1.813   7.694   0.763  1.1536  0.5876  0.5476
 7438SOL     OW32992   7.968   4.839   4.414  0.1165  0.4330 -0.1364
 7438SOL    HW132993   7.929   4.850   4.322 -2.4821 -0.9482  0.7284
 7438SOL    HW232994   7.976   4.929   4.458  0.5567  1.0163 -1.3889
 7439SOL     OW32995   9.174   5.709   3.735 -0.1953  0.3647  0.2073
 7439SOL    HW132996   9.199   5.617   3.764  3.4190  0.8574 -0.9703
 7439SOL    HW232997   9.101   5.705   3.667 -0.1883 -1.6412  0.3007
 7440SOL     OW32998   9.563   4.095   1.688 -0.3238 -0.3583 -0.0710
 7440SOL    HW132999   9.489   4.037   1.725  0.3765 -1.1311  0.1428
 7440SOL    HW233000   9.610   4.045   1.615 -1.2875  0.9161 -1.5732
 7441SOL     OW33001   2.514   7.594   1.602  0.0536 -0.0322  0.1482
 7441SOL    HW133002   2.462   7.618   1.520 -1.4737  1.4240  1.5060
 7441SOL    HW233003   2.461   7.530   1.657  1.5601 -1.9023 -0.5177
 7442SOL     OW33004   2.790   2.233   3.102  0.1914  0.4967  0.3486
 7442SOL    HW133005   2.762   2.310   3.044 -2.0427 -0.3326  0.2538
 7442SOL    HW233006   2.877   2.197   3.070  1.8102  3.6576  1.0709
 7443SOL     OW33007   2.832   6.028   2.449  0.1056  0.0114  0.2365
 7443SOL    HW133008   2.831   6.099   2.520  0.0066 -1.4844  1.7447
 7443SOL    HW233009   2.878   6.064   2.368 -0.0473  1.8494  0.9254
 7444SOL     OW33010   4.462   7.415   0.123  0.3855 -0.3734  0.2334
 7444SOL    HW133011   4.541   7.469   0.154  0.4453 -0.8266  0.8779
 7444SOL    HW233012   4.412   7.380   0.203 -1.8293  1.8447 -0.1237
 7445SOL     OW33013   4.170   8.186   4.661 -0.4662 -0.4610  0.4199
 7445SOL    HW133014   4.184   8.205   4.758  0.6926  0.6931  0.0383
 7445SOL    HW233015   4.187   8.089   4.644  0.5596 -0.4278  1.1619
 7446SOL     OW33016   0.253   5.115   0.339 -0.0321 -0.0826  0.2474
 7446SOL    HW133017   0.306   5.148   0.417 -1.6002 -0.8125  1.6564
 7446SOL    HW233018   0.186   5.185   0.313  0.5229  0.1812 -0.4985
 7447SOL     OW33019   3.441   3.409   3.579 -0.5051  0.0225  0.8077
 7447SOL    HW133020   3.460   3.315   3.551  0.3915  0.1043  1.1160
 7447SOL    HW233021   3.478   3.472   3.512  0.4818  0.1908  1.5095
 7448SOL     OW33022   0.536   0.798   0.983  0.0257 -0.2005  0.2907
 7448SOL    HW133023   0.609   0.734   1.008  0.0446  0.1014  1.0405
 7448SOL    HW233024   0.513   0.786   0.887  0.9386 -0.4281  0.0885
 7449SOL     OW33025   1.615   5.455   0.821  0.1249  0.7781 -0.1341
 7449SOL    HW133026   1.679   5.402   0.766  0.8458  1.4647  0.0406
 7449SOL    HW233027   1.613   5.549   0.789 -0.4624  0.8677  0.1558
 7450SOL     OW33028   9.127   6.352   1.867  0.0324 -0.1516 -0.3036
 7450SOL    HW133029   9.066   6.273   1.866  0.6071 -0.5827 -2.3215
 7450SOL    HW233030   9.214   6.326   1.908  0.2142 -0.5483 -0.9469
 7451SOL     OW33031   8.132   0.239   1.865 -0.1453 -0.4272 -0.1505
 7451SOL    HW133032   8.113   0.298   1.944 -0.1344 -1.7622  0.8711
 7451SOL    HW233033   8.156   0.295   1.786 -0.9250  0.9655  0.5878
 7452SOL     OW33034   0.492   3.743   1.535 -0.5027 -0.1085 -0.3135
 7452SOL    HW133035   0.487   3.781   1.443  1.1765  0.6751 -0.0920
 7452SOL    HW233036   0.440   3.801   1.598  0.0866  0.5304 -0.4037
 7453SOL     OW33037   4.199   7.936   2.842  0.6464  0.2125 -0.0842
 7453SOL    HW133038   4.142   7.948   2.761 -2.6468 -1.2392  1.9083
 7453SOL    HW233039   4.213   8.024   2.887  2.0328  0.9378 -1.8888
 7454SOL     OW33040   2.064   9.116   0.228  0.0818  0.7035 -0.4790
 7454SOL    HW133041   2.064   9.191   0.162 -0.7008  0.4930 -0.7234
 7454SOL    HW233042   1.979   9.118   0.281 -0.9922 -1.3721 -2.0698
 7455SOL     OW33043   4.746   0.179   3.529 -0.1946  0.0258  0.4711
 7455SOL    HW133044   4.760   0.124   3.611 -1.8242  1.3274  1.6518
 7455SOL    HW233045   4.679   0.135   3.469  0.6287 -0.6797  0.0624
 7456SOL     OW33046   3.160   4.214   3.574  0.0510 -0.1956 -0.5267
 7456SOL    HW133047   3.092   4.234   3.645  0.1000  1.4149 -0.9110
 7456SOL    HW233048   3.119   4.228   3.484  0.0396 -2.0658 -0.8225
 7457SOL     OW33049   8.673   5.621   3.814 -0.2858 -0.5283 -0.3792
 7457SOL    HW133050   8.760   5.668   3.796  0.1892 -0.9426  0.7759
 7457SOL    HW233051   8.638   5.649   3.903 -0.7182 -1.2909 -0.3061
 7458SOL     OW33052   6.515   0.216   1.784  0.2254 -0.2424  0.3847
 7458SOL    HW133053   6.456   0.147   1.826 -1.5237  1.0540  0.1061
 7458SOL    HW233054   6.469   0.305   1.786  1.2620  0.3803 -1.7841
 7459SOL     OW33055   4.353   8.113   1.338 -0.7263  0.2035 -0.3226
 7459SOL    HW133056   4.370   8.086   1.433 -0.5828  0.5289 -0.2558
 7459SOL    HW233057   4.396   8.201   1.320  0.8547 -0.7432 -1.2351
 7460SOL     OW33058   9.262   5.764   4.030  0.5291 -0.0102 -0.1871
 7460SOL    HW133059   9.359   5.781   4.049  1.6721 -2.0294 -3.7967
 7460SOL    HW233060   9.246   5.666   4.022 -2.0366  0.2622  1.2927
 7461SOL     OW33061   9.591   7.677   0.108  0.0021 -0.1065 -0.0963
 7461SOL    HW133062   9.633   7.762   0.139 -0.3890  0.1505 -0.2633
 7461SOL    HW233063   9.504   7.664   0.156  0.3199 -0.6852  0.3213
 7462SOL     OW33064   3.676   6.876   1.357 -0.3516  0.1622 -0.2207
 7462SOL    HW133065   3.638   6.961   1.320 -0.7241 -0.8313 -2.1318
 7462SOL    HW233066   3.775   6.887   1.367 -0.4309  0.9215 -0.1916
 7463SOL     OW33067   2.959   8.067   0.797  0.2899  0.4483 -0.9740
 7463SOL    HW133068   2.959   7.970   0.771  1.2806  0.2256 -0.1809
 7463SOL    HW233069   3.047   8.108   0.774 -0.3487  1.3402 -1.8972
 7464SOL     OW33070   8.641   1.991   1.612  0.6121 -0.1038 -0.1408
 7464SOL    HW133071   8.621   2.079   1.654 -0.2504 -0.5217  0.3327
 7464SOL    HW233072   8.576   1.923   1.645 -0.6663 -0.2433 -2.8380
 7465SOL     OW33073   2.571   7.098   3.085 -0.4179 -0.5878 -0.4752
 7465SOL    HW133074   2.575   7.100   2.985 -1.1975  0.8556 -0.4826
 7465SOL    HW233075   2.487   7.053   3.113 -0.0773 -1.2261 -0.4492
 7466SOL     OW33076   9.923   6.649   4.765  0.1910  0.5758  1.0183
 7466SOL    HW133077  10.013   6.615   4.740 -0.1816 -2.2888  3.2675
 7466SOL    HW233078   9.894   6.606   4.850 -3.1094  1.7942  0.5838
 7467SOL     OW33079   6.953   8.312   1.973 -0.6215  0.0590  0.0821
 7467SOL    HW133080   6.957   8.393   1.914 -1.0059 -0.6241 -0.8923
 7467SOL    HW233081   6.924   8.233   1.920 -0.3618 -0.7085  1.0558
 7468SOL     OW33082   2.120   8.512   1.401  0.8231 -0.4266  0.2676
 7468SOL    HW133083   2.128   8.610   1.389  0.7318 -0.1390  2.2671
 7468SOL    HW233084   2.205   8.476   1.440  0.6258 -1.0326  0.1503
 7469SOL     OW33085   2.102   3.402   2.623 -0.4025  0.1029 -0.6628
 7469SOL    HW133086   2.151   3.399   2.710  2.4162 -1.5540 -2.2304
 7469SOL    HW233087   2.012   3.361   2.634 -0.7096  1.3180  1.8094
 7470SOL     OW33088   8.135   9.420   3.892 -0.6364 -0.2101 -0.0774
 7470SOL    HW133089   8.185   9.375   3.818 -1.1679 -2.1761  0.7141
 7470SOL    HW233090   8.190   9.495   3.930  1.3073 -1.7139  0.1536
 7471SOL     OW33091   9.268   6.579   1.690  0.0003 -0.0393 -0.4214
 7471SOL    HW133092   9.313   6.558   1.777 -1.9597  0.7956  0.8090
 7471SOL    HW233093   9.307   6.663   1.652  1.1419 -0.6255 -0.5741
 7472SOL     OW33094   7.162   9.228   2.595  0.0057  0.1696 -0.0311
 7472SOL    HW133095   7.088   9.168   2.625 -0.0578 -0.3973 -1.3148
 7472SOL    HW233096   7.247   9.176   2.588  0.2667  0.5515  0.2459
 7473SOL     OW33097   2.998   5.017   2.723 -0.1402 -0.4222  0.2797
 7473SOL    HW133098   3.033   4.954   2.654 -1.2297 -0.4578 -0.2530
 7473SOL    HW233099   3.074   5.055   2.776  0.6856 -0.5196 -0.8256
 7474SOL     OW33100   2.687   0.722   0.668  0.0908  0.0819  0.3252
 7474SOL    HW133101   2.620   0.796   0.675 -0.9252 -0.5072 -2.3727
 7474SOL    HW233102   2.777   0.760   0.648 -0.2821  0.6701 -0.2705
 7475SOL     OW33103   7.941   5.268   1.495  0.3557 -0.1123 -0.3270
 7475SOL    HW133104   7.904   5.355   1.461  0.1837 -0.3283 -0.7001
 7475SOL    HW233105   7.905   5.193   1.440 -2.1849 -0.7647  2.0992
 7476SOL     OW33106   9.071   6.401   2.185 -0.1331  0.6571 -0.3745
 7476SOL    HW133107   9.076   6.363   2.092 -0.8250  1.7438 -0.8761
 7476SOL    HW233108   9.014   6.342   2.242  0.7250 -0.2984 -0.4997
 7477SOL     OW33109   9.619   1.296   3.822  0.2851  0.1718  0.4032
 7477SOL    HW133110   9.651   1.206   3.851  1.0854  0.7172  1.2993
 7477SOL    HW233111   9.531   1.288   3.776  1.0071 -1.2176 -0.7814
 7478SOL     OW33112   4.747   2.548   1.322 -0.0925  0.1576  0.1242
 7478SOL    HW133113   4.828   2.536   1.379  0.0890 -1.6003 -0.4660
 7478SOL    HW233114   4.730   2.645   1.308  2.0576  0.5467  0.0480
 7479SOL     OW33115   0.461   3.551   0.494 -0.2059 -0.1251  0.3868
 7479SOL    HW133116   0.424   3.466   0.530 -2.3406  0.0682 -1.2485
 7479SOL    HW233117   0.561   3.543   0.486 -0.5808 -3.3842 -1.9801
 7480SOL     OW33118   0.275   5.659   2.937  0.1994  0.0249 -0.3790
 7480SOL    HW133119   0.266   5.565   2.969 -3.0216  0.0939 -0.9179
 7480SOL    HW233120   0.312   5.660   2.844 -0.7763 -0.7721 -0.7773
 7481SOL     OW33121   5.190   1.680   2.788 -0.0296 -0.1063 -0.5427
 7481SOL    HW133122   5.283   1.687   2.754  0.2000  0.5444  0.2009
 7481SOL    HW233123   5.126   1.702   2.714  0.4804  1.8673 -0.4202
 7482SOL     OW33124   1.984   2.394   0.111  0.2088 -0.2586  0.1814
 7482SOL    HW133125   1.914   2.336   0.153  0.6033 -2.0293 -1.5173
 7482SOL    HW233126   1.940   2.466   0.057 -0.3403 -1.1108 -0.5379
 7483SOL     OW33127   3.031   4.514   1.609  0.0702  0.5548  0.0659
 7483SOL    HW133128   3.096   4.586   1.632 -0.3321  1.0914 -0.4801
 7483SOL    HW233129   3.030   4.445   1.683 -0.2805  1.6077  1.0574
 7484SOL     OW33130   9.279   9.457   3.504  0.0707 -0.2622 -0.0183
 7484SOL    HW133131   9.197   9.410   3.536 -0.1943 -0.6373 -1.2280
 7484SOL    HW233132   9.263   9.556   3.507 -0.7834 -0.3558 -1.1708
 7485SOL     OW33133   3.676   4.804   0.056  0.6185  0.2004 -0.6620
 7485SOL    HW133134   3.708   4.783  -0.037 -0.4876  0.2726 -1.0601
 7485SOL    HW233135   3.613   4.734   0.086 -0.3911  1.1018 -0.6481
 7486SOL     OW33136   0.234   9.158   2.962  0.4641 -0.4447 -0.6848
 7486SOL    HW133137   0.260   9.100   2.886  0.1727 -2.2308  0.5503
 7486SOL    HW233138   0.214   9.102   3.042 -0.7156  1.2955  0.2840
 7487SOL     OW33139   3.049   1.824   1.456  0.2167  0.1900  0.8181
 7487SOL    HW133140   3.021   1.843   1.550 -1.1368  1.0054  0.2586
 7487SOL    HW233141   3.040   1.907   1.401 -0.5190 -0.6882 -0.4035
 7488SOL     OW33142   1.730   1.219   0.542 -0.4033  0.1852  0.5405
 7488SOL    HW133143   1.731   1.190   0.638  0.4419 -1.1682  0.1430
 7488SOL    HW233144   1.808   1.177   0.494 -1.0594  0.5088 -0.8250
 7489SOL     OW33145   9.007   5.280   0.515 -0.3143  0.4183  0.1655
 7489SOL    HW133146   8.946   5.282   0.595  1.0771 -0.3753  1.2640
 7489SOL    HW233147   8.952   5.280   0.432 -1.7978  0.8645  1.1169
 7490SOL     OW33148   8.315   4.116   2.293 -0.1355  0.1761 -0.0115
 7490SOL    HW133149   8.293   4.072   2.206  1.1489  0.8519 -0.6934
 7490SOL    HW233150   8.320   4.047   2.366 -1.1664 -0.3944 -0.4757
 7491SOL     OW33151   8.542   5.278   2.676 -0.2150  0.1125  0.4172
 7491SOL    HW133152   8.573   5.370   2.697 -0.6930  0.4513 -0.3620
 7491SOL    HW233153   8.454   5.282   2.629  0.4727 -0.6806 -0.9723
 7492SOL     OW33154   2.104   7.188   2.195 -0.8335  0.1225 -0.3094
 7492SOL    HW133155   2.102   7.235   2.107 -0.6181 -0.4456 -0.6259
 7492SOL    HW233156   2.015   7.148   2.214 -0.4089 -1.2281 -1.0947
 7493SOL     OW33157   8.390   2.114   3.205  0.4199 -0.1927 -0.4255
 7493SOL    HW133158   8.445   2.165   3.139 -0.7928  0.3077 -1.0673
 7493SOL    HW233159   8.303   2.162   3.220  0.4041 -0.6484  1.0249
 7494SOL     OW33160   8.601   9.724   0.361  0.1756  0.5896 -0.2777
 7494SOL    HW133161   8.536   9.653   0.337  1.3591 -0.2922 -0.9199
 7494SOL    HW233162   8.555   9.813   0.359 -0.6602  0.1515 -2.1779
 7495SOL     OW33163   9.089   5.237   3.329 -0.1148  0.5695  0.3117
 7495SOL    HW133164   9.159   5.304   3.307  0.7558 -0.5101 -0.2405
 7495SOL    HW233165   9.130   5.158   3.373 -1.2042  0.6060  1.4233
 7496SOL     OW33166   3.929   9.528   2.600 -0.1020 -0.1550 -0.1197
 7496SOL    HW133167   3.934   9.583   2.517  0.2490 -1.2604 -0.8413
 7496SOL    HW233168   3.870   9.573   2.667 -1.4035  0.1198 -1.4436
 7497SOL     OW33169   9.126   2.636   1.019 -0.2532 -0.1293 -0.6856
 7497SOL    HW133170   9.190   2.708   0.991  0.9736 -1.3824 -1.1691
 7497SOL    HW233171   9.037   2.677   1.038  0.1733  1.4032 -1.8250
 7498SOL     OW33172   3.879   0.392   1.958 -0.0425 -0.0636  1.0815
 7498SOL    HW133173   3.822   0.325   2.006 -1.2382  1.2304  1.5243
 7498SOL    HW233174   3.830   0.425   1.877  0.4330  0.4292  0.9928
 7499SOL     OW33175   2.975   4.989   1.788 -0.1145 -0.2937  0.1405
 7499SOL    HW133176   2.960   4.910   1.846  1.2286 -1.5572 -1.1839
 7499SOL    HW233177   2.969   4.962   1.692  0.1896  1.2383 -0.3322
 7500SOL     OW33178   9.225   5.914   0.348  0.2383  0.0902  0.3394
 7500SOL    HW133179   9.207   5.849   0.422 -4.7124  1.7746  0.7691
 7500SOL    HW233180   9.254   6.002   0.386 -0.4658  0.3944  0.1741
 7501SOL     OW33181   0.621   0.116   2.354  0.1494 -0.6708 -0.0788
 7501SOL    HW133182   0.656   0.027   2.325 -2.2325 -1.7284  0.0806
 7501SOL    HW233183   0.613   0.177   2.276 -0.0293 -1.2632 -0.5227
 7502SOL     OW33184   1.114   4.820   2.582 -0.0515  0.0099 -0.0745
 7502SOL    HW133185   1.137   4.771   2.497  0.3111  0.6571 -0.3511
 7502SOL    HW233186   1.198   4.852   2.626 -0.3810  1.9240 -0.8123
 7503SOL     OW33187   2.319   2.710   1.375 -0.2190  0.0948  0.5645
 7503SOL    HW133188   2.315   2.806   1.404 -1.8317 -0.2292  1.4447
 7503SOL    HW233189   2.408   2.692   1.333 -0.3353  2.2762 -0.6611
 7504SOL     OW33190   2.330   4.223   4.174 -0.1518 -0.1492 -0.5937
 7504SOL    HW133191   2.382   4.307   4.191  0.5666 -0.2765 -2.1145
 7504SOL    HW233192   2.312   4.214   4.076 -1.8920 -0.7964 -0.2328
 7505SOL     OW33193   9.507   1.781   4.574  0.4037  0.4500  0.2935
 7505SOL    HW133194   9.487   1.778   4.672 -0.8244 -1.0030  0.0163
 7505SOL    HW233195   9.478   1.696   4.532 -0.5833  1.6978 -1.6094
 7506SOL     OW33196   8.375   9.743   4.570  0.1141 -0.0070 -0.2913
 7506SOL    HW133197   8.381   9.835   4.609  0.7565 -0.3466  0.4230
 7506SOL    HW233198   8.399   9.676   4.640  0.2728 -0.6792 -0.9915
 7507SOL     OW33199   3.852   2.912   2.993  0.1496  0.4729 -0.0609
 7507SOL    HW133200   3.873   2.952   2.904 -1.9846  1.0543 -0.3225
 7507SOL    HW233201   3.775   2.960   3.035 -0.9468 -1.8342  0.6816
 7508SOL     OW33202   2.708   3.599   0.084 -0.0964  0.0273  0.3570
 7508SOL    HW133203   2.693   3.697   0.070  1.6214  0.3215  0.3939
 7508SOL    HW233204   2.625   3.548   0.060 -0.0924  1.2354 -2.4527
 7509SOL     OW33205   0.876   1.446   3.339  0.2934 -0.4102  0.0960
 7509SOL    HW133206   0.887   1.501   3.256 -0.3605  0.6029  0.6690
 7509SOL    HW233207   0.965   1.430   3.381  0.3409  1.7134  0.8708
 7510SOL     OW33208   6.391   9.486   2.965  0.1585 -0.2171 -0.4534
 7510SOL    HW133209   6.455   9.409   2.965  0.9247  0.4117 -0.6466
 7510SOL    HW233210   6.352   9.496   2.873 -1.8382 -1.9225  0.1983
 7511SOL     OW33211   3.214   8.631   2.638 -0.1938  0.5320 -0.2620
 7511SOL    HW133212   3.174   8.640   2.547 -0.0872  0.3418 -0.3277
 7511SOL    HW233213   3.250   8.538   2.650  2.1679  1.3415 -0.9916
 7512SOL     OW33214   0.499   6.065   0.959  0.1265  0.3402 -0.1007
 7512SOL    HW133215   0.489   6.124   0.879 -0.9879  2.2068  1.3729
 7512SOL    HW233216   0.595   6.040   0.970  0.4321  0.8845 -1.4364
 7513SOL     OW33217   8.341   4.262   4.669 -0.1740 -0.3220  0.0978
 7513SOL    HW133218   8.404   4.266   4.747 -0.2922 -0.7908  0.2175
 7513SOL    HW233219   8.264   4.324   4.684 -0.0753 -0.2354  0.2442
 7514SOL     OW33220   5.464   8.525   2.061 -0.0253 -0.2216 -0.1552
 7514SOL    HW133221   5.442   8.439   2.108 -0.6686  0.2989  0.5034
 7514SOL    HW233222   5.379   8.570   2.032  0.3089  0.1863 -0.4987
 7515SOL     OW33223   6.822   9.682   0.655 -0.2636  0.2993  0.1935
 7515SOL    HW133224   6.898   9.647   0.600 -0.7146 -0.3089 -0.0440
 7515SOL    HW233225   6.826   9.641   0.746  0.1251  0.8360  0.4199
 7516SOL     OW33226   1.439   7.780   1.011 -0.0992  0.1672 -0.2424
 7516SOL    HW133227   1.473   7.729   1.090 -0.1490  0.4930 -0.0126
 7516SOL    HW233228   1.342   7.761   0.998 -0.3111  0.8639  0.3463
 7517SOL     OW33229   2.632   5.701   4.344  0.4154  0.5749  0.3435
 7517SOL    HW133230   2.621   5.737   4.251 -1.1127  0.6951  0.5562
 7517SOL    HW233231   2.542   5.684   4.384  1.0516  0.8426  1.9288
 7518SOL     OW33232   9.902   2.724   2.616 -0.0227 -0.3025 -0.0635
 7518SOL    HW133233   9.956   2.713   2.700  0.8536  1.9105 -0.3094
 7518SOL    HW233234   9.933   2.657   2.548  0.4578 -0.9493  0.7752
 7519SOL     OW33235   5.277   3.901   0.103 -0.2817  0.5354 -0.4596
 7519SOL    HW133236   5.223   3.822   0.132  1.5083 -0.3226  0.6094
 7519SOL    HW233237   5.224   3.985   0.118 -0.8466 -0.1854  1.8188
 7520SOL     OW33238   2.662   5.023   3.000  0.3297 -0.5664  0.2219
 7520SOL    HW133239   2.581   5.046   2.947  1.2999 -0.0121 -1.0476
 7520SOL    HW233240   2.640   5.026   3.098 -0.9341  0.5181 -0.0791
 7521SOL     OW33241   3.108   3.924   2.185 -0.7754  0.2457 -0.0798
 7521SOL    HW133242   3.111   3.997   2.253  1.3741 -1.2989  1.5621
 7521SOL    HW233243   3.165   3.949   2.106  0.0455  0.3284  0.5285
 7522SOL     OW33244   7.530   0.130   2.585  0.2317 -0.2649  0.0530
 7522SOL    HW133245   7.506   0.188   2.663 -0.1655 -1.6679  0.9925
 7522SOL    HW233246   7.461   0.058   2.575  0.8775 -0.7583 -0.9025
 7523SOL     OW33247   1.814   6.283   0.393 -0.4767 -0.0262  0.4010
 7523SOL    HW133248   1.878   6.329   0.453 -0.8909  1.5880 -0.3683
 7523SOL    HW233249   1.762   6.215   0.445 -1.4923  1.9999  2.0747
 7524SOL     OW33250   1.598   0.715   1.318 -0.0746 -0.3977 -0.0628
 7524SOL    HW133251   1.679   0.667   1.284  2.1908  2.4621  1.0753
 7524SOL    HW233252   1.578   0.793   1.258 -2.2563 -1.2973 -0.5469
 7525SOL     OW33253   3.664   9.943   1.727  0.0242 -0.0934  0.0638
 7525SOL    HW133254   3.585  10.001   1.747 -0.4521 -0.2639 -1.3144
 7525SOL    HW233255   3.637   9.847   1.730  0.4312 -0.1917  0.6780
 7526SOL     OW33256   0.084   6.712   3.843 -0.3341  0.2423  0.0042
 7526SOL    HW133257   0.152   6.706   3.771  0.0806 -2.3456  0.5697
 7526SOL    HW233258   0.103   6.792   3.901  1.1413  0.5582 -0.9083
 7527SOL     OW33259   1.028   4.620   3.835  0.2637  0.4440 -0.1878
 7527SOL    HW133260   1.053   4.526   3.858 -0.7578 -0.1345 -1.3267
 7527SOL    HW233261   1.055   4.639   3.741  1.7077  1.7637  0.4810
 7528SOL     OW33262   0.126   8.292   3.307  0.3503 -0.0252 -0.0793
 7528SOL    HW133263   0.070   8.253   3.235  0.8413 -1.0637  0.0897
 7528SOL    HW233264   0.077   8.287   3.394 -0.9689  2.8270 -0.5979
 7529SOL     OW33265   4.208   7.437   1.261  0.8161  0.1621  0.1238
 7529SOL    HW133266   4.292   7.419   1.313 -0.3869 -1.3641  1.6001
 7529SOL    HW233267   4.179   7.531   1.278  2.7588  1.0342 -1.2050
 7530SOL     OW33268   0.833   1.129   1.386  0.5683  0.1040  0.1238
 7530SOL    HW133269   0.884   1.045   1.368  1.1523  0.3781  0.5012
 7530SOL    HW233270   0.742   1.106   1.422  0.5350 -0.3745 -0.2614
 7531SOL     OW33271   1.959   8.921   3.718  0.3092  0.4422  0.1700
 7531SOL    HW133272   2.006   8.854   3.776  1.1359  0.2407 -0.7295
 7531SOL    HW233273   1.866   8.934   3.752  0.4651 -0.4096  0.9539
 7532SOL     OW33274   9.242   1.939   4.626  0.0341  0.0692  0.7437
 7532SOL    HW133275   9.166   1.977   4.573 -0.2598  1.0602  1.8661
 7532SOL    HW233276   9.300   1.883   4.566 -0.2366  1.2539 -0.6356
 7533SOL     OW33277   1.170   0.100   3.790  0.2766  0.4113  0.2835
 7533SOL    HW133278   1.158   0.096   3.691 -0.2715 -0.7894  0.3858
 7533SOL    HW233279   1.082   0.119   3.834 -0.0997 -2.0358  0.6843
 7534SOL     OW33280   8.781   7.985   3.307  0.4720  0.0209 -0.3717
 7534SOL    HW133281   8.758   7.931   3.226 -2.0877 -0.2514  0.5130
 7534SOL    HW233282   8.844   7.934   3.365  0.7392 -0.5967 -1.2025
 7535SOL     OW33283   3.335   1.156   2.385  0.3661  0.1646 -0.5683
 7535SOL    HW133284   3.420   1.179   2.338  0.8805 -1.4529 -0.4793
 7535SOL    HW233285   3.349   1.073   2.441  0.1653  2.7089  3.4950
 7536SOL     OW33286   7.848   3.635   0.909  0.6089 -0.2542  0.0154
 7536SOL    HW133287   7.818   3.666   0.819  0.7516  1.1226  0.4335
 7536SOL    HW233288   7.773   3.591   0.957 -0.0841  1.0025  0.0964
 7537SOL     OW33289   1.833   8.147   3.093 -0.6078  0.4166 -0.7128
 7537SOL    HW133290   1.888   8.130   3.012  0.7941 -1.6271  0.6239
 7537SOL    HW233291   1.886   8.126   3.175 -2.5972  0.6689  0.6870
 7538SOL     OW33292   1.189   8.299   3.596 -0.9115 -0.1019  0.9764
 7538SOL    HW133293   1.131   8.221   3.620 -0.5671 -0.3742  0.9350
 7538SOL    HW233294   1.281   8.266   3.575 -0.5833  0.3925  1.6331
 7539SOL     OW33295   3.308   4.131   2.018 -0.3206 -0.1342 -0.2585
 7539SOL    HW133296   3.368   4.092   2.088  0.1499 -0.9726 -1.1023
 7539SOL    HW233297   3.298   4.229   2.033  0.6093 -0.1275  0.3753
 7540SOL     OW33298   0.833   4.173   1.299 -0.4109 -0.2056 -0.6455
 7540SOL    HW133299   0.925   4.172   1.261 -0.6496  1.9859 -1.3410
 7540SOL    HW233300   0.836   4.140   1.394  1.2509  0.8592 -0.3062
 7541SOL     OW33301   6.729   9.784   4.031  0.1503 -0.1408  0.1022
 7541SOL    HW133302   6.756   9.878   4.052 -1.3781 -0.2864  2.9799
 7541SOL    HW233303   6.810   9.727   4.019  1.0876  1.2513 -0.2558
 7542SOL     OW33304   2.058   3.685   1.316 -0.1558  0.2329 -0.4374
 7542SOL    HW133305   2.150   3.724   1.314  0.4712 -1.2346 -0.5057
 7542SOL    HW233306   2.061   3.593   1.355 -1.4165 -0.2994 -1.5276
 7543SOL     OW33307   1.164   1.546   2.753 -0.5326  0.3825 -0.2362
 7543SOL    HW133308   1.114   1.460   2.738  0.3198  0.1972 -2.1463
 7543SOL    HW233309   1.123   1.595   2.830 -1.2100 -1.5989  0.6933
 7544SOL     OW33310   4.145   0.136   2.335  1.0999  0.0413  0.1822
 7544SOL    HW133311   4.146   0.236   2.333  1.8423  0.0270 -0.7140
 7544SOL    HW233312   4.164   0.101   2.243 -0.9988 -0.9321  0.0910
 7545SOL     OW33313   0.463   4.276   4.432 -0.3221  0.3459 -0.0033
 7545SOL    HW133314   0.398   4.281   4.509 -0.8851 -0.5452 -0.4092
 7545SOL    HW233315   0.525   4.199   4.446 -0.9912 -0.3600 -0.8686
 7546SOL     OW33316   1.147   8.108   2.837 -0.6502 -0.1422  0.0212
 7546SOL    HW133317   1.165   8.204   2.818 -1.5531 -0.0779 -0.4952
 7546SOL    HW233318   1.135   8.095   2.935  0.7115  0.0608  0.2276
 7547SOL     OW33319   4.895   7.928   3.019 -0.1325  0.0458 -0.2255
 7547SOL    HW133320   4.990   7.927   3.049  0.0920  1.0977 -0.8673
 7547SOL    HW233321   4.842   7.985   3.082 -0.4648 -1.0656  0.5009
 7548SOL     OW33322   2.073   6.874   4.719 -0.1986  0.4556 -0.1546
 7548SOL    HW133323   2.103   6.962   4.755  1.5355 -0.2438  0.1391
 7548SOL    HW233324   1.994   6.842   4.772  0.4210  0.8798  1.0524
 7549SOL     OW33325   7.386   8.914   2.421 -0.0743 -0.0069 -0.3627
 7549SOL    HW133326   7.411   8.822   2.389 -1.9647 -0.8697  0.5434
 7549SOL    HW233327   7.398   8.979   2.346  1.4384 -0.9481 -0.9800
 7550SOL     OW33328   5.751   7.167   3.323 -0.1380 -0.1586  0.6603
 7550SOL    HW133329   5.750   7.245   3.260  0.0662 -0.2456  0.5481
 7550SOL    HW233330   5.812   7.187   3.399 -0.2425 -0.1285  0.7368
 7551SOL     OW33331   8.445   0.082   1.832 -0.0990  0.0106 -0.2866
 7551SOL    HW133332   8.544   0.087   1.829 -0.0231 -1.6316 -0.6402
 7551SOL    HW233333   8.406   0.155   1.775  0.8820  1.0621  0.3692
 7552SOL     OW33334   2.098   8.222   4.284 -0.1930 -0.3677 -0.2663
 7552SOL    HW133335   2.162   8.178   4.220  0.1919 -0.7528  0.3770
 7552SOL    HW233336   2.083   8.317   4.255  2.5002  0.4684  0.8637
 7553SOL     OW33337   2.875   8.331   2.667 -0.2390 -0.1282 -0.1020
 7553SOL    HW133338   2.852   8.292   2.757 -0.0204  1.0442  0.4770
 7553SOL    HW233339   2.810   8.403   2.645  1.5724  1.7563  0.5692
 7554SOL     OW33340   1.452   8.916   1.295  0.0242  0.7573 -0.2559
 7554SOL    HW133341   1.388   8.928   1.218 -2.1374  1.1380  1.5412
 7554SOL    HW233342   1.405   8.937   1.381  2.5495  0.8469  1.1538
 7555SOL     OW33343   1.649   5.991   4.317  0.2642 -0.7046  0.2791
 7555SOL    HW133344   1.555   5.957   4.311  0.9043 -2.4360 -0.4205
 7555SOL    HW233345   1.695   5.946   4.394 -0.1260  1.8306  2.0600
 7556SOL     OW33346   2.825   2.264   3.399  0.6934  0.1255 -0.8453
 7556SOL    HW133347   2.803   2.262   3.301  1.5177 -0.3696 -1.0293
 7556SOL    HW233348   2.924   2.268   3.411  0.6521 -0.9143 -0.0345
 7557SOL     OW33349   0.345   7.150   1.347 -0.7787  0.1467  0.1067
 7557SOL    HW133350   0.409   7.078   1.374 -1.5838  0.1306  1.9790
 7557SOL    HW233351   0.286   7.116   1.274  0.0549 -0.4764 -0.2884
 7558SOL     OW33352   1.484   2.255   4.457  0.3598  0.1841  0.0665
 7558SOL    HW133353   1.511   2.215   4.544  0.4395  0.9701  0.3985
 7558SOL    HW233354   1.459   2.181   4.394  0.1404 -0.3766  0.7999
 7559SOL     OW33355   2.383   8.366   2.505 -0.6874 -0.2206 -0.2057
 7559SOL    HW133356   2.313   8.307   2.544 -1.2234  0.3544 -0.3053
 7559SOL    HW233357   2.371   8.371   2.406 -0.3933 -0.2607 -0.2458
 7560SOL     OW33358   0.885   4.439   0.916 -0.2869 -0.2712 -0.4384
 7560SOL    HW133359   0.961   4.377   0.897 -1.6012 -1.6322 -1.3384
 7560SOL    HW233360   0.857   4.485   0.832  0.3052  1.1524  0.1185
 7561SOL     OW33361   1.684   3.807   2.770  0.1838 -0.7158 -0.1784
 7561SOL    HW133362   1.607   3.869   2.785  0.3695 -0.5267 -0.0164
 7561SOL    HW233363   1.656   3.713   2.791  0.0413 -0.6277  0.0264
 7562SOL     OW33364   4.163   3.293   0.812 -0.4912  0.4897  0.4426
 7562SOL    HW133365   4.219   3.216   0.843 -2.1276 -0.1192  1.9667
 7562SOL    HW233366   4.203   3.379   0.845  0.0642  0.1322  0.7041
 7563SOL     OW33367   8.072   7.760   1.139 -0.6541  0.2179  0.6364
 7563SOL    HW133368   8.141   7.833   1.142 -0.1188 -0.3036  1.2649
 7563SOL    HW233369   7.981   7.801   1.130 -0.5704  1.0979  3.4066
 7564SOL     OW33370   3.487   4.928   4.171 -0.3887  0.0687  0.4421
 7564SOL    HW133371   3.395   4.957   4.144  0.6146  1.0878 -2.0447
 7564SOL    HW233372   3.513   4.847   4.118  0.5664  0.4727  0.2708
 7565SOL     OW33373   6.517   9.913   1.415 -0.0356  0.1435 -0.0160
 7565SOL    HW133374   6.451   9.988   1.410  0.3163  0.4829  0.4765
 7565SOL    HW233375   6.609   9.949   1.407  0.0952 -0.3435 -0.8170
 7566SOL     OW33376   4.498   1.671   1.095 -0.1343 -0.1534  0.1468
 7566SOL    HW133377   4.405   1.703   1.112 -0.2566 -1.1119  1.3215
 7566SOL    HW233378   4.497   1.574   1.071  0.6229 -0.3536  0.8949
 7567SOL     OW33379   9.111   8.873   1.837  0.2015  0.0394 -0.5455
 7567SOL    HW133380   9.120   8.972   1.825 -0.0512  0.0593 -0.5760
 7567SOL    HW233381   9.060   8.834   1.760  1.2613 -0.2743 -1.1120
 7568SOL     OW33382   7.418   8.880   3.110 -0.2075 -0.2287 -0.7049
 7568SOL    HW133383   7.455   8.860   3.201 -0.2271  0.8579 -0.4527
 7568SOL    HW233384   7.361   8.804   3.080 -2.4057  0.5358  1.3594
 7569SOL     OW33385   3.066   4.135   1.571 -0.0070 -0.1144 -0.6853
 7569SOL    HW133386   3.062   4.182   1.659  2.8976  0.9763 -1.0960
 7569SOL    HW233387   3.050   4.037   1.584  1.7697 -0.1608  1.2541
 7570SOL     OW33388   2.282   0.791   2.909 -0.9552 -0.7199  0.3004
 7570SOL    HW133389   2.336   0.842   2.842 -1.6784 -0.0260  0.2444
 7570SOL    HW233390   2.343   0.730   2.961 -0.4065 -1.3439 -1.0437
 7571SOL     OW33391   1.355   4.985   1.604  0.1407 -0.5442  0.0996
 7571SOL    HW133392   1.316   5.036   1.681  0.4068  0.6086 -0.5149
 7571SOL    HW233393   1.433   5.036   1.566  0.1749 -1.2260 -0.7689
 7572SOL     OW33394   3.408   4.196   4.340 -0.2760  0.2245  0.4368
 7572SOL    HW133395   3.466   4.209   4.420 -0.3420  1.1144  0.3435
 7572SOL    HW233396   3.459   4.220   4.257 -0.2691 -0.5113  0.2241
 7573SOL     OW33397   3.898   8.249   3.757 -0.1949 -0.1850  0.1552
 7573SOL    HW133398   3.891   8.251   3.657  0.0409 -2.4241  0.0826
 7573SOL    HW233399   3.855   8.167   3.792 -0.6697  0.8102  1.9572
 7574SOL     OW33400   6.864   8.702   3.465 -0.1762 -0.1172  0.0286
 7574SOL    HW133401   6.783   8.651   3.493 -1.2739  1.6591  0.1078
 7574SOL    HW233402   6.898   8.665   3.379 -1.9503  0.0708 -0.7729
 7575SOL     OW33403   3.891   0.998   2.266 -0.0287 -0.1643 -0.3263
 7575SOL    HW133404   3.894   1.076   2.204 -1.2081  0.5556  0.5009
 7575SOL    HW233405   3.870   1.029   2.358 -0.0775 -1.4151  0.1004
 7576SOL     OW33406   3.693   7.254   4.297  0.0557 -0.9531 -0.0695
 7576SOL    HW133407   3.627   7.194   4.342 -0.3526 -0.3287  0.1857
 7576SOL    HW233408   3.718   7.328   4.360  1.0158 -1.1912 -0.1620
 7577SOL     OW33409   2.586   8.520   3.903 -0.2335 -0.1608 -0.2480
 7577SOL    HW133410   2.497   8.476   3.886 -0.0363 -1.3233  1.5451
 7577SOL    HW233411   2.646   8.506   3.824 -0.9385 -1.1893 -0.6130
 7578SOL     OW33412   0.390   5.256   2.297 -0.3902 -0.1299 -0.0773
 7578SOL    HW133413   0.402   5.229   2.393 -2.4110  0.0861  0.2584
 7578SOL    HW233414   0.422   5.350   2.285  0.5918 -0.4190  0.1961
 7579SOL     OW33415   2.896   9.609   3.163  0.2099 -0.2616  0.1886
 7579SOL    HW133416   2.987   9.569   3.158  0.5842  0.5975  0.1199
 7579SOL    HW233417   2.857   9.593   3.254  0.8327  0.2513  0.5463
 7580SOL     OW33418   9.614   0.871   1.796  0.4693 -0.1143 -0.1645
 7580SOL    HW133419   9.676   0.864   1.874 -1.0339  1.4460  1.2262
 7580SOL    HW233420   9.655   0.930   1.726  0.4814  1.1283  0.8616
 7581SOL     OW33421   4.860   2.079   1.707 -0.3733 -0.6349  0.4849
 7581SOL    HW133422   4.922   2.148   1.745  0.2375 -0.1033 -1.4097
 7581SOL    HW233423   4.767   2.099   1.737  0.2417 -1.0811  2.8493
 7582SOL     OW33424   4.490   0.275   1.806 -0.3771  0.2114  0.1772
 7582SOL    HW133425   4.473   0.298   1.902 -0.8315  0.8383 -0.0496
 7582SOL    HW233426   4.462   0.181   1.789  1.2105 -0.4371  1.0470
 7583SOL     OW33427   6.146   7.724   1.999  0.3012 -0.6132 -0.0231
 7583SOL    HW133428   6.065   7.765   1.957  1.1696  1.1728  0.0278
 7583SOL    HW233429   6.121   7.684   2.087 -0.1018  1.9402  1.0616
 7584SOL     OW33430   0.519   4.786   3.815 -0.0818  0.1717  0.4410
 7584SOL    HW133431   0.449   4.719   3.836 -0.8951  0.8273 -0.1507
 7584SOL    HW233432   0.608   4.751   3.843 -0.4360 -1.3180 -0.2230
 7585SOL     OW33433   0.495   1.938   1.607  0.1344  0.3768  0.0752
 7585SOL    HW133434   0.449   1.852   1.626  0.3205  0.6412  1.7375
 7585SOL    HW233435   0.435   1.998   1.554 -0.2766 -0.4725 -0.4111
 7586SOL     OW33436   0.829   7.600   3.907 -0.0604  0.5836 -0.1033
 7586SOL    HW133437   0.825   7.516   3.960 -0.1334  0.8629  0.3322
 7586SOL    HW233438   0.794   7.677   3.961 -0.6129  0.7826 -0.7282
 7587SOL     OW33439   9.172   6.467   0.819  0.0275 -0.5488 -0.2434
 7587SOL    HW133440   9.093   6.523   0.845 -0.7453 -1.8134  0.1966
 7587SOL    HW233441   9.224   6.442   0.901  1.5347  1.1852 -0.6302
 7588SOL     OW33442   2.963   1.525   1.290  0.2922 -0.3049  0.3989
 7588SOL    HW133443   2.964   1.618   1.326  0.4648 -0.5642  1.0724
 7588SOL    HW233444   3.057   1.496   1.269  0.0031  0.6400 -2.3495
 7589SOL     OW33445   4.809   8.646   3.133 -0.4142 -0.1406  0.2067
 7589SOL    HW133446   4.789   8.637   3.036  1.1935  0.0588 -0.1600
 7589SOL    HW233447   4.819   8.743   3.156  1.2987 -0.2643  0.0986
 7590SOL     OW33448   7.607   6.437   2.830 -0.3076 -0.2332 -0.9994
 7590SOL    HW133449   7.533   6.482   2.780 -0.0277 -0.2463 -1.4234
 7590SOL    HW233450   7.569   6.395   2.913 -0.7397 -0.0668 -1.1078
 7591SOL     OW33451   1.672   6.841   3.271 -0.1117  0.1128  0.3981
 7591SOL    HW133452   1.763   6.882   3.270  0.6641 -1.5624 -0.4908
 7591SOL    HW233453   1.679   6.744   3.250 -1.9056 -0.4806  2.3335
 7592SOL     OW33454   3.298   3.158   2.932 -0.1289  0.0970 -0.2234
 7592SOL    HW133455   3.261   3.087   2.872 -0.7448 -2.0646  2.5978
 7592SOL    HW233456   3.243   3.242   2.923 -1.9379 -1.1006 -0.6155
 7593SOL     OW33457   2.123   4.857   0.799 -0.9331  0.0100  0.0865
 7593SOL    HW133458   2.135   4.798   0.878 -3.1937 -0.5722  0.0362
 7593SOL    HW233459   2.034   4.904   0.805 -1.7241 -1.0238 -2.6997
 7594SOL     OW33460   5.432   8.314   3.778 -0.6681 -0.5592  0.2109
 7594SOL    HW133461   5.407   8.399   3.733 -1.4730 -1.1643 -0.4812
 7594SOL    HW233462   5.363   8.291   3.847 -0.2917 -0.5028  0.6154
 7595SOL     OW33463   2.284   0.547   0.925 -0.3131 -0.1165  0.0487
 7595SOL    HW133464   2.250   0.620   0.866 -1.0207 -0.7631 -0.3535
 7595SOL    HW233465   2.326   0.587   1.007  0.3335  0.7647 -0.7082
 7596SOL     OW33466   1.150   2.738   4.033  0.3409  0.2624 -0.0094
 7596SOL    HW133467   1.173   2.655   4.084  1.7642  0.8128  0.2306
 7596SOL    HW233468   1.097   2.712   3.952  0.3594 -0.8418  0.3215
 7597SOL     OW33469   2.898   1.416   4.182  0.0470  0.5352  0.0695
 7597SOL    HW133470   2.841   1.405   4.100  0.1837  0.0164  0.0463
 7597SOL    HW233471   2.875   1.503   4.226 -0.6571  0.4042 -0.0253
 7598SOL     OW33472   8.576   4.259   0.839 -0.2164  0.1114 -0.3649
 7598SOL    HW133473   8.592   4.199   0.760 -0.6918 -0.7718  0.2094
 7598SOL    HW233474   8.480   4.284   0.843 -0.6003 -1.5400  1.1281
 7599SOL     OW33475   9.943   9.052   3.937  0.5047 -0.5099 -0.0177
 7599SOL    HW133476  10.014   8.999   3.890  0.0133 -1.4212  0.2504
 7599SOL    HW233477   9.963   9.054   4.035  0.8820  0.3782 -0.1037
 7600SOL     OW33478   9.930   9.578   0.942  0.4060  0.3494 -0.2987
 7600SOL    HW133479   9.943   9.528   0.856  0.9392  0.7559 -0.4538
 7600SOL    HW233480   9.936   9.515   1.019  0.4073  0.0616 -0.5355
 7601SOL     OW33481   8.346   8.182   0.567  0.4643  0.2751  0.0014
 7601SOL    HW133482   8.267   8.244   0.573  0.0312 -0.3519  0.9764
 7601SOL    HW233483   8.397   8.202   0.484 -1.7852 -0.5702 -1.6413
 7602SOL     OW33484   3.329   6.046   1.559  0.6516 -0.5693  0.7670
 7602SOL    HW133485   3.286   5.994   1.485  1.5607  0.0686 -0.2283
 7602SOL    HW233486   3.427   6.053   1.542  1.0497 -1.3657  2.6258
 7603SOL     OW33487   8.767   4.693   0.244  0.2326  0.2616  0.0461
 7603SOL    HW133488   8.789   4.597   0.227  0.0454 -0.1887  2.1273
 7603SOL    HW233489   8.832   4.751   0.196  0.5997 -0.9167 -0.9054
 7604SOL     OW33490   1.169   1.589   0.684 -0.0438  0.3277 -0.8209
 7604SOL    HW133491   1.096   1.575   0.751  0.3658  0.4080 -0.3579
 7604SOL    HW233492   1.204   1.682   0.692  1.6347 -0.3875  0.4924
 7605SOL     OW33493   6.292   8.569   2.594 -0.1856 -0.7600  0.0732
 7605SOL    HW133494   6.372   8.624   2.618 -0.9772  0.1399  0.6816
 7605SOL    HW233495   6.209   8.611   2.632 -0.9412 -1.7394 -0.4472
 7606SOL     OW33496   1.397   4.224   0.565 -0.2276 -0.1710 -0.3723
 7606SOL    HW133497   1.413   4.187   0.657 -1.7211  0.5250  0.1956
 7606SOL    HW233498   1.437   4.163   0.497 -1.2236 -2.0075  0.6333
 7607SOL     OW33499   2.667   0.006   4.083  0.0036 -0.6787  0.6092
 7607SOL    HW133500   2.754   0.051   4.062  0.2656 -1.7052 -0.6159
 7607SOL    HW233501   2.653  -0.070   4.019 -1.4128 -1.0283  1.3132
 7608SOL     OW33502   9.935   7.229   3.176 -0.1984  0.3279  0.2453
 7608SOL    HW133503   9.908   7.325   3.177  1.5633  0.8163  1.4882
 7608SOL    HW233504   9.915   7.187   3.265  1.5093  0.2383  0.5919
 7609SOL     OW33505   2.333   3.308   4.364 -0.5705 -0.3834  0.5444
 7609SOL    HW133506   2.358   3.216   4.393 -0.7809 -1.0438 -1.3008
 7609SOL    HW233507   2.296   3.305   4.271 -0.3339  1.6006  0.3585
 7610SOL     OW33508   0.873   0.318   4.780 -0.5268  0.1736  0.5623
 7610SOL    HW133509   0.937   0.321   4.703  1.5440  0.3831  2.2443
 7610SOL    HW233510   0.841   0.410   4.800 -1.2524  0.0888 -0.1843
 7611SOL     OW33511   9.993   8.018   0.978 -0.0536 -0.0095 -0.4397
 7611SOL    HW133512   9.985   7.934   1.032  1.6717 -0.1387 -0.3571
 7611SOL    HW233513  10.025   7.995   0.886 -0.6974  0.4549 -0.7848
 7612SOL     OW33514   0.838   7.337   2.885  0.5167 -0.9642 -0.1820
 7612SOL    HW133515   0.927   7.383   2.881 -0.0952  0.7486  3.7013
 7612SOL    HW233516   0.765   7.403   2.872 -0.3084 -1.1477  3.0795
 7613SOL     OW33517   4.030   2.860   1.051  0.3571 -0.3646  0.9545
 7613SOL    HW133518   4.017   2.952   1.012 -1.2617 -1.2865 -0.7642
 7613SOL    HW233519   4.126   2.834   1.045  0.3035 -0.0782 -1.5703
 7614SOL     OW33520   0.975   8.160   0.066 -0.6070  0.4352  0.4716
 7614SOL    HW133521   0.913   8.081   0.072 -0.9581  0.7926  1.6481
 7614SOL    HW233522   0.949   8.216  -0.012 -0.7946 -0.2432  0.0361
 7615SOL     OW33523   0.950   5.103   4.745 -0.4732  0.2856 -0.9565
 7615SOL    HW133524   0.934   5.032   4.676 -2.8265 -0.4888  0.3519
 7615SOL    HW233525   0.940   5.193   4.703  0.4684 -0.1470 -2.1456
 7616SOL     OW33526   8.387   7.933   4.478  0.1429 -0.3290  1.2766
 7616SOL    HW133527   8.303   7.942   4.425  0.6590  0.7335  0.6275
 7616SOL    HW233528   8.385   7.998   4.554  0.6889  0.2065  0.8377
 7617SOL     OW33529   0.202   0.856   3.881 -0.0273  0.3071  0.3602
 7617SOL    HW133530   0.194   0.765   3.920  0.5680  0.4929  0.9262
 7617SOL    HW233531   0.248   0.849   3.792 -0.1851  0.0319  0.2982
 7618SOL     OW33532   1.935   6.695   2.560 -0.2073 -0.0815 -0.0848
 7618SOL    HW133533   1.949   6.642   2.477  1.0054  1.1988 -0.7088
 7618SOL    HW233534   2.021   6.698   2.612 -0.8499 -0.5314  1.0195
 7619SOL     OW33535   9.009   6.203   1.424  0.3731  0.5221  0.1131
 7619SOL    HW133536   9.081   6.225   1.489  0.1505  3.7504 -0.6655
 7619SOL    HW233537   9.042   6.220   1.331 -0.4264 -0.8399 -0.4310
 7620SOL     OW33538   8.972   3.197   0.770 -0.3846 -0.4206  0.7253
 7620SOL    HW133539   8.960   3.101   0.744 -0.5770 -0.6183  1.5382
 7620SOL    HW233540   8.964   3.206   0.869  1.0582  0.2229  0.8030
 7621SOL     OW33541   9.862   1.284   4.381  0.7091  0.2994 -0.4378
 7621SOL    HW133542   9.931   1.318   4.317  1.4395  0.4252  0.4142
 7621SOL    HW233543   9.802   1.220   4.333  2.7855 -1.5551 -0.6216
 7622SOL     OW33544   8.337   3.610   1.315  0.4713 -0.0456  0.1929
 7622SOL    HW133545   8.305   3.704   1.306  1.1315  0.0670 -1.1628
 7622SOL    HW233546   8.267   3.548   1.278  0.9987  0.0720 -1.0151
 7623SOL     OW33547   0.361   1.176   1.820 -0.4101 -0.1627 -0.3214
 7623SOL    HW133548   0.425   1.162   1.744 -0.3112 -0.6056 -0.1622
 7623SOL    HW233549   0.405   1.231   1.890  0.0927 -1.1521  0.1497
 7624SOL     OW33550   1.796   6.774   0.039 -0.2266 -0.2831  0.3709
 7624SOL    HW133551   1.853   6.700   0.073 -0.9022 -1.0685 -0.2020
 7624SOL    HW233552   1.752   6.747  -0.047  1.9648  1.8813 -1.5356
 7625SOL     OW33553   6.013   9.833   3.679 -0.3172  0.3287  0.1966
 7625SOL    HW133554   6.083   9.787   3.734  0.1110  1.2185  0.4004
 7625SOL    HW233555   5.925   9.788   3.695  0.0798 -0.3879  0.4359
 7626SOL     OW33556   2.528   7.185   2.317  0.1169  0.6540 -0.1408
 7626SOL    HW133557   2.547   7.096   2.277 -1.5125 -0.1855  0.8779
 7626SOL    HW233558   2.528   7.255   2.245  0.8230 -0.2487 -1.0343
 7627SOL     OW33559   7.770   1.388   0.169  0.0664 -0.0340 -0.2387
 7627SOL    HW133560   7.856   1.433   0.143  0.2195  0.7711  1.6109
 7627SOL    HW233561   7.744   1.416   0.261 -1.8981 -0.7224 -0.5622
 7628SOL     OW33562   1.823   6.054   2.406  0.1532 -0.0841 -0.2934
 7628SOL    HW133563   1.748   6.103   2.361 -1.3658 -0.8056  1.3453
 7628SOL    HW233564   1.799   5.956   2.411  1.8414 -0.5424 -0.9781
 7629SOL     OW33565   3.095   7.606   4.551 -0.1741  0.5727  0.4872
 7629SOL    HW133566   3.181   7.561   4.529 -1.5042 -1.9479  0.3221
 7629SOL    HW233567   3.111   7.704   4.561  3.2757 -0.1762  3.4609
 7630SOL     OW33568   1.441   1.647   2.802 -0.3742  0.1654  0.5967
 7630SOL    HW133569   1.425   1.710   2.878 -2.3973  0.5051 -0.0778
 7630SOL    HW233570   1.353   1.618   2.764  0.5548 -1.8647 -0.0931
 7631SOL     OW33571   1.357   6.180   3.525  0.2679 -0.1391 -0.1604
 7631SOL    HW133572   1.375   6.112   3.454  1.9826  0.5471 -0.4080
 7631SOL    HW233573   1.355   6.135   3.614  3.6082 -0.2712 -0.0733
 7632SOL     OW33574   2.542   4.281   3.290  0.5796  0.1236  0.4853
 7632SOL    HW133575   2.590   4.262   3.375  0.7082 -1.0310  0.1650
 7632SOL    HW233576   2.486   4.202   3.265  0.0782  0.6846 -0.1878
 7633SOL     OW33577   9.078   0.467   0.470  0.0508  0.3649 -0.5128
 7633SOL    HW133578   9.066   0.517   0.556 -0.3844 -0.5887 -0.0151
 7633SOL    HW233579   9.057   0.528   0.393 -0.1640  1.0377  0.0715
 7634SOL     OW33580   5.172   0.766   2.173 -0.3807  0.1861 -0.2165
 7634SOL    HW133581   5.107   0.746   2.100 -1.7288  0.5288  0.8868
 7634SOL    HW233582   5.137   0.839   2.231  1.0261  0.4465  0.3447
 7635SOL     OW33583   7.675   9.276   1.888  0.3229  0.2797 -0.2509
 7635SOL    HW133584   7.578   9.257   1.872  0.2043  0.9029 -0.3003
 7635SOL    HW233585   7.702   9.242   1.978  0.3735 -1.0164 -0.7368
 7636SOL     OW33586   1.804   1.878   3.837 -0.4581 -0.3427 -0.3124
 7636SOL    HW133587   1.809   1.918   3.746 -1.0811  0.3213 -0.0563
 7636SOL    HW233588   1.839   1.784   3.834  2.4320  0.7116 -0.5983
 7637SOL     OW33589   7.436   6.268   3.027  0.6415  0.5542  0.1061
 7637SOL    HW133590   7.476   6.345   3.078  1.9465 -1.2811  1.9514
 7637SOL    HW233591   7.337   6.277   3.027  0.7095  1.5810  1.4163
 7638SOL     OW33592   9.088   9.707   1.196 -0.0981  0.2740  0.2142
 7638SOL    HW133593   9.183   9.717   1.165 -0.7476  0.4722 -1.8433
 7638SOL    HW233594   9.086   9.669   1.288  1.9832  0.5770  0.4067
 7639SOL     OW33595   6.018   9.284   3.434 -0.1385  0.0661  0.5017
 7639SOL    HW133596   5.989   9.371   3.394  0.5008  0.4261  0.8243
 7639SOL    HW233597   6.082   9.239   3.372 -2.5605 -1.4645 -0.9505
 7640SOL     OW33598   2.475   2.808   4.056 -0.0569 -0.2900 -0.2778
 7640SOL    HW133599   2.406   2.753   4.010  1.0338 -0.5822 -1.5981
 7640SOL    HW233600   2.527   2.860   3.988  0.7380  0.2502  0.7324
 7641SOL     OW33601   2.103   5.101   1.836  0.6943 -0.7608  0.7201
 7641SOL    HW133602   2.058   5.019   1.872  2.7808 -0.9275  3.0486
 7641SOL    HW233603   2.061   5.182   1.878 -1.1976 -0.5782 -1.3940
 7642SOL     OW33604   8.827   1.997   3.653  0.8888  0.2163  0.0333
 7642SOL    HW133605   8.813   2.016   3.750  0.1515  2.1929 -0.4288
 7642SOL    HW233606   8.748   2.031   3.601  0.7818 -1.7696 -1.1563
 7643SOL     OW33607   0.418   7.909   2.617 -0.3058  0.1156 -0.7762
 7643SOL    HW133608   0.480   7.846   2.570  2.3905  0.2936  2.4417
 7643SOL    HW233609   0.335   7.859   2.643  1.0175 -1.6746  0.1398
 7644SOL     OW33610   2.280   8.048   4.149  0.4221  0.7134 -0.0849
 7644SOL    HW133611   2.356   8.065   4.087  0.4628 -0.3081 -0.3346
 7644SOL    HW233612   2.307   7.979   4.216 -0.5363 -0.2649 -0.6852
 7645SOL     OW33613   5.182   0.049   3.524 -0.5865 -0.0192 -0.0931
 7645SOL    HW133614   5.206   0.058   3.621 -2.1571 -0.2999  0.3459
 7645SOL    HW233615   5.127   0.128   3.497 -0.2239  0.0112 -0.7352
 7646SOL     OW33616   0.947   6.618   2.561 -0.8343 -0.6204  0.1608
 7646SOL    HW133617   0.860   6.659   2.588 -0.6882 -0.8888  1.0658
 7646SOL    HW233618   1.016   6.639   2.630  0.6393  2.2683 -2.0616
 7647SOL     OW33619   8.539   6.109   4.508  0.2270 -0.0558 -1.0949
 7647SOL    HW133620   8.620   6.054   4.526 -0.1685 -0.2748  0.0266
 7647SOL    HW233621   8.547   6.197   4.555 -0.2743 -0.1550 -0.8236
 7648SOL     OW33622   2.761   8.516   3.703  0.3660 -0.3764  0.3261
 7648SOL    HW133623   2.822   8.583   3.662  1.7569 -1.0871  1.2102
 7648SOL    HW233624   2.798   8.424   3.690 -2.3911 -1.1930 -2.4418
 7649SOL     OW33625   3.089   2.480   4.557 -0.2616  0.3268  0.2792
 7649SOL    HW133626   3.091   2.386   4.524 -2.5066  0.6316 -0.8074
 7649SOL    HW233627   2.998   2.501   4.594 -0.0876  2.3523 -0.3623
 7650SOL     OW33628   1.856   5.671   2.615 -0.3194 -0.1692  0.0134
 7650SOL    HW133629   1.844   5.711   2.705  3.3056 -0.5870  0.7860
 7650SOL    HW233630   1.819   5.579   2.613 -2.8002  0.8017  0.2290
 7651SOL     OW33631   0.614   3.163   3.054 -0.6311  0.2226 -0.2526
 7651SOL    HW133632   0.534   3.103   3.059 -2.0689  2.1606  0.2467
 7651SOL    HW233633   0.610   3.219   2.972  0.9180 -0.5986 -0.9230
 7652SOL     OW33634   3.008   3.965   0.839  0.0932  0.3289  0.4539
 7652SOL    HW133635   2.968   3.882   0.801 -1.5443  1.2141  0.2141
 7652SOL    HW233636   3.080   3.941   0.904  1.2546 -1.2446 -1.3503
 7653SOL     OW33637   0.776   4.117   1.995  0.2185  0.2022 -0.0553
 7653SOL    HW133638   0.856   4.166   1.960  0.8987  0.4469  1.7719
 7653SOL    HW233639   0.725   4.177   2.056 -1.0777 -0.1387 -0.7914
 7654SOL     OW33640   0.594   6.170   1.704 -0.0774 -0.4261 -0.7090
 7654SOL    HW133641   0.562   6.081   1.737  0.5043 -0.9955 -1.7002
 7654SOL    HW233642   0.600   6.170   1.605 -0.6095  0.9048 -0.7581
 7655SOL     OW33643   0.973   8.894   1.806  0.2571 -0.1676  0.5300
 7655SOL    HW133644   0.960   8.839   1.889 -1.7353 -1.2749 -0.4591
 7655SOL    HW233645   0.885   8.901   1.758  1.0452  1.8125 -0.6573
 7656SOL     OW33646   9.410   0.240   1.229  0.5033 -0.5414  0.0428
 7656SOL    HW133647   9.466   0.204   1.303  0.2284 -1.1728 -0.0512
 7656SOL    HW233648   9.365   0.324   1.259  1.8691  0.2338 -0.0405
 7657SOL     OW33649   4.915   1.074   2.728 -0.0372  0.0850  0.0098
 7657SOL    HW133650   4.916   1.160   2.780  0.4936  0.0485  0.0589
 7657SOL    HW233651   4.912   0.997   2.791 -2.9573  0.0817 -0.0330
 7658SOL     OW33652   0.158   2.710   3.679 -0.4065  0.0559 -0.1365
 7658SOL    HW133653   0.205   2.792   3.713  0.4899 -0.7686  0.6410
 7658SOL    HW233654   0.177   2.633   3.740  0.2983 -1.1827 -1.8911
 7659SOL     OW33655   8.513   3.372   4.226  0.0674  0.6803  0.3472
 7659SOL    HW133656   8.595   3.428   4.235  0.4008  0.0309  1.4586
 7659SOL    HW233657   8.434   3.431   4.207  0.7328  1.3295 -0.4669
 7660SOL     OW33658   7.785   9.332   4.208 -0.5723  0.1199  1.1622
 7660SOL    HW133659   7.881   9.306   4.200 -0.4103  0.2117  2.6588
 7660SOL    HW233660   7.769   9.417   4.158 -0.3909 -1.0754 -1.0004
 7661SOL     OW33661   2.091   9.373   2.503  0.1049  0.1704  0.4786
 7661SOL    HW133662   2.071   9.465   2.470 -0.6241 -0.0724  0.2290
 7661SOL    HW233663   2.012   9.338   2.553  0.4463 -0.2487  0.7239
 7662SOL     OW33664   1.285   2.785   0.073  0.0355 -0.0960  0.0230
 7662SOL    HW133665   1.249   2.877   0.088  0.8565  0.2268  0.0592
 7662SOL    HW233666   1.334   2.755   0.155 -0.9143 -0.8875  0.3004
 7663SOL     OW33667   1.410   5.915   2.681 -0.4133 -0.4602 -0.1262
 7663SOL    HW133668   1.492   5.867   2.712 -0.3621  0.6917  1.6047
 7663SOL    HW233669   1.410   5.921   2.581  2.0948  0.3718 -0.1052
 7664SOL     OW33670   2.128   9.564   3.088 -0.7819 -0.1319  0.1464
 7664SOL    HW133671   2.106   9.466   3.084  0.0181 -0.3062 -0.1009
 7664SOL    HW233672   2.198   9.579   3.158  1.6372 -0.2329 -2.1549
 7665SOL     OW33673   2.243   7.412   0.601  0.4493 -0.0077  0.0069
 7665SOL    HW133674   2.259   7.370   0.690  0.9060  0.0153 -0.0619
 7665SOL    HW233675   2.276   7.350   0.529 -1.4261 -0.7626 -0.2323
 7666SOL     OW33676   8.832   1.685   3.392  0.0615  0.2918 -0.0557
 7666SOL    HW133677   8.861   1.757   3.329 -1.0574  1.5450  0.8335
 7666SOL    HW233678   8.867   1.704   3.484 -1.3204  0.4190  0.4576
 7667SOL     OW33679   9.499   0.609   1.733  0.5890  0.1781  0.0579
 7667SOL    HW133680   9.541   0.697   1.759  0.9363 -0.0595  0.3200
 7667SOL    HW233681   9.436   0.580   1.805 -0.4088  0.7812 -0.5716
 7668SOL     OW33682   9.681   8.542   0.759 -0.7583  0.0812 -0.4718
 7668SOL    HW133683   9.623   8.489   0.697 -1.3610 -0.2108  0.3291
 7668SOL    HW233684   9.624   8.589   0.827 -0.0693 -0.1424  0.2730
 7669SOL     OW33685   8.986   3.807   3.926 -1.1406 -0.4059  0.6481
 7669SOL    HW133686   9.011   3.839   4.017  0.2422  1.1481 -0.2655
 7669SOL    HW233687   9.058   3.746   3.891 -0.3111  1.2190 -0.5233
 7670SOL     OW33688   2.191   7.678   2.718 -0.1313  0.6113 -0.0729
 7670SOL    HW133689   2.098   7.678   2.681 -0.5933  2.8121  0.9575
 7670SOL    HW233690   2.200   7.605   2.785 -1.1769  0.4788 -0.0643
 7671SOL     OW33691   1.334   7.497   1.368  0.3845 -0.5930  0.5975
 7671SOL    HW133692   1.270   7.521   1.295  1.0331  0.2543  0.2872
 7671SOL    HW233693   1.319   7.557   1.447  1.2535  0.0988  0.2535
 7672SOL     OW33694   1.927   7.460   4.365  0.0473 -0.3868 -0.1347
 7672SOL    HW133695   1.931   7.520   4.445  0.2635 -0.5381 -0.0303
 7672SOL    HW233696   1.946   7.514   4.283 -1.2220 -0.0172 -0.1999
 7673SOL     OW33697   1.236   3.914   3.769  0.2293  0.3932  0.6204
 7673SOL    HW133698   1.303   3.896   3.841  0.4173  0.5681  0.4924
 7673SOL    HW233699   1.278   3.896   3.680 -0.6892 -1.9592  0.6473
 7674SOL     OW33700   0.636   0.229   4.682  0.1083 -0.4981  0.2329
 7674SOL    HW133701   0.623   0.143   4.731  1.3210  0.0964  1.6275
 7674SOL    HW233702   0.723   0.271   4.709 -2.1344  2.9887  2.3993
 7675SOL     OW33703   8.751   8.574   2.906  0.1444 -0.1881  0.1892
 7675SOL    HW133704   8.791   8.601   2.994  0.5080 -2.0772  0.6453
 7675SOL    HW233705   8.800   8.620   2.832  0.8277  0.2765  0.9102
 7676SOL     OW33706   1.995   1.843   3.449  0.0759  0.0912 -0.1161
 7676SOL    HW133707   1.975   1.889   3.535  2.3302 -2.1192  1.6605
 7676SOL    HW233708   2.059   1.899   3.396  1.1073  0.0496  1.0553
 7677SOL     OW33709   5.508   9.827   2.503 -0.0083 -0.1924 -0.1393
 7677SOL    HW133710   5.498   9.729   2.488  1.2493 -0.6652  1.9318
 7677SOL    HW233711   5.570   9.865   2.434 -2.1468 -0.4379 -2.2357
 7678SOL     OW33712   2.136   8.756   0.953  0.0969 -0.3992  0.0847
 7678SOL    HW133713   2.114   8.799   1.040  1.5777  0.8884 -0.1620
 7678SOL    HW233714   2.054   8.752   0.896 -0.2268  1.4045  0.4074
 7679SOL     OW33715   0.441   4.733   2.296  0.3016  0.0790 -0.0656
 7679SOL    HW133716   0.420   4.816   2.347 -0.2840  0.1529 -0.4255
 7679SOL    HW233717   0.371   4.663   2.315  0.7463 -0.3026  0.1742
 7680SOL     OW33718   1.660   9.566   3.303 -0.6464  0.0829  0.4141
 7680SOL    HW133719   1.727   9.552   3.231 -0.7388  0.8570  0.1723
 7680SOL    HW233720   1.622   9.478   3.331 -0.4222 -0.2417 -0.2987
 7681SOL     OW33721   4.010   1.106   0.247  0.6553 -0.1288 -0.7377
 7681SOL    HW133722   4.084   1.092   0.181  1.5070  0.8287 -0.0016
 7681SOL    HW233723   4.016   1.198   0.285  0.0845 -0.6237  0.5697
 7682SOL     OW33724   1.029   3.442   3.354 -0.5725 -0.1576 -0.6013
 7682SOL    HW133725   1.058   3.426   3.260 -0.1264 -0.4816 -0.4123
 7682SOL    HW233726   1.101   3.411   3.416 -0.0482  1.7849 -0.2016
 7683SOL     OW33727   8.708   1.634   4.144  0.3179  0.4358  0.4057
 7683SOL    HW133728   8.630   1.687   4.113  1.3639  0.8850 -1.5722
 7683SOL    HW233729   8.699   1.539   4.112  0.8645  0.6317 -0.3361
 7684SOL     OW33730   0.777   7.068   2.957 -0.5656  0.6926 -0.3609
 7684SOL    HW133731   0.816   7.158   2.940 -0.4274  0.5771 -0.6452
 7684SOL    HW233732   0.827   6.999   2.905 -1.4817  0.6080 -1.1421
 7685SOL     OW33733   1.505   0.467   1.840  0.7048  0.2437  0.4389
 7685SOL    HW133734   1.442   0.453   1.917 -0.5142 -0.5366 -0.6772
 7685SOL    HW233735   1.519   0.566   1.827  1.6294  0.3690  2.2035
 7686SOL     OW33736   9.351   1.986   0.563 -0.2241 -0.0091  0.0058
 7686SOL    HW133737   9.312   1.901   0.529 -1.8925  0.3537  0.9570
 7686SOL    HW233738   9.363   1.981   0.662  0.0569  0.7134  0.0164
 7687SOL     OW33739   3.473   8.248   0.499  0.2986 -0.0905 -0.5350
 7687SOL    HW133740   3.465   8.333   0.448 -0.6540  2.5319  3.7935
 7687SOL    HW233741   3.386   8.198   0.495 -0.2229  0.8005 -0.1995
 7688SOL     OW33742   8.436   9.370   3.962  0.3220  0.8312  0.3497
 7688SOL    HW133743   8.484   9.443   3.913 -1.1514  2.1736  0.8518
 7688SOL    HW233744   8.392   9.309   3.896 -0.6912  1.9686 -0.0310
 7689SOL     OW33745   9.108   8.707   3.611 -0.1172 -0.4070  0.3423
 7689SOL    HW133746   9.079   8.663   3.696  0.5337 -0.2938  0.6248
 7689SOL    HW233747   9.144   8.638   3.548 -0.9978 -0.5477 -0.0122
 7690SOL     OW33748   3.946   3.395   2.521  0.7047  0.3329 -0.3184
 7690SOL    HW133749   4.012   3.464   2.490  1.1149  0.4518  0.7795
 7690SOL    HW233750   3.994   3.310   2.539  0.4938  0.2986  0.0890
 7691SOL     OW33751   0.543   7.067   1.075 -0.2863  0.1572  0.0591
 7691SOL    HW133752   0.539   6.968   1.059 -0.7869  0.2624 -0.5178
 7691SOL    HW233753   0.493   7.089   1.159 -0.4007 -0.0586  0.0485
 7692SOL     OW33754   8.379   9.584   0.024 -0.3008  0.6584  0.2619
 7692SOL    HW133755   8.342   9.572   0.116 -0.4840  0.1302  0.1197
 7692SOL    HW233756   8.333   9.522  -0.039 -0.5157  1.3630 -0.2822
 7693SOL     OW33757   8.242   9.304   1.877  0.2813 -0.2938 -0.2594
 7693SOL    HW133758   8.226   9.207   1.859  2.4750 -0.3220 -2.3473
 7693SOL    HW233759   8.203   9.358   1.802 -1.4949  0.5097  1.2083
 7694SOL     OW33760   3.452   5.635   4.759  0.1604  0.0509  0.3370
 7694SOL    HW133761   3.424   5.615   4.853  0.7205  0.4897  0.5960
 7694SOL    HW233762   3.508   5.559   4.725 -0.1422 -0.1649  0.3088
 7695SOL     OW33763   3.787   4.407   4.235 -0.3361 -0.1590 -0.3848
 7695SOL    HW133764   3.761   4.498   4.266  0.4385 -0.5932  1.5824
 7695SOL    HW233765   3.705   4.349   4.228 -0.6959  0.3748 -0.6156
 7696SOL     OW33766   8.017   5.110   2.247 -0.5282  0.1786 -0.2895
 7696SOL    HW133767   7.966   5.085   2.329 -0.3741  0.3290 -0.1472
 7696SOL    HW233768   8.115   5.096   2.264 -0.5852 -0.9170 -0.8431
 7697SOL     OW33769   7.555   4.543   4.032  0.1684  0.2761  0.3633
 7697SOL    HW133770   7.642   4.494   4.035  0.3195  0.5367  0.3165
 7697SOL    HW233771   7.548   4.594   3.946  0.7448  1.6385  1.0943
 7698SOL     OW33772   8.394   0.393   1.986 -0.2033 -0.1402  0.7933
 7698SOL    HW133773   8.466   0.330   2.015 -1.2139 -0.9213  1.6405
 7698SOL    HW233774   8.308   0.369   2.032 -0.4909  2.1561  1.5210
 7699SOL     OW33775   2.348   6.365   0.217  0.4944  0.1039  0.3646
 7699SOL    HW133776   2.310   6.300   0.152 -0.2590  1.2787 -0.3924
 7699SOL    HW233777   2.353   6.323   0.308  2.9796 -2.0795 -0.7140
 7700SOL     OW33778   1.594   3.098   1.725 -0.4377  0.1516 -0.0874
 7700SOL    HW133779   1.533   3.159   1.775  0.6647  1.9464 -0.9215
 7700SOL    HW233780   1.638   3.035   1.789  0.5753  2.0948  1.1666
 7701SOL     OW33781   9.214   3.364   0.103  0.1630  0.1851 -0.3649
 7701SOL    HW133782   9.273   3.442   0.082 -0.6572  0.1997 -2.7286
 7701SOL    HW233783   9.124   3.397   0.132  0.5568  0.1248  0.9714
 7702SOL     OW33784   2.167   4.329   1.617 -0.3094 -0.3929 -0.0061
 7702SOL    HW133785   2.235   4.265   1.654  0.1547  0.3645  0.4644
 7702SOL    HW233786   2.207   4.380   1.540 -0.4469 -0.1765  0.0647
 7703SOL     OW33787   4.375   9.286   0.219 -0.6164  0.8067 -0.9162
 7703SOL    HW133788   4.446   9.316   0.283 -1.2847  1.3962 -0.4518
 7703SOL    HW233789   4.328   9.366   0.180 -2.1747  0.3869  0.0733
 7704SOL     OW33790   3.450   5.100   1.168 -0.0594  0.2126 -0.0446
 7704SOL    HW133791   3.474   5.128   1.075 -1.0710 -0.7154 -0.5976
 7704SOL    HW233792   3.413   5.179   1.217 -1.4571  0.2492 -1.1000
 7705SOL     OW33793   0.565   5.888   3.556  0.3754  0.4287  0.2415
 7705SOL    HW133794   0.519   5.887   3.645  0.5645  1.7152  0.3678
 7705SOL    HW233795   0.635   5.959   3.556  1.1441 -0.3315 -0.5588
 7706SOL     OW33796   2.785   4.409   1.505  0.2918 -0.7309 -0.4056
 7706SOL    HW133797   2.784   4.346   1.428 -1.4197 -0.8461 -0.3015
 7706SOL    HW233798   2.879   4.441   1.521  0.6466 -0.6771 -2.5342
 7707SOL     OW33799   0.956   2.845   1.044 -0.3771 -0.1048 -0.1070
 7707SOL    HW133800   0.874   2.815   0.995 -0.6885 -0.6255  0.7306
 7707SOL    HW233801   0.930   2.880   1.134  0.2723  0.1643 -0.0232
 7708SOL     OW33802   9.786   7.783   3.072  0.5543 -0.3972 -0.1445
 7708SOL    HW133803   9.696   7.744   3.054  0.6061 -0.5824 -0.0028
 7708SOL    HW233804   9.776   7.867   3.125  0.4159  0.0051 -0.7988
 7709SOL     OW33805   8.102   1.223   4.337  0.5205  0.2171  0.7991
 7709SOL    HW133806   8.010   1.184   4.329  0.2112  0.6168  2.2688
 7709SOL    HW233807   8.156   1.198   4.257 -0.3545 -1.4225  0.7030
 7710SOL     OW33808   4.161   1.241   2.015  0.6157  0.0945 -0.2492
 7710SOL    HW133809   4.065   1.228   1.992  0.8641  0.5315 -1.6024
 7710SOL    HW233810   4.203   1.304   1.950  2.3059 -1.6424 -0.9103
 7711SOL     OW33811   0.715   1.277   1.967  0.2106 -0.2013  0.4585
 7711SOL    HW133812   0.712   1.180   1.942  1.4534 -0.6498  1.9368
 7711SOL    HW233813   0.808   1.302   1.993  0.1367  1.7079 -1.0553
 7712SOL     OW33814   3.496   8.292   0.766  0.2731 -0.4837 -0.0032
 7712SOL    HW133815   3.498   8.282   0.666 -2.0623  0.2668 -0.1632
 7712SOL    HW233816   3.454   8.210   0.806  1.0291 -0.6982  0.3552
 7713SOL     OW33817   3.356   3.281   1.020 -0.5168  0.1934 -0.4606
 7713SOL    HW133818   3.453   3.304   1.013 -0.4330 -0.3621 -1.2483
 7713SOL    HW233819   3.339   3.197   0.968 -0.9460 -1.0986  1.7153
 7714SOL     OW33820   3.504   9.228   3.316 -0.8727 -0.3362  0.5710
 7714SOL    HW133821   3.443   9.149   3.311  0.3829 -1.2902  0.2235
 7714SOL    HW233822   3.539   9.238   3.409  0.4335 -1.3279  0.2085
 7715SOL     OW33823   1.747   4.571   2.773  0.1334 -0.3232  0.0710
 7715SOL    HW133824   1.798   4.505   2.828  0.1145  1.3574  2.1232
 7715SOL    HW233825   1.673   4.523   2.724  1.1069 -2.0754  0.2831
 7716SOL     OW33826   9.424   3.482   3.535  0.0184 -0.2268  0.4827
 7716SOL    HW133827   9.373   3.504   3.452  1.3315  0.1405 -0.2369
 7716SOL    HW233828   9.518   3.516   3.527 -0.9075  3.5910  3.7905
 7717SOL     OW33829   4.141   6.423   2.194  0.1863 -0.4453  0.2775
 7717SOL    HW133830   4.111   6.518   2.192 -0.5266 -0.6880 -3.1104
 7717SOL    HW233831   4.225   6.415   2.247  0.4723  2.1224  0.2519
 7718SOL     OW33832   3.357   2.070   4.146 -0.2355  0.4104 -0.2835
 7718SOL    HW133833   3.450   2.084   4.181 -0.4810  0.4583  0.3627
 7718SOL    HW233834   3.359   2.068   4.046  0.3997  0.8488 -0.2858
 7719SOL     OW33835   0.931   1.206   2.485  0.2223 -0.0477 -0.0812
 7719SOL    HW133836   0.876   1.261   2.423 -0.1465  0.0981  0.3700
 7719SOL    HW233837   1.009   1.260   2.518 -0.3371  0.3333  0.6407
 7720SOL     OW33838   1.158   9.585   3.856 -0.0321  0.3592 -0.4520
 7720SOL    HW133839   1.236   9.627   3.809 -0.4602  1.3773 -0.2645
 7720SOL    HW233840   1.076   9.639   3.838  0.3534  2.5831  3.9955
 7721SOL     OW33841   4.074   1.322   3.332  0.0972 -0.6940 -0.7878
 7721SOL    HW133842   4.056   1.225   3.321  0.2376 -0.6804 -1.1384
 7721SOL    HW233843   4.171   1.340   3.313  0.1786 -0.5618 -0.2516
 7722SOL     OW33844   9.039   4.625   1.930  0.0583  0.5442  0.2144
 7722SOL    HW133845   9.095   4.543   1.929  0.6228  0.9170  0.7989
 7722SOL    HW233846   8.994   4.637   1.841  2.4022  1.2829 -0.8992
 7723SOL     OW33847   6.810   9.932   3.604 -0.1945  0.3157  0.2595
 7723SOL    HW133848   6.908   9.913   3.614  0.0246  1.0225 -0.4802
 7723SOL    HW233849   6.757   9.859   3.647  0.6453 -0.7833 -0.5481
 7724SOL     OW33850   2.639   5.764   2.022 -0.1711  0.3686 -0.2378
 7724SOL    HW133851   2.678   5.695   1.962  0.4057  1.2124 -0.8581
 7724SOL    HW233852   2.590   5.720   2.097 -0.6980 -0.6920 -1.1937
 7725SOL     OW33853   3.413   4.539   4.180  0.1558  0.2356 -0.3616
 7725SOL    HW133854   3.478   4.611   4.157 -1.1806  1.7430  0.5213
 7725SOL    HW233855   3.427   4.509   4.275 -1.8260  2.1021  0.5551
 7726SOL     OW33856   1.454   6.894   0.873  0.0103 -0.3694  0.2448
 7726SOL    HW133857   1.396   6.833   0.927  0.0606 -0.3024  0.3756
 7726SOL    HW233858   1.455   6.985   0.915 -1.0188  0.0493 -0.6168
 7727SOL     OW33859   0.606   2.134   2.168  0.9324  0.7671 -0.0258
 7727SOL    HW133860   0.551   2.080   2.232 -1.3395 -0.0299 -2.5376
 7727SOL    HW233861   0.559   2.220   2.149  2.5549  1.8644  0.8572
 7728SOL     OW33862   3.781   2.221   3.185  0.2737  0.4905 -0.7598
 7728SOL    HW133863   3.684   2.224   3.211  0.5060  1.7733  0.0433
 7728SOL    HW233864   3.825   2.144   3.231 -0.1360  0.5529 -0.2481
 7729SOL     OW33865   3.853   3.388   3.106  0.4424 -0.2055 -0.0888
 7729SOL    HW133866   3.868   3.441   3.189 -0.6253 -0.0854  0.0341
 7729SOL    HW233867   3.852   3.290   3.128  1.6395 -0.2535 -0.1984
 7730SOL     OW33868   0.816   5.308   4.556 -0.1244 -0.0428 -0.1178
 7730SOL    HW133869   0.781   5.365   4.630  1.8727  1.4640 -0.2852
 7730SOL    HW233870   0.885   5.359   4.504 -0.3417 -1.6247 -2.0402
 7731SOL     OW33871   3.008   2.755   1.880 -0.2705 -0.1228  0.1428
 7731SOL    HW133872   2.954   2.787   1.958 -0.6959 -0.2268 -0.1070
 7731SOL    HW233873   3.013   2.655   1.882  0.9139 -0.0606  0.8287
 7732SOL     OW33874   0.862   7.525   1.855  0.7037  0.4815  0.3258
 7732SOL    HW133875   0.935   7.554   1.916  2.3629 -2.8233  0.0433
 7732SOL    HW233876   0.902   7.481   1.774 -1.5753 -0.8214 -0.1378
 7733SOL     OW33877   5.768   9.119   3.077  0.1109 -0.3206  0.5131
 7733SOL    HW133878   5.690   9.179   3.059 -0.5046 -1.1362  0.4720
 7733SOL    HW233879   5.781   9.057   3.000  0.1941 -0.8445  0.9495
 7734SOL     OW33880   1.278   9.620   3.121  0.1624 -0.1770 -0.2507
 7734SOL    HW133881   1.274   9.595   3.025 -2.0707 -1.8393  0.2608
 7734SOL    HW233882   1.194   9.667   3.148  0.9025  0.5808  0.8239
 7735SOL     OW33883   1.288   1.040   2.936 -0.0952 -0.3232 -0.3517
 7735SOL    HW133884   1.286   1.049   2.837  0.9874 -0.5244 -0.3969
 7735SOL    HW233885   1.379   1.067   2.970  0.7784 -3.7379  0.2235
 7736SOL     OW33886   3.181   9.256   3.489 -0.1223 -0.7450  0.2881
 7736SOL    HW133887   3.236   9.337   3.473  0.2044 -0.6882  1.6489
 7736SOL    HW233888   3.090   9.269   3.450 -0.3464  0.6107  1.2446
 7737SOL     OW33889   7.123   0.690   1.977 -0.3293 -0.2341  0.4621
 7737SOL    HW133890   7.109   0.788   1.966 -0.9297 -0.4191 -0.4331
 7737SOL    HW233891   7.172   0.673   2.063 -0.1679  0.8455  0.5898
 7738SOL     OW33892   5.766   8.238   1.813 -0.0263 -0.1671  0.0150
 7738SOL    HW133893   5.819   8.270   1.734  0.3402 -0.2904  0.2126
 7738SOL    HW233894   5.713   8.157   1.786  0.0901 -0.2033 -0.1061
 7739SOL     OW33895   9.344   6.826   2.149 -0.2349  0.0134 -0.2265
 7739SOL    HW133896   9.337   6.915   2.195 -1.2730 -0.5968  0.8451
 7739SOL    HW233897   9.264   6.771   2.173  0.5347 -1.3097 -0.6739
 7740SOL     OW33898   9.936   6.330   2.983 -0.6204 -0.3759 -0.0575
 7740SOL    HW133899   9.838   6.346   2.979 -0.3746  1.0256 -0.6472
 7740SOL    HW233900   9.964   6.277   2.902 -0.5002  1.4525 -1.2406
 7741SOL     OW33901   0.353   4.455   0.248 -0.4639 -0.5162  0.2065
 7741SOL    HW133902   0.348   4.463   0.348  2.6726 -1.4595  0.5177
 7741SOL    HW233903   0.289   4.518   0.206 -0.5322  1.2319  2.8221
 7742SOL     OW33904   1.416   3.553   0.490  0.0193 -0.6543 -0.5577
 7742SOL    HW133905   1.505   3.596   0.506 -0.3432 -0.1590  0.1209
 7742SOL    HW233906   1.370   3.599   0.414  1.0538 -1.9876 -2.0395
 7743SOL     OW33907   8.394   7.632   1.634 -0.1990 -0.0152 -0.5616
 7743SOL    HW133908   8.418   7.629   1.537 -1.1550  0.1593 -0.8083
 7743SOL    HW233909   8.426   7.718   1.673  2.6851 -1.2875 -0.0412
 7744SOL     OW33910   3.865   2.368   3.907  0.0954 -0.1762 -0.3870
 7744SOL    HW133911   3.880   2.443   3.842 -2.1506  0.6922  0.0436
 7744SOL    HW233912   3.863   2.282   3.857 -2.3282  0.5536 -1.6184
 7745SOL     OW33913   0.097   1.170   3.001 -0.1194  0.3166  0.1634
 7745SOL    HW133914   0.065   1.241   2.939  1.2155 -0.0003 -0.9354
 7745SOL    HW233915   0.026   1.148   3.068 -1.0976  1.5859 -0.4518
 7746SOL     OW33916   1.421   1.348   0.139 -0.3214 -0.3838 -0.1249
 7746SOL    HW133917   1.504   1.292   0.138 -0.2491 -0.2691 -0.5767
 7746SOL    HW233918   1.446   1.445   0.137 -0.4705 -0.3524 -0.4036
 7747SOL     OW33919   2.188   3.583   4.250  0.2519  0.3048  0.0521
 7747SOL    HW133920   2.184   3.496   4.298 -0.7428  0.1333 -0.3159
 7747SOL    HW233921   2.280   3.622   4.258  0.6225 -0.6360  0.4579
 7748SOL     OW33922   8.753   5.684   3.050 -0.3592 -0.3012  0.1109
 7748SOL    HW133923   8.745   5.704   3.148 -0.9113 -1.8528  0.3912
 7748SOL    HW233924   8.685   5.616   3.024  1.0300 -1.3127 -0.9583
 7749SOL     OW33925   0.316   6.095   3.165  0.1147  0.0538 -0.2294
 7749SOL    HW133926   0.358   6.011   3.132 -0.1634 -0.0116 -0.4191
 7749SOL    HW233927   0.332   6.103   3.264 -0.4547 -0.5806 -0.0756
 7750SOL     OW33928   1.307   1.329   4.677  0.3061  0.6949  0.4523
 7750SOL    HW133929   1.343   1.324   4.770  0.3132 -1.0268  0.3770
 7750SOL    HW233930   1.218   1.373   4.678 -0.5184 -0.9405  1.5450
 7751SOL     OW33931   3.003   2.519   0.124 -0.2264  0.2703 -0.3148
 7751SOL    HW133932   3.060   2.439   0.104 -2.0097 -0.6261 -1.9095
 7751SOL    HW233933   2.982   2.567   0.039 -2.1194  0.4121  0.2216
 7752SOL     OW33934   0.185   5.740   0.533 -0.1117 -0.0283  0.0556
 7752SOL    HW133935   0.183   5.660   0.474 -0.1669 -0.1749  0.2538
 7752SOL    HW233936   0.232   5.718   0.618  0.9598  0.5007 -0.3882
 7753SOL     OW33937   4.587   3.267   2.875  0.0363  0.3644  0.2132
 7753SOL    HW133938   4.627   3.334   2.938 -2.0073  0.4891  1.4068
 7753SOL    HW233939   4.620   3.285   2.783  0.4146  2.3008  0.7002
 7754SOL     OW33940   8.527   9.851   0.624 -0.1518 -0.5719 -0.1152
 7754SOL    HW133941   8.605   9.912   0.635 -0.0487 -0.4929 -1.2159
 7754SOL    HW233942   8.542   9.768   0.677  0.5049 -0.3891 -0.0088
 7755SOL     OW33943   4.328   2.832   1.047  0.4460  0.3587 -0.8331
 7755SOL    HW133944   4.300   2.824   0.952  1.4150 -0.5111 -1.0536
 7755SOL    HW233945   4.345   2.928   1.069 -1.4295  0.7678 -1.0457
 7756SOL     OW33946   3.290   3.552   2.066 -0.3377  0.0064 -0.0309
 7756SOL    HW133947   3.329   3.626   2.012 -0.2253 -1.0091 -1.3708
 7756SOL    HW233948   3.361   3.512   2.124 -0.0447 -0.0013 -0.3918
 7757SOL     OW33949   7.529   0.505   1.546  0.4785  0.8610  0.2741
 7757SOL    HW133950   7.468   0.497   1.625  0.9825  2.3990  0.8335
 7757SOL    HW233951   7.604   0.440   1.555  0.5209  1.0153  1.0504
 7758SOL     OW33952   1.254   6.997   0.388  0.5622  0.1896  0.0164
 7758SOL    HW133953   1.328   6.948   0.433  1.1669  0.3042 -0.8640
 7758SOL    HW233954   1.287   7.039   0.304 -0.8683 -1.0352 -1.1811
 7759SOL     OW33955   4.351   1.474   1.538 -0.2856 -0.1035  0.7553
 7759SOL    HW133956   4.297   1.458   1.456  2.7858  0.6870 -1.5042
 7759SOL    HW233957   4.391   1.388   1.570  0.9088  0.0429 -0.3252
 7760SOL     OW33958   8.298   8.648   4.527 -0.4071  0.0615  0.2799
 7760SOL    HW133959   8.242   8.565   4.527 -0.7348  0.2271  2.7369
 7760SOL    HW233960   8.339   8.660   4.618  1.0669  1.6418 -0.5642
 7761SOL     OW33961   3.380   5.797   4.550 -0.2671 -0.2040  0.4063
 7761SOL    HW133962   3.395   5.755   4.461 -2.9399 -2.0071  0.7655
 7761SOL    HW233963   3.416   5.738   4.622 -2.0736 -0.8845  0.7748
 7762SOL     OW33964   5.832   8.916   2.905  0.0310 -0.3751 -0.1997
 7762SOL    HW133965   5.798   8.834   2.860 -1.6461  1.1109 -1.7047
 7762SOL    HW233966   5.910   8.892   2.963  0.4582 -2.7899 -1.6888
 7763SOL     OW33967   1.353   9.140   3.848  0.3130  0.3572  0.2182
 7763SOL    HW133968   1.331   9.054   3.894  1.2554  0.1764  0.3495
 7763SOL    HW233969   1.331   9.217   3.909 -0.5869  0.2136  0.0770
 7764SOL     OW33970   7.761   1.055   3.678  0.6724  0.2930 -0.2390
 7764SOL    HW133971   7.810   1.138   3.702  1.7970 -0.4167 -0.0163
 7764SOL    HW233972   7.823   0.993   3.628 -0.0880 -0.4853 -0.2379
 7765SOL     OW33973   1.732   3.078   3.314 -0.3062 -0.7102 -0.2854
 7765SOL    HW133974   1.680   3.054   3.231  2.1521 -0.0079 -2.0942
 7765SOL    HW233975   1.811   3.017   3.321  1.2867  1.3385 -0.2485
 7766SOL     OW33976   2.083   2.241   2.959 -0.2092  0.0745 -0.6567
 7766SOL    HW133977   2.078   2.208   2.865  1.3272 -1.0960 -0.3491
 7766SOL    HW233978   2.053   2.168   3.022  0.2503  0.3120 -0.1541
 7767SOL     OW33979   1.733   5.844   3.387 -0.1591  0.3182 -0.0199
 7767SOL    HW133980   1.724   5.786   3.468  0.8457  1.8679  1.2385
 7767SOL    HW233981   1.737   5.787   3.305  1.1751 -1.4051  1.2160
 7768SOL     OW33982   8.334   6.574   2.901  0.1928  0.2761 -0.3545
 7768SOL    HW133983   8.358   6.640   2.830  1.1423 -0.4757 -0.7415
 7768SOL    HW233984   8.375   6.485   2.880  0.1491 -0.0581  0.9280
 7769SOL     OW33985   2.155   5.923   1.131  0.5895 -0.3610  0.9055
 7769SOL    HW133986   2.238   5.868   1.139  2.9760  2.7218 -1.3240
 7769SOL    HW233987   2.167   6.009   1.180  0.8018  2.3014 -3.5213
 7770SOL     OW33988   8.895   8.591   3.373  0.4785  0.0103 -0.8654
 7770SOL    HW133989   8.953   8.538   3.435  1.4665  0.4535 -1.3911
 7770SOL    HW233990   8.808   8.544   3.361 -0.1766  0.5067  1.7434
 7771SOL     OW33991   1.884   0.240   1.860  0.1069 -0.3939  0.6238
 7771SOL    HW133992   1.882   0.176   1.783 -2.8109 -0.9526  1.0893
 7771SOL    HW233993   1.895   0.333   1.825 -0.0538 -0.7469 -0.3994
 7772SOL     OW33994   2.518   3.827   2.648 -0.0505  0.3379  0.0138
 7772SOL    HW133995   2.570   3.750   2.610 -0.1541  0.5320 -0.5350
 7772SOL    HW233996   2.474   3.878   2.573  0.5001  1.2793  0.3148
 7773SOL     OW33997   1.834   7.340   3.217 -0.4832 -0.3896  0.6492
 7773SOL    HW133998   1.889   7.375   3.141 -2.6324 -1.2758 -1.4089
 7773SOL    HW233999   1.893   7.316   3.294  1.7188  0.8728 -0.6117
 7774SOL     OW34000   2.003   5.519   3.843 -0.4999 -0.2137 -0.3477
 7774SOL    HW134001   1.935   5.579   3.884  0.6219  0.5620  0.4183
 7774SOL    HW234002   2.002   5.531   3.744 -1.5238 -0.2648 -0.3472
 7775SOL     OW34003   3.583   6.532   3.081  0.2598  0.1711 -0.0813
 7775SOL    HW134004   3.646   6.489   3.016 -1.8769 -2.5276 -0.4686
 7775SOL    HW234005   3.533   6.605   3.035 -0.0454 -0.6128 -1.0231
 7776SOL     OW34006   1.246   8.991   0.142  0.0683 -0.5290  0.1596
 7776SOL    HW134007   1.180   8.935   0.192 -0.4793 -0.9216 -0.9798
 7776SOL    HW234008   1.242   8.969   0.045  0.1010  1.2174 -0.2643
 7777SOL     OW34009   1.657   8.082   1.161  0.1892  0.6519  0.6680
 7777SOL    HW134010   1.573   8.134   1.174 -0.5152  0.3780 -2.4913
 7777SOL    HW234011   1.672   8.066   1.064  0.1838 -5.3140  1.4780
 7778SOL     OW34012   0.878   0.124   0.226 -1.2163 -0.3164  0.0802
 7778SOL    HW134013   0.882   0.180   0.143  1.7696  1.8772  1.6071
 7778SOL    HW234014   0.893   0.028   0.202  0.1960  0.3605 -1.8909
 7779SOL     OW34015   7.452   7.971   3.412 -0.0409 -0.9220  0.4414
 7779SOL    HW134016   7.374   8.033   3.419  1.0694  0.4201  0.9858
 7779SOL    HW234017   7.474   7.956   3.316 -2.1700 -2.8739  0.1843
 7780SOL     OW34018   1.869   2.246   4.088  1.1232  0.6109  0.5985
 7780SOL    HW134019   1.787   2.189   4.083  0.7704  1.2061 -0.3811
 7780SOL    HW234020   1.949   2.192   4.059  0.8058  0.5870 -0.2317
 7781SOL     OW34021   8.272   8.882   2.000 -0.7753 -0.1574 -0.2828
 7781SOL    HW134022   8.257   8.785   2.017 -3.3227  0.2186 -0.1454
 7781SOL    HW234023   8.196   8.918   1.946  1.1558  1.3277 -2.0888
 7782SOL     OW34024   2.226   5.395   0.321 -0.4902  0.1572 -0.1525
 7782SOL    HW134025   2.133   5.390   0.359  0.4127 -0.4376  2.0426
 7782SOL    HW234026   2.288   5.343   0.379  0.9563 -0.7409 -2.4725
 7783SOL     OW34027   1.218   0.347   3.060  0.1572  0.1237 -0.1215
 7783SOL    HW134028   1.203   0.428   3.004  0.6791  1.4047  1.5511
 7783SOL    HW234029   1.317   0.330   3.068  0.0248 -1.2035 -1.1942
 7784SOL     OW34030   8.049   1.205   1.329 -0.1169 -0.3338  0.0885
 7784SOL    HW134031   8.082   1.160   1.412  0.0373  0.6170  0.5530
 7784SOL    HW234032   8.092   1.164   1.249  0.0113 -1.0137  0.5019
 7785SOL     OW34033   4.574   0.103   3.336  0.2267 -0.7727 -0.2322
 7785SOL    HW134034   4.492   0.159   3.348  1.0063  0.1879  0.7686
 7785SOL    HW234035   4.633   0.144   3.266  0.7763 -0.3366  0.4698
 7786SOL     OW34036   2.100   2.939   0.328  0.4990 -0.5697 -0.1227
 7786SOL    HW134037   2.115   2.927   0.427  0.2792 -1.7786 -0.2283
 7786SOL    HW234038   2.173   2.994   0.290  0.1343  0.6231  0.8759
 7787SOL     OW34039   8.763   9.609   1.202 -0.6126 -0.1967  0.5454
 7787SOL    HW134040   8.808   9.521   1.188 -1.5726 -0.4934 -0.8714
 7787SOL    HW234041   8.801   9.676   1.138  0.0497  0.4009  1.5528
 7788SOL     OW34042   3.554   1.070   3.487 -0.7784 -0.0552 -0.2649
 7788SOL    HW134043   3.588   1.062   3.393  1.0536  0.2411  0.3362
 7788SOL    HW234044   3.537   0.979   3.525 -0.4213 -0.2281 -0.5149
 7789SOL     OW34045   8.059   6.423   1.493 -0.3005 -0.3371  0.3203
 7789SOL    HW134046   8.116   6.481   1.551 -0.2837 -1.2351  1.2273
 7789SOL    HW234047   8.029   6.343   1.546  1.3851 -2.2142 -1.4545
 7790SOL     OW34048   9.177   2.720   1.700  0.4203 -0.4939 -0.0798
 7790SOL    HW134049   9.199   2.690   1.793 -0.5534  1.5138  0.8290
 7790SOL    HW234050   9.161   2.818   1.700  0.1706 -0.5166 -2.3479
 7791SOL     OW34051   4.826   3.616   4.166 -0.3111 -0.3912 -0.2236
 7791SOL    HW134052   4.808   3.604   4.069  0.2283  0.1361 -0.3909
 7791SOL    HW234053   4.820   3.713   4.190  1.4278 -0.2884 -0.1254
 7792SOL     OW34054   1.001   7.986   1.553 -0.0066 -0.1717  0.3409
 7792SOL    HW134055   1.098   8.001   1.574  0.2578  1.4159 -1.8634
 7792SOL    HW234056   0.964   8.068   1.509 -2.0249 -1.2571  0.0054
 7793SOL     OW34057   8.545   6.944   2.828  0.2459 -0.1359  0.3450
 7793SOL    HW134058   8.643   6.959   2.820  0.0528  0.9389 -0.1204
 7793SOL    HW234059   8.503   7.023   2.873 -0.2320 -1.1657  1.7597
 7794SOL     OW34060   0.143   2.508   2.607  0.0086  0.0161  0.2891
 7794SOL    HW134061   0.102   2.435   2.553  0.6007 -0.3455  0.3235
 7794SOL    HW234062   0.098   2.514   2.696  0.3253 -0.6733  0.4972
 7795SOL     OW34063   7.002   0.031   0.673 -0.6210 -0.4146  0.6369
 7795SOL    HW134064   7.072   0.061   0.738 -0.9121 -0.0265  0.7752
 7795SOL    HW234065   7.008   0.085   0.589 -0.8117 -0.3159  0.6849
 7796SOL     OW34066   8.737   7.639   0.741 -0.0748 -0.2212 -0.1256
 7796SOL    HW134067   8.837   7.643   0.741  0.0848 -1.9312 -3.7708
 7796SOL    HW234068   8.701   7.702   0.672 -1.4616 -0.5387  0.2953
 7797SOL     OW34069   2.950   7.620   4.087  0.0409  0.2649 -0.4456
 7797SOL    HW134070   2.954   7.600   4.185  0.1645 -1.5998 -0.8093
 7797SOL    HW234071   3.042   7.632   4.051  0.1099 -0.9616 -0.6954
 7798SOL     OW34072   3.584   2.231   3.546  0.0345  0.6194 -0.1088
 7798SOL    HW134073   3.525   2.248   3.467  0.3492  0.1640 -0.4405
 7798SOL    HW234074   3.612   2.135   3.547  2.1014  1.1747 -0.8811
 7799SOL     OW34075   7.610   9.628   2.037 -0.1960 -0.1258 -0.5330
 7799SOL    HW134076   7.622   9.599   1.942 -0.8349  0.4640 -0.7997
 7799SOL    HW234077   7.551   9.709   2.040 -0.3371 -0.2565  0.3817
 7800SOL     OW34078   4.820   1.091   3.353 -0.1497  0.6330  0.3483
 7800SOL    HW134079   4.809   0.993   3.371 -0.3668  0.4770 -0.5819
 7800SOL    HW234080   4.916   1.111   3.335 -0.2211  0.4285 -0.3064
 7801SOL     OW34081   8.471   2.896   4.597 -0.0504  0.1650 -0.6185
 7801SOL    HW134082   8.400   2.965   4.607 -1.6011 -1.6018  1.1146
 7801SOL    HW234083   8.544   2.931   4.538 -1.8935  2.3722 -1.6785
 7802SOL     OW34084   9.386   9.542   1.542  0.4291  0.0129 -0.3669
 7802SOL    HW134085   9.339   9.459   1.514 -2.0678  1.2504 -0.0326
 7802SOL    HW234086   9.405   9.538   1.640  0.7256 -0.3569 -0.4394
 7803SOL     OW34087   8.256   2.030   2.485  0.0203  0.3228  0.0997
 7803SOL    HW134088   8.219   1.950   2.533  0.4390  0.6567  0.9861
 7803SOL    HW234089   8.305   1.999   2.404 -1.6070 -0.1647 -0.7126
 7804SOL     OW34090   4.806   2.898   1.539  0.0406  0.0165 -0.0689
 7804SOL    HW134091   4.755   2.948   1.609  1.2707 -0.6441  1.3204
 7804SOL    HW234092   4.895   2.870   1.576 -0.1788 -2.2429 -1.1713
 7805SOL     OW34093   9.706   3.673   1.103  0.0907  1.2000  0.1626
 7805SOL    HW134094   9.715   3.627   1.192  0.6821  2.3151  0.6946
 7805SOL    HW234095   9.630   3.633   1.053  0.4319 -0.1912  0.7106
 7806SOL     OW34096   7.491   9.493   3.152  0.4857  0.0673 -0.0655
 7806SOL    HW134097   7.482   9.422   3.082 -1.9320  0.4339 -0.1811
 7806SOL    HW234098   7.428   9.474   3.227  0.0374  1.8806  0.0473
 7807SOL     OW34099   1.217   0.963   3.233  0.1852  0.1117 -0.0362
 7807SOL    HW134100   1.166   1.016   3.165  1.8915  0.0079 -1.4368
 7807SOL    HW234101   1.242   0.875   3.195  1.0367 -0.0039  0.7809
 7808SOL     OW34102   9.479   3.874   3.521 -0.6330 -0.1625 -0.4067
 7808SOL    HW134103   9.503   3.949   3.460  0.6542  0.6824  1.1161
 7808SOL    HW234104   9.379   3.862   3.521 -0.6600 -0.2900 -2.7622
 7809SOL     OW34105   2.024   2.880   3.652  0.2982 -0.1338  0.8806
 7809SOL    HW134106   1.981   2.830   3.577 -0.1421  0.1088  0.9719
 7809SOL    HW234107   1.957   2.941   3.695  1.1816  1.5836 -0.1259
 7810SOL     OW34108   4.979   0.619   2.062  0.0622  0.3115  1.0945
 7810SOL    HW134109   4.885   0.612   2.095  0.3492 -0.1613  1.8276
 7810SOL    HW234110   5.021   0.528   2.059  0.0200  0.3408 -0.6669
 7811SOL     OW34111   4.869   3.082   2.680 -0.2649  0.3461 -0.1420
 7811SOL    HW134112   4.803   3.016   2.644  0.6893  0.1981 -1.7028
 7811SOL    HW234113   4.905   3.051   2.767  0.5222 -1.4491 -1.0862
 7812SOL     OW34114   5.445   9.515   1.544  0.3245 -0.3727 -0.0458
 7812SOL    HW134115   5.380   9.591   1.545  2.0438  1.1479 -0.2987
 7812SOL    HW234116   5.458   9.481   1.637  2.2431  2.0635  0.6417
 7813SOL     OW34117   8.918   6.459   0.457 -0.3832 -0.0166  0.0768
 7813SOL    HW134118   8.982   6.408   0.513  0.8160  0.4323 -0.8697
 7813SOL    HW234119   8.925   6.428   0.362 -2.4062 -0.7887  0.1569
 7814SOL     OW34120   3.371   5.482   2.502  0.3267 -0.0460 -0.2122
 7814SOL    HW134121   3.328   5.559   2.550 -1.6763 -1.0133 -0.4371
 7814SOL    HW234122   3.347   5.486   2.404 -1.4149 -2.0196  0.0949
 7815SOL     OW34123   3.961   0.450   0.780  0.0077 -0.3352  0.0748
 7815SOL    HW134124   3.977   0.470   0.683 -0.6630 -0.3177 -0.0317
 7815SOL    HW234125   4.041   0.478   0.833  0.2577 -0.0734 -0.4331
 7816SOL     OW34126   1.053   0.779   0.229  0.7554 -0.4349 -0.1838
 7816SOL    HW134127   1.124   0.832   0.183 -0.5954 -0.3808 -2.3053
 7816SOL    HW234128   0.986   0.841   0.270  1.4787 -0.4895  1.0917
 7817SOL     OW34129   1.328   2.963   3.850  0.3027 -0.2169  0.6316
 7817SOL    HW134130   1.253   2.907   3.816  1.2313 -1.4101  0.5577
 7817SOL    HW234131   1.308   2.992   3.944 -1.2066  1.2183 -0.0959
 7818SOL     OW34132   0.682   8.723   3.749  0.5667  0.0961  0.2989
 7818SOL    HW134133   0.603   8.681   3.703  1.3013 -0.6098 -0.3522
 7818SOL    HW234134   0.710   8.665   3.826  1.8916 -0.9046 -0.9049
 7819SOL     OW34135   0.173   8.457   0.861  0.0677  0.4245  0.2744
 7819SOL    HW134136   0.201   8.405   0.941  0.9691  0.2253 -0.1647
 7819SOL    HW234137   0.196   8.406   0.778 -0.5414  0.7868 -0.1250
 7820SOL     OW34138   0.232   1.079   0.578  0.1609  0.0249 -0.0810
 7820SOL    HW134139   0.303   1.051   0.514  1.0309  1.5667  0.2004
 7820SOL    HW234140   0.267   1.150   0.639 -1.9023  1.5322 -0.6006
 7821SOL     OW34141   9.334   1.822   0.852 -0.4979  0.0196  0.1198
 7821SOL    HW134142   9.397   1.758   0.809  0.8177  1.3508  0.0249
 7821SOL    HW234143   9.329   1.802   0.950  0.7358  0.4380  0.2750
 7822SOL     OW34144   0.030   3.343   1.317  0.5159 -0.1876 -0.4474
 7822SOL    HW134145   0.034   3.243   1.313 -1.8631 -0.3607  0.4549
 7822SOL    HW234146   0.099   3.378   1.380  0.5015 -1.3660  0.2303
 7823SOL     OW34147   6.951   9.159   3.698 -0.6637 -0.3953  0.1011
 7823SOL    HW134148   6.915   9.076   3.654  0.2209 -0.2045 -1.0141
 7823SOL    HW234149   6.958   9.143   3.796 -0.8536 -1.5266 -0.0532
 7824SOL     OW34150   1.207   7.432   0.342 -0.0208 -0.6941  0.2098
 7824SOL    HW134151   1.192   7.384   0.256 -0.8797 -0.4336  0.2033
 7824SOL    HW234152   1.133   7.498   0.356 -0.6832 -1.7446  1.8397
 7825SOL     OW34153   6.647   0.820   3.202  0.0925 -0.3047 -0.6228
 7825SOL    HW134154   6.653   0.722   3.182  0.3286 -0.3344 -0.3920
 7825SOL    HW234155   6.606   0.867   3.123 -1.3349 -0.7814 -0.1885
 7826SOL     OW34156   4.888   3.034   1.313 -0.0223 -0.0619 -0.5046
 7826SOL    HW134157   4.854   3.008   1.403  0.7306 -0.2037 -0.2568
 7826SOL    HW234158   4.885   2.955   1.251 -1.3492  0.2517 -0.8594
 7827SOL     OW34159   2.316   7.991   2.552  0.1710  0.0751 -0.2545
 7827SOL    HW134160   2.264   7.912   2.518 -0.1593  0.4896 -0.7268
 7827SOL    HW234161   2.252   8.062   2.582  0.4694  0.0181  0.5068
 7828SOL     OW34162   2.208   7.940   4.600 -0.0297 -0.4979 -0.9460
 7828SOL    HW134163   2.268   7.881   4.546  0.6494  0.7199 -1.5397
 7828SOL    HW234164   2.263   8.011   4.643 -0.8340 -0.3573 -0.1468
 7829SOL     OW34165   8.810   7.391   0.861 -0.6396 -0.3596 -0.1155
 7829SOL    HW134166   8.794   7.489   0.878 -1.2076 -0.4836  0.1032
 7829SOL    HW234167   8.882   7.380   0.792  0.1471  0.1975  0.6031
 7830SOL     OW34168   0.064   2.109   1.849 -0.0259  0.1546  0.3734
 7830SOL    HW134169  -0.036   2.111   1.846 -0.0014  0.4993 -0.3869
 7830SOL    HW234170   0.094   2.099   1.944 -0.7735  0.3338  0.6375
 7831SOL     OW34171   9.218   2.333   0.721 -0.5964  0.0493  0.1245
 7831SOL    HW134172   9.240   2.362   0.628  0.4045 -0.0481  0.3226
 7831SOL    HW234173   9.232   2.234   0.729  4.2406  0.7479  1.6992
 7832SOL     OW34174   8.658   7.479   1.203  0.0263  0.2261  0.2084
 7832SOL    HW134175   8.639   7.510   1.110  0.2154 -0.7045 -0.1386
 7832SOL    HW234176   8.648   7.380   1.209  3.6946 -0.2133  0.2692
 7833SOL     OW34177   9.643   3.820   4.105 -0.1739  0.7818 -0.1486
 7833SOL    HW134178   9.718   3.869   4.150  0.3833 -2.1157  2.2096
 7833SOL    HW234179   9.556   3.863   4.129  0.5147  2.7887 -1.0873
 7834SOL     OW34180   1.455   8.176   3.222  0.9003  0.4187 -0.0684
 7834SOL    HW134181   1.454   8.131   3.311  1.3520  0.8782  0.1686
 7834SOL    HW234182   1.524   8.133   3.164 -0.2353 -0.6977 -0.6318
 7835SOL     OW34183   3.547   3.590   3.843 -0.0006 -0.0960 -0.2840
 7835SOL    HW134184   3.499   3.507   3.814 -0.1052 -0.1652  0.0870
 7835SOL    HW234185   3.624   3.565   3.902 -0.7522  0.1443  0.8109
 7836SOL     OW34186   3.637   5.441   4.654  0.5106 -0.1697  0.2782
 7836SOL    HW134187   3.666   5.346   4.666  0.7754 -0.1778 -0.4035
 7836SOL    HW234188   3.708   5.491   4.604 -0.3412 -0.0182 -0.7966
 7837SOL     OW34189   9.949   1.160   2.538  0.5332  0.7944  0.0897
 7837SOL    HW134190  10.013   1.086   2.515  0.7748  0.8024  0.7467
 7837SOL    HW234191   9.855   1.125   2.533  0.5499  0.9007 -1.3248
 7838SOL     OW34192   3.627   0.017   3.803 -0.0125  0.4323  0.1865
 7838SOL    HW134193   3.677   0.005   3.889 -1.1052 -0.1107  0.7598
 7838SOL    HW234194   3.691   0.022   3.727  0.7724 -4.1088  0.4640
 7839SOL     OW34195   9.816   5.933   3.058  0.0600 -0.6519 -0.1516
 7839SOL    HW134196   9.801   5.936   3.156 -1.4481 -0.4996 -0.3666
 7839SOL    HW234197   9.914   5.924   3.039  0.8229  3.3120  1.3282
 7840SOL     OW34198   7.801   0.326   3.175 -0.2122 -1.2561  0.2434
 7840SOL    HW134199   7.849   0.289   3.254 -1.1637 -0.2557  1.3144
 7840SOL    HW234200   7.858   0.396   3.131 -0.3987 -0.5368  1.1243
 7841SOL     OW34201   1.100   7.591   0.016 -0.5264 -0.1687 -0.1287
 7841SOL    HW134202   1.163   7.666   0.034 -1.7213  0.8825 -0.2934
 7841SOL    HW234203   1.121   7.514   0.077  0.1547  0.6116  0.6235
 7842SOL     OW34204   9.939   2.421   0.178  0.6196  0.0657  0.0120
 7842SOL    HW134205   9.871   2.348   0.169  1.2573 -0.3223 -1.8865
 7842SOL    HW234206   9.892   2.510   0.176  0.0845 -0.2195 -0.3919
 7843SOL     OW34207   3.614   2.331   1.262  0.9924 -1.0957  0.2809
 7843SOL    HW134208   3.627   2.244   1.311  1.3900  0.8888  3.8890
 7843SOL    HW234209   3.516   2.348   1.252  0.9017 -1.6029  0.2886
 7844SOL     OW34210   3.586   5.439   4.265  0.4004  0.3269  0.4678
 7844SOL    HW134211   3.544   5.348   4.260 -0.1010  0.5868 -0.0594
 7844SOL    HW234212   3.682   5.430   4.292  0.8983 -0.4990 -1.5272
 7845SOL     OW34213   3.280   6.312   2.989 -0.7148  0.0029 -0.0034
 7845SOL    HW134214   3.331   6.341   2.908  0.0533  0.8571  0.7765
 7845SOL    HW234215   3.322   6.231   3.028 -1.2347 -0.5588 -0.5991
 7846SOL     OW34216   2.129   5.766   1.403  0.7178  0.1929 -0.0549
 7846SOL    HW134217   2.165   5.860   1.405  1.1484  0.0489 -0.7615
 7846SOL    HW234218   2.165   5.719   1.323  1.1717 -0.8501  0.7564
 7847SOL     OW34219   2.988   0.781   1.399  0.0480  0.0380  0.0082
 7847SOL    HW134220   2.928   0.758   1.476  1.2258  0.8901  1.1914
 7847SOL    HW234221   2.989   0.704   1.335 -2.6853  0.1883 -0.2970
 7848SOL     OW34222   7.057   9.082   1.117 -0.2943 -0.0447 -0.3873
 7848SOL    HW134223   7.023   9.142   1.045 -1.9045 -1.3219 -0.7245
 7848SOL    HW234224   7.108   9.006   1.076  1.6712  1.0064  0.0319
 7849SOL     OW34225   0.241   2.040   1.667  0.2631 -0.1886 -0.1346
 7849SOL    HW134226   0.268   2.128   1.628 -0.1722  0.8756  1.8669
 7849SOL    HW234227   0.179   2.056   1.744  1.3377 -2.1919  1.1727
 7850SOL     OW34228   1.188   8.081   3.113  0.1036 -0.4858 -0.0882
 7850SOL    HW134229   1.278   8.123   3.125  0.2612 -0.8926  0.1788
 7850SOL    HW234230   1.157   8.043   3.200 -1.7428  2.4155  0.5597
 7851SOL     OW34231   7.278   9.733   3.186  0.4599 -0.0585  0.2605
 7851SOL    HW134232   7.186   9.695   3.187 -0.2540  1.5720 -1.1319
 7851SOL    HW234233   7.339   9.673   3.134 -0.1414 -0.4426 -0.0013
 7852SOL     OW34234   3.197   2.257   4.280 -0.1403  0.4869 -0.0305
 7852SOL    HW134235   3.154   2.214   4.359 -2.2767  2.5236 -0.0358
 7852SOL    HW234236   3.226   2.187   4.215 -1.1649 -1.0408  1.1460
 7853SOL     OW34237   3.100   0.337   4.089 -0.2648  0.3874 -0.0627
 7853SOL    HW134238   3.178   0.308   4.144 -0.0432  1.3663  0.1444
 7853SOL    HW234239   3.123   0.422   4.041 -0.1545 -0.8620 -2.2951
 7854SOL     OW34240   3.415   0.912   3.015  0.7243 -0.5093 -0.9563
 7854SOL    HW134241   3.333   0.876   2.972  1.0520 -0.2566 -1.7890
 7854SOL    HW234242   3.446   0.848   3.086  0.5622 -1.2326 -1.5399
 7855SOL     OW34243   3.436   7.429   1.516  0.3947  0.1668  0.1149
 7855SOL    HW134244   3.479   7.340   1.499  2.5721  1.1820  0.1845
 7855SOL    HW234245   3.506   7.501   1.512 -0.8819  1.5951  2.6916
 7856SOL     OW34246   0.247   4.916   1.906  0.7863  0.2815 -0.5564
 7856SOL    HW134247   0.296   4.948   1.986  0.5577  0.1808 -0.3757
 7856SOL    HW234248   0.263   4.818   1.893 -3.0719 -0.8444  2.2222
 7857SOL     OW34249   2.121   2.641   3.237 -0.3161 -0.2375 -0.1964
 7857SOL    HW134250   2.064   2.559   3.236 -1.4453  0.5318 -3.2050
 7857SOL    HW234251   2.192   2.634   3.167 -1.7625  2.2165 -2.0041
 7858SOL     OW34252   1.747   6.758   3.819  0.1167  0.0480  0.0935
 7858SOL    HW134253   1.743   6.660   3.798  1.3027  0.0849 -0.3549
 7858SOL    HW234254   1.758   6.810   3.734 -2.4411  0.7231  0.1305
 7859SOL     OW34255   9.439   9.210   1.844  0.0104 -0.1219 -0.1460
 7859SOL    HW134256   9.488   9.144   1.786 -0.1241  0.1734 -0.5985
 7859SOL    HW234257   9.341   9.189   1.842 -0.1307  0.5591 -0.9166
 7860SOL     OW34258   3.157   6.816   0.531  0.2438 -0.2906  0.0405
 7860SOL    HW134259   3.196   6.841   0.620 -0.2010  0.3842  0.0410
 7860SOL    HW234260   3.221   6.754   0.484  0.8241 -0.0547  0.5054
 7861SOL     OW34261   4.418   1.913   1.334 -0.1143 -0.0108  0.7897
 7861SOL    HW134262   4.343   1.856   1.302  0.1729 -0.1418  0.3370
 7861SOL    HW234263   4.503   1.883   1.291 -0.2950  2.1552 -1.2205
 7862SOL     OW34264   3.136   9.954   0.298 -0.4437  1.3258  0.6475
 7862SOL    HW134265   3.132  10.027   0.366  0.3440  0.5584  1.5306
 7862SOL    HW234266   3.210   9.890   0.321 -1.0868  0.2711 -0.1412
 7863SOL     OW34267   8.954   6.785   2.029 -0.4898  0.7594 -0.0230
 7863SOL    HW134268   9.002   6.748   2.108 -1.6492 -0.1626  0.2696
 7863SOL    HW234269   8.971   6.727   1.949  0.1717  1.3352 -0.3046
 7864SOL     OW34270   0.473   9.846   0.528 -1.4192 -0.7772 -0.0691
 7864SOL    HW134271   0.525   9.913   0.581  0.3301 -0.9302 -1.5533
 7864SOL    HW234272   0.504   9.754   0.551 -1.6387 -0.9222 -0.3510
 7865SOL     OW34273   4.426   8.038   1.057  0.2679  0.1681 -0.4507
 7865SOL    HW134274   4.427   8.056   1.156  0.7659  0.5724 -0.5263
 7865SOL    HW234275   4.354   7.972   1.036 -1.4502  1.8470 -0.1013
 7866SOL     OW34276   7.717   9.975   1.188 -0.2228 -0.7160 -0.3142
 7866SOL    HW134277   7.701   9.899   1.253 -0.3189  0.3502  0.9307
 7866SOL    HW234278   7.699   9.943   1.095 -1.0470 -2.0157  0.2663
 7867SOL     OW34279   1.415   0.704   0.096  0.0390 -0.2045  0.3310
 7867SOL    HW134280   1.352   0.631   0.121  0.6434 -1.2079 -1.0046
 7867SOL    HW234281   1.367   0.771   0.039  0.2540 -1.1444 -0.9698
 7868SOL     OW34282   6.332   0.165   2.163  0.1043  0.0132 -0.3051
 7868SOL    HW134283   6.340   0.171   2.263 -0.9264 -0.0244 -0.2145
 7868SOL    HW234284   6.236   0.162   2.138  0.3643  0.0239 -1.3094
 7869SOL     OW34285   2.012   6.585   1.323  0.4569 -0.0523 -0.5109
 7869SOL    HW134286   1.926   6.601   1.372 -0.0092 -0.5059 -1.1704
 7869SOL    HW234287   2.043   6.672   1.284  0.5527  0.2082  0.1317
 7870SOL     OW34288   9.029   2.572   0.726 -0.2167 -0.3987 -0.2606
 7870SOL    HW134289   9.073   2.584   0.814 -2.1574 -0.4052  0.7400
 7870SOL    HW234290   9.053   2.648   0.665  2.5490 -1.3152 -0.3643
 7871SOL     OW34291   1.468   9.645   0.542  0.1964  0.0127  0.8631
 7871SOL    HW134292   1.563   9.629   0.567  0.1010 -0.0185  1.2081
 7871SOL    HW234293   1.408   9.609   0.613 -0.0342  1.2625  1.3176
 7872SOL     OW34294   7.036   9.452   1.105 -0.4554 -0.2279 -0.6355
 7872SOL    HW134295   7.013   9.366   1.059  0.9745 -0.8026 -0.2984
 7872SOL    HW234296   6.977   9.464   1.185 -0.9932 -0.6476 -0.9646
 7873SOL     OW34297   2.278   3.937   4.433  0.7127 -0.2876  0.3349
 7873SOL    HW134298   2.198   3.891   4.472 -0.3427 -0.3907 -1.9014
 7873SOL    HW234299   2.336   3.870   4.387 -0.3582  0.4538 -2.1368
 7874SOL     OW34300   3.253   7.542   0.056  0.3164  0.4861  0.2160
 7874SOL    HW134301   3.192   7.472   0.093  1.7020 -0.4077  0.8436
 7874SOL    HW234302   3.261   7.530  -0.043  2.2407 -1.6442  0.5818
 7875SOL     OW34303   5.244   9.252   2.682 -0.0295  0.1575 -0.0708
 7875SOL    HW134304   5.150   9.223   2.665  0.4683 -1.0463 -0.7931
 7875SOL    HW234305   5.273   9.219   2.772 -0.3795  0.7714  0.2755
 7876SOL     OW34306   1.889   9.768   3.405 -0.2527  0.2789  0.8354
 7876SOL    HW134307   1.944   9.689   3.431 -0.5314 -0.9854 -2.1662
 7876SOL    HW234308   1.792   9.741   3.401 -0.3756  0.8189  0.0407
 7877SOL     OW34309   4.307   2.070   4.148 -0.0449  0.5702 -0.8282
 7877SOL    HW134310   4.266   2.036   4.064  1.8640 -1.7884 -0.8729
 7877SOL    HW234311   4.307   2.170   4.147 -2.0622  0.5919 -2.5933
 7878SOL     OW34312   9.235   3.353   0.989 -0.2626  0.5795 -0.6401
 7878SOL    HW134313   9.242   3.427   0.922  0.2048  1.9675  0.9214
 7878SOL    HW234314   9.139   3.342   1.017 -0.3434  0.5154 -0.9334
 7879SOL     OW34315   7.898   8.711   1.193  0.4475  0.3364  0.3589
 7879SOL    HW134316   7.912   8.668   1.282  1.6828 -0.4173 -0.1664
 7879SOL    HW234317   7.880   8.640   1.125  0.9451  0.7830 -0.2454
 7880SOL     OW34318   4.764   1.012   1.137  0.3457  0.5435 -0.0541
 7880SOL    HW134319   4.815   1.079   1.084 -1.0382  1.6072 -0.0765
 7880SOL    HW234320   4.761   1.040   1.233 -1.4595  1.3088 -0.3064
 7881SOL     OW34321   1.014   9.824   0.353 -0.2601  0.4030  0.4519
 7881SOL    HW134322   1.056   9.794   0.268  0.0174 -0.3123  0.8452
 7881SOL    HW234323   0.921   9.787   0.360  0.1299 -0.4803  0.9992
 7882SOL     OW34324   0.034   6.787   2.410 -0.1049  0.0728 -0.1863
 7882SOL    HW134325   0.013   6.840   2.491  0.2205  1.8084 -1.2178
 7882SOL    HW234326   0.092   6.709   2.434 -0.7621  0.0600  1.3658
 7883SOL     OW34327   8.610   4.870   2.432 -0.4862 -0.0752  0.4160
 7883SOL    HW134328   8.658   4.921   2.504  0.4736 -0.5591  0.1230
 7883SOL    HW234329   8.663   4.874   2.347 -1.8204  0.8486 -0.3897
 7884SOL     OW34330   2.067   5.035   4.372  0.6075 -0.1763 -0.0526
 7884SOL    HW134331   2.015   5.087   4.439 -0.1368  0.9973 -1.5257
 7884SOL    HW234332   2.011   4.959   4.339 -0.0935  0.9158 -1.4227
 7885SOL     OW34333   0.939   6.857   2.159  0.0001 -0.7657 -0.0586
 7885SOL    HW134334   0.873   6.881   2.231 -1.3414 -0.7389 -1.2785
 7885SOL    HW234335   0.935   6.925   2.086  1.5388 -0.6562 -0.0497
 7886SOL     OW34336   0.371   2.511   0.759  0.5394 -0.1059 -0.6749
 7886SOL    HW134337   0.376   2.586   0.694  1.1982  1.8065  1.5029
 7886SOL    HW234338   0.275   2.491   0.780  0.3732  0.8642 -0.4814
 7887SOL     OW34339   9.770   1.488   4.531 -0.0301 -0.1184 -0.0686
 7887SOL    HW134340   9.808   1.417   4.473  1.0861  0.2513  0.2050
 7887SOL    HW234341   9.840   1.557   4.550 -0.4612 -0.0949  1.4938
 7888SOL     OW34342   3.749   9.662   2.756  0.1636 -0.1822 -0.2970
 7888SOL    HW134343   3.735   9.734   2.689  1.1496  0.2389 -0.0648
 7888SOL    HW234344   3.725   9.695   2.847  1.1689  0.0566 -0.1091
 7889SOL     OW34345   8.728   7.111   0.076 -0.0540 -0.2463 -0.1687
 7889SOL    HW134346   8.743   7.013   0.062  0.1380  0.3024 -4.4557
 7889SOL    HW234347   8.630   7.131   0.072  0.0089 -0.0699 -0.9529
 7890SOL     OW34348   8.357   1.130   2.948 -0.0365  0.0527  0.3371
 7890SOL    HW134349   8.412   1.118   2.865  0.5413 -0.0357  0.7254
 7890SOL    HW234350   8.319   1.042   2.977 -1.1313  0.2645 -0.4373
 7891SOL     OW34351   1.520   9.588   4.098  0.2348 -1.0463  0.5477
 7891SOL    HW134352   1.518   9.587   4.198  0.5821 -1.1233  0.5562
 7891SOL    HW234353   1.494   9.678   4.064 -0.5041 -1.1992  0.6879
 7892SOL     OW34354   0.645   4.473   1.433 -0.2044 -0.7333  0.0107
 7892SOL    HW134355   0.637   4.547   1.367 -1.3953 -1.1724 -0.3370
 7892SOL    HW234356   0.596   4.392   1.400 -0.7685 -0.9712  1.3939
 7893SOL     OW34357   4.034   3.914   2.650 -0.2678 -0.1705  0.3197
 7893SOL    HW134358   3.967   3.856   2.697 -0.5419  0.8660  1.2060
 7893SOL    HW234359   4.126   3.892   2.683 -0.2205 -1.1548 -0.4446
 7894SOL     OW34360   0.954   5.484   4.396 -0.3087  0.5576  0.2364
 7894SOL    HW134361   0.870   5.488   4.342  0.5265 -3.0263 -1.4359
 7894SOL    HW234362   1.030   5.523   4.343 -0.4344  1.6487  0.8377
 7895SOL     OW34363   9.265   2.137   2.830  1.0338 -0.1930 -0.4574
 7895SOL    HW134364   9.301   2.132   2.923 -0.7262 -1.1200  0.1915
 7895SOL    HW234365   9.194   2.068   2.818 -0.5770  1.6289 -1.6731
 7896SOL     OW34366   7.873   3.928   4.705  0.1574 -0.0315  0.0500
 7896SOL    HW134367   7.841   3.976   4.623 -0.2983 -1.3920 -0.5858
 7896SOL    HW234368   7.961   3.965   4.733  0.1512  0.6848 -0.8507
 7897SOL     OW34369   8.289   0.803   1.119  0.0518 -0.1118 -0.3308
 7897SOL    HW134370   8.346   0.823   1.039 -0.1848  2.2864  0.0582
 7897SOL    HW234371   8.336   0.738   1.179  1.1332 -0.3154 -1.3928
 7898SOL     OW34372   1.787   4.472   0.446 -0.2064  0.2853 -0.7823
 7898SOL    HW134373   1.712   4.481   0.381 -1.2227  0.2284  0.3772
 7898SOL    HW234374   1.784   4.382   0.488  0.0660  0.5546 -0.1804
 7899SOL     OW34375   8.167   2.648   3.636 -0.8935 -0.3817 -0.0833
 7899SOL    HW134376   8.253   2.618   3.678 -1.1530  0.1772  0.8614
 7899SOL    HW234377   8.140   2.582   3.566 -0.4170 -1.2873  0.5711
 7900SOL     OW34378   1.445   7.194   0.931  0.0683 -0.0735 -0.5130
 7900SOL    HW134379   1.392   7.257   0.874 -0.3428  1.9735  2.0706
 7900SOL    HW234380   1.390   7.166   1.010  0.0921 -4.0513 -1.8045
 7901SOL     OW34381   8.181   8.112   2.584 -0.4269  0.3579 -0.4659
 7901SOL    HW134382   8.219   8.204   2.579  3.3068 -1.0563  0.2377
 7901SOL    HW234383   8.193   8.066   2.496 -0.7177 -0.0333 -0.3028
 7902SOL     OW34384   0.357   8.719   0.005 -0.0425 -0.4256  0.0485
 7902SOL    HW134385   0.349   8.669   0.091  1.6843  0.8973  1.0346
 7902SOL    HW234386   0.307   8.806   0.012  0.4207 -0.1420 -0.1252
 7903SOL     OW34387   9.936   5.202   4.417 -0.4362 -0.1751  0.4921
 7903SOL    HW134388   9.976   5.290   4.446 -2.2431  1.1322 -0.8913
 7903SOL    HW234389   9.850   5.187   4.467 -0.8434 -0.4698 -0.2891
 7904SOL     OW34390   2.852   9.717   2.902  0.3403  0.4593  0.0140
 7904SOL    HW134391   2.852   9.696   3.000  1.2553  1.6055  0.2605
 7904SOL    HW234392   2.759   9.704   2.866  0.5710 -2.7115  0.4176
 7905SOL     OW34393   1.932   3.910   3.361 -0.0116 -0.1950  0.3915
 7905SOL    HW134394   1.886   3.996   3.381 -0.5318 -0.5591  0.7383
 7905SOL    HW234395   1.963   3.910   3.265 -0.8147  0.0029  0.1340
 7906SOL     OW34396   2.123   9.766   3.771 -0.0508  0.6224  0.0414
 7906SOL    HW134397   2.191   9.795   3.704  0.3048  1.2393  0.6689
 7906SOL    HW234398   2.115   9.835   3.843 -1.3123  0.5304 -0.0066
 7907SOL     OW34399   5.114   1.085   3.350 -0.4200 -0.4410  0.3254
 7907SOL    HW134400   5.196   1.143   3.351 -1.5056  1.1118  0.3180
 7907SOL    HW234401   5.128   1.008   3.413  0.5337  0.5244  1.3263
 7908SOL     OW34402   8.037   1.965   0.702  0.4873  0.7771 -0.4607
 7908SOL    HW134403   7.938   1.967   0.699  0.3792 -1.4515  0.5954
 7908SOL    HW234404   8.071   1.892   0.642  1.3336 -0.1395  1.0869
 7909SOL     OW34405   9.188   7.376   0.868 -0.6066 -0.2091 -0.6897
 7909SOL    HW134406   9.118   7.345   0.805 -0.9442  0.5571 -0.6987
 7909SOL    HW234407   9.172   7.472   0.891  0.8125  0.1646 -1.2163
 7910SOL     OW34408   2.614   0.419   3.123 -0.3188  0.2520  0.3850
 7910SOL    HW134409   2.680   0.349   3.096 -0.4648  1.0494 -2.0913
 7910SOL    HW234410   2.653   0.473   3.198  1.9035  0.7573 -1.0818
 7911SOL     OW34411   1.104   3.408   3.071 -0.1962 -0.4164 -0.0953
 7911SOL    HW134412   1.204   3.402   3.078 -0.2082  0.0933  0.5689
 7911SOL    HW234413   1.077   3.504   3.060 -0.6563 -0.4754  0.4845
 7912SOL     OW34414   3.136   4.954   2.169  0.0255  0.0263 -0.2723
 7912SOL    HW134415   3.177   5.031   2.218 -0.8632  1.1886 -1.3122
 7912SOL    HW234416   3.037   4.952   2.187  0.2835 -1.8815  1.0683
 7913SOL     OW34417   1.169   0.006   0.482  0.1558 -0.2849 -0.2422
 7913SOL    HW134418   1.101  -0.064   0.462  0.0927 -0.7664  1.5654
 7913SOL    HW234419   1.260  -0.035   0.481  0.3444  0.1550 -1.7086
 7914SOL     OW34420   9.940   4.052   0.559 -0.0140 -0.7674  0.0531
 7914SOL    HW134421   9.935   4.137   0.612 -0.8720 -0.3749 -0.6410
 7914SOL    HW234422  10.015   4.059   0.493  0.2096 -0.7258  0.3116
 7915SOL     OW34423   7.869   7.626   2.558 -0.0476  0.3066  0.4365
 7915SOL    HW134424   7.854   7.564   2.482 -2.0733  0.0391  1.0154
 7915SOL    HW234425   7.907   7.576   2.636  1.9149  0.5591 -0.3284
 7916SOL     OW34426   8.683   5.923   0.202 -0.1361  0.5196 -0.3173
 7916SOL    HW134427   8.671   5.843   0.262 -0.5061  0.5487 -0.3537
 7916SOL    HW234428   8.777   5.923   0.166 -1.2719 -2.1866 -3.5931
 7917SOL     OW34429   1.989   5.259   2.405  0.5226  0.0900 -0.1895
 7917SOL    HW134430   1.940   5.224   2.484  2.7322 -0.7625  0.8596
 7917SOL    HW234431   2.059   5.193   2.377  0.1980  0.6616 -2.4591
 7918SOL     OW34432   3.739   6.888   3.190 -0.3399  0.4553 -0.6717
 7918SOL    HW134433   3.830   6.854   3.169  0.1712  1.5987 -0.3698
 7918SOL    HW234434   3.738   6.923   3.284 -1.5488 -1.1001 -0.0873
 7919SOL     OW34435   9.038   5.367   3.746  0.3616 -0.0478  0.9045
 7919SOL    HW134436   9.063   5.271   3.733  4.0951  1.0442 -0.4349
 7919SOL    HW234437   9.004   5.405   3.660 -1.3217 -0.1702  1.4873
 7920SOL     OW34438   8.779   3.231   1.899 -0.3347 -0.7197 -0.4318
 7920SOL    HW134439   8.785   3.271   1.990 -1.7455 -0.4949 -0.4220
 7920SOL    HW234440   8.870   3.222   1.860  0.0964  1.3429  0.0725
 7921SOL     OW34441   4.551   3.987   1.461  0.3934  0.1024  0.0228
 7921SOL    HW134442   4.514   3.902   1.497 -0.2051 -0.0265 -0.9013
 7921SOL    HW234443   4.559   4.054   1.536  1.1059 -0.8322  0.7967
 7922SOL     OW34444   9.825   8.926   1.972  0.7768 -0.3672  0.1272
 7922SOL    HW134445   9.772   9.010   1.969  2.5204  0.7295 -0.7172
 7922SOL    HW234446   9.789   8.861   1.905  0.4143  0.3084 -0.3334
 7923SOL     OW34447   1.813   4.068   3.010  0.2229 -0.1224  0.3378
 7923SOL    HW134448   1.713   4.079   3.007 -0.2301 -3.2026  1.8775
 7923SOL    HW234449   1.843   4.068   3.105  1.6576  0.3418 -0.1089
 7924SOL     OW34450   7.209   7.961   2.598  0.4748 -0.1299  0.5905
 7924SOL    HW134451   7.299   7.921   2.612  0.3164 -0.6397  0.1759
 7924SOL    HW234452   7.141   7.911   2.653  0.3071 -0.3092  0.2234
 7925SOL     OW34453   8.667   1.370   4.030 -0.2888  0.4760  0.0278
 7925SOL    HW134454   8.605   1.327   4.096 -1.4116  1.3691 -0.4480
 7925SOL    HW234455   8.676   1.311   3.950 -0.0342  0.0654  0.3518
 7926SOL     OW34456   0.392   1.429   4.235  0.5570  0.6503  0.1294
 7926SOL    HW134457   0.316   1.375   4.199  0.4415 -0.2797  1.7114
 7926SOL    HW234458   0.459   1.446   4.162  0.2420 -1.0305 -0.5656
 7927SOL     OW34459   7.194   0.040   2.839 -0.2470 -0.1151  0.5683
 7927SOL    HW134460   7.148   0.128   2.850  1.2930  0.5967  1.4451
 7927SOL    HW234461   7.220   0.028   2.743 -2.0342 -0.4275  0.1048
 7928SOL     OW34462   5.161   2.662   0.507 -0.2474 -0.1413 -0.0462
 7928SOL    HW134463   5.221   2.708   0.573 -0.3760  0.9753 -0.7068
 7928SOL    HW234464   5.208   2.652   0.420 -0.5379 -0.4943 -0.1653
 7929SOL     OW34465   0.057   6.552   3.100 -0.1128 -0.1192 -0.0356
 7929SOL    HW134466   0.063   6.475   3.037 -0.4760 -0.5989  0.5061
 7929SOL    HW234467  -0.038   6.562   3.131  0.2347 -0.5346  1.2171
 7930SOL     OW34468   2.016   1.060   1.473  0.0388  0.0622 -0.2630
 7930SOL    HW134469   2.092   1.087   1.533 -1.3607  1.3310  0.9894
 7930SOL    HW234470   2.044   1.069   1.378  1.1273  1.5679  0.1746
 7931SOL     OW34471   9.783   0.157   4.058 -0.1844 -0.2904 -0.4527
 7931SOL    HW134472   9.762   0.205   3.973 -0.9867  0.9022  0.4177
 7931SOL    HW234473   9.700   0.145   4.111  0.5884  0.4446  0.9366
 7932SOL     OW34474   7.886   3.176   0.522 -0.5401 -0.1361 -0.7758
 7932SOL    HW134475   7.814   3.184   0.591 -1.1531  2.7876 -1.7019
 7932SOL    HW234476   7.935   3.090   0.536 -1.2591 -0.0698  2.7109
 7933SOL     OW34477   1.538   1.834   4.401 -0.6871  0.3389 -0.1747
 7933SOL    HW134478   1.535   1.748   4.450 -2.6178  0.6205  0.2463
 7933SOL    HW234479   1.633   1.864   4.390  0.1120 -2.6398 -1.7842
 7934SOL     OW34480   3.955   0.512   2.200 -0.3616  0.4997 -0.6146
 7934SOL    HW134481   3.884   0.579   2.221 -1.8812 -1.2735  0.0501
 7934SOL    HW234482   3.943   0.479   2.107 -2.2232 -1.8900  0.4086
 7935SOL     OW34483   0.295   1.999   0.384 -0.3042 -0.1997  0.1514
 7935SOL    HW134484   0.395   2.006   0.375 -0.3667 -0.1556 -0.5846
 7935SOL    HW234485   0.263   1.918   0.336 -0.7312  0.3526 -0.5142
 7936SOL     OW34486   5.708   8.800   1.896  0.3390  0.2247  0.2463
 7936SOL    HW134487   5.652   8.738   1.951 -1.1673  2.1634  0.9485
 7936SOL    HW234488   5.804   8.786   1.918 -0.1032 -0.6126  1.7181
 7937SOL     OW34489   6.618   8.243   1.990  0.3656  0.6159 -0.4452
 7937SOL    HW134490   6.647   8.149   1.975  0.1620  0.6900 -1.3412
 7937SOL    HW234491   6.691   8.306   1.962  0.6195  0.7289  0.4318
 7938SOL     OW34492   3.337   4.391   4.660 -0.2539 -0.5679 -0.4766
 7938SOL    HW134493   3.399   4.356   4.590  0.1798 -0.2352 -0.2642
 7938SOL    HW234494   3.340   4.332   4.740 -1.1359 -1.2355 -0.9268
 7939SOL     OW34495   3.622   2.529   2.226 -0.2562 -0.8363 -0.2721
 7939SOL    HW134496   3.714   2.534   2.186 -0.1393 -1.0740 -0.0354
 7939SOL    HW234497   3.602   2.614   2.275 -0.9987  0.0769 -2.1166
 7940SOL     OW34498   9.222   8.303   2.022 -0.0016 -0.1816  0.1426
 7940SOL    HW134499   9.290   8.355   2.074  0.6636 -0.8362 -0.0680
 7940SOL    HW234500   9.133   8.347   2.031  0.3391  0.3713  0.8767
 7941SOL     OW34501   3.281   4.739   3.179  0.4125  1.0394 -1.0443
 7941SOL    HW134502   3.294   4.739   3.080  0.9687 -0.3894 -0.9814
 7941SOL    HW234503   3.193   4.696   3.201  1.3674 -0.8269 -0.8033
 7942SOL     OW34504   8.988   0.665   0.711  0.3100 -0.0709  0.1553
 7942SOL    HW134505   9.066   0.638   0.768  0.1981 -0.2857  0.2096
 7942SOL    HW234506   8.925   0.721   0.764  1.3355  1.6389 -0.4188
 7943SOL     OW34507   1.967   3.405   0.680  0.0103  0.6189  0.5564
 7943SOL    HW134508   1.903   3.365   0.615  0.0765  0.7593  0.4064
 7943SOL    HW234509   2.060   3.377   0.658  0.0755  0.9954  0.3485
 7944SOL     OW34510   9.228   4.891   4.128 -0.5518 -0.1432  0.1469
 7944SOL    HW134511   9.289   4.819   4.160  1.9232  0.8854 -2.0448
 7944SOL    HW234512   9.204   4.950   4.205 -1.8618 -2.7093  1.7803
 7945SOL     OW34513   0.996   5.447   0.927 -0.1294  0.0086  0.1030
 7945SOL    HW134514   0.961   5.463   1.019 -0.5912 -2.5035  0.4100
 7945SOL    HW234515   0.951   5.509   0.862 -0.6685  0.9781  1.3804
 7946SOL     OW34516   9.321   1.593   2.602 -0.4562  0.3372 -0.2736
 7946SOL    HW134517   9.229   1.628   2.619 -0.8456 -1.2447  1.0204
 7946SOL    HW234518   9.388   1.650   2.649 -1.0808 -0.6368  1.8503
 7947SOL     OW34519   2.058   6.150   3.930 -0.3319  0.7547 -0.3879
 7947SOL    HW134520   2.008   6.162   4.015  3.0910 -0.2780  1.8531
 7947SOL    HW234521   2.035   6.062   3.890 -0.7981  0.5806  0.2607
 7948SOL     OW34522   9.906   1.945   0.548 -0.2386  0.2320 -0.0923
 7948SOL    HW134523   9.811   1.917   0.562 -0.9783  0.9337 -3.3872
 7948SOL    HW234524   9.913   2.044   0.556  0.3987  0.1248  0.8705
 7949SOL     OW34525   1.418   6.365   0.761  0.0215 -0.1909  0.1703
 7949SOL    HW134526   1.387   6.406   0.847  0.3197 -0.6065  0.4818
 7949SOL    HW234527   1.500   6.412   0.729 -1.3405  1.3840 -1.0385
 7950SOL     OW34528   4.499   1.980   1.598  0.4088  0.3618  0.0583
 7950SOL    HW134529   4.421   2.031   1.633  0.5617  0.3856  0.3600
 7950SOL    HW234530   4.488   1.966   1.499  0.3740  0.9779 -0.0251
 7951SOL     OW34531   8.889   8.069   2.378  0.0576 -0.0402  0.4216
 7951SOL    HW134532   8.970   8.015   2.358 -0.5090 -1.0524  0.8308
 7951SOL    HW234533   8.808   8.011   2.375 -0.2682  0.1216  3.7084
 7952SOL     OW34534   1.318   2.215   2.720 -0.0494  0.2777 -0.2448
 7952SOL    HW134535   1.289   2.120   2.726  1.2024  0.0618  2.7028
 7952SOL    HW234536   1.266   2.270   2.785  0.3887  1.3408 -0.7774
 7953SOL     OW34537   0.469   5.262   2.546  0.2200 -0.0714 -1.0618
 7953SOL    HW134538   0.422   5.231   2.628 -1.2424  1.1231 -1.4399
 7953SOL    HW234539   0.566   5.275   2.566 -0.6553  3.2615  1.3418
 7954SOL     OW34540   4.923   7.466   3.812 -0.3689 -0.3230  0.3507
 7954SOL    HW134541   4.964   7.452   3.722  0.3556  1.7652  0.3388
 7954SOL    HW234542   4.971   7.410   3.880 -0.3856 -1.2680 -0.4001
 7955SOL     OW34543   2.788   6.982   4.189 -0.2146 -0.2914 -0.2472
 7955SOL    HW134544   2.856   6.916   4.155  1.3904  1.6396 -0.8866
 7955SOL    HW234545   2.778   6.971   4.288  0.3670 -1.2083 -0.2851
 7956SOL     OW34546   0.874   6.117   3.309 -0.5149 -0.2373  0.4464
 7956SOL    HW134547   0.895   6.196   3.251  1.2166 -0.4091  0.8008
 7956SOL    HW234548   0.893   6.032   3.259  1.6351 -0.3856  1.4245
 7957SOL     OW34549   9.028   1.539   0.715 -0.2605 -0.2485  0.2855
 7957SOL    HW134550   9.031   1.638   0.708 -0.2835 -0.1683  1.3640
 7957SOL    HW234551   8.937   1.510   0.745 -0.2958 -0.6084 -0.1615
 7958SOL     OW34552   4.720   8.094   3.123  0.4477  0.3754 -0.1472
 7958SOL    HW134553   4.627   8.065   3.146  1.1437 -0.3328  1.8393
 7958SOL    HW234554   4.717   8.184   3.079 -1.2212  0.0333 -0.7972
 7959SOL     OW34555   9.967   3.395   2.254 -0.4317 -0.2068  0.0138
 7959SOL    HW134556   9.945   3.314   2.309 -0.2100 -0.4443 -0.2439
 7959SOL    HW234557  10.009   3.366   2.168  0.2774  0.2161  0.2147
 7960SOL     OW34558   2.213   7.340   0.857 -0.0603 -0.5929  0.2463
 7960SOL    HW134559   2.212   7.336   0.957 -2.0412 -0.6981  0.2389
 7960SOL    HW234560   2.125   7.374   0.825  0.3987 -1.0400 -1.4932
 7961SOL     OW34561   8.357   1.615   3.041  0.1131  0.1401  0.4803
 7961SOL    HW134562   8.435   1.677   3.034  0.3162 -0.2648 -0.9019
 7961SOL    HW234563   8.290   1.635   2.970 -0.0303 -0.9343  0.2962
 7962SOL     OW34564   2.842   8.760   3.152 -0.1462  0.3431 -0.0970
 7962SOL    HW134565   2.821   8.851   3.116  0.4142 -0.2540 -2.0198
 7962SOL    HW234566   2.832   8.692   3.079 -1.1585 -1.2339  1.4639
 7963SOL     OW34567   0.777   2.986   4.537  0.5612 -0.2380  0.1637
 7963SOL    HW134568   0.736   2.917   4.596  0.9152 -0.1580  0.5045
 7963SOL    HW234569   0.708   3.054   4.512 -0.2366 -1.6467 -1.5797
 7964SOL     OW34570   0.219   0.471   0.470 -0.2076  0.8618 -0.2344
 7964SOL    HW134571   0.258   0.459   0.562  1.9777  2.5859 -0.9031
 7964SOL    HW234572   0.171   0.558   0.465  0.5653  1.2511 -1.0164
 7965SOL     OW34573   8.925   7.790   0.120  0.0977 -0.1510  0.0072
 7965SOL    HW134574   8.869   7.861   0.164  0.1334 -0.0897 -0.0443
 7965SOL    HW234575   8.865   7.717   0.087 -0.3033  1.3289 -2.7105
 7966SOL     OW34576   9.241   7.130   1.751  0.1934 -0.3314 -0.4219
 7966SOL    HW134577   9.166   7.082   1.797 -0.0017  1.9160  1.6700
 7966SOL    HW234578   9.325   7.077   1.763 -0.3287 -0.9964  0.4486
 7967SOL     OW34579   8.417   6.128   4.246  0.0249  0.1566 -0.8229
 7967SOL    HW134580   8.479   6.122   4.325 -0.0350 -3.4479 -0.9927
 7967SOL    HW234581   8.324   6.146   4.278  0.5998  2.6474 -0.3916
 7968SOL     OW34582   9.541   7.133   3.239 -0.1511 -0.0070  0.5645
 7968SOL    HW134583   9.634   7.168   3.240 -0.8090  1.8190  0.0195
 7968SOL    HW234584   9.538   7.045   3.286  1.1730  1.6245  3.8511
 7969SOL     OW34585   0.016   5.359   1.919 -0.5720 -0.1703 -0.9303
 7969SOL    HW134586   0.026   5.275   1.865 -2.2572 -0.9963 -0.0140
 7969SOL    HW234587  -0.036   5.426   1.866 -1.0480 -0.4876 -0.8747
 7970SOL     OW34588   0.946   9.333   4.432  0.5884  0.4874 -0.2608
 7970SOL    HW134589   0.847   9.348   4.428  0.6909  0.9486 -1.2432
 7970SOL    HW234590   0.965   9.251   4.485 -0.2951  0.6787  0.3624
 7971SOL     OW34591   2.167   8.733   4.530 -0.5366  0.0518 -0.2074
 7971SOL    HW134592   2.142   8.733   4.433 -0.8414 -0.5833 -0.1327
 7971SOL    HW234593   2.085   8.740   4.585 -0.2954  1.4016  0.0005
 7972SOL     OW34594   4.866   8.646   2.211 -0.3187  0.7553 -0.5860
 7972SOL    HW134595   4.950   8.700   2.216 -0.0595  0.4331 -1.4534
 7972SOL    HW234596   4.837   8.636   2.116 -0.2241 -0.8493 -0.4619
 7973SOL     OW34597   4.483   3.632   2.013  0.4469 -0.5262  0.1733
 7973SOL    HW134598   4.525   3.706   1.960  0.5574 -0.4649  0.3447
 7973SOL    HW234599   4.528   3.626   2.102  1.8229 -2.1085 -0.5911
 7974SOL     OW34600   4.376   7.543   1.507 -0.1730 -0.0480  0.0089
 7974SOL    HW134601   4.432   7.582   1.579 -0.1842  1.1728 -0.6338
 7974SOL    HW234602   4.377   7.603   1.427  0.0174 -1.4759 -1.0941
 7975SOL     OW34603   9.406   5.491   2.575  0.4477  0.1700  0.1177
 7975SOL    HW134604   9.394   5.411   2.634  0.6455 -1.2946 -1.7860
 7975SOL    HW234605   9.330   5.496   2.510  0.6488  1.3051 -0.0313
 7976SOL     OW34606   1.898   2.707   3.476  0.3311  0.2217  0.5552
 7976SOL    HW134607   1.844   2.674   3.554 -0.8721  2.1902  0.5851
 7976SOL    HW234608   1.949   2.631   3.437 -0.8722 -1.2762  1.8082
 7977SOL     OW34609   4.487   3.446   1.100  0.2589  0.2033  0.1195
 7977SOL    HW134610   4.516   3.381   1.169 -0.5924 -0.6033 -0.2660
 7977SOL    HW234611   4.428   3.515   1.141  2.6194  1.7949  0.8849
 7978SOL     OW34612   1.958   0.932   1.182 -0.0723  0.0145  0.0599
 7978SOL    HW134613   1.898   0.929   1.101 -0.8410 -0.0250  0.6252
 7978SOL    HW234614   1.945   0.849   1.236  0.1305  0.2327  0.4450
 7979SOL     OW34615   6.867   9.434   1.993 -0.6264  0.1687 -0.1535
 7979SOL    HW134616   6.919   9.356   1.958 -0.0784  0.1123  0.7674
 7979SOL    HW234617   6.927   9.514   1.998 -0.6279  0.1221  0.8379
 7980SOL     OW34618   9.665   2.581   3.961 -0.5172 -0.9344 -0.0756
 7980SOL    HW134619   9.659   2.550   4.055 -0.0053 -0.2882  0.1753
 7980SOL    HW234620   9.584   2.634   3.937  0.8099  1.7127  1.0538
 7981SOL     OW34621   0.697   9.617   4.562  0.1876  0.2773  0.0108
 7981SOL    HW134622   0.621   9.605   4.626 -0.8545  0.4568 -1.1808
 7981SOL    HW234623   0.736   9.709   4.573 -0.5841  0.6350 -0.2539
 7982SOL     OW34624   0.304   7.498   0.481  0.0046 -0.0074  0.0388
 7982SOL    HW134625   0.232   7.434   0.452  1.4109 -0.3171 -3.0042
 7982SOL    HW234626   0.342   7.468   0.568 -1.6456 -1.3904  0.3240
 7983SOL     OW34627   3.213   8.214   4.717 -0.3590  0.2711 -0.0997
 7983SOL    HW134628   3.272   8.294   4.727  0.0114 -0.0838  0.5993
 7983SOL    HW234629   3.218   8.180   4.623  4.2781 -2.6024  1.0559
 7984SOL     OW34630   3.689   9.708   3.031 -0.4844  0.5784  0.0297
 7984SOL    HW134631   3.668   9.620   3.072  1.3618  0.4327  0.7332
 7984SOL    HW234632   3.684   9.780   3.100  1.7988  0.4507  0.3734
 7985SOL     OW34633   2.080   2.894   1.239 -0.0521  0.1039 -0.4620
 7985SOL    HW134634   2.139   2.919   1.316  0.0951  1.0625 -0.8783
 7985SOL    HW234635   2.012   2.966   1.224  0.3021  0.2165 -1.6041
 7986SOL     OW34636   1.866   0.423   4.365  0.1929  0.2339 -1.0241
 7986SOL    HW134637   1.917   0.508   4.354  0.6363  0.0099 -0.7032
 7986SOL    HW234638   1.886   0.362   4.288  2.6791 -1.0148  0.5430
 7987SOL     OW34639   9.344   9.329   3.979  0.0181  0.3316  0.2173
 7987SOL    HW134640   9.421   9.303   3.920 -0.4924  0.0910 -0.3365
 7987SOL    HW234641   9.259   9.327   3.927 -0.4269  0.1881  0.9454
 7988SOL     OW34642   2.772   3.323   0.131  0.0818  0.1231 -0.1860
 7988SOL    HW134643   2.866   3.292   0.118  0.4164  1.6175 -1.3891
 7988SOL    HW234644   2.768   3.422   0.122 -1.9159 -0.1005 -2.0053
 7989SOL     OW34645   7.792   6.182   2.805  0.4232 -0.4825  0.1006
 7989SOL    HW134646   7.740   6.260   2.840  0.0262 -2.1838  3.5176
 7989SOL    HW234647   7.735   6.129   2.743 -0.7085 -0.3029  0.9735
 7990SOL     OW34648   8.222   2.180   0.675  0.3487  0.4231  0.0103
 7990SOL    HW134649   8.160   2.101   0.675 -0.8154  1.3130  0.3440
 7990SOL    HW234650   8.245   2.204   0.581 -1.3976  1.2769 -0.2210
 7991SOL     OW34651   7.766   0.595   4.725  0.2571 -0.0404 -0.3110
 7991SOL    HW134652   7.830   0.605   4.802  2.5296  1.3524 -2.2886
 7991SOL    HW234653   7.691   0.659   4.735  0.9641  0.6955  0.3692
 7992SOL     OW34654   0.908   8.329   0.894  0.3671 -0.5614  0.4924
 7992SOL    HW134655   0.955   8.349   0.980 -1.0733 -0.3078  1.2382
 7992SOL    HW234656   0.871   8.236   0.897  1.8632 -1.2103 -0.5847
 7993SOL     OW34657   7.764   9.818   0.081 -0.3671 -0.3841  0.7757
 7993SOL    HW134658   7.850   9.771   0.060 -0.3712  0.2655 -0.8043
 7993SOL    HW234659   7.776   9.916   0.064 -1.3805 -0.2770  0.6726
 7994SOL     OW34660   8.859   2.121   2.185  0.5564 -0.3242  0.0260
 7994SOL    HW134661   8.908   2.044   2.144 -0.8962 -0.9167 -0.6293
 7994SOL    HW234662   8.846   2.105   2.282 -1.5491 -1.9123 -0.4784
 7995SOL     OW34663   4.408   9.274   3.977  0.0208  0.3605 -0.4848
 7995SOL    HW134664   4.481   9.339   3.996  0.7811 -0.9689  1.3253
 7995SOL    HW234665   4.321   9.311   4.008  0.3648  0.7521  0.0197
 7996SOL     OW34666   9.567   7.656   3.780  1.0464  0.1579  0.7994
 7996SOL    HW134667   9.575   7.681   3.683 -2.6720 -1.4063  0.0036
 7996SOL    HW234668   9.619   7.572   3.796  3.1698  1.4050  0.6106
 7997SOL     OW34669   0.640   4.540   2.294  0.0073 -0.2621  0.3174
 7997SOL    HW134670   0.570   4.469   2.293 -1.5662  1.2257 -1.8784
 7997SOL    HW234671   0.597   4.629   2.308  1.4341  0.6975 -1.1519
 7998SOL     OW34672   9.358   6.347   1.354 -0.0604 -0.5174 -0.4428
 7998SOL    HW134673   9.329   6.335   1.259 -0.7995  0.9301 -0.4085
 7998SOL    HW234674   9.277   6.357   1.412  0.4374  0.1544  0.1337
 7999SOL     OW34675   3.669   4.644   1.553  0.6268 -0.1795  0.4559
 7999SOL    HW134676   3.588   4.643   1.493  1.7951 -0.3324 -1.1577
 7999SOL    HW234677   3.712   4.554   1.552  2.4688  0.6866 -1.0268
 8000SOL     OW34678   5.394   7.213   2.390  0.0136 -0.1253  0.3888
 8000SOL    HW134679   5.327   7.216   2.316  0.0139 -0.1053  0.3897
 8000SOL    HW234680   5.347   7.190   2.476  0.0838 -0.5936  0.2998
 8001SOL     OW34681   9.541   6.241   0.554 -0.1410  0.6941 -0.1213
 8001SOL    HW134682   9.539   6.311   0.626 -0.2129 -1.9220  2.5314
 8001SOL    HW234683   9.447   6.217   0.528 -0.1515  0.0821  0.4868
 8002SOL     OW34684   8.684   9.932   3.065 -0.5642  0.1442  0.2855
 8002SOL    HW134685   8.699  10.029   3.085 -2.0573  0.9861 -2.3944
 8002SOL    HW234686   8.753   9.900   3.001 -0.5226 -0.3635  0.5813
 8003SOL     OW34687   2.788   9.419   0.729  0.1117 -0.9763  0.0684
 8003SOL    HW134688   2.842   9.354   0.675 -0.1705 -0.4090 -0.9127
 8003SOL    HW234689   2.836   9.439   0.814  1.7623 -0.0545 -1.0283
 8004SOL     OW34690   8.312   4.561   1.938 -0.5249  0.5982 -0.4212
 8004SOL    HW134691   8.233   4.608   1.976 -0.9053 -2.2562  2.5372
 8004SOL    HW234692   8.282   4.496   1.868 -1.0795 -1.7155  1.8941
 8005SOL     OW34693   1.914   2.438   3.347 -0.2574  0.4025 -0.2369
 8005SOL    HW134694   1.858   2.357   3.368  0.4231  0.0438  0.2069
 8005SOL    HW234695   1.902   2.463   3.251  0.5062 -1.0026 -0.7148
 8006SOL     OW34696   8.494   6.235   0.497  0.2782 -0.1625  0.3932
 8006SOL    HW134697   8.443   6.250   0.582 -0.3272  2.6662 -0.4151
 8006SOL    HW234698   8.549   6.316   0.477 -0.3807 -0.3909 -2.4586
 8007SOL     OW34699   0.256   9.322   2.527 -0.6220  0.0014  0.0330
 8007SOL    HW134700   0.255   9.231   2.487 -1.4726  0.1249 -0.2238
 8007SOL    HW234701   0.169   9.341   2.572  0.5597 -0.4262  2.6122
 8008SOL     OW34702   6.740   8.920   3.918  0.1701  0.0019  0.4264
 8008SOL    HW134703   6.708   8.958   4.005  1.0063 -0.2402  0.8453
 8008SOL    HW234704   6.682   8.954   3.844  0.1111  1.0736  0.9454
 8009SOL     OW34705   8.060   3.009   1.016  0.1633  0.4357  0.1167
 8009SOL    HW134706   8.068   2.976   0.922  1.0558  0.7261  0.0873
 8009SOL    HW234707   8.015   3.098   1.016  0.1397  0.4241 -0.0364
 8010SOL     OW34708   2.551   4.201   0.426  0.1352  0.0555 -0.4495
 8010SOL    HW134709   2.528   4.105   0.445 -1.3434  0.5365  0.2329
 8010SOL    HW234710   2.566   4.249   0.512  1.8046  0.2254 -0.8248
 8011SOL     OW34711   8.669   9.245   2.392  0.1571 -0.4061 -0.4000
 8011SOL    HW134712   8.573   9.224   2.377 -0.3426  2.7878 -2.1994
 8011SOL    HW234713   8.683   9.268   2.489 -0.3197 -3.4223  0.4160
 8012SOL     OW34714   2.768   4.262   2.652 -0.8922 -0.0884 -0.6628
 8012SOL    HW134715   2.850   4.245   2.596 -0.9147 -0.2730 -0.6402
 8012SOL    HW234716   2.795   4.290   2.744 -0.8156  3.3779 -1.6613
 8013SOL     OW34717   7.035   7.267   2.810 -0.0103  0.0312  0.2519
 8013SOL    HW134718   7.107   7.272   2.741  0.4788  0.6243  0.7972
 8013SOL    HW234719   6.948   7.246   2.766 -0.0943  2.4635 -0.8097
 8014SOL     OW34720   3.453   4.061   2.235 -0.0780  0.0261 -0.2237
 8014SOL    HW134721   3.528   4.007   2.196 -0.5967 -0.1483 -0.9890
 8014SOL    HW234722   3.438   4.032   2.329 -0.0503 -0.8570 -0.4828
 8015SOL     OW34723   7.682   1.709   2.971 -0.1443  1.0208  0.0790
 8015SOL    HW134724   7.626   1.630   2.948  0.3065  1.2719 -1.9569
 8015SOL    HW234725   7.667   1.734   3.067 -1.0369 -0.9029  0.4575
 8016SOL     OW34726   3.457   8.113   3.342 -0.0545 -0.3044 -0.2265
 8016SOL    HW134727   3.493   8.098   3.435 -1.1984  1.8274  0.5826
 8016SOL    HW234728   3.534   8.114   3.277  0.8642 -0.6566  0.8270
 8017SOL     OW34729   9.710   9.408   2.842  0.4152 -0.0126 -0.2372
 8017SOL    HW134730   9.748   9.426   2.752 -0.8453  0.9174 -0.5965
 8017SOL    HW234731   9.740   9.317   2.873  0.9772 -0.2768 -1.5175
 8018SOL     OW34732   2.809   3.653   1.960  0.0958  0.0011 -0.9911
 8018SOL    HW134733   2.881   3.653   2.029  0.2236  0.9023 -1.1228
 8018SOL    HW234734   2.817   3.571   1.903  0.9383  0.0389 -0.9325
 8019SOL     OW34735   8.331   8.940   1.071 -0.4682  0.3123  0.7610
 8019SOL    HW134736   8.355   9.036   1.053  0.0758  0.3165  1.5130
 8019SOL    HW234737   8.387   8.881   1.013 -1.8563  0.5002 -0.7995
 8020SOL     OW34738   0.063   6.445   1.366 -0.3655  0.8518 -0.1639
 8020SOL    HW134739   0.129   6.383   1.324  0.5618  1.6355  0.1071
 8020SOL    HW234740  -0.020   6.394   1.388  0.5848 -0.4420  0.5708
 8021SOL     OW34741   4.296   8.307   1.794  0.6294  0.4745  0.1293
 8021SOL    HW134742   4.270   8.323   1.699 -0.7860  0.4901  0.5111
 8021SOL    HW234743   4.272   8.387   1.849  0.2857 -0.0294  0.7201
 8022SOL     OW34744   2.409   3.605   4.002  0.0420  0.1546  0.2667
 8022SOL    HW134745   2.437   3.534   4.068  0.0652 -0.0398  0.0497
 8022SOL    HW234746   2.457   3.590   3.916 -0.4332  0.0612  0.0214
 8023SOL     OW34747   5.555   7.335   1.925  0.9971  0.1933  0.4607
 8023SOL    HW134748   5.597   7.400   1.862  1.6261 -1.6362 -1.0471
 8023SOL    HW234749   5.616   7.257   1.938 -0.1624 -0.5637  1.4663
 8024SOL     OW34750   1.019   9.391   3.970 -0.7718  0.0659 -0.7713
 8024SOL    HW134751   0.951   9.361   3.902 -0.6251  0.9744 -1.3269
 8024SOL    HW234752   1.082   9.455   3.927 -0.1373 -0.0363  0.0036
 8025SOL     OW34753   9.217   2.143   0.055 -0.4009  0.4510  0.4095
 8025SOL    HW134754   9.205   2.102   0.145  0.5409  0.3298  0.4848
 8025SOL    HW234755   9.238   2.070  -0.011  0.4372  0.7059  0.3858
 8026SOL     OW34756   2.284   6.984   4.517  0.3119  0.2868  0.1279
 8026SOL    HW134757   2.309   7.014   4.425  0.9772  0.2146  0.2782
 8026SOL    HW234758   2.186   6.970   4.522  0.3957 -0.6825 -0.8602
 8027SOL     OW34759   2.095   3.757   0.849 -1.5135  0.0473 -0.0306
 8027SOL    HW134760   2.187   3.783   0.818 -0.6090 -0.3147  2.2334
 8027SOL    HW234761   2.077   3.799   0.938 -2.7496 -1.5227  0.4832
 8028SOL     OW34762   2.107   4.832   1.962  0.4758 -0.1592  0.3583
 8028SOL    HW134763   2.145   4.825   1.870  0.0668 -0.5637  0.2183
 8028SOL    HW234764   2.174   4.800   2.029  0.4953 -0.5839  0.1356
 8029SOL     OW34765   3.420   8.885   2.202 -0.1762 -0.2051  0.2023
 8029SOL    HW134766   3.494   8.853   2.262  0.5189  0.3560 -0.3385
 8029SOL    HW234767   3.387   8.809   2.147 -0.4975 -0.6192  0.9669
 8030SOL     OW34768   9.061   5.405   0.878  0.2823  0.1796 -0.4748
 8030SOL    HW134769   9.082   5.310   0.852  2.5217  0.4187  0.3417
 8030SOL    HW234770   9.040   5.458   0.795 -0.9726 -1.0186 -0.9337
 8031SOL     OW34771   3.135   3.529   1.196  0.4884 -0.3216 -0.4498
 8031SOL    HW134772   3.234   3.543   1.187  0.5338  0.2525  0.8608
 8031SOL    HW234773   3.111   3.437   1.163  1.4086 -0.3495 -1.0591
 8032SOL     OW34774   9.531   9.296   3.133  0.7562  0.0999 -0.0418
 8032SOL    HW134775   9.583   9.218   3.169 -0.2163 -0.1204  0.9011
 8032SOL    HW234776   9.594   9.371   3.114  1.8662 -1.2810 -2.0221
 8033SOL     OW34777   0.867   5.183   1.006  0.5245 -0.2105  0.0943
 8033SOL    HW134778   0.918   5.099   1.024  2.2164  0.7424 -0.0662
 8033SOL    HW234779   0.932   5.258   0.993 -0.9147  0.8610 -1.0613
 8034SOL     OW34780   4.203   9.289   0.695  0.9620 -0.0425  0.3409
 8034SOL    HW134781   4.128   9.222   0.702  0.0261  0.5770 -2.9021
 8034SOL    HW234782   4.231   9.316   0.787 -0.6727 -2.6304  1.6907
 8035SOL     OW34783   1.668   3.912   1.764  0.3073  0.0507  0.1825
 8035SOL    HW134784   1.653   3.869   1.675  0.0664  0.4800  0.0181
 8035SOL    HW234785   1.766   3.930   1.776  0.4217 -0.6366  0.2949
 8036SOL     OW34786   1.400   0.025   3.441  0.3627  0.1704 -0.6744
 8036SOL    HW134787   1.378   0.015   3.344  1.4187 -0.2140 -0.8775
 8036SOL    HW234788   1.447  -0.058   3.473  1.8253  1.1221 -0.3305
 8037SOL     OW34789   0.477   3.892   1.303  0.2615  0.0596  0.0656
 8037SOL    HW134790   0.467   3.870   1.206 -0.3039 -1.2424  0.4022
 8037SOL    HW234791   0.573   3.909   1.324  0.3392  0.7171 -0.7892
 8038SOL     OW34792   2.462   2.479   1.091 -0.6288  0.0981 -0.3535
 8038SOL    HW134793   2.497   2.541   1.161 -0.3005 -0.1572 -0.2866
 8038SOL    HW234794   2.483   2.514   1.000  0.5088 -0.4483 -0.3078
 8039SOL     OW34795   1.077   5.923   3.432 -0.1546 -0.1724 -1.1465
 8039SOL    HW134796   1.033   6.010   3.410  1.4074  1.6872  2.6451
 8039SOL    HW234797   1.026   5.878   3.506  1.3295 -0.5016 -0.3109
 8040SOL     OW34798   2.957   3.767   3.581  0.6306 -0.1258 -0.1368
 8040SOL    HW134799   2.944   3.670   3.563  2.5670 -0.9444  2.4697
 8040SOL    HW234800   2.983   3.779   3.677 -0.0858  3.0314 -0.2850
 8041SOL     OW34801   3.030   5.986   1.751  0.1267 -0.4295 -0.0453
 8041SOL    HW134802   3.092   5.913   1.781 -1.3556 -1.6313  0.1154
 8041SOL    HW234803   2.964   6.006   1.824  0.0674  0.5706 -0.3673
 8042SOL     OW34804   0.518   5.916   4.519  0.2920 -0.1970 -0.2043
 8042SOL    HW134805   0.518   5.978   4.597  1.9514  0.2225 -0.5094
 8042SOL    HW234806   0.517   5.822   4.550 -0.1592 -0.0218  0.3037
 8043SOL     OW34807   4.815   1.394   4.378  0.1682 -0.0425 -0.1274
 8043SOL    HW134808   4.810   1.457   4.455 -1.4906 -0.3011 -0.0188
 8043SOL    HW234809   4.860   1.439   4.301 -0.8767  1.2365 -0.0059
 8044SOL     OW34810   3.546   9.744   0.079  0.1487  0.1010  0.2715
 8044SOL    HW134811   3.545   9.689   0.163  1.6422 -0.7989 -0.2733
 8044SOL    HW234812   3.532   9.840   0.102 -1.6168 -0.3861  1.3290
 8045SOL     OW34813   1.893   7.333   2.664 -0.6562  0.1831  0.0225
 8045SOL    HW134814   1.809   7.335   2.717 -0.6075 -2.9717  0.3341
 8045SOL    HW234815   1.871   7.311   2.568 -0.3445  1.1808 -0.2802
 8046SOL     OW34816   2.661   4.412   4.710  0.2614 -0.0895 -0.2018
 8046SOL    HW134817   2.596   4.384   4.781 -0.0474  2.0870  0.3841
 8046SOL    HW234818   2.746   4.359   4.721 -0.0946 -0.3906  1.2433
 8047SOL     OW34819   7.425   9.977   2.302 -0.8720  0.8963  0.5940
 8047SOL    HW134820   7.523   9.989   2.318 -0.7908  0.6714  0.2657
 8047SOL    HW234821   7.411   9.900   2.240 -1.2951  0.4394  1.2581
 8048SOL     OW34822   2.608   6.004   0.489 -0.3794  0.1742 -0.3804
 8048SOL    HW134823   2.605   5.989   0.588  0.8368  1.4344 -0.1368
 8048SOL    HW234824   2.703   6.008   0.459 -0.7412  0.1965 -1.5440
 8049SOL     OW34825   2.233   9.009   4.152 -0.0978  0.5499  0.0176
 8049SOL    HW134826   2.301   8.950   4.109  0.3198  1.6668 -0.8645
 8049SOL    HW234827   2.165   9.038   4.084 -0.4412  0.8987  0.5033
 8050SOL     OW34828   3.178   1.982   4.659  0.3366 -0.1085 -0.1223
 8050SOL    HW134829   3.230   1.914   4.608  2.1560 -0.0177  1.5720
 8050SOL    HW234830   3.224   2.002   4.745 -1.2751  1.7310  0.3481
 8051SOL     OW34831   8.703   8.765   2.631  0.0091 -0.0685  0.6596
 8051SOL    HW134832   8.793   8.732   2.661  0.6159  1.6179  0.7986
 8051SOL    HW234833   8.676   8.843   2.687 -1.8661 -0.9687  1.0425
 8052SOL     OW34834   9.428   4.593   3.564 -0.3490  0.0462  0.1058
 8052SOL    HW134835   9.464   4.534   3.492  0.0769 -1.5918  1.6088
 8052SOL    HW234836   9.342   4.635   3.533 -0.0072 -0.3728 -1.4532
 8053SOL     OW34837   7.939   8.354   3.590  0.5142  0.7422 -0.0027
 8053SOL    HW134838   7.958   8.264   3.630  0.8793  0.9776  0.3586
 8053SOL    HW234839   8.025   8.404   3.579  0.1854  1.5420  0.9748
 8054SOL     OW34840   9.441   1.371   1.366 -0.2128  0.1886 -0.0216
 8054SOL    HW134841   9.396   1.458   1.344 -0.2811  0.5808  1.5791
 8054SOL    HW234842   9.399   1.297   1.314 -0.8549  0.9680 -0.6177
 8055SOL     OW34843   0.913   2.222   1.693  0.5602 -0.0108  0.3868
 8055SOL    HW134844   0.832   2.180   1.651  0.7266  0.2150 -0.1713
 8055SOL    HW234845   0.894   2.247   1.788 -0.2357  0.6591  0.0506
 8056SOL     OW34846   0.470   3.435   3.605 -0.0872  0.2425 -0.0549
 8056SOL    HW134847   0.528   3.484   3.669  0.6970 -0.4507 -0.2294
 8056SOL    HW234848   0.507   3.343   3.589 -0.5389  0.2308 -1.1223
 8057SOL     OW34849   2.475   4.822   1.266  0.6243  0.1976  0.3113
 8057SOL    HW134850   2.421   4.811   1.349 -0.7612  0.2679 -0.5723
 8057SOL    HW234851   2.571   4.840   1.291  0.5285 -1.3275  1.8670
 8058SOL     OW34852   4.564   7.228   3.098 -0.3118  0.0921  0.2844
 8058SOL    HW134853   4.614   7.173   3.032 -0.0365  0.2524  0.3590
 8058SOL    HW234854   4.530   7.170   3.172 -2.2416 -0.4044 -0.9533
 8059SOL     OW34855   0.257   0.164   4.755  0.1571  0.0930  0.2360
 8059SOL    HW134856   0.275   0.229   4.830 -3.4038  1.1369  0.2680
 8059SOL    HW234857   0.216   0.213   4.678  2.2608 -1.2765 -1.7996
 8060SOL     OW34858   2.185   5.402   2.127  0.1625  0.4485 -0.0693
 8060SOL    HW134859   2.136   5.464   2.189  0.0281 -1.8116  2.1940
 8060SOL    HW234860   2.118   5.349   2.075  0.2758  1.6394 -1.4603
 8061SOL     OW34861   8.938   4.720   0.822  0.3408  0.0571  0.0029
 8061SOL    HW134862   8.874   4.794   0.805  1.1280  0.4436 -1.4602
 8061SOL    HW234863   8.947   4.704   0.920  0.1122  1.8534  0.3234
 8062SOL     OW34864   3.508   1.741   3.377 -0.2641 -0.0010 -0.4139
 8062SOL    HW134865   3.509   1.760   3.475 -0.8581 -0.5982 -0.2869
 8062SOL    HW234866   3.435   1.795   3.333  0.5344  0.8891 -0.6626
 8063SOL     OW34867   7.516   2.706   0.417 -0.1852  0.3726 -0.0097
 8063SOL    HW134868   7.534   2.800   0.391 -0.1090  0.6691  1.0816
 8063SOL    HW234869   7.480   2.655   0.338 -1.2923  1.5916 -0.3057
 8064SOL     OW34870   1.886   4.763   1.615  0.1066  0.5104  0.6549
 8064SOL    HW134871   1.804   4.803   1.657 -1.3275 -0.8739 -0.7502
 8064SOL    HW234872   1.936   4.710   1.683  1.2083  3.3835  2.1532
 8065SOL     OW34873   1.368   9.268   0.080 -0.1948  0.6178 -0.4222
 8065SOL    HW134874   1.312   9.185   0.082 -0.7852  1.0225  0.0790
 8065SOL    HW234875   1.328   9.334   0.016 -0.4559  1.0218  0.1526
 8066SOL     OW34876   5.074   2.556   2.192 -0.2914  0.4297 -0.3330
 8066SOL    HW134877   5.066   2.612   2.110 -0.0744  0.6996 -0.1717
 8066SOL    HW234878   5.046   2.610   2.272 -0.7846  0.0764 -0.2656
 8067SOL     OW34879   1.015   1.962   2.052 -0.5478  0.5191 -0.0807
 8067SOL    HW134880   0.962   1.882   2.023 -0.5544  0.0433  1.2173
 8067SOL    HW234881   1.112   1.947   2.033 -0.7539  1.0246 -1.6381
 8068SOL     OW34882   1.895   5.743   2.862 -0.1138  0.4696  0.4773
 8068SOL    HW134883   1.916   5.654   2.901 -3.1469  0.5428  2.4592
 8068SOL    HW234884   1.916   5.815   2.928 -0.0815  1.0412 -0.1442
 8069SOL     OW34885   8.872   2.857   3.886  0.3165 -0.9356 -0.2085
 8069SOL    HW134886   8.879   2.940   3.830 -2.0346  0.7451  1.8945
 8069SOL    HW234887   8.871   2.777   3.826  0.8522  0.6410 -2.3820
 8070SOL     OW34888   7.962   0.693   0.137 -0.2056  0.2860  0.1502
 8070SOL    HW134889   7.974   0.786   0.103  0.3689  0.4795  0.8807
 8070SOL    HW234890   8.042   0.638   0.112 -0.3731  0.0846  0.0532
 8071SOL     OW34891   4.469   3.294   1.533  0.2087  0.4253  0.3017
 8071SOL    HW134892   4.501   3.244   1.453  2.7055 -0.4420  1.7790
 8071SOL    HW234893   4.391   3.246   1.574  1.4115 -1.2896  0.6316
 8072SOL     OW34894   1.669   1.644   2.416 -0.6879  0.3895  0.5396
 8072SOL    HW134895   1.737   1.717   2.404 -0.0320 -0.4140 -0.7048
 8072SOL    HW234896   1.584   1.669   2.369 -0.6601  0.6082  0.6056
 8073SOL     OW34897   5.245   9.030   2.307  0.5054 -0.0379 -0.2385
 8073SOL    HW134898   5.307   9.040   2.385  0.6260  2.6837 -0.6441
 8073SOL    HW234899   5.297   9.038   2.222 -0.0717  0.0116 -0.5905
 8074SOL     OW34900   2.341   1.941   3.527 -0.2070  0.2059 -0.0728
 8074SOL    HW134901   2.385   1.913   3.612 -0.3143  2.1415  0.6491
 8074SOL    HW234902   2.408   1.936   3.452  0.3944  0.2244  0.4574
 8075SOL     OW34903   8.982   7.077   2.586  0.1610  0.4052  0.1267
 8075SOL    HW134904   9.072   7.034   2.577 -0.5806 -1.0825 -0.2125
 8075SOL    HW234905   8.911   7.015   2.552 -0.8802  2.0784 -0.8202
 8076SOL     OW34906   7.048   0.672   3.165 -0.2660 -0.0090 -0.0262
 8076SOL    HW134907   6.967   0.681   3.107 -0.8197 -0.1280  0.7204
 8076SOL    HW234908   7.074   0.575   3.171  0.5826  0.1354 -1.1324
 8077SOL     OW34909   0.465   1.511   1.270  0.1035 -0.3436 -0.7995
 8077SOL    HW134910   0.555   1.480   1.301  0.4082  0.0812 -1.2533
 8077SOL    HW234911   0.398   1.439   1.286  0.8313 -1.2934 -1.9920
 8078SOL     OW34912   8.902   4.937   3.407  0.1877  0.1145  0.2080
 8078SOL    HW134913   8.915   4.868   3.478 -0.1443  1.5344  1.6823
 8078SOL    HW234914   8.990   4.977   3.382  0.1839  0.3695  0.5990
 8079SOL     OW34915   4.344   1.307   3.589  0.0285  0.6718  0.1438
 8079SOL    HW134916   4.325   1.401   3.559 -0.1987  1.2369  1.9803
 8079SOL    HW234917   4.381   1.255   3.513  0.3364  2.3067 -0.8599
 8080SOL     OW34918   3.753   4.446   4.617 -0.0638 -0.1894  0.0533
 8080SOL    HW134919   3.778   4.411   4.708  2.4886  0.8390 -0.2208
 8080SOL    HW234920   3.794   4.388   4.547 -1.4871 -0.5890 -0.4633
 8081SOL     OW34921   9.539   1.629   1.871 -0.2874 -0.3957 -0.2870
 8081SOL    HW134922   9.534   1.696   1.945 -1.3055 -1.4280  0.5878
 8081SOL    HW234923   9.607   1.659   1.804 -1.8158  2.2971 -0.7187
 8082SOL     OW34924   2.386   7.283   0.412 -0.0438 -0.3192  0.6771
 8082SOL    HW134925   2.431   7.194   0.403  1.1813  0.0790  2.6517
 8082SOL    HW234926   2.434   7.350   0.355 -2.0199 -1.2542 -2.1951
 8083SOL     OW34927   3.762   7.150   3.490 -0.6985  0.5110 -0.2052
 8083SOL    HW134928   3.687   7.092   3.523 -0.8832 -0.3063 -2.0240
 8083SOL    HW234929   3.782   7.219   3.559 -1.8312 -0.4559  1.1399
 8084SOL     OW34930   2.089   7.157   1.408 -0.3178 -0.2960 -0.4487
 8084SOL    HW134931   2.006   7.205   1.436  0.0061  0.8547 -1.4015
 8084SOL    HW234932   2.067   7.090   1.338 -0.7961 -1.6781  0.9866
 8085SOL     OW34933   3.702   0.832   4.652 -0.4546 -0.2065  0.8268
 8085SOL    HW134934   3.744   0.895   4.586  0.2267 -0.6802  0.8033
 8085SOL    HW234935   3.739   0.850   4.743  0.0736 -0.8652  0.7452
 8086SOL     OW34936   3.921   9.451   0.000  0.3379  0.2629 -0.0708
 8086SOL    HW134937   3.870   9.381  -0.049  0.9807  0.5941 -1.2254
 8086SOL    HW234938   4.000   9.480  -0.054  0.3873  1.4929  0.6191
 8087SOL     OW34939   1.084   1.643   3.466 -0.6657 -0.4146 -0.2861
 8087SOL    HW134940   1.166   1.590   3.489  0.1501  1.5452  1.4415
 8087SOL    HW234941   1.081   1.658   3.367 -0.1841 -2.4741 -0.6351
 8088SOL     OW34942   2.857   8.264   3.643  0.0061 -0.0835 -0.2163
 8088SOL    HW134943   2.936   8.232   3.695 -0.6324  0.8445  1.3582
 8088SOL    HW234944   2.833   8.196   3.573  2.6997  0.0209 -1.2997
 8089SOL     OW34945   0.028   6.174   3.205 -0.1134 -0.4288  0.4273
 8089SOL    HW134946   0.007   6.233   3.128 -0.1746 -0.0097  0.7666
 8089SOL    HW234947   0.120   6.136   3.193 -0.0399 -0.1994  0.2506
 8090SOL     OW34948   2.254   4.480   1.418  0.5246 -0.2303 -0.7783
 8090SOL    HW134949   2.340   4.505   1.463  0.6910 -1.1257 -0.5885
 8090SOL    HW234950   2.249   4.522   1.328  0.4069  1.2007 -0.1228
 8091SOL     OW34951   3.673   4.973   1.819 -0.5737 -0.6500  0.3077
 8091SOL    HW134952   3.722   5.060   1.822 -0.8371 -0.5304  1.2555
 8091SOL    HW234953   3.602   4.977   1.749  1.4190 -1.1803 -1.7969
 8092SOL     OW34954   2.664   9.821   3.848  0.1948  0.3282  0.0156
 8092SOL    HW134955   2.621   9.742   3.805 -0.8395  0.0646  1.5062
 8092SOL    HW234956   2.661   9.899   3.785  2.2197 -1.0646 -1.9053
 8093SOL     OW34957   9.308   3.612   3.337  0.2738  0.0459 -0.6527
 8093SOL    HW134958   9.376   3.639   3.269 -0.1472 -1.8503 -1.8734
 8093SOL    HW234959   9.221   3.657   3.317  0.2058 -0.3553 -1.2742
 8094SOL     OW34960   9.370   1.080   3.002 -0.1297 -0.6201 -0.0178
 8094SOL    HW134961   9.285   1.108   3.046  0.6043  2.1046 -0.2802
 8094SOL    HW234962   9.353   1.064   2.905 -0.2742  0.2365 -0.1365
 8095SOL     OW34963   4.140   1.272   3.785  0.1289 -0.3723 -0.3908
 8095SOL    HW134964   4.173   1.319   3.867  1.5447 -0.6319 -0.7901
 8095SOL    HW234965   4.215   1.266   3.719 -1.1245  0.1739 -1.8576
 8096SOL     OW34966   6.819   0.435   2.819 -0.2176  0.0422 -0.0486
 8096SOL    HW134967   6.789   0.369   2.888 -1.2355  1.2059  0.6382
 8096SOL    HW234968   6.765   0.423   2.736  0.9208 -1.2748 -0.6104
 8097SOL     OW34969   0.368   9.882   3.432 -0.2396  0.1002 -0.2957
 8097SOL    HW134970   0.312   9.831   3.497  1.5386 -1.3968  0.1082
 8097SOL    HW234971   0.433   9.940   3.482 -1.0080  1.3798 -0.7551
 8098SOL     OW34972   1.467   0.580   3.519  0.4535 -0.0205 -0.2259
 8098SOL    HW134973   1.383   0.633   3.534  0.9864  0.4270  1.2750
 8098SOL    HW234974   1.459   0.492   3.566  0.0536 -0.8007 -1.7209
 8099SOL     OW34975   8.682   2.218   1.421  0.0656  0.1529 -0.7939
 8099SOL    HW134976   8.763   2.223   1.364  1.4642 -0.3168  1.0905
 8099SOL    HW234977   8.675   2.127   1.461 -1.2079  0.2968 -0.6666
 8100SOL     OW34978   0.720   5.617   2.357  0.3726  0.2617  0.3891
 8100SOL    HW134979   0.791   5.573   2.301 -0.6378 -0.3439 -0.4226
 8100SOL    HW234980   0.763   5.663   2.434  1.7959  1.1603 -0.9107
 8101SOL     OW34981   2.445   0.857   3.179 -0.3967 -0.3436 -0.2704
 8101SOL    HW134982   2.431   0.809   3.092 -0.2186 -2.5917  0.8975
 8101SOL    HW234983   2.534   0.902   3.178 -1.6392  2.1772 -2.3722
 8102SOL     OW34984   9.706   6.986   0.562 -0.2132  0.1430 -0.3085
 8102SOL    HW134985   9.671   6.925   0.632  0.9215 -0.4072 -0.2111
 8102SOL    HW234986   9.715   6.937   0.476  0.7717  0.1343 -0.2107
 8103SOL     OW34987   9.462   2.784   4.100  0.0277 -0.0694  0.1072
 8103SOL    HW134988   9.548   2.805   4.144 -0.5468 -0.5879  1.5077
 8103SOL    HW234989   9.415   2.711   4.150 -1.5791  0.7326 -0.1789
 8104SOL     OW34990   9.245   1.735   0.471 -0.2041 -0.3127 -0.1264
 8104SOL    HW134991   9.232   1.747   0.372  0.5358  1.2118 -0.0630
 8104SOL    HW234992   9.272   1.641   0.490 -0.1209 -0.5588 -1.4035
 8105SOL     OW34993   5.129   2.282   2.180 -0.2742  0.1763 -0.1252
 8105SOL    HW134994   5.132   2.381   2.192  0.2098  0.3265 -1.4126
 8105SOL    HW234995   5.211   2.252   2.130 -2.4250 -0.2900 -3.5789
 8106SOL     OW34996   9.887   0.382   4.204  0.6505  0.0416  0.0377
 8106SOL    HW134997   9.803   0.418   4.246  0.1237  1.4361 -2.1070
 8106SOL    HW234998   9.874   0.286   4.180 -0.5630  0.4156 -0.8355
 8107SOL     OW34999   2.783   6.920   4.459 -0.9066 -0.2894  0.2966
 8107SOL    HW135000   2.812   6.825   4.452  1.5400  0.5335 -1.6069
 8107SOL    HW235001   2.863   6.979   4.469 -2.2670  1.7039 -0.1024
 8108SOL     OW35002   3.726   1.306   2.295 -0.1744 -0.1526  0.2960
 8108SOL    HW135003   3.767   1.397   2.296 -1.2172  0.3116  0.8112
 8108SOL    HW235004   3.680   1.288   2.382 -0.7120 -0.8328 -0.1188
 8109SOL     OW35005   9.095   5.002   1.356  0.3947 -0.0854 -0.6872
 8109SOL    HW135006   9.018   4.941   1.338  1.1795 -1.4220  0.4446
 8109SOL    HW235007   9.076   5.057   1.438  1.1995 -1.3911  0.3974
 8110SOL     OW35008   8.416   2.570   0.592 -0.4412  0.0024 -0.5719
 8110SOL    HW135009   8.321   2.576   0.563 -0.9953  0.5013  1.2678
 8110SOL    HW235010   8.453   2.479   0.569 -1.4951 -0.3626 -0.8386
 8111SOL     OW35011   8.828   7.845   1.333  0.1735 -0.6025  0.2980
 8111SOL    HW135012   8.857   7.749   1.332  1.3151 -0.2763  1.1408
 8111SOL    HW235013   8.907   7.903   1.318 -0.5451  0.2158 -0.3660
 8112SOL     OW35014   8.869   0.842   3.089 -0.1403 -0.6273 -0.6114
 8112SOL    HW135015   8.963   0.814   3.111 -0.0917  0.1303  0.1558
 8112SOL    HW235016   8.870   0.903   3.010  0.2500  1.1751  0.7523
 8113SOL     OW35017   0.426   4.569   3.416  0.1640  0.2560  0.4295
 8113SOL    HW135018   0.393   4.567   3.321 -0.1841 -3.8162  0.5471
 8113SOL    HW235019   0.517   4.528   3.420  1.5562  3.3597  1.4358
 8114SOL     OW35020   9.920   5.137   0.703 -0.7407  0.5213  0.8639
 8114SOL    HW135021   9.958   5.045   0.713 -1.2782  0.4525  2.4669
 8114SOL    HW235022   9.982   5.193   0.649 -0.2227 -0.6726  0.1952
 8115SOL     OW35023   3.631   9.927   4.065  0.0944  0.1292  0.4666
 8115SOL    HW135024   3.605   9.905   4.159 -1.1502  0.3238  0.1765
 8115SOL    HW235025   3.600   9.853   4.004  1.8441 -0.5175  0.3341
 8116SOL     OW35026   1.396   2.423   2.550  0.2389  0.4191 -0.1057
 8116SOL    HW135027   1.375   2.334   2.591 -0.2052  1.4438  1.9737
 8116SOL    HW235028   1.311   2.476   2.541  0.5409  0.7538 -1.0527
 8117SOL     OW35029   8.529   0.716   1.982 -0.1272 -0.0920 -0.0721
 8117SOL    HW135030   8.472   0.689   2.060  1.4502 -1.7271  0.5676
 8117SOL    HW235031   8.496   0.669   1.900 -0.9953  0.6219 -0.1393
 8118SOL     OW35032   4.423   3.509   3.095  0.2610 -0.4342 -0.1769
 8118SOL    HW135033   4.359   3.433   3.105  1.1736 -1.5369 -2.3676
 8118SOL    HW235034   4.386   3.576   3.030  0.8468 -0.5681 -0.6547
 8119SOL     OW35035   0.631   6.366   2.761 -0.2473 -0.2126 -0.2446
 8119SOL    HW135036   0.594   6.286   2.808 -0.0413 -0.7501 -0.9734
 8119SOL    HW235037   0.702   6.336   2.697  1.3327  0.7841  1.0171
 8120SOL     OW35038   0.533   2.359   3.282 -0.1335  0.1660  0.3267
 8120SOL    HW135039   0.630   2.356   3.259 -1.1701  0.8181 -4.8105
 8120SOL    HW235040   0.506   2.453   3.302 -0.3175  0.5575 -1.6313
 8121SOL     OW35041   3.609   0.190   1.058  0.1236  0.2837  0.2143
 8121SOL    HW135042   3.535   0.172   1.123  0.3142  1.7687  0.8527
 8121SOL    HW235043   3.581   0.264   0.996  0.5256 -0.1145 -0.4511
 8122SOL     OW35044   0.716   6.464   0.160  0.2526  0.3499  0.1036
 8122SOL    HW135045   0.780   6.497   0.090 -0.6592  1.2489 -0.3100
 8122SOL    HW235046   0.691   6.369   0.140  2.6908 -0.5594  1.1606
 8123SOL     OW35047   8.354   5.323   1.480  0.1015  0.2754  0.3495
 8123SOL    HW135048   8.284   5.393   1.465  1.2902  1.2523 -0.7730
 8123SOL    HW235049   8.445   5.363   1.463  0.7328 -1.8093 -1.2716
 8124SOL     OW35050   8.660   3.556   2.203 -0.7477 -0.5215 -0.1879
 8124SOL    HW135051   8.700   3.465   2.194 -0.3045 -0.4151  0.7110
 8124SOL    HW235052   8.611   3.578   2.118  1.2602 -0.5522 -1.4005
 8125SOL     OW35053   7.712   9.634   0.834  0.5092  0.2283 -0.0298
 8125SOL    HW135054   7.625   9.612   0.788  0.1108  1.2012  0.2385
 8125SOL    HW235055   7.720   9.580   0.918 -0.1861  0.6620  0.3243
 8126SOL     OW35056   9.297   8.832   3.788 -0.0407  0.0345 -0.1836
 8126SOL    HW135057   9.235   8.776   3.733 -0.2865  1.2467 -1.1548
 8126SOL    HW235058   9.278   8.928   3.772  0.8535  0.4116  0.9439
 8127SOL     OW35059   4.075   1.045   3.338  0.0757  0.0181 -0.1808
 8127SOL    HW135060   4.170   1.025   3.313  0.2386  0.6741 -0.1046
 8127SOL    HW235061   4.060   1.022   3.434  0.6424  1.5474  0.2851
 8128SOL     OW35062   8.579   5.203   3.153  0.6671 -0.4747 -0.2677
 8128SOL    HW135063   8.538   5.286   3.191  1.6253  1.2217 -2.8055
 8128SOL    HW235064   8.609   5.143   3.227 -1.5450  0.6875  1.5940
 8129SOL     OW35065   9.647   5.411   0.038  0.3563  0.0013 -0.5476
 8129SOL    HW135066   9.699   5.376   0.115 -1.3247 -0.7628  0.2834
 8129SOL    HW235067   9.573   5.346   0.016  0.5879  0.3855 -2.5510
 8130SOL     OW35068   1.689   4.941   2.510  0.4521 -1.1670  0.8729
 8130SOL    HW135069   1.732   4.860   2.549 -0.7453 -2.0169  0.4579
 8130SOL    HW235070   1.674   4.927   2.412  2.4964  0.5409  0.2741
 8131SOL     OW35071   3.849   5.028   3.762 -0.1509 -0.1600 -0.4782
 8131SOL    HW135072   3.796   4.958   3.715 -2.2922  1.0035  0.1748
 8131SOL    HW235073   3.881   4.992   3.850  0.2907 -0.8998 -0.9316
 8132SOL     OW35074   9.746   0.305   3.310  0.3476 -0.4813 -0.6573
 8132SOL    HW135075   9.833   0.256   3.302  1.9526  2.1241 -0.1339
 8132SOL    HW235076   9.741   0.349   3.399 -2.1329 -1.6628 -0.1864
 8133SOL     OW35077   9.733   8.247   4.283  0.3898 -0.2212 -0.1209
 8133SOL    HW135078   9.728   8.149   4.304 -0.4464 -0.2381 -0.3669
 8133SOL    HW235079   9.817   8.265   4.231  1.2820 -0.5590  1.1793
 8134SOL     OW35080   3.595   0.020   0.801  0.3741  0.0185  0.0599
 8134SOL    HW135081   3.581   0.088   0.872 -1.4119 -0.3752  0.0951
 8134SOL    HW235082   3.655  -0.053   0.836  1.3765  0.9779  0.3813
 8135SOL     OW35083   2.067   8.388   2.384 -0.1103 -0.3250 -0.4268
 8135SOL    HW135084   1.972   8.392   2.414  0.8428  3.0418  2.4458
 8135SOL    HW235085   2.084   8.457   2.314  0.3324 -0.6575 -0.6565
 8136SOL     OW35086   2.849   1.200   2.153 -0.2293  0.4819 -0.0988
 8136SOL    HW135087   2.781   1.263   2.114  0.3390  1.7673  0.9802
 8136SOL    HW235088   2.843   1.200   2.252 -0.2613 -1.2374 -0.0704
 8137SOL     OW35089   1.930   4.005   1.810  0.1119 -0.6931 -0.2338
 8137SOL    HW135090   1.959   3.957   1.893  1.4629 -0.8856 -0.7883
 8137SOL    HW235091   1.986   3.974   1.733 -0.0505  0.6439 -0.9062
 8138SOL     OW35092   8.037   3.175   4.687  0.3336 -0.0523 -0.8064
 8138SOL    HW135093   8.063   3.090   4.642 -0.0821 -0.0403 -1.0787
 8138SOL    HW235094   7.937   3.179   4.694  0.3558  0.3731 -0.7196
 8139SOL     OW35095   8.333   6.832   0.960  0.1489 -0.1622  0.0463
 8139SOL    HW135096   8.280   6.915   0.947 -1.9589 -1.5468 -0.6140
 8139SOL    HW235097   8.395   6.819   0.882 -1.1093 -0.3239 -0.9440
 8140SOL     OW35098   7.424   1.586   3.037 -0.2481 -0.0848  0.0334
 8140SOL    HW135099   7.403   1.654   3.108 -2.0982 -0.7412  0.1521
 8140SOL    HW235100   7.457   1.502   3.079  1.7202  0.6080 -0.0934
 8141SOL     OW35101   8.982   4.538   4.309 -0.5281 -0.1144  0.2428
 8141SOL    HW135102   8.979   4.620   4.367 -1.3594  1.6331 -2.1787
 8141SOL    HW235103   8.935   4.463   4.356 -0.8765  1.1408  1.9795
 8142SOL     OW35104   1.431   6.267   2.528 -0.1853 -0.0201 -0.0059
 8142SOL    HW135105   1.368   6.271   2.451 -0.9364  2.6887  0.6932
 8142SOL    HW235106   1.523   6.249   2.495 -0.1025  3.2936 -1.8449
 8143SOL     OW35107   1.108   8.548   0.330  0.0253 -0.0504 -0.5046
 8143SOL    HW135108   1.084   8.641   0.301  0.1393 -0.5733 -2.3643
 8143SOL    HW235109   1.206   8.545   0.353 -0.1107  0.4273  0.1352
 8144SOL     OW35110   0.746   7.881   3.531  0.4457  0.3259 -0.1896
 8144SOL    HW135111   0.703   7.952   3.475  1.2256  2.0494  1.3546
 8144SOL    HW235112   0.839   7.866   3.498  0.8934  1.3156  0.5989
 8145SOL     OW35113   3.208   9.293   0.854  0.1302  0.0694 -0.3109
 8145SOL    HW135114   3.166   9.209   0.820  0.0086 -0.3056  0.7366
 8145SOL    HW235115   3.300   9.303   0.815  0.7496 -1.3449  0.7034
 8146SOL     OW35116   2.517   9.580   4.548  0.0061 -0.1697 -0.3050
 8146SOL    HW135117   2.586   9.619   4.487  0.5128  0.1063  0.4414
 8146SOL    HW235118   2.464   9.511   4.498  2.2646 -1.9761 -0.2716
 8147SOL     OW35119   9.309   4.568   0.905 -0.1697 -0.8221 -0.2131
 8147SOL    HW135120   9.290   4.497   0.974  2.4168 -0.7075  0.6736
 8147SOL    HW235121   9.382   4.536   0.844 -0.2317  0.3700 -0.9165
 8148SOL     OW35122   9.707   8.174   2.449  0.1165 -0.5658  0.1444
 8148SOL    HW135123   9.744   8.267   2.448  1.0129 -0.9210 -0.5804
 8148SOL    HW235124   9.651   8.159   2.368  0.2839 -0.7804  0.0675
 8149SOL     OW35125   0.642   4.756   1.753  0.4017 -0.0895 -0.6062
 8149SOL    HW135126   0.704   4.683   1.781 -0.8338 -0.3816  1.4207
 8149SOL    HW235127   0.691   4.819   1.692  2.3327 -0.9565 -0.0016
 8150SOL     OW35128   7.670   2.773   0.024  0.2778 -0.3841  0.2316
 8150SOL    HW135129   7.727   2.855   0.014  0.8385 -1.1023 -2.8970
 8150SOL    HW235130   7.727   2.696   0.052 -0.1094  0.0852  2.3674
 8151SOL     OW35131   2.635   7.533   4.375  0.5091  0.2930 -0.1751
 8151SOL    HW135132   2.551   7.544   4.429 -0.4611  1.0116 -1.8082
 8151SOL    HW235133   2.640   7.439   4.340 -1.1274  1.0098 -2.4878
 8152SOL     OW35134   8.765   2.031   3.926 -0.2646 -0.3531  0.0557
 8152SOL    HW135135   8.817   1.958   3.971 -0.1055  0.4636  1.2304
 8152SOL    HW235136   8.668   2.021   3.949 -0.1527  0.1955  0.7566
 8153SOL     OW35137   1.847   8.288   2.555 -0.1930  0.7674 -0.0325
 8153SOL    HW135138   1.760   8.336   2.554  0.9125  2.8140 -2.2748
 8153SOL    HW235139   1.841   8.206   2.498 -0.0287  2.1089 -2.0120
 8154SOL     OW35140   9.233   7.327   0.167  0.0229  0.1689  0.1538
 8154SOL    HW135141   9.203   7.366   0.080 -0.7027 -3.2281 -1.1724
 8154SOL    HW235142   9.156   7.324   0.231 -0.6757 -1.7235 -0.7425
 8155SOL     OW35143   2.491   7.019   0.688 -0.0898 -0.0681  0.4024
 8155SOL    HW135144   2.543   7.103   0.698 -0.3323  0.3250 -1.5029
 8155SOL    HW235145   2.399   7.031   0.727 -0.1247  0.5455  0.1204
 8156SOL     OW35146   4.514   2.451   1.447 -0.4501 -0.0140 -0.2008
 8156SOL    HW135147   4.598   2.475   1.400  0.0196 -1.4109 -0.0864
 8156SOL    HW235148   4.438   2.453   1.382 -0.5053  2.0842 -0.1300
 8157SOL     OW35149   5.214   0.016   3.801  0.2213 -0.3946 -0.2334
 8157SOL    HW135150   5.250   0.100   3.841  2.5526 -1.4821  0.0133
 8157SOL    HW235151   5.151  -0.027   3.866  1.4066 -0.4210  0.9309
 8158SOL     OW35152   4.015   1.867   1.661 -0.2343  0.2481  0.4537
 8158SOL    HW135153   4.003   1.825   1.751  2.1953 -0.6652  0.4083
 8158SOL    HW235154   4.090   1.821   1.613  0.2966  2.4991 -0.9586
 8159SOL     OW35155   9.142   1.280   2.886 -0.2293  0.2654  0.0826
 8159SOL    HW135156   9.074   1.351   2.903 -0.4133 -0.0091  0.4987
 8159SOL    HW235157   9.234   1.318   2.899 -0.3368  0.3436  0.6262
 8160SOL     OW35158   3.826   9.994   3.597 -0.2437 -0.6019  0.2903
 8160SOL    HW135159   3.872  10.037   3.520  0.6040 -0.3392  0.9240
 8160SOL    HW235160   3.764   9.923   3.565  0.6817 -1.0164 -0.5820
 8161SOL     OW35161   3.471   4.675   3.783 -0.1603 -0.3554  0.2207
 8161SOL    HW135162   3.399   4.744   3.780 -0.8491 -1.0420  0.7665
 8161SOL    HW235163   3.430   4.584   3.792  0.7625 -0.7687  0.3365
 8162SOL     OW35164   7.255   4.525   4.693  0.0420 -0.1595 -0.4222
 8162SOL    HW135165   7.178   4.530   4.757  0.5170 -1.3097  0.2595
 8162SOL    HW235166   7.340   4.510   4.744  1.1391  3.6637 -0.9131
 8163SOL     OW35167   9.423   5.596   1.241  0.4959  0.8888  0.3896
 8163SOL    HW135168   9.427   5.545   1.155 -2.6455 -1.1661  1.3643
 8163SOL    HW235169   9.476   5.547   1.310 -0.4234  0.2687  0.6683
 8164SOL     OW35170   7.949   0.093   1.054  0.3622  0.2761 -0.4286
 8164SOL    HW135171   7.898   0.173   1.020  1.3890  0.6499 -1.0958
 8164SOL    HW235172   7.895   0.048   1.126 -0.8488  0.7451 -1.0263
 8165SOL     OW35173   1.489   3.378   2.116 -0.3510  0.2063  0.3637
 8165SOL    HW135174   1.450   3.320   2.044 -2.0737  1.5576  0.1581
 8165SOL    HW235175   1.467   3.339   2.205  1.1012 -1.0480  0.1876
 8166SOL     OW35176   9.096   1.315   0.193  0.5974 -0.4324 -0.2707
 8166SOL    HW135177   9.161   1.262   0.139  1.6958 -0.3849  1.0107
 8166SOL    HW235178   9.053   1.256   0.261  1.0041  0.0725  0.4215
 8167SOL     OW35179   5.074   0.680   3.778 -0.2758 -0.2651  0.2678
 8167SOL    HW135180   5.066   0.665   3.680 -0.0366  0.7040  0.0962
 8167SOL    HW235181   5.000   0.740   3.809  0.3050  0.3415  0.4820
 8168SOL     OW35182   2.265   5.342   2.568 -0.1109 -0.3864  0.0352
 8168SOL    HW135183   2.309   5.276   2.629  1.2582 -0.3607 -0.9003
 8168SOL    HW235184   2.193   5.391   2.617  0.2020 -1.1825  1.2934
 8169SOL     OW35185   3.698   1.863   0.181  0.1992 -0.5143 -0.3580
 8169SOL    HW135186   3.733   1.886   0.090 -0.1502  0.5118 -0.2469
 8169SOL    HW235187   3.775   1.842   0.241  0.4686 -0.6268 -0.7385
 8170SOL     OW35188   3.249   3.327   3.762  0.2786 -0.0230  0.4067
 8170SOL    HW135189   3.238   3.413   3.811  1.2415 -0.0873  0.7492
 8170SOL    HW235190   3.316   3.339   3.689  0.4633 -0.4946  0.4934
 8171SOL     OW35191   9.246   7.904   3.202  0.3630 -0.3046  0.1433
 8171SOL    HW135192   9.297   7.949   3.129  0.2202  1.4385  1.0874
 8171SOL    HW235193   9.149   7.900   3.178  0.1509  1.2136  0.6528
 8172SOL     OW35194   1.242   4.884   2.207 -0.0634  0.4611  0.1665
 8172SOL    HW135195   1.151   4.906   2.173  0.1017 -0.0300 -0.6102
 8172SOL    HW235196   1.309   4.898   2.135  0.1322 -1.8947 -0.1757
 8173SOL     OW35197   2.000   4.091   2.296  0.3402  0.2666  0.1072
 8173SOL    HW135198   1.908   4.114   2.329 -1.9182 -2.8745 -3.5255
 8173SOL    HW235199   2.044   4.028   2.360 -1.7304 -1.4328 -0.0860
 8174SOL     OW35200   2.242   9.038   3.840  0.7962  1.2587 -0.4765
 8174SOL    HW135201   2.145   9.060   3.848  0.5507 -0.3033  1.0527
 8174SOL    HW235202   2.255   8.968   3.770  0.7573  0.9564 -0.1764
 8175SOL     OW35203   3.846   1.085   3.590  0.5293  0.3185  0.1428
 8175SOL    HW135204   3.883   1.176   3.571 -1.0060  1.1820  1.1261
 8175SOL    HW235205   3.747   1.091   3.599  0.5620 -1.1451  1.8534
 8176SOL     OW35206   2.496   1.272   1.099 -0.3511  0.0279 -0.0183
 8176SOL    HW135207   2.593   1.291   1.084 -0.1496 -0.5049  0.5749
 8176SOL    HW235208   2.464   1.322   1.179 -0.5530  0.1602 -0.1810
 8177SOL     OW35209   2.464   5.230   3.277  0.0142 -0.0458  0.7187
 8177SOL    HW135210   2.391   5.185   3.327 -0.0884 -0.1017  0.5191
 8177SOL    HW235211   2.503   5.304   3.333  1.0431 -1.1933  1.5566
 8178SOL     OW35212   9.970   3.356   0.001 -0.2297 -0.1604 -0.3855
 8178SOL    HW135213  10.041   3.378   0.068 -0.3170  0.7349 -0.5794
 8178SOL    HW235214   9.881   3.357   0.046 -0.0560 -2.1771  0.0589
 8179SOL     OW35215   3.570   2.219   4.504  0.2970  0.2483  0.7708
 8179SOL    HW135216   3.533   2.197   4.414 -0.3422 -1.4956  1.4510
 8179SOL    HW235217   3.557   2.317   4.522 -3.6387 -0.2250  0.8339
 8180SOL     OW35218   7.604   8.481   0.890  0.2203 -0.4945 -0.2830
 8180SOL    HW135219   7.565   8.541   0.960  0.4002 -0.0436 -0.5666
 8180SOL    HW235220   7.617   8.532   0.805  1.2939 -0.6588 -0.2337
 8181SOL     OW35221   2.204   1.866   2.601 -0.2472  0.1177 -0.1669
 8181SOL    HW135222   2.259   1.783   2.615 -0.1765  0.4015  1.3768
 8181SOL    HW235223   2.107   1.844   2.615 -0.1662  0.4326  0.9280
 8182SOL     OW35224   8.636   6.387   1.988 -0.0271  0.4600  0.3549
 8182SOL    HW135225   8.673   6.409   1.897 -0.1916 -0.8340 -0.0358
 8182SOL    HW235226   8.688   6.436   2.057  1.3791 -0.0509 -0.3128
 8183SOL     OW35227   8.193   3.362   3.303  0.1647  0.1831 -1.0850
 8183SOL    HW135228   8.255   3.364   3.382 -0.3657  0.8681 -0.6806
 8183SOL    HW235229   8.126   3.436   3.311 -0.4981 -0.3435 -1.6859
 8184SOL     OW35230   3.982   7.418   4.777  0.1881 -0.6891 -0.7884
 8184SOL    HW135231   3.901   7.449   4.727 -0.6078 -2.8304 -0.8420
 8184SOL    HW235232   4.049   7.493   4.780 -0.4734  0.0718 -3.4970
 8185SOL     OW35233   9.422   9.542   0.701  0.0739 -0.0797  0.3267
 8185SOL    HW135234   9.337   9.550   0.752  0.8932 -0.6470  1.8024
 8185SOL    HW235235   9.497   9.578   0.755  0.8924 -0.2744 -0.6646
 8186SOL     OW35236   3.285   9.389   3.811  0.6892  0.2640  0.3828
 8186SOL    HW135237   3.283   9.297   3.773  0.0033 -0.1441  1.3809
 8186SOL    HW235238   3.205   9.403   3.869 -0.0933  2.0553 -1.0575
 8187SOL     OW35239   4.378   6.214   2.546  0.4539 -1.1181 -0.6067
 8187SOL    HW135240   4.401   6.267   2.627 -1.8708  0.4353 -0.9186
 8187SOL    HW235241   4.342   6.124   2.573 -0.5325 -0.5165  0.1016
 8188SOL     OW35242   4.050   2.601   3.906 -0.0820  0.5858  0.2798
 8188SOL    HW135243   4.047   2.526   3.972 -1.2325 -1.1309 -1.6667
 8188SOL    HW235244   4.144   2.632   3.894  0.5496 -1.3228  0.2506
 8189SOL     OW35245   0.867   8.859   2.798 -0.1430  0.5649  0.1123
 8189SOL    HW135246   0.920   8.938   2.827 -1.2864  1.0149  1.0322
 8189SOL    HW235247   0.926   8.778   2.795  1.1937  1.5683 -1.5148
 8190SOL     OW35248   0.916   4.523   1.472 -0.1274  0.1337 -0.1037
 8190SOL    HW135249   0.820   4.509   1.449  0.3027 -1.9862 -0.7514
 8190SOL    HW235250   0.959   4.435   1.488  1.8084  1.0425 -0.1927
 8191SOL     OW35251   1.464   3.973   2.805 -0.0634 -0.1608  0.1019
 8191SOL    HW135252   1.456   4.021   2.718  2.5642 -0.7284 -0.4941
 8191SOL    HW235253   1.464   4.039   2.880  1.4087  0.6213 -0.5722
 8192SOL     OW35254   1.394   9.524   1.307  0.3451  0.6438  0.4938
 8192SOL    HW135255   1.396   9.620   1.280 -2.0341 -0.0613 -2.4163
 8192SOL    HW235256   1.474   9.477   1.268  0.3815  0.9885  0.1541
 8193SOL     OW35257   3.589   1.557   4.585  0.4133  0.3877  1.0714
 8193SOL    HW135258   3.534   1.487   4.540  1.6113 -0.4240  0.8450
 8193SOL    HW235259   3.530   1.634   4.611 -0.6725 -0.0839  0.0726
 8194SOL     OW35260   1.268   4.333   1.820  0.3381 -0.6191 -0.0859
 8194SOL    HW135261   1.290   4.389   1.900 -0.1292 -0.5093 -0.0298
 8194SOL    HW235262   1.344   4.333   1.756  0.5377 -0.3405  0.1539
 8195SOL     OW35263   8.376   7.470   4.476 -0.1964  0.0566 -0.5347
 8195SOL    HW135264   8.465   7.516   4.472  0.0731 -0.3264  0.7861
 8195SOL    HW235265   8.365   7.427   4.565 -0.5168 -2.3352 -1.6971
 8196SOL     OW35266   9.016   0.937   3.896  1.0171 -0.5370  0.0281
 8196SOL    HW135267   8.974   0.971   3.812  2.0340 -0.1822 -0.3456
 8196SOL    HW235268   8.956   0.956   3.974  1.6083  2.2379 -0.1508
 8197SOL     OW35269   0.638   2.463   2.379 -0.0366  0.1111 -0.2336
 8197SOL    HW135270   0.579   2.534   2.341 -0.4247  1.0207  1.9452
 8197SOL    HW235271   0.606   2.373   2.350 -1.1137  0.7158 -0.9341
 8198SOL     OW35272   8.328   4.976   4.711  0.1280 -0.0212  0.0035
 8198SOL    HW135273   8.267   5.024   4.647  0.6463 -0.5616 -0.8992
 8198SOL    HW235274   8.277   4.904   4.757 -0.4037  0.7591  0.6537
 8199SOL     OW35275   0.822   2.135   3.620 -0.4403 -0.0772  0.0246
 8199SOL    HW135276   0.834   2.133   3.719  1.4117 -0.7358 -0.2026
 8199SOL    HW235277   0.793   2.045   3.588 -0.0824 -0.1319 -0.1473
 8200SOL     OW35278   7.789   2.113   4.559  0.0230  0.3128  0.0333
 8200SOL    HW135279   7.774   2.040   4.493  1.1559  0.7791 -0.7716
 8200SOL    HW235280   7.887   2.132   4.566  0.0079 -0.2944  2.4901
 8201SOL     OW35281   5.838   0.132   2.447  0.2090  0.0658 -0.0590
 8201SOL    HW135282   5.826   0.144   2.546  1.4521 -0.9816  0.2363
 8201SOL    HW235283   5.931   0.159   2.422 -0.3761  1.1637 -1.1022
 8202SOL     OW35284   5.058   8.815   1.929  0.5642  0.3429  0.5205
 8202SOL    HW135285   4.994   8.869   1.984 -0.5906 -1.1879  0.6945
 8202SOL    HW235286   5.044   8.835   1.832 -0.5070 -0.3490  0.5328
 8203SOL     OW35287   7.810   7.308   3.621  0.0770  0.7024 -0.4833
 8203SOL    HW135288   7.820   7.336   3.717 -2.4872  2.6256 -0.6996
 8203SOL    HW235289   7.719   7.336   3.588  1.9486  2.6159 -4.2974
 8204SOL     OW35290   0.602   2.947   0.458 -0.2110 -0.3096 -0.1578
 8204SOL    HW135291   0.679   2.921   0.399 -0.9948  0.3786 -1.5129
 8204SOL    HW235292   0.545   3.014   0.410 -0.5722  0.6690  1.6060
 8205SOL     OW35293   0.940   3.566   0.156  0.4693 -0.4618 -0.0491
 8205SOL    HW135294   0.947   3.595   0.060  0.6219 -1.2532 -0.2770
 8205SOL    HW235295   0.867   3.499   0.165 -0.6391  0.8285  0.6830
 8206SOL     OW35296   9.942   6.746   3.579  0.6049  0.0124  0.1640
 8206SOL    HW135297   9.987   6.828   3.614 -0.4448  1.6031 -2.1278
 8206SOL    HW235298   9.871   6.717   3.644  0.9113  0.9607  0.9322
 8207SOL     OW35299   3.447   4.480   3.261 -0.1827  0.1580  0.0082
 8207SOL    HW135300   3.420   4.491   3.356  3.2998  1.1304  0.9709
 8207SOL    HW235301   3.458   4.570   3.219 -1.7773 -0.2606 -1.3952
 8208SOL     OW35302   5.697   7.648   2.823  0.0410  0.0159  0.2436
 8208SOL    HW135303   5.722   7.598   2.740 -0.8382 -0.7656  0.4397
 8208SOL    HW235304   5.760   7.624   2.897  0.2858  0.0394  0.0447
 8209SOL     OW35305   3.193   0.480   3.384 -0.0554  0.0952  0.0266
 8209SOL    HW135306   3.176   0.483   3.483  0.3785  0.9332  0.0817
 8209SOL    HW235307   3.284   0.442   3.367 -1.2595 -2.8417 -0.1979
 8210SOL     OW35308   2.781   2.689   4.428  0.3874 -0.5956  0.3792
 8210SOL    HW135309   2.744   2.690   4.335  0.3372 -1.3714  0.3854
 8210SOL    HW235310   2.719   2.739   4.489  0.2540 -0.3639  0.0502
 8211SOL     OW35311   8.438   7.317   3.852 -0.3127  0.2966  0.3337
 8211SOL    HW135312   8.459   7.224   3.882  0.2292  0.3842  0.2310
 8211SOL    HW235313   8.367   7.355   3.911  1.1135  0.6506  1.8511
 8212SOL     OW35314   1.148   9.130   0.565  0.1752  0.2193  0.0618
 8212SOL    HW135315   1.096   9.047   0.587  0.2560 -0.2875 -1.6506
 8212SOL    HW235316   1.224   9.107   0.504  0.4734  1.4929 -0.0595
 8213SOL     OW35317   2.457   1.465   2.244 -0.1616 -0.8648  0.0146
 8213SOL    HW135318   2.549   1.493   2.216 -0.4149 -0.4687 -0.4185
 8213SOL    HW235319   2.398   1.545   2.248 -0.0568 -0.8614  1.9848
 8214SOL     OW35320   2.163   8.365   0.817  0.1250  0.2388 -0.4527
 8214SOL    HW135321   2.251   8.412   0.812  0.1273  0.0280 -3.4103
 8214SOL    HW235322   2.170   8.276   0.771 -0.8042 -1.1754  2.0568
 8215SOL     OW35323   9.381   0.027   1.675  0.7431  0.1537 -0.4833
 8215SOL    HW135324   9.316  -0.048   1.663  0.8575 -0.0678  0.2261
 8215SOL    HW235325   9.416   0.026   1.769  0.1109  1.6003 -0.2248
 8216SOL     OW35326   2.994   9.397   3.859 -0.2689  0.1841  0.1089
 8216SOL    HW135327   2.990   9.417   3.957  0.4677  0.4108  0.1017
 8216SOL    HW235328   2.971   9.480   3.807 -0.0832  0.2277  0.0930
 8217SOL     OW35329   0.776   4.284   1.755 -0.5701  0.2434  0.5217
 8217SOL    HW135330   0.747   4.379   1.770 -0.2567  0.3105  0.7207
 8217SOL    HW235331   0.869   4.283   1.718 -1.2423  0.0631 -1.1763
 8218SOL     OW35332   8.658   4.527   2.653  0.5479  0.4520 -0.0320
 8218SOL    HW135333   8.561   4.506   2.662  0.3516  1.2829 -0.2270
 8218SOL    HW235334   8.679   4.611   2.703  1.1361  0.3599 -0.1181
 8219SOL     OW35335   3.881   7.337   0.608 -0.2676  1.2706 -0.1409
 8219SOL    HW135336   3.941   7.316   0.532  0.1155  0.4033  0.3995
 8219SOL    HW235337   3.847   7.431   0.599 -0.3339  1.1267 -1.4415
 8220SOL     OW35338   8.353   5.340   1.838  0.1758 -0.6709  0.0635
 8220SOL    HW135339   8.257   5.366   1.828  0.2697 -0.1658  0.4933
 8220SOL    HW235340   8.412   5.419   1.822  0.4406 -0.5243  1.6979
 8221SOL     OW35341   1.403   0.040   4.210  0.2422 -0.2684  0.1173
 8221SOL    HW135342   1.329  -0.011   4.253 -0.2011  0.5606  0.3500
 8221SOL    HW235343   1.365   0.107   4.146  0.7161  1.0061  1.1364
 8222SOL     OW35344   8.899   7.825   2.559  0.2963  0.0937 -0.1467
 8222SOL    HW135345   8.930   7.732   2.542  1.1818  0.3684 -0.0862
 8222SOL    HW235346   8.972   7.889   2.534 -0.8332  0.8533 -1.5577
 8223SOL     OW35347   8.766   7.206   0.573 -0.2647  0.0274 -0.5113
 8223SOL    HW135348   8.726   7.247   0.655  0.2722 -1.3760  0.4713
 8223SOL    HW235349   8.705   7.221   0.495 -1.2230  0.5588  0.3340
 8224SOL     OW35350   2.945   8.458   0.364  0.2820  0.1368  0.4308
 8224SOL    HW135351   2.911   8.547   0.334  0.8889  0.3736  0.4519
 8224SOL    HW235352   3.009   8.422   0.297 -1.3783 -1.1513 -0.5184
 8225SOL     OW35353   3.344   1.505   2.571  0.3956  0.5232  0.1823
 8225SOL    HW135354   3.372   1.595   2.604 -0.6528  0.7837  0.3973
 8225SOL    HW235355   3.370   1.495   2.474  0.5223  1.0484  0.1606
 8226SOL     OW35356   3.082   1.844   2.099 -0.1250  0.2976 -0.6118
 8226SOL    HW135357   3.127   1.809   2.181  0.3786  0.5695 -0.7721
 8226SOL    HW235358   3.085   1.774   2.027  1.4283  0.9000 -1.1330
 8227SOL     OW35359   3.435   2.985   1.741 -0.1169  0.4656 -0.0542
 8227SOL    HW135360   3.434   3.018   1.836 -1.4856  0.1004  0.0690
 8227SOL    HW235361   3.412   3.060   1.680 -1.3453  0.2027  0.0767
 8228SOL     OW35362   1.411   9.056   0.940 -0.1831 -0.5248 -0.4324
 8228SOL    HW135363   1.370   9.140   0.904  0.5166  0.0225  0.0311
 8228SOL    HW235364   1.506   9.074   0.968 -0.4727 -1.0991  0.9977
 8229SOL     OW35365   1.737   3.229   0.094  0.4394  0.5117 -0.1352
 8229SOL    HW135366   1.775   3.170   0.166 -2.2121 -0.9783  0.1243
 8229SOL    HW235367   1.706   3.172   0.018 -0.1709  1.7808 -0.8465
 8230SOL     OW35368   3.943   2.083   3.400 -0.0666 -0.0843  0.4227
 8230SOL    HW135369   4.018   2.037   3.352 -1.4351 -0.5558 -1.3505
 8230SOL    HW235370   3.955   2.182   3.393  0.1243 -0.1551 -0.2999
 8231SOL     OW35371   8.596   9.763   0.070 -0.0471 -0.1565  1.0665
 8231SOL    HW135372   8.515   9.705   0.060 -0.3258  0.6984 -1.7290
 8231SOL    HW235373   8.576   9.837   0.134 -1.2141 -0.3624  0.9489
 8232SOL     OW35374   4.615   8.814   2.909 -0.0527  0.6846  0.4339
 8232SOL    HW135375   4.681   8.881   2.945  2.2299 -0.7038 -1.0652
 8232SOL    HW235376   4.600   8.831   2.812  0.2403 -0.7484  0.1333
 8233SOL     OW35377   0.220   8.989   3.186 -0.5351 -0.2956  0.5774
 8233SOL    HW135378   0.243   8.920   3.117 -0.0329  1.1221 -0.6940
 8233SOL    HW235379   0.121   8.987   3.204 -1.2339  1.5206 -2.6495
 8234SOL     OW35380   2.190   4.914   3.024 -0.1906 -0.0332  0.0301
 8234SOL    HW135381   2.133   4.978   3.076  1.0920  0.8019  0.4104
 8234SOL    HW235382   2.132   4.841   2.986 -1.2584 -0.1833  1.9047
 8235SOL     OW35383   8.963   5.987   0.181  0.0608  0.4795 -0.2495
 8235SOL    HW135384   9.047   5.963   0.230 -0.4514  0.8057  0.8116
 8235SOL    HW235385   8.986   6.034   0.096  1.0043 -1.5870 -1.1534
 8236SOL     OW35386   8.384   3.678   2.331 -0.0996 -0.2540  0.1917
 8236SOL    HW135387   8.404   3.665   2.234  0.2019 -2.7265  0.5431
 8236SOL    HW235388   8.324   3.605   2.363 -0.3442  0.6299  1.8312
 8237SOL     OW35389   2.089   3.513   3.968  0.1645 -0.0499  0.3038
 8237SOL    HW135390   2.181   3.549   3.980 -0.0270  0.9107 -1.0378
 8237SOL    HW235391   2.025   3.588   3.953 -0.8751 -0.6933  1.3640
 8238SOL     OW35392   2.163   6.909   2.119 -0.4401  0.1402 -0.5743
 8238SOL    HW135393   2.221   6.950   2.049  0.5502 -0.5625 -0.1857
 8238SOL    HW235394   2.158   6.969   2.198 -0.1711  0.1682 -0.5792
 8239SOL     OW35395   1.959   4.403   1.096 -0.3369 -0.1558 -0.0734
 8239SOL    HW135396   1.870   4.401   1.143 -0.5659  1.7385 -0.4093
 8239SOL    HW235397   2.032   4.388   1.163 -0.8146 -0.2957  0.4267
 8240SOL     OW35398   0.472   6.095   2.742  0.1632 -0.4920  0.2742
 8240SOL    HW135399   0.453   6.116   2.646  0.0690  1.6438  0.7201
 8240SOL    HW235400   0.406   6.143   2.800  0.5256 -1.3607  1.4231
 8241SOL     OW35401   3.697   0.448   1.247  0.4068 -0.4791 -0.4083
 8241SOL    HW135402   3.679   0.503   1.165  0.5775 -1.3939 -1.0740
 8241SOL    HW235403   3.623   0.382   1.259  0.6115 -0.6508 -0.0870
 8242SOL     OW35404   9.216   4.275   3.597  0.0190  0.0977 -0.9120
 8242SOL    HW135405   9.314   4.284   3.614 -0.1728  2.2194 -0.7149
 8242SOL    HW235406   9.181   4.194   3.644  1.1206  1.0685  1.6751
 8243SOL     OW35407   4.089   2.951   4.311 -0.3823 -0.1855  0.5174
 8243SOL    HW135408   4.009   2.926   4.257  0.3578 -0.0301 -0.6705
 8243SOL    HW235409   4.098   2.888   4.389  0.5603 -2.6986 -1.5375
 8244SOL     OW35410   2.108   0.661   2.041 -0.2987 -0.2137 -0.1328
 8244SOL    HW135411   2.146   0.573   2.014  0.7693  0.4234 -0.7209
 8244SOL    HW235412   2.096   0.719   1.960 -0.3973  0.4189  0.3269
 8245SOL     OW35413   2.789   1.405   1.960 -0.7193  0.3496 -0.4766
 8245SOL    HW135414   2.718   1.340   1.933  0.8010 -2.1526  1.2311
 8245SOL    HW235415   2.866   1.397   1.897 -0.4606  0.3305 -0.1616
 8246SOL     OW35416   2.460   3.320   1.913  0.3215 -0.2848  0.2624
 8246SOL    HW135417   2.385   3.386   1.917 -0.5973 -1.3095 -0.1332
 8246SOL    HW235418   2.426   3.228   1.931  0.9258 -1.1675 -2.8342
 8247SOL     OW35419   0.746   2.799   3.060 -0.0269  0.3291 -0.0569
 8247SOL    HW135420   0.839   2.834   3.053  0.1328 -0.1356 -0.3015
 8247SOL    HW235421   0.688   2.844   2.993 -0.2444  1.4512  0.8636
 8248SOL     OW35422   9.051   1.368   4.470 -0.1191 -0.1885 -0.1624
 8248SOL    HW135423   9.099   1.428   4.534 -0.2982  0.3860 -0.5634
 8248SOL    HW235424   9.071   1.273   4.492  1.8144  0.0656 -0.8004
 8249SOL     OW35425   9.658   9.653   0.856  0.0589  0.8796 -0.0187
 8249SOL    HW135426   9.672   9.751   0.867  2.8437  0.2068  4.0272
 8249SOL    HW235427   9.744   9.611   0.825 -0.2272 -0.5635  1.0766
 8250SOL     OW35428   7.975   4.869   3.643 -0.0155  0.5153 -0.5883
 8250SOL    HW135429   8.035   4.884   3.722 -0.5474  0.9766 -0.2639
 8250SOL    HW235430   7.919   4.788   3.659 -1.3522  1.5796  0.2888
 8251SOL     OW35431   1.381   6.364   1.542 -0.3979  0.1609  0.9145
 8251SOL    HW135432   1.288   6.333   1.561 -0.8923  0.5585 -0.7147
 8251SOL    HW235433   1.392   6.458   1.575 -0.9874  0.5635 -0.0038
 8252SOL     OW35434   0.716   0.624   3.087  0.0209  0.0827 -0.4985
 8252SOL    HW135435   0.712   0.556   3.160 -0.4609 -0.9623 -1.4891
 8252SOL    HW235436   0.789   0.690   3.107 -0.5003  0.1729  1.2240
 8253SOL     OW35437   4.052   7.689   4.600 -0.0427  0.0260 -0.2237
 8253SOL    HW135438   4.064   7.624   4.525 -1.8204  0.7307 -1.1490
 8253SOL    HW235439   4.108   7.661   4.678  1.3971 -1.0297 -1.6009
 8254SOL     OW35440   0.558   0.358   0.722 -0.5176  0.2980  0.4435
 8254SOL    HW135441   0.522   0.444   0.686 -0.8817  0.0386  0.1861
 8254SOL    HW235442   0.483   0.295   0.741 -0.1975 -0.3208 -0.2942
 8255SOL     OW35443   8.127   0.509   3.732 -0.0855  0.1394  0.6441
 8255SOL    HW135444   8.125   0.516   3.831  0.0770  0.9257  0.5999
 8255SOL    HW235445   8.222   0.516   3.700 -0.1980  0.5386  0.3950
 8256SOL     OW35446   1.714   6.550   4.635  0.0883  0.4102 -0.6093
 8256SOL    HW135447   1.801   6.510   4.607 -0.0809  0.7167 -1.5768
 8256SOL    HW235448   1.679   6.501   4.716  1.7730  1.1061  0.5575
 8257SOL     OW35449   7.785   5.764   3.488  0.6780 -0.0178 -0.0272
 8257SOL    HW135450   7.715   5.752   3.560 -1.0679  1.1467 -1.4831
 8257SOL    HW235451   7.874   5.736   3.524 -0.7927 -3.2721  1.3212
 8258SOL     OW35452   9.795   8.695   0.548  0.2632  0.0111 -0.0285
 8258SOL    HW135453   9.717   8.757   0.546 -0.7269 -1.2457 -1.4272
 8258SOL    HW235454   9.799   8.649   0.637 -0.2268  0.5348  0.2671
 8259SOL     OW35455   8.209   7.720   2.151  0.2759 -0.6781 -0.5501
 8259SOL    HW135456   8.141   7.788   2.121  1.3408 -0.0747 -1.6653
 8259SOL    HW235457   8.295   7.736   2.102  0.9792 -1.9319  0.2634
 8260SOL     OW35458   0.831   9.766   0.671 -0.1064  0.1865 -0.3786
 8260SOL    HW135459   0.780   9.718   0.742  0.4404  0.3303  0.1103
 8260SOL    HW235460   0.777   9.843   0.638 -0.7166 -0.3825 -0.7176
 8261SOL     OW35461   2.100   0.886   1.823 -0.2284 -0.3028 -0.3173
 8261SOL    HW135462   2.049   0.963   1.860  0.4545  0.0071 -0.0181
 8261SOL    HW235463   2.157   0.917   1.746 -0.1977 -0.5707 -0.4045
 8262SOL     OW35464   0.809   8.989   3.703  0.6462  0.6358 -0.0168
 8262SOL    HW135465   0.777   8.895   3.715  0.3125  0.6980 -0.4086
 8262SOL    HW235466   0.807   9.013   3.606  2.5989  0.4035 -0.1190
 8263SOL     OW35467   1.847   7.872   1.485  0.1936  0.5077  0.1428
 8263SOL    HW135468   1.763   7.885   1.433  0.3117  0.3175 -0.1008
 8263SOL    HW235469   1.868   7.955   1.537 -0.3174  0.4363  0.4589
 8264SOL     OW35470   8.670   7.117   1.509 -0.1807 -0.1058 -0.2369
 8264SOL    HW135471   8.757   7.070   1.495  1.0424  1.2663  2.3225
 8264SOL    HW235472   8.658   7.187   1.439  0.5856 -0.5391 -0.8107
 8265SOL     OW35473   2.761   8.147   3.396 -0.0773 -0.1991 -0.4006
 8265SOL    HW135474   2.706   8.071   3.431 -0.3418 -0.2745 -0.9704
 8265SOL    HW235475   2.701   8.215   3.355  0.0821  0.7715  0.9408
 8266SOL     OW35476   0.113   4.805   0.248  0.2059 -0.0522  0.2572
 8266SOL    HW135477   0.055   4.886   0.247 -1.3371 -1.1069  1.8428
 8266SOL    HW235478   0.209   4.833   0.254 -0.2506  1.6682 -0.1925
 8267SOL     OW35479   4.279   8.334   3.910 -0.1972  0.5586  0.3178
 8267SOL    HW135480   4.375   8.306   3.903  0.3863  2.3671  0.7229
 8267SOL    HW235481   4.229   8.300   3.830  1.2512  1.2908 -0.9410
 8268SOL     OW35482   9.727   2.407   0.831 -0.7066 -0.2201  0.5827
 8268SOL    HW135483   9.752   2.398   0.927  1.0892 -3.3321 -0.1005
 8268SOL    HW235484   9.735   2.503   0.803 -0.4946  0.5917  3.3146
 8269SOL     OW35485   1.123   4.636   0.855 -0.0449 -0.0835  0.2542
 8269SOL    HW135486   1.051   4.591   0.907  0.0500 -0.4034  0.1110
 8269SOL    HW235487   1.144   4.582   0.774 -0.0240  0.2888  0.0096
 8270SOL     OW35488   5.616   7.761   3.239 -0.2738 -0.7285  0.3745
 8270SOL    HW135489   5.591   7.676   3.193  2.0805 -1.4619  0.3649
 8270SOL    HW235490   5.707   7.751   3.279 -0.4023  1.4477  1.2686
 8271SOL     OW35491   2.670   7.526   3.632  0.2205  0.5816  0.1253
 8271SOL    HW135492   2.665   7.530   3.732  1.2577 -0.3635  0.2317
 8271SOL    HW235493   2.619   7.447   3.599  1.5750 -0.3058  0.0851
 8272SOL     OW35494   2.725   1.841   1.312 -0.4234  0.3141  0.4814
 8272SOL    HW135495   2.819   1.857   1.280 -0.6254  0.2283 -0.1696
 8272SOL    HW235496   2.696   1.918   1.368  0.0614  0.3101  0.7441
 8273SOL     OW35497   9.765   2.642   0.203 -0.1438  0.4834  0.1888
 8273SOL    HW135498   9.665   2.640   0.211 -0.1123  2.0131  1.2150
 8273SOL    HW235499   9.805   2.672   0.289  1.1866  0.2292 -0.3276
 8274SOL     OW35500   2.489   6.875   2.570 -0.7038  0.1090  0.0237
 8274SOL    HW135501   2.434   6.957   2.583 -0.1706  0.5269 -0.3622
 8274SOL    HW235502   2.575   6.898   2.524 -0.0321 -0.4869  0.9591
 8275SOL     OW35503   7.864   7.047   3.589  0.1823  0.0017 -0.2608
 8275SOL    HW135504   7.852   7.147   3.588  0.4540  0.0276 -1.5100
 8275SOL    HW235505   7.804   7.007   3.658 -0.2508  0.9973 -0.0544
 8276SOL     OW35506   0.085   7.061   0.038 -0.3333  0.2754 -0.7035
 8276SOL    HW135507  -0.003   7.015   0.052  0.6646 -1.5554 -0.3207
 8276SOL    HW235508   0.094   7.087  -0.058  0.1885 -2.7131 -1.4996
 8277SOL     OW35509   3.196   3.520   3.968 -0.7223  0.5068 -0.3606
 8277SOL    HW135510   3.206   3.434   4.018  0.9638  0.2288 -1.1401
 8277SOL    HW235511   3.175   3.593   4.032  2.0940  0.2867  0.8907
 8278SOL     OW35512   9.344   8.764   2.518 -0.0735 -0.3121  0.4085
 8278SOL    HW135513   9.438   8.775   2.486 -0.0846 -0.5658  0.2901
 8278SOL    HW235514   9.284   8.749   2.439  0.0199 -1.8120  0.6177
 8279SOL     OW35515   1.203   9.368   0.302  0.4842 -0.0226 -0.8465
 8279SOL    HW135516   1.116   9.319   0.301 -0.1711  1.1208 -1.0760
 8279SOL    HW235517   1.278   9.303   0.291 -0.2569 -1.1737  0.6689
 8280SOL     OW35518   3.729   8.559   1.562  0.0527 -0.3983  0.0988
 8280SOL    HW135519   3.669   8.484   1.591 -0.7423 -0.4904 -1.7614
 8280SOL    HW235520   3.696   8.598   1.477  1.7595  0.5980 -0.1353
 8281SOL     OW35521   0.706   7.487   2.540 -0.1254 -0.7810  0.2128
 8281SOL    HW135522   0.673   7.469   2.447 -1.3168 -3.1880  1.0625
 8281SOL    HW235523   0.803   7.510   2.538 -0.2504 -0.3696 -1.6515
 8282SOL     OW35524   1.449   8.802   3.596  0.2396  0.2289 -0.7394
 8282SOL    HW135525   1.390   8.728   3.563 -1.2115  0.6386  0.8426
 8282SOL    HW235526   1.418   8.888   3.557 -1.5604  0.7368  1.6219
 8283SOL     OW35527   4.042   9.055   0.727  0.0465  0.3234  0.0687
 8283SOL    HW135528   3.945   9.066   0.748  0.8102  0.7322  3.6109
 8283SOL    HW235529   4.054   8.974   0.669 -2.1981 -0.8824  1.2258
 8284SOL     OW35530   4.165   8.961   4.346  0.3713  0.1781  0.2665
 8284SOL    HW135531   4.091   8.977   4.281  1.9892  1.8484 -1.2028
 8284SOL    HW235532   4.217   9.045   4.359  0.7988 -0.4536  2.8231
 8285SOL     OW35533   6.029   1.044   3.029 -0.4924 -0.1589 -0.5113
 8285SOL    HW135534   6.050   1.100   2.949 -1.0801 -1.5822 -1.6905
 8285SOL    HW235535   5.930   1.035   3.038 -0.3905 -1.6163 -0.7663
 8286SOL     OW35536   0.637   1.948   1.983  0.4387  0.0050  0.5988
 8286SOL    HW135537   0.719   1.895   2.005  1.9570  1.2645 -1.7748
 8286SOL    HW235538   0.621   2.016   2.054  3.6239  2.1594 -0.5788
 8287SOL     OW35539   3.928   3.762   2.395  0.3047 -0.0351  0.9166
 8287SOL    HW135540   3.996   3.766   2.322 -0.6721  0.3093  0.0059
 8287SOL    HW235541   3.974   3.763   2.484  1.4771  0.2438  0.3190
 8288SOL     OW35542   0.142   4.469   3.923 -0.3986  0.1157  0.3550
 8288SOL    HW135543   0.146   4.374   3.894 -0.3782 -0.0028  0.7398
 8288SOL    HW235544   0.074   4.518   3.868 -0.4272 -0.1275  0.1753
 8289SOL     OW35545   0.557   7.943   2.258 -0.2513  0.2683  0.0595
 8289SOL    HW135546   0.483   8.005   2.284 -0.4479 -0.0475  0.2654
 8289SOL    HW235547   0.564   7.870   2.326  0.4282  0.4492  0.1816
 8290SOL     OW35548   4.869   0.207   3.837  0.1427 -0.5150  0.5358
 8290SOL    HW135549   4.931   0.285   3.839  0.8620 -1.0473 -0.5207
 8290SOL    HW235550   4.784   0.230   3.885 -0.2436  1.4257 -0.9907
 8291SOL     OW35551   5.182   0.313   1.598 -0.4273 -0.2750 -0.3042
 8291SOL    HW135552   5.183   0.338   1.502  0.1247  0.1495 -0.1919
 8291SOL    HW235553   5.241   0.234   1.612 -0.6061 -0.4125 -0.3389
 8292SOL     OW35554   8.975   3.560   3.461  0.4161 -0.8154 -0.6168
 8292SOL    HW135555   9.036   3.524   3.531  1.3034 -1.8468 -1.8887
 8292SOL    HW235556   8.955   3.656   3.479  1.0568 -0.9372  0.7450
 8293SOL     OW35557   1.988   3.897   2.054  0.4917  0.3585 -0.2416
 8293SOL    HW135558   1.910   3.895   2.116  0.5590 -1.2221 -0.1763
 8293SOL    HW235559   2.071   3.874   2.105  0.5775 -0.7456 -0.8493
 8294SOL     OW35560   4.239   9.396   1.595  0.0935 -0.0617  0.0569
 8294SOL    HW135561   4.252   9.495   1.591 -1.1926  0.0920 -0.4675
 8294SOL    HW235562   4.278   9.354   1.513  0.3077  0.0371  0.1058
 8295SOL     OW35563   5.054   3.476   0.855  0.2652 -0.5183  0.3338
 8295SOL    HW135564   5.060   3.377   0.861  1.6621 -0.4500  0.2468
 8295SOL    HW235565   5.136   3.512   0.810 -0.3256  0.6552  0.1658
 8296SOL     OW35566   2.375   2.334   3.149  0.0293 -0.0341 -0.5039
 8296SOL    HW135567   2.321   2.373   3.075 -0.3828  1.2451  0.4562
 8296SOL    HW235568   2.434   2.404   3.188 -0.5097 -0.4249  1.0655
 8297SOL     OW35569   7.785   3.046   0.057 -0.4414 -0.3938 -0.5260
 8297SOL    HW135570   7.736   3.105  -0.007 -2.3484  0.4101  1.6031
 8297SOL    HW235571   7.836   3.103   0.122  0.2178 -1.1472 -0.3820
 8298SOL     OW35572   9.944   7.304   0.132  0.3776  0.5512 -0.0353
 8298SOL    HW135573   9.928   7.375   0.200  1.4421  0.4155  0.3633
 8298SOL    HW235574  10.040   7.279   0.132  0.0939 -0.5514 -0.5192
 8299SOL     OW35575   0.620   2.558   2.841 -0.0696 -0.0280  0.6673
 8299SOL    HW135576   0.662   2.512   2.763 -0.8220 -0.4941  0.5291
 8299SOL    HW235577   0.654   2.652   2.847 -1.4292  0.6033 -1.3274
 8300SOL     OW35578   1.740   7.823   4.434  0.0386  0.3279 -0.3449
 8300SOL    HW135579   1.828   7.804   4.390 -0.3105 -2.9182  0.2445
 8300SOL    HW235580   1.671   7.760   4.400 -1.3707  0.9119  1.3495
 8301SOL     OW35581   8.311   6.540   1.053 -0.1563 -0.2822 -0.3827
 8301SOL    HW135582   8.226   6.506   1.094  0.2789 -0.4957  0.3604
 8301SOL    HW235583   8.305   6.639   1.042 -0.8372 -0.4042 -1.1399
 8302SOL     OW35584   1.071   2.037   0.329 -0.7040 -0.1419 -0.3001
 8302SOL    HW135585   1.020   1.952   0.316  0.3611 -0.9323  0.5461
 8302SOL    HW235586   1.087   2.051   0.427 -0.3112  0.7007 -0.4826
 8303SOL     OW35587   8.562   8.170   1.510  0.2509 -0.0461 -0.6134
 8303SOL    HW135588   8.637   8.104   1.509  1.4471  1.2108  1.6087
 8303SOL    HW235589   8.578   8.238   1.582 -1.2140  2.3633 -2.4803
 8304SOL     OW35590   2.743   8.621   4.671 -0.0017  0.2875  0.1928
 8304SOL    HW135591   2.787   8.543   4.715  0.0628  0.5610  0.6173
 8304SOL    HW235592   2.646   8.623   4.694  0.0977  0.6174  0.5977
 8305SOL     OW35593   4.177   7.662   2.864 -0.2467  0.2712 -0.1894
 8305SOL    HW135594   4.223   7.620   2.942 -0.4672  1.7586  0.7632
 8305SOL    HW235595   4.191   7.761   2.866 -1.9798  0.5541 -0.8909
 8306SOL     OW35596   1.857   2.272   1.383  0.1661  0.6765 -0.0375
 8306SOL    HW135597   1.946   2.237   1.353  0.3750 -0.2550  1.5963
 8306SOL    HW235598   1.795   2.195   1.401 -0.7267  1.2976 -0.4053
 8307SOL     OW35599   9.900   1.636   0.895 -0.0570  0.3754 -0.1042
 8307SOL    HW135600   9.903   1.601   0.988 -1.8129  1.6962  0.4945
 8307SOL    HW235601   9.887   1.736   0.898  0.3931  0.4939 -1.7495
 8308SOL     OW35602   3.794   8.918   0.577  0.3381 -0.3498  1.3198
 8308SOL    HW135603   3.705   8.919   0.530  0.7311 -0.4054  0.5598
 8308SOL    HW235604   3.813   8.826   0.611  1.2910 -0.9920 -0.8460
 8309SOL     OW35605   4.045   4.003   1.497 -0.5235 -0.4226  0.1765
 8309SOL    HW135606   3.962   4.041   1.537  0.0236  0.0377  0.8777
 8309SOL    HW235607   4.097   4.075   1.452  0.1310 -0.4748  0.8398
 8310SOL     OW35608   8.026   2.685   3.121 -0.5118  0.1870 -0.3619
 8310SOL    HW135609   8.099   2.657   3.059 -0.8988 -1.1159 -0.2363
 8310SOL    HW235610   8.034   2.783   3.139 -0.8694  0.7624 -3.1081
 8311SOL     OW35611   0.520   2.943   0.848 -0.0699 -0.5531  0.1406
 8311SOL    HW135612   0.590   2.879   0.814 -0.0738 -0.9771  0.9303
 8311SOL    HW235613   0.477   2.905   0.929 -0.6187  0.1083  0.1588
 8312SOL     OW35614   7.098   9.753   4.583 -0.2860 -0.3379 -0.3396
 8312SOL    HW135615   7.016   9.802   4.613 -0.9656  0.0379 -2.7000
 8312SOL    HW235616   7.090   9.657   4.607 -1.9794 -0.5377 -1.5757
 8313SOL     OW35617   7.828   9.832   3.096  0.2193  0.0383 -0.2409
 8313SOL    HW135618   7.835   9.847   3.194 -0.7589  2.7021 -0.5354
 8313SOL    HW235619   7.918   9.813   3.058  0.4564 -1.9844  1.3017
 8314SOL     OW35620   2.979   7.208   4.157 -0.4829 -0.5729  0.3261
 8314SOL    HW135621   2.911   7.135   4.150  1.0124 -1.9296 -0.3727
 8314SOL    HW235622   2.966   7.272   4.082 -0.7016 -1.0868 -0.0820
 8315SOL     OW35623   3.283   7.868   3.081 -0.1913 -0.3951  0.1629
 8315SOL    HW135624   3.367   7.887   3.031  0.8496 -2.5929  1.0685
 8315SOL    HW235625   3.208   7.922   3.041  1.5978  1.5679 -0.6488
 8316SOL     OW35626   5.388   0.969   3.085 -0.3228  0.8300  0.6090
 8316SOL    HW135627   5.318   1.035   3.061 -0.8366 -0.1277 -0.5791
 8316SOL    HW235628   5.472   0.990   3.035 -0.2266  1.0994  0.8878
 8317SOL     OW35629   0.252   0.232   3.633 -0.1959 -0.3008 -0.3864
 8317SOL    HW135630   0.191   0.165   3.590 -0.4579  0.8712 -1.8913
 8317SOL    HW235631   0.339   0.235   3.584 -0.4255  0.9176 -0.7400
 8318SOL     OW35632   9.250   8.533   0.138 -0.2651  0.3996  0.4764
 8318SOL    HW135633   9.236   8.582   0.224  2.2455 -2.8685  2.8943
 8318SOL    HW235634   9.346   8.542   0.110 -0.7319  0.2322 -1.2236
 8319SOL     OW35635   4.345   0.015   4.438  0.1981  0.1522 -0.1365
 8319SOL    HW135636   4.364  -0.078   4.405 -0.1830 -0.6683  1.9010
 8319SOL    HW235637   4.257   0.046   4.401  1.0661  0.3444 -2.0992
 8320SOL     OW35638   5.888   9.044   3.945 -0.0988  0.0726 -0.2381
 8320SOL    HW135639   5.880   8.970   4.012  1.0043 -1.6410 -1.9265
 8320SOL    HW235640   5.875   9.007   3.853  1.8174  1.7230 -1.2152
 8321SOL     OW35641   7.326   6.848   3.535  0.1426 -0.7464 -0.5899
 8321SOL    HW135642   7.416   6.840   3.491 -0.1829  0.3244 -1.4688
 8321SOL    HW235643   7.325   6.794   3.619  1.8719 -0.1707 -0.1714
 8322SOL     OW35644   3.058   0.511   0.100  0.6511 -0.2759 -0.7428
 8322SOL    HW135645   2.974   0.553   0.066  0.6420 -0.3760 -0.8416
 8322SOL    HW235646   3.111   0.476   0.023  0.5511 -0.6504 -0.6383
 8323SOL     OW35647   1.310   8.177   0.407  0.6307  0.2516  0.1109
 8323SOL    HW135648   1.309   8.231   0.323 -0.2195  1.1215  0.6620
 8323SOL    HW235649   1.283   8.235   0.484 -2.3830 -1.4606  0.4028
 8324SOL     OW35650   9.714   0.214   0.202  0.4261 -0.2684 -0.6440
 8324SOL    HW135651   9.802   0.215   0.154  0.3739  0.2324 -0.7272
 8324SOL    HW235652   9.730   0.223   0.300  0.4822 -0.4075 -0.6405
 8325SOL     OW35653   8.038   0.368   0.539 -0.4203  0.6024  0.0639
 8325SOL    HW135654   8.131   0.373   0.502 -0.1084  1.1488  0.9196
 8325SOL    HW235655   7.981   0.436   0.492 -0.5265 -0.1004 -0.8412
 8326SOL     OW35656   0.797   9.881   3.690 -0.5287 -0.3438  0.1871
 8326SOL    HW135657   0.723   9.943   3.715  1.4261  1.0581  2.7744
 8326SOL    HW235658   0.821   9.824   3.768  0.6569 -1.2627 -0.8238
 8327SOL     OW35659   0.391   2.357   0.401  0.4126  0.4092 -0.1340
 8327SOL    HW135660   0.457   2.351   0.326  0.2421 -0.9974 -0.1832
 8327SOL    HW235661   0.302   2.385   0.366  0.7060  1.2306 -0.2298
 8328SOL     OW35662   2.075   6.638   3.406  0.0254 -0.3825 -0.4401
 8328SOL    HW135663   2.055   6.596   3.494 -1.4330  0.9510 -0.1094
 8328SOL    HW235664   2.148   6.587   3.360  1.1159 -0.8257  1.7230
 8329SOL     OW35665   1.971   1.491   1.991  0.4336 -0.2761 -0.2628
 8329SOL    HW135666   2.020   1.481   2.077 -1.1665 -0.8245  0.6099
 8329SOL    HW235667   1.965   1.588   1.967  0.3844 -0.0794  0.5392
 8330SOL     OW35668   7.783   8.185   2.345 -0.1247 -0.7171 -0.3255
 8330SOL    HW135669   7.834   8.208   2.428  0.1521  0.4417 -0.7916
 8330SOL    HW235670   7.707   8.125   2.367  2.5317 -4.0365  0.1182
 8331SOL     OW35671   9.567   7.150   2.962 -0.5774  0.3322  0.1317
 8331SOL    HW135672   9.599   7.067   2.916 -0.6361 -0.7642  2.0245
 8331SOL    HW235673   9.568   7.136   3.061  1.8364  3.4313  0.6585
 8332SOL     OW35674   4.487   0.603   4.034  0.0273 -0.0683  0.2486
 8332SOL    HW135675   4.513   0.636   4.125 -1.4802 -0.5070  0.8599
 8332SOL    HW235676   4.397   0.559   4.039  1.0497 -2.4109 -0.9552
 8333SOL     OW35677   7.227   9.997   3.110  0.0324 -0.3364  0.2728
 8333SOL    HW135678   7.227   9.983   3.011 -2.3567  0.2765  0.1528
 8333SOL    HW235679   7.240   9.910   3.156  0.5867 -0.7097 -0.5722
 8334SOL     OW35680   0.594   7.104   0.471 -0.1304  0.2094  0.1479
 8334SOL    HW135681   0.537   7.109   0.390 -0.5763 -3.3205  0.1418
 8334SOL    HW235682   0.541   7.132   0.551 -0.9146 -0.0496 -0.2737
 8335SOL     OW35683   0.577   4.189   0.305 -0.1112 -0.4686 -0.3254
 8335SOL    HW135684   0.486   4.191   0.265 -0.0597 -1.2567 -0.4764
 8335SOL    HW235685   0.646   4.197   0.233 -0.0612  0.5161 -0.1791
 8336SOL     OW35686   3.506   5.502   0.453  0.3854  0.9444  0.5680
 8336SOL    HW135687   3.506   5.411   0.413  1.3953 -0.1121  2.8667
 8336SOL    HW235688   3.502   5.495   0.553 -1.0455  3.4521  0.7304
 8337SOL     OW35689   3.412   2.530   2.076 -0.0516  0.1737  0.0874
 8337SOL    HW135690   3.333   2.582   2.110 -0.0574 -0.6302  1.3537
 8337SOL    HW235691   3.489   2.542   2.139  0.0619 -1.0506  0.2021
 8338SOL     OW35692   8.872   5.710   1.555  0.3755  0.1023  0.2115
 8338SOL    HW135693   8.797   5.758   1.510 -1.1874 -1.2499  1.2827
 8338SOL    HW235694   8.919   5.651   1.489 -0.1368  0.2044 -0.2463
 8339SOL     OW35695   8.043   3.694   3.582  0.3028  0.1384  0.0684
 8339SOL    HW135696   8.002   3.765   3.639 -1.0390  0.0662 -0.7770
 8339SOL    HW235697   8.070   3.616   3.639 -1.2524 -0.0418  0.5691
 8340SOL     OW35698   2.936   9.249   3.297 -0.7455 -0.2261 -0.2272
 8340SOL    HW135699   2.895   9.161   3.322 -2.1458  0.7927  1.1464
 8340SOL    HW235700   2.963   9.247   3.201  0.8126 -2.7438  0.2298
 8341SOL     OW35701   0.359   8.988   2.206  0.4249 -0.0032  0.6997
 8341SOL    HW135702   0.335   8.923   2.134  0.0697  1.8168 -0.8727
 8341SOL    HW235703   0.458   8.985   2.222  0.7103  0.5526 -0.8675
 8342SOL     OW35704   0.175   3.562   1.463  0.2755 -0.3908 -0.6044
 8342SOL    HW135705   0.111   3.518   1.526 -0.1055  0.8013 -0.1455
 8342SOL    HW235706   0.269   3.545   1.492  0.1420 -1.0785 -0.5615
 8343SOL     OW35707   6.184   0.433   3.110 -0.0603  0.0339  0.4283
 8343SOL    HW135708   6.141   0.515   3.146 -0.0072  1.2747 -2.1696
 8343SOL    HW235709   6.119   0.383   3.053  0.2826 -1.0528  0.9815
 8344SOL     OW35710   4.134   9.129   0.175 -0.1740 -1.0857 -0.3839
 8344SOL    HW135711   4.113   9.065   0.249 -1.2763  1.0795  1.2307
 8344SOL    HW235712   4.222   9.173   0.192  0.1857 -1.5335 -1.0534
 8345SOL     OW35713   8.011   8.864   4.015  0.1972 -0.1312  0.8096
 8345SOL    HW135714   8.071   8.784   4.014  1.4848  0.8164  0.6739
 8345SOL    HW235715   7.994   8.894   3.922 -1.0334 -0.7824  0.8149
 8346SOL     OW35716   1.330   9.782   1.964  0.1853  0.2421 -0.1258
 8346SOL    HW135717   1.410   9.823   2.008 -0.0255  0.1423  0.3538
 8346SOL    HW235718   1.267   9.748   2.034 -0.2215  0.2143 -0.5034
 8347SOL     OW35719   2.760   0.358   2.610  0.0290  0.2681 -0.2755
 8347SOL    HW135720   2.675   0.408   2.624  0.4913  0.8228  0.6713
 8347SOL    HW235721   2.802   0.338   2.699  0.9662  0.1425 -0.7357
 8348SOL     OW35722   0.415   7.256   1.962 -0.0647  0.0826 -0.0775
 8348SOL    HW135723   0.466   7.341   1.949  0.9462 -0.3849  0.7719
 8348SOL    HW235724   0.359   7.263   2.044 -1.7734  0.7703 -1.2589
 8349SOL     OW35725   6.504   9.147   2.659  0.2716  0.1812  0.2696
 8349SOL    HW135726   6.478   9.177   2.751  0.5445 -0.2468  0.4887
 8349SOL    HW235727   6.555   9.220   2.613 -2.0878  1.3944 -0.5079
 8350SOL     OW35728   0.243   3.126   3.438 -0.3066  0.7554  1.0057
 8350SOL    HW135729   0.301   3.189   3.386 -0.2742 -1.5460 -1.8736
 8350SOL    HW235730   0.164   3.100   3.383  0.0617 -2.2680  1.8050
 8351SOL     OW35731   2.855   2.853   2.085 -0.1624 -0.1433  0.3756
 8351SOL    HW135732   2.811   2.802   2.159  0.1656 -3.9559 -1.9393
 8351SOL    HW235733   2.796   2.929   2.058 -1.6930 -0.5209  2.5092
 8352SOL     OW35734   9.984   9.320   2.550  1.0710  0.3389  0.3911
 8352SOL    HW135735   9.901   9.370   2.525  1.6302  1.5830  0.9254
 8352SOL    HW235736   9.991   9.314   2.650  0.7615 -1.2697  0.3264
 8353SOL     OW35737   3.194   7.617   1.418  0.3722 -0.0046  0.1854
 8353SOL    HW135738   3.217   7.706   1.381 -0.0166  0.6111  1.4008
 8353SOL    HW235739   3.274   7.579   1.465 -0.1286  0.7260  1.6507
 8354SOL     OW35740   1.310   9.151   2.680 -0.0366 -0.1087 -0.4469
 8354SOL    HW135741   1.238   9.147   2.750 -0.5464 -0.7482 -0.9939
 8354SOL    HW235742   1.324   9.245   2.652 -0.5745  0.0380 -0.2365
 8355SOL     OW35743   9.126   0.690   2.117 -0.3440  0.5719  0.1224
 8355SOL    HW135744   9.218   0.689   2.158  0.0066  0.2681 -0.6556
 8355SOL    HW235745   9.081   0.776   2.139 -0.3640  0.1990  1.5850
 8356SOL     OW35746   0.702   9.182   1.482  0.7936  0.6217  0.1276
 8356SOL    HW135747   0.622   9.209   1.535  1.3507  1.9729  0.3148
 8356SOL    HW235748   0.759   9.120   1.535 -0.8450 -1.5112 -0.5516
 8357SOL     OW35749   3.911   2.866   0.142  0.5095 -0.5316  0.2429
 8357SOL    HW135750   3.832   2.849   0.200  0.5613  0.2752  0.5555
 8357SOL    HW235751   3.885   2.926   0.066  0.7487 -0.5184  0.1710
 8358SOL     OW35752   1.848   8.574   3.005 -0.2385  0.0665  0.8805
 8358SOL    HW135753   1.808   8.657   3.044 -0.4680  0.5966 -0.4444
 8358SOL    HW235754   1.915   8.599   2.934 -0.5310 -0.8788  0.2543
 8359SOL     OW35755   0.963   9.620   2.476  0.2887 -0.3357  0.0153
 8359SOL    HW135756   0.893   9.642   2.408  0.3293 -1.4686 -0.4114
 8359SOL    HW235757   0.927   9.639   2.567 -0.0813  0.3795 -0.2750
 8360SOL     OW35758   3.895   9.293   2.448  0.1150 -0.4004 -0.0140
 8360SOL    HW135759   3.798   9.298   2.424  0.6126  1.2222 -1.8419
 8360SOL    HW235760   3.922   9.376   2.497  1.3386  0.8392 -2.6476
 8361SOL     OW35761   4.985   9.507   2.586  0.0257  0.2106 -0.3063
 8361SOL    HW135762   4.968   9.470   2.678  0.5382 -0.4078 -0.4514
 8361SOL    HW235763   5.083   9.510   2.570 -0.0344  1.3044 -0.4443
 8362SOL     OW35764   6.518   7.575   2.548 -0.4366  0.1539  0.2625
 8362SOL    HW135765   6.542   7.646   2.614 -0.1976 -0.6005  0.9970
 8362SOL    HW235766   6.419   7.572   2.537 -0.4398  0.6874  0.1338
 8363SOL     OW35767   2.171   2.756   0.073 -0.4837 -0.1465 -0.2497
 8363SOL    HW135768   2.099   2.768   0.004 -1.4030  1.3686  0.9230
 8363SOL    HW235769   2.128   2.737   0.161  0.5694  0.5675  0.4177
 8364SOL     OW35770   2.404   8.568   1.758 -0.1898 -0.6093 -0.4633
 8364SOL    HW135771   2.366   8.632   1.691  0.0178  0.7236  0.6699
 8364SOL    HW235772   2.467   8.505   1.712  0.9032  1.0789 -1.3102
 8365SOL     OW35773   2.356   4.547   4.545 -0.1000  0.1616 -0.3531
 8365SOL    HW135774   2.259   4.539   4.568  0.0185 -0.7977 -0.1544
 8365SOL    HW235775   2.400   4.458   4.555  0.9063  0.6885  0.0095
 8366SOL     OW35776   1.721   0.641   3.426 -0.1646 -0.1693  0.2287
 8366SOL    HW135777   1.708   0.720   3.365 -0.4480 -0.9948 -0.8000
 8366SOL    HW235778   1.639   0.628   3.481  0.1796  0.7213  0.9485
 8367SOL     OW35779   3.946   9.940   1.359  0.2510 -0.1182  0.0795
 8367SOL    HW135780   3.864   9.898   1.398 -0.5465  0.9681 -0.3768
 8367SOL    HW235781   3.983  10.007   1.424  0.0816  0.2415 -0.1882
 8368SOL     OW35782   9.943   3.089   4.721  0.3822 -0.1648  0.2785
 8368SOL    HW135783   9.973   3.072   4.627 -4.1637  0.0502 -1.3476
 8368SOL    HW235784   9.958   3.185   4.744  2.6058 -0.4800  0.2547
 8369SOL     OW35785   9.736   5.129   4.128 -0.7066 -0.2966 -0.1968
 8369SOL    HW135786   9.707   5.217   4.165 -1.5448 -1.1574  1.2196
 8369SOL    HW235787   9.780   5.075   4.200  1.5531 -0.2879 -1.5258
 8370SOL     OW35788   1.039   3.055   4.482  0.0368  0.3368 -0.1427
 8370SOL    HW135789   0.940   3.048   4.495 -0.1851  0.9862 -1.3930
 8370SOL    HW235790   1.062   3.148   4.453  0.9222 -0.0241 -0.6020
 8371SOL     OW35791   8.442   5.304   4.252  0.2689  0.0934 -0.2145
 8371SOL    HW135792   8.430   5.227   4.314  0.0978  0.2557 -0.0420
 8371SOL    HW235793   8.537   5.334   4.253  0.3287 -0.0986 -0.2610
 8372SOL     OW35794   7.223   6.922   3.053 -0.2161 -0.4601  0.1749
 8372SOL    HW135795   7.163   7.001   3.067  1.2793  0.8229 -0.5880
 8372SOL    HW235796   7.167   6.840   3.041 -1.7771  0.3857  1.4956
 8373SOL     OW35797   3.423   7.840   2.169 -0.0782 -0.3810  0.2175
 8373SOL    HW135798   3.348   7.907   2.167  0.6449  0.4264 -0.7093
 8373SOL    HW235799   3.436   7.802   2.078 -1.3704 -2.8357  1.0112
 8374SOL     OW35800   1.504   1.091   4.683  0.0808  0.2954  0.8506
 8374SOL    HW135801   1.434   1.162   4.674 -0.8661 -0.8073 -0.7897
 8374SOL    HW235802   1.551   1.079   4.596  0.3614 -0.9469  1.1588
 8375SOL     OW35803   1.267   1.194   1.157  0.3895  0.2663 -0.2349
 8375SOL    HW135804   1.257   1.293   1.146  1.4863  0.3829 -0.3084
 8375SOL    HW235805   1.179   1.149   1.145 -0.3369  1.3480  1.0040
 8376SOL     OW35806   1.900   6.157   3.126 -0.2002  0.1503 -0.4202
 8376SOL    HW135807   1.928   6.207   3.044  1.1035  1.3114  0.7169
 8376SOL    HW235808   1.921   6.060   3.114  0.0472  0.3174 -1.4283
 8377SOL     OW35809   4.636   4.521   0.530  0.5470 -0.0764 -0.0012
 8377SOL    HW135810   4.731   4.518   0.497  1.0863  0.4779  1.4532
 8377SOL    HW235811   4.636   4.530   0.630 -1.0468 -0.0493  0.0050
 8378SOL     OW35812   0.483   2.093   3.212 -0.2233 -0.3123 -0.0838
 8378SOL    HW135813   0.481   2.193   3.218 -2.1951 -0.3169 -0.5184
 8378SOL    HW235814   0.480   2.054   3.305 -1.0797  0.0105  0.0256
 8379SOL     OW35815   1.781   4.509   1.875 -0.2206 -0.2660  0.0379
 8379SOL    HW135816   1.838   4.430   1.899 -0.4442 -0.5865 -0.4749
 8379SOL    HW235817   1.821   4.592   1.913 -1.5971 -0.9995  3.1923
 8380SOL     OW35818   4.289   7.159   3.561 -0.0065  0.7869 -0.1286
 8380SOL    HW135819   4.375   7.139   3.608 -0.3951  0.4713  0.4551
 8380SOL    HW235820   4.306   7.167   3.463  0.9304  2.1023  0.1208
 8381SOL     OW35821   4.363   1.007   3.904 -0.7805 -0.3767  0.2173
 8381SOL    HW135822   4.354   0.953   3.988 -0.2874 -0.8760 -0.0484
 8381SOL    HW235823   4.315   1.094   3.916 -1.2917 -0.7226  0.7765
 8382SOL     OW35824   8.862   0.530   4.378  0.7301  0.7834 -0.1747
 8382SOL    HW135825   8.834   0.549   4.284 -0.1209 -1.2554 -0.3701
 8382SOL    HW235826   8.871   0.431   4.391  0.1221  0.9854  2.0916
 8383SOL     OW35827   2.741   0.134   1.256  0.3782 -0.0301 -0.1789
 8383SOL    HW135828   2.698   0.191   1.325  1.1066  0.4560 -0.1218
 8383SOL    HW235829   2.779   0.052   1.299  0.8937  0.3067  0.0185
 8384SOL     OW35830   4.327   9.299   3.514  0.1162 -0.0453 -0.2531
 8384SOL    HW135831   4.370   9.379   3.554  0.8444  0.3387 -1.7634
 8384SOL    HW235832   4.321   9.226   3.583 -0.1796  1.1553  1.0017
 8385SOL     OW35833   3.425   1.768   2.606 -0.0918  0.3126  0.3517
 8385SOL    HW135834   3.524   1.783   2.600 -0.2172  2.6151  2.8445
 8385SOL    HW235835   3.381   1.810   2.526  0.6902  2.4088  0.9721
 8386SOL     OW35836   1.413   2.320   3.305 -0.1628  0.3926 -0.7880
 8386SOL    HW135837   1.360   2.235   3.310 -0.5052  0.5853 -1.1540
 8386SOL    HW235838   1.361   2.389   3.255 -0.2632  1.1066  0.2897
 8387SOL     OW35839   9.616   0.644   4.553  0.2548 -0.3307 -0.6222
 8387SOL    HW135840   9.605   0.740   4.528 -0.8392 -0.4428 -0.6157
 8387SOL    HW235841   9.534   0.613   4.601  1.0286 -0.9833  0.3003
 8388SOL     OW35842   4.171   9.230   2.407 -0.3533  0.4354  0.0794
 8388SOL    HW135843   4.076   9.261   2.417 -0.5539 -0.2355  0.3546
 8388SOL    HW235844   4.188   9.204   2.312 -0.8915 -0.8109  0.3088
 8389SOL     OW35845   4.596   3.534   0.884 -0.4747  0.0981  0.2421
 8389SOL    HW135846   4.694   3.539   0.898  0.1580 -4.1801 -1.7750
 8389SOL    HW235847   4.553   3.485   0.960 -0.8024  0.3932  0.2517
 8390SOL     OW35848   0.894   5.895   1.200 -0.8698 -0.3530  1.0113
 8390SOL    HW135849   0.871   5.812   1.251 -1.0005 -0.1625  1.2657
 8390SOL    HW235850   0.846   5.895   1.112  1.0097 -1.6963 -0.0422
 8391SOL     OW35851   9.391   1.428   3.000  0.3975  0.4372 -0.2822
 8391SOL    HW135852   9.407   1.526   3.005 -0.3273  0.5806 -0.6969
 8391SOL    HW235853   9.319   1.403   3.065  0.3685  0.2318 -0.3937
 8392SOL     OW35854   3.753   0.175   4.364  0.0826  0.3660  0.1501
 8392SOL    HW135855   3.764   0.167   4.265  0.4016 -1.0489  0.2940
 8392SOL    HW235856   3.661   0.148   4.390  0.0407  0.6110  0.2613
 8393SOL     OW35857   0.271   7.248   3.082 -0.0114  0.4535 -0.1940
 8393SOL    HW135858   0.356   7.212   3.044  0.4407 -0.3029  1.4571
 8393SOL    HW235859   0.195   7.228   3.020  0.7455 -0.4458 -0.8470
 8394SOL     OW35860   9.172   5.001   3.404 -0.3540 -0.0690  0.1894
 8394SOL    HW135861   9.162   4.932   3.475 -1.2690 -0.7885 -0.6237
 8394SOL    HW235862   9.265   5.038   3.406 -0.5532  0.3605  2.1458
 8395SOL     OW35863   0.600   5.438   2.888 -0.0840  0.6167 -0.6272
 8395SOL    HW135864   0.650   5.521   2.861  1.1006 -0.0823 -0.6363
 8395SOL    HW235865   0.648   5.394   2.964  0.9977 -1.6662 -2.5571
 8396SOL     OW35866   9.538   6.206   1.502 -0.3662  0.3275  0.2208
 8396SOL    HW135867   9.595   6.281   1.537 -0.1550  0.2910 -0.0497
 8396SOL    HW235868   9.449   6.243   1.473 -0.6811  0.3063  1.1381
 8397SOL     OW35869   7.218   8.364   2.351  0.2023 -0.0627 -0.1850
 8397SOL    HW135870   7.158   8.444   2.358  0.0924 -0.1976  0.4029
 8397SOL    HW235871   7.176   8.287   2.398  0.3909 -0.4175 -0.6017
 8398SOL     OW35872   7.766   1.663   1.942  0.1615  0.2479  0.6017
 8398SOL    HW135873   7.855   1.704   1.960 -0.1349  1.0442  0.2977
 8398SOL    HW235874   7.769   1.565   1.960  1.2145  0.2055  0.1786
 8399SOL     OW35875   9.905   7.144   2.796  0.4517  0.7036  0.7376
 8399SOL    HW135876   9.861   7.083   2.861  0.1053  0.6158  0.4270
 8399SOL    HW235877   9.994   7.172   2.831  1.2922 -1.1991  0.2044
 8400SOL     OW35878   9.116   0.143   1.794 -0.2851 -0.2521 -0.3953
 8400SOL    HW135879   9.194   0.181   1.744 -0.6546 -0.7105 -1.3253
 8400SOL    HW235880   9.108   0.188   1.883  0.4803  0.4480 -0.6810
 8401SOL     OW35881   3.465   5.129   2.834 -0.4107 -0.4276  0.0150
 8401SOL    HW135882   3.450   5.197   2.906  1.9832  1.5410 -1.2449
 8401SOL    HW235883   3.489   5.176   2.749  2.0822 -2.8646 -0.6908
 8402SOL     OW35884   2.754   2.167   2.623  0.3367 -0.8998  0.6421
 8402SOL    HW135885   2.689   2.240   2.647  0.4840 -0.8556  0.9164
 8402SOL    HW235886   2.847   2.199   2.641  0.4385 -0.9290  0.1591
 8403SOL     OW35887   0.749   4.209   0.075 -0.1992 -0.1092 -0.0597
 8403SOL    HW135888   0.670   4.185   0.018 -1.8943  1.8915  1.3347
 8403SOL    HW235889   0.778   4.302   0.052  0.8529 -0.3158  0.4374
 8404SOL     OW35890   1.581   1.072   0.183  0.6278  0.0578 -0.2530
 8404SOL    HW135891   1.493   1.070   0.230  0.6117 -1.1883 -0.3299
 8404SOL    HW235892   1.570   1.041   0.089  1.0816  0.2789 -0.3815
 8405SOL     OW35893   9.237   0.916   0.840  0.0990 -0.1767 -0.1451
 8405SOL    HW135894   9.182   0.995   0.865  2.6027  1.8466 -0.7691
 8405SOL    HW235895   9.263   0.865   0.922 -0.9709  0.0345  0.3225
 8406SOL     OW35896   3.465   9.032   4.675  0.2562 -0.3748  0.3566
 8406SOL    HW135897   3.534   9.102   4.688  0.3063  0.2385 -2.9150
 8406SOL    HW235898   3.506   8.942   4.687  1.5901 -0.0097 -1.3567
 8407SOL     OW35899   0.262   7.723   1.120  0.1324  0.6963 -1.0975
 8407SOL    HW135900   0.348   7.672   1.108 -0.2178 -0.0021 -0.6847
 8407SOL    HW235901   0.186   7.658   1.122 -0.4609  1.3553 -1.9758
 8408SOL     OW35902   9.495   2.883   1.738  0.6698 -0.0128  0.7153
 8408SOL    HW135903   9.510   2.800   1.791 -0.2087 -0.5258  0.1956
 8408SOL    HW235904   9.582   2.927   1.719  1.4761 -2.3320 -1.3852
 8409SOL     OW35905   5.306   7.781   2.569 -0.3399 -0.1686  0.1600
 8409SOL    HW135906   5.352   7.699   2.603 -0.7496 -0.7377 -0.6425
 8409SOL    HW235907   5.351   7.862   2.606  0.0590 -0.7528  0.9736
 8410SOL     OW35908   7.694   7.646   3.481 -0.2927 -0.3210  0.4893
 8410SOL    HW135909   7.716   7.685   3.392 -0.5690 -0.3839  0.3906
 8410SOL    HW235910   7.599   7.616   3.480 -0.9638  1.7138  1.5484
 8411SOL     OW35911   0.664   3.069   2.318 -0.0216  0.3228 -0.2213
 8411SOL    HW135912   0.608   3.089   2.238 -0.0412  0.2724 -0.2205
 8411SOL    HW235913   0.606   3.070   2.400  0.7973  5.3084  0.4853
 8412SOL     OW35914   2.048   3.725   2.913  0.7087  0.5216 -0.4536
 8412SOL    HW135915   2.041   3.822   2.891 -0.9780  0.3506 -0.7518
 8412SOL    HW235916   2.101   3.678   2.842 -2.1065  0.5044 -2.6650
 8413SOL     OW35917   3.115   2.766   4.601 -0.1904  0.2024 -0.5417
 8413SOL    HW135918   3.123   2.674   4.564 -0.8514 -1.0084  2.2154
 8413SOL    HW235919   3.206   2.804   4.616  0.0851 -0.0982 -1.4460
 8414SOL     OW35920   2.306   1.365   0.168  0.2476  0.4375  0.0012
 8414SOL    HW135921   2.270   1.300   0.235  2.1751 -0.1657  0.4855
 8414SOL    HW235922   2.241   1.375   0.092 -0.8329 -0.7421  0.7516
 8415SOL     OW35923   2.812   7.889   2.599 -0.6584  0.2730 -0.0030
 8415SOL    HW135924   2.752   7.825   2.551 -0.5512 -0.1516  0.4191
 8415SOL    HW235925   2.844   7.847   2.684  1.5794 -0.1620 -1.0220
 8416SOL     OW35926   8.526   3.335   2.990 -0.6066 -0.2515 -0.6032
 8416SOL    HW135927   8.461   3.391   2.939 -1.7246  0.7590  1.8519
 8416SOL    HW235928   8.476   3.276   3.053  0.8317 -0.1909  0.6028
 8417SOL     OW35929   9.584   1.648   3.058  0.3187  0.3256  0.7324
 8417SOL    HW135930   9.593   1.739   3.099  0.8208 -0.8331  3.2641
 8417SOL    HW235931   9.672   1.602   3.060 -0.3588 -0.9667  1.3169
 8418SOL     OW35932   8.240   3.200   0.148  0.2392 -0.2808  0.5116
 8418SOL    HW135933   8.154   3.171   0.106  0.7717 -0.8057 -0.2172
 8418SOL    HW235934   8.277   3.278   0.097  0.7871 -0.7970  0.1127
 8419SOL     OW35935   3.686   3.875   3.877 -0.2455  0.5132 -0.5756
 8419SOL    HW135936   3.604   3.831   3.914  0.6797 -0.7334  0.0305
 8419SOL    HW235937   3.700   3.845   3.783 -0.8262  1.2174 -0.8924
 8420SOL     OW35938   1.016   9.288   3.459 -0.4209 -0.6443  0.4686
 8420SOL    HW135939   1.023   9.192   3.486  0.8769 -1.0289 -1.1486
 8420SOL    HW235940   1.100   9.335   3.483 -0.2831 -0.3859 -0.4988
 8421SOL     OW35941   4.029   0.331   4.734 -0.1389  0.1381  0.2239
 8421SOL    HW135942   4.058   0.236   4.745  0.4188  0.2769 -0.0459
 8421SOL    HW235943   4.024   0.375   4.823 -1.2883 -0.3987  0.4391
 8422SOL     OW35944   9.724   3.447   4.357 -0.3101 -0.1855  0.1790
 8422SOL    HW135945   9.801   3.509   4.345  0.5333 -1.1052  0.8142
 8422SOL    HW235946   9.643   3.500   4.384 -0.1355  0.8847 -1.2924
 8423SOL     OW35947   3.392   6.014   4.382  0.6485  0.0180 -0.1524
 8423SOL    HW135948   3.399   5.936   4.444  0.0615  0.4459  0.4654
 8423SOL    HW235949   3.296   6.044   4.377  0.8541  0.6277 -0.4603
 8424SOL     OW35950   8.643   4.521   0.822 -0.3978  0.4020 -0.3056
 8424SOL    HW135951   8.659   4.543   0.726 -0.9699 -1.4030 -0.8406
 8424SOL    HW235952   8.625   4.423   0.831 -0.3918  0.5591  1.6417
 8425SOL     OW35953   8.698   4.540   4.698  0.3402  0.6416  0.1700
 8425SOL    HW135954   8.606   4.575   4.715 -0.3921 -2.4714  3.0849
 8425SOL    HW235955   8.698   4.485   4.614  0.2108  2.8227 -1.2994
 8426SOL     OW35956   2.170   3.131   2.711  0.3950  0.0155 -0.3005
 8426SOL    HW135957   2.157   3.098   2.617 -0.0384 -0.6269 -0.0178
 8426SOL    HW235958   2.264   3.114   2.739  0.6012  0.4475 -0.7062
 8427SOL     OW35959   2.081   5.010   1.308  0.1284 -0.1538 -0.2288
 8427SOL    HW135960   2.001   4.950   1.304  0.6166 -0.7614 -0.9221
 8427SOL    HW235961   2.050   5.105   1.302 -0.5612 -0.3768 -0.3156
 8428SOL     OW35962   9.171   0.996   0.055 -0.3882  0.4003  0.8151
 8428SOL    HW135963   9.167   1.033   0.148  1.3640 -0.6404  1.3269
 8428SOL    HW235964   9.127   0.907   0.053  0.2100  0.0986  0.8301
 8429SOL     OW35965   5.092   2.525   1.082 -0.0903 -0.1578  0.6004
 8429SOL    HW135966   5.038   2.466   1.021 -1.9346  1.6720  0.3960
 8429SOL    HW235967   5.111   2.612   1.036 -1.4682  1.2335  2.5423
 8430SOL     OW35968   1.853   9.347   4.640  0.1087 -0.6638 -0.0436
 8430SOL    HW135969   1.938   9.296   4.627  0.8168  0.5089 -0.0440
 8430SOL    HW235970   1.861   9.437   4.596 -1.4449 -0.8701 -0.7916
 8431SOL     OW35971   1.597   6.270   4.283  0.3795  0.6284 -0.4681
 8431SOL    HW135972   1.635   6.182   4.310  2.2338  1.7501  0.7022
 8431SOL    HW235973   1.657   6.314   4.217 -0.8121  0.7886 -1.4702
 8432SOL     OW35974   8.362   6.768   2.711 -0.1962 -0.0047  0.4065
 8432SOL    HW135975   8.426   6.839   2.741  0.4664 -0.8718  1.0640
 8432SOL    HW235976   8.406   6.711   2.641 -0.5304 -0.1216  0.2918
 8433SOL     OW35977   4.210   1.735   2.662  0.2254 -0.1947 -0.4865
 8433SOL    HW135978   4.157   1.820   2.655 -0.8137 -0.9211 -1.5839
 8433SOL    HW235979   4.265   1.738   2.745  2.5667  2.8788 -2.0547
 8434SOL     OW35980   1.805   3.914   0.183  0.0977 -0.6773 -0.0628
 8434SOL    HW135981   1.794   4.008   0.213 -0.4034 -1.4840  2.4491
 8434SOL    HW235982   1.817   3.855   0.263  1.1633 -2.6506 -1.6249
 8435SOL     OW35983   1.074   4.613   2.054 -0.5503  0.1474 -1.1335
 8435SOL    HW135984   1.057   4.562   1.970 -4.8887  0.2748 -0.4578
 8435SOL    HW235985   1.050   4.709   2.039  0.1790  0.4810 -0.1796
 8436SOL     OW35986   3.312   0.786   3.942 -0.0315 -0.2169 -0.1384
 8436SOL    HW135987   3.275   0.838   4.019  0.7682  0.5744 -0.2874
 8436SOL    HW235988   3.367   0.846   3.885  0.0724 -1.0026 -0.8647
 8437SOL     OW35989   7.972   3.082   4.107 -0.2996 -1.0826 -0.1691
 8437SOL    HW135990   7.891   3.097   4.163 -0.8806 -0.2963 -1.2037
 8437SOL    HW235991   8.050   3.060   4.166 -1.1764 -1.4741  0.8525
 8438SOL     OW35992   2.773   6.363   4.298 -0.6142 -0.4469  0.4780
 8438SOL    HW135993   2.676   6.339   4.289 -0.6790  0.5533 -1.8871
 8438SOL    HW235994   2.824   6.327   4.220  0.7209  0.0233  1.1173
 8439SOL     OW35995   3.583   0.779   2.708  0.2465  0.2843 -0.3485
 8439SOL    HW135996   3.515   0.741   2.771  1.2100  0.2470  0.6625
 8439SOL    HW235997   3.653   0.828   2.759  1.2215 -0.0239 -1.3663
 8440SOL     OW35998   0.644   5.150   2.208  0.5927  0.0762  0.5798
 8440SOL    HW135999   0.633   5.215   2.133 -0.4519 -1.0287 -0.2614
 8440SOL    HW236000   0.566   5.158   2.270 -0.0255 -1.0013 -0.0392
 8441SOL     OW36001   6.403   9.197   2.904 -0.2771 -0.5676 -0.7783
 8441SOL    HW136002   6.442   9.175   2.993  0.3176  0.7368 -0.7032
 8441SOL    HW236003   6.327   9.135   2.885  1.7339 -3.0944 -0.8862
 8442SOL     OW36004   4.145   4.085   3.876  0.1885  0.1011  0.7741
 8442SOL    HW136005   4.221   4.058   3.817 -1.3661 -0.4692 -1.0409
 8442SOL    HW236006   4.093   4.004   3.904 -1.1273  0.6643  0.0283
 8443SOL     OW36007   3.194   5.105   2.957  0.2980  0.0958 -0.3717
 8443SOL    HW136008   3.276   5.145   2.916 -0.1333  1.3323 -0.0648
 8443SOL    HW236009   3.146   5.175   3.010  0.3002 -1.2033  1.4190
 8444SOL     OW36010   0.973   8.476   3.801 -0.4961  0.0010  0.2243
 8444SOL    HW136011   0.929   8.548   3.747 -0.9032 -1.0196 -0.8103
 8444SOL    HW236012   1.029   8.419   3.742  1.4062  0.6342  1.3604
 8445SOL     OW36013   7.665   3.705   4.716  0.1678  0.8985  0.0965
 8445SOL    HW136014   7.759   3.739   4.719  0.3306  0.3828  1.1642
 8445SOL    HW236015   7.602   3.782   4.706  0.5767  1.4460  1.6158
 8446SOL     OW36016   4.435   0.437   1.258 -0.3454  0.0159 -0.4021
 8446SOL    HW136017   4.503   0.374   1.298 -0.7371  0.5493  1.1300
 8446SOL    HW236018   4.481   0.519   1.226 -0.3843  0.9313  1.7860
 8447SOL     OW36019   1.764   1.375   4.352  0.0484  0.3723 -0.5641
 8447SOL    HW136020   1.808   1.412   4.433 -0.9229 -0.2050  0.2487
 8447SOL    HW236021   1.676   1.335   4.378  0.0888 -0.5250 -1.7749
 8448SOL     OW36022   0.257   8.618   1.844 -0.0696 -0.4968 -0.0722
 8448SOL    HW136023   0.171   8.643   1.801 -0.6358 -1.0084  0.7460
 8448SOL    HW236024   0.330   8.618   1.776 -0.8848 -0.9460 -0.9498
 8449SOL     OW36025   2.000   0.358   0.972 -0.2632 -0.2872  0.4244
 8449SOL    HW136026   1.905   0.349   0.943 -0.8050 -0.4288  2.1426
 8449SOL    HW236027   2.014   0.449   1.012  0.1106 -0.5547  0.9048
 8450SOL     OW36028   0.836   3.576   2.704 -0.1354 -0.5086  0.4465
 8450SOL    HW136029   0.862   3.557   2.609  1.3842  1.6910  0.4045
 8450SOL    HW236030   0.847   3.492   2.758  1.6254 -1.0956 -0.7591
 8451SOL     OW36031   9.459   7.389   0.320 -0.0487 -0.2657  0.3053
 8451SOL    HW136032   9.383   7.392   0.256 -1.0013 -1.0932  1.3815
 8451SOL    HW236033   9.530   7.327   0.286 -0.7100 -0.9809  0.2230
 8452SOL     OW36034   1.530   1.288   1.779 -0.7106 -0.3956 -0.1084
 8452SOL    HW136035   1.567   1.304   1.687 -2.5291 -0.5770 -0.9000
 8452SOL    HW236036   1.499   1.193   1.787  1.8092 -1.1033  1.5771
 8453SOL     OW36037   9.352   1.319   0.856 -0.3547  0.6073  0.0943
 8453SOL    HW136038   9.443   1.352   0.880 -0.2698  0.2804  0.2287
 8453SOL    HW236039   9.360   1.242   0.792 -0.4671 -0.4639  1.3321
 8454SOL     OW36040   3.653   5.736   2.486  0.7034  0.0853  0.0657
 8454SOL    HW136041   3.684   5.800   2.557 -1.2762  2.3188 -0.9990
 8454SOL    HW236042   3.578   5.681   2.522  0.2854  0.5965 -0.0280
 8455SOL     OW36043   8.390   7.032   1.595  0.5806 -0.4783 -0.2467
 8455SOL    HW136044   8.363   7.016   1.499 -0.2996  1.0824 -0.2808
 8455SOL    HW236045   8.436   7.120   1.602 -0.2308 -0.1381  0.9270
 8456SOL     OW36046   5.300   8.066   3.282  0.3547  0.4105  0.1941
 8456SOL    HW136047   5.214   8.117   3.287 -0.4719 -0.9846  0.4482
 8456SOL    HW236048   5.351   8.078   3.367  0.1511  0.7853  0.2645
 8457SOL     OW36049   8.329   9.242   2.935  0.2114  0.3356 -0.2095
 8457SOL    HW136050   8.388   9.190   2.997  0.5510  1.0586  0.0765
 8457SOL    HW236051   8.354   9.339   2.938 -0.4620  0.5286 -0.6900
 8458SOL     OW36052   1.478   0.307   3.063  0.1267  0.2602  0.0582
 8458SOL    HW136053   1.548   0.272   3.000  0.3406 -3.3227  2.1532
 8458SOL    HW236054   1.522   0.363   3.133  0.6322 -0.1654  0.0870
 8459SOL     OW36055   9.247   9.482   1.991 -0.1949  0.5842 -0.7397
 8459SOL    HW136056   9.293   9.448   2.073 -1.3697 -0.1965 -0.3888
 8459SOL    HW236057   9.311   9.481   1.915  0.3069 -0.7291 -0.3215
 8460SOL     OW36058   5.140   6.427   2.307  0.6758  0.3447 -0.1021
 8460SOL    HW136059   5.115   6.330   2.314  1.1230  0.3669  2.0112
 8460SOL    HW236060   5.078   6.473   2.243 -1.4480 -0.6788  1.1719
 8461SOL     OW36061   5.407   8.300   2.211  0.0097  0.6185 -0.3215
 8461SOL    HW136062   5.390   8.249   2.296 -1.4030  0.1983 -0.8403
 8461SOL    HW236063   5.439   8.237   2.140 -1.5285  0.4426 -0.8989
 8462SOL     OW36064   0.258   6.247   3.904  0.1800  0.0394  0.1189
 8462SOL    HW136065   0.264   6.346   3.917 -1.5417  0.3302 -1.1425
 8462SOL    HW236066   0.348   6.206   3.921  0.6931  1.6968  1.5466
 8463SOL     OW36067   1.109   8.037   3.664  0.9811 -0.4501 -0.1584
 8463SOL    HW136068   1.023   7.995   3.695  0.3082  1.6357  0.8820
 8463SOL    HW236069   1.185   7.975   3.682 -0.0968 -1.6215  0.4352
 8464SOL     OW36070   9.351   3.812   2.502  0.1883 -0.0966  0.3629
 8464SOL    HW136071   9.412   3.868   2.447  0.4668  0.3805  1.1509
 8464SOL    HW236072   9.257   3.825   2.471  0.2601  0.7264  0.4708
 8465SOL     OW36073   8.563   7.407   1.715  0.3889 -1.2154  0.3746
 8465SOL    HW136074   8.652   7.388   1.673 -0.1022 -2.1819 -0.2395
 8465SOL    HW236075   8.515   7.475   1.661  0.6596 -0.8609  0.5793
 8466SOL     OW36076   4.967   0.882   1.773 -0.4174  0.4143 -0.1675
 8466SOL    HW136077   4.943   0.786   1.758 -0.0172 -0.0617  2.0155
 8466SOL    HW236078   4.910   0.919   1.847  1.7182  0.8626  1.2970
 8467SOL     OW36079   2.846   1.298   0.188 -0.1263 -0.2850 -0.2046
 8467SOL    HW136080   2.756   1.313   0.227  0.1479  2.4068 -0.4992
 8467SOL    HW236081   2.849   1.337   0.096  1.7158  0.7978  0.3000
 8468SOL     OW36082   7.788   1.352   0.674  0.4956  0.2344 -0.3117
 8468SOL    HW136083   7.820   1.258   0.682  1.7048  0.6949  0.4387
 8468SOL    HW236084   7.753   1.383   0.763 -1.4738 -0.0410 -0.9598
 8469SOL     OW36085   0.794   1.705   2.468  0.0322  0.4672 -0.1227
 8469SOL    HW136086   0.777   1.668   2.559  1.5464  1.0874  0.4261
 8469SOL    HW236087   0.868   1.654   2.424  1.8560  2.5345  0.4779
 8470SOL     OW36088   3.403   1.014   1.958  0.1197  0.0630 -0.6492
 8470SOL    HW136089   3.454   1.040   2.040  0.3109 -1.7099 -0.2010
 8470SOL    HW236090   3.312   0.982   1.983 -0.0757  0.1854 -1.1900
 8471SOL     OW36091   9.582   8.984   0.937 -0.4612  0.3404  0.1230
 8471SOL    HW136092   9.611   9.068   0.891  0.8133 -1.7603 -3.0737
 8471SOL    HW236093   9.639   8.970   1.019  1.2805  1.0909 -0.9288
 8472SOL     OW36094   0.451   3.487   1.466  0.0201  0.3359 -0.4433
 8472SOL    HW136095   0.468   3.583   1.487  3.7360 -0.6975  1.9590
 8472SOL    HW236096   0.496   3.463   1.380  1.7435  0.1203  0.4818
 8473SOL     OW36097   0.360   7.515   2.989 -0.1304 -0.1942 -0.1656
 8473SOL    HW136098   0.329   7.420   2.981  1.8961 -0.9439  0.5735
 8473SOL    HW236099   0.351   7.560   2.900 -0.6872 -1.2206 -0.6417
 8474SOL     OW36100   7.037   8.590   2.368 -0.2478  0.0622  0.1002
 8474SOL    HW136101   6.952   8.643   2.370 -0.3994 -0.1707 -0.1071
 8474SOL    HW236102   7.079   8.591   2.459 -0.3691  0.3430  0.1548
 8475SOL     OW36103   0.829   6.924   0.372 -0.0194 -0.3315 -0.4189
 8475SOL    HW136104   0.834   6.832   0.410  0.4419 -0.0991  0.1025
 8475SOL    HW236105   0.754   6.974   0.415  1.0910  0.2432  0.9124
 8476SOL     OW36106   2.135   4.103   0.139 -0.7006  0.2456 -0.3685
 8476SOL    HW136107   2.136   4.161   0.057 -3.0560  1.0467  0.1454
 8476SOL    HW236108   2.099   4.013   0.115  1.0426 -0.3848 -0.7281
 8477SOL     OW36109   2.526   5.863   0.741  0.6051  1.1652  0.1881
 8477SOL    HW136110   2.545   5.824   0.831  1.7257  2.4245  0.5143
 8477SOL    HW236111   2.505   5.789   0.676  0.5883  0.1968  1.2837
 8478SOL     OW36112   8.115   9.991   4.678 -0.0469 -0.7648 -0.0886
 8478SOL    HW136113   8.080  10.043   4.756 -1.1301 -2.3046  0.4616
 8478SOL    HW236114   8.214   9.983   4.684 -0.0478 -0.1930  0.6969
 8479SOL     OW36115   9.397   2.928   1.487  0.5094 -0.1497  0.3580
 8479SOL    HW136116   9.406   2.885   1.577 -0.5256  0.3075  0.6900
 8479SOL    HW236117   9.485   2.925   1.440  1.5747  1.3221  2.1585
 8480SOL     OW36118   8.849   1.970   4.270  0.0750 -0.4475 -0.1522
 8480SOL    HW136119   8.883   2.029   4.197  1.2903  0.5278  1.1672
 8480SOL    HW236120   8.765   2.008   4.308  0.3014 -0.1084  0.0096
 8481SOL     OW36121   2.549   6.335   1.187 -0.2909  0.7201  0.0381
 8481SOL    HW136122   2.534   6.344   1.286  0.8400 -2.6127  0.5809
 8481SOL    HW236123   2.464   6.305   1.143  0.7358 -3.8235  0.9620
 8482SOL     OW36124   3.653   4.586   2.584  0.4946 -0.3936 -0.2246
 8482SOL    HW136125   3.602   4.501   2.599 -2.2538  1.2965  0.3630
 8482SOL    HW236126   3.709   4.606   2.664 -1.5963  0.1501  1.1359
 8483SOL     OW36127   7.701   7.112   1.886  0.7935  0.0566  0.0036
 8483SOL    HW136128   7.793   7.086   1.858  1.7957  2.4307  0.9912
 8483SOL    HW236129   7.681   7.206   1.856 -0.9550 -0.0918  0.5983
 8484SOL     OW36130   9.056   1.933   2.890  0.1583  0.0901  0.0447
 8484SOL    HW136131   9.014   1.849   2.925 -0.2798 -0.2883 -1.3244
 8484SOL    HW236132   9.004   1.966   2.812 -0.0725  2.0534  1.0099
 8485SOL     OW36133   0.504   5.935   2.161 -0.2296 -0.0449  1.0718
 8485SOL    HW136134   0.446   5.878   2.219 -1.9085 -1.0741 -1.5235
 8485SOL    HW236135   0.448   5.981   2.092  1.3873  3.0498  1.6952
 8486SOL     OW36136   6.586   9.707   4.274 -0.5941 -0.4614  0.1349
 8486SOL    HW136137   6.606   9.739   4.181 -2.0728 -1.4083 -0.5275
 8486SOL    HW236138   6.563   9.785   4.331  0.2274  0.1238 -0.3136
 8487SOL     OW36139   8.772   0.495   0.819 -0.7995  0.1688 -0.2723
 8487SOL    HW136140   8.724   0.549   0.749 -0.6402 -0.4214 -0.8384
 8487SOL    HW236141   8.851   0.450   0.778 -0.2743  0.4056  0.4588
 8488SOL     OW36142   9.235   9.742   1.757 -0.3350 -0.4443  0.2728
 8488SOL    HW136143   9.244   9.773   1.662 -0.0723 -0.0571  0.4271
 8488SOL    HW236144   9.324   9.744   1.802 -0.9401  2.3834  1.4789
 8489SOL     OW36145   0.509   2.301   0.650  0.2545  0.1277  0.6458
 8489SOL    HW136146   0.494   2.301   0.551 -0.9865 -0.7095  0.8183
 8489SOL    HW236147   0.449   2.369   0.693 -0.0817 -0.3386  0.9284
 8490SOL     OW36148   9.900   3.014   0.975 -0.0031 -0.4360  0.1834
 8490SOL    HW136149   9.892   2.915   0.963 -0.6940 -0.6733  2.4686
 8490SOL    HW236150   9.847   3.061   0.905 -1.8140 -1.7168  0.6832
 8491SOL     OW36151   3.909   3.729   0.235 -0.2871 -0.0568  0.1178
 8491SOL    HW136152   3.963   3.763   0.312 -0.0434  0.8762 -0.4479
 8491SOL    HW236153   3.868   3.641   0.258 -1.3563  0.8608  1.8191
 8492SOL     OW36154   8.563   2.364   3.439 -0.4872  0.0034 -0.1706
 8492SOL    HW136155   8.568   2.398   3.345  0.1526  1.1643  0.2827
 8492SOL    HW236156   8.477   2.394   3.480 -0.3854  0.2164 -0.1112
 8493SOL     OW36157   1.041   0.647   0.698 -0.4475  0.3825  0.1919
 8493SOL    HW136158   0.951   0.615   0.668 -1.0218  0.6795  1.5440
 8493SOL    HW236159   1.042   0.747   0.702 -0.3153  0.3536  0.9484
 8494SOL     OW36160   9.793   6.293   4.532 -0.3359  0.3424  0.3034
 8494SOL    HW136161   9.801   6.197   4.509 -0.3790  0.7008 -1.2514
 8494SOL    HW236162   9.878   6.325   4.573 -0.9698 -0.8025  2.6163
 8495SOL     OW36163   5.260   2.844   0.752  0.3663  0.0243 -0.0187
 8495SOL    HW136164   5.252   2.944   0.750  2.3581  0.1830 -3.2959
 8495SOL    HW236165   5.354   2.819   0.778  0.3401 -0.9577 -0.8487
 8496SOL     OW36166   8.063   8.087   2.250 -0.0793 -0.1118 -0.1011
 8496SOL    HW136167   7.994   8.033   2.298 -2.4073  1.5794 -1.4306
 8496SOL    HW236168   8.044   8.184   2.263  1.9245  0.3729 -0.7031
 8497SOL     OW36169   2.203   5.770   2.361  0.0938  0.2479  0.2093
 8497SOL    HW136170   2.283   5.748   2.305 -0.3777  0.8502 -0.7213
 8497SOL    HW236171   2.133   5.700   2.347 -0.2669  0.7339 -0.4565
 8498SOL     OW36172   7.855   2.415   0.762 -0.4584  0.0674  0.1234
 8498SOL    HW136173   7.808   2.499   0.734 -0.6374 -0.9227 -2.6837
 8498SOL    HW236174   7.808   2.336   0.723  1.9002 -1.0971 -0.4521
 8499SOL     OW36175   2.783   0.550   0.445 -0.3116  0.2262 -0.0641
 8499SOL    HW136176   2.718   0.494   0.394 -1.7146  3.0594 -1.4999
 8499SOL    HW236177   2.757   0.551   0.542 -1.3291 -0.1952 -0.3227
 8500SOL     OW36178   9.261   7.151   3.279 -0.3252  0.0717 -0.3667
 8500SOL    HW136179   9.359   7.144   3.258 -0.5433 -2.3611 -0.7014
 8500SOL    HW236180   9.210   7.167   3.195 -0.4275 -1.3595 -0.6019
 8501SOL     OW36181   8.606   0.150   2.648 -0.4534  0.1908  0.0977
 8501SOL    HW136182   8.531   0.115   2.592  0.3707 -1.4470  0.0008
 8501SOL    HW236183   8.568   0.189   2.732 -1.7412  3.0776 -1.7230
 8502SOL     OW36184   0.171   8.941   0.968 -0.6931 -0.1906 -0.1221
 8502SOL    HW136185   0.236   8.966   0.896 -0.4180  1.0212  0.5232
 8502SOL    HW236186   0.200   8.983   1.054 -0.9427 -1.7250  0.7345
 8503SOL     OW36187   4.188   1.859   4.679 -0.0861 -0.0819 -0.7958
 8503SOL    HW136188   4.200   1.760   4.692 -0.4909 -0.2025 -1.2857
 8503SOL    HW236189   4.203   1.881   4.582  0.5612  0.4258 -0.5851
 8504SOL     OW36190   0.625   2.096   1.122 -0.4770  0.0396 -0.1427
 8504SOL    HW136191   0.544   2.155   1.127  0.0391  0.6913  0.7720
 8504SOL    HW236192   0.703   2.145   1.160  0.3079 -0.6526 -0.8634
 8505SOL     OW36193   1.095   5.235   4.055 -0.2646  0.2421  0.2351
 8505SOL    HW136194   1.143   5.148   4.038 -1.1954 -0.0024 -1.2392
 8505SOL    HW236195   1.005   5.216   4.094 -0.0005  0.6063  1.0275
 8506SOL     OW36196   6.466   9.134   3.156  0.4667  0.0235 -0.0878
 8506SOL    HW136197   6.475   9.207   3.224  1.3449 -1.1759  1.0994
 8506SOL    HW236198   6.437   9.050   3.201  0.7287 -0.6964 -1.2466
 8507SOL     OW36199   1.675   4.191   0.201  0.7732  0.2862  0.1144
 8507SOL    HW136200   1.660   4.289   0.195 -0.2195  0.1692  0.5258
 8507SOL    HW236201   1.603   4.150   0.257  0.0227 -0.9546 -1.7298
 8508SOL     OW36202   1.997   1.750   0.980  0.5716  0.0811  0.6774
 8508SOL    HW136203   2.019   1.746   1.078  0.9915  2.0745  0.6877
 8508SOL    HW236204   2.080   1.771   0.929  0.2154 -0.2866 -0.0515
 8509SOL     OW36205   2.129   4.483   3.345  0.0440 -0.2144 -0.6586
 8509SOL    HW136206   2.144   4.467   3.442  0.8389  0.1129 -0.7230
 8509SOL    HW236207   2.158   4.402   3.293  1.4396  0.3358 -0.7663
 8510SOL     OW36208   3.556   4.652   2.895 -0.4902 -0.5492 -0.3390
 8510SOL    HW136209   3.457   4.656   2.879 -0.3384 -0.1006 -1.2131
 8510SOL    HW236210   3.576   4.583   2.964 -1.3887 -0.8620 -0.3868
 8511SOL     OW36211   9.442   4.390   4.135 -0.1736 -0.1486  0.2519
 8511SOL    HW136212   9.527   4.435   4.109  0.4011 -1.1146  0.4104
 8511SOL    HW236213   9.367   4.456   4.135  0.6200  0.7547  0.3409
 8512SOL     OW36214   9.797   1.479   2.734  0.0070  0.0840  0.3803
 8512SOL    HW136215   9.816   1.570   2.770 -0.0986 -0.2107  1.2019
 8512SOL    HW236216   9.724   1.437   2.788 -0.8768  0.0320 -0.8299
 8513SOL     OW36217   1.977   8.450   0.992  0.2534 -0.3499  0.1651
 8513SOL    HW136218   2.036   8.433   0.913  1.9383  0.7566  1.1433
 8513SOL    HW236219   2.007   8.394   1.069 -2.1614 -2.3654 -0.2962
 8514SOL     OW36220   8.634   5.039   4.143 -0.1985  0.2909 -0.1166
 8514SOL    HW136221   8.644   4.965   4.076  0.3332 -0.5390  0.8660
 8514SOL    HW236222   8.609   5.123   4.096 -0.6981 -0.4885 -1.2623
 8515SOL     OW36223   3.069   3.433   4.476 -0.3119 -0.2164 -0.1413
 8515SOL    HW136224   3.058   3.346   4.524 -0.0956 -0.5883 -0.7606
 8515SOL    HW236225   2.978   3.470   4.454 -0.4629  0.6973  1.8465
 8516SOL     OW36226   7.875   2.584   0.119 -0.9117 -0.5080  0.3811
 8516SOL    HW136227   7.953   2.630   0.077 -1.4123  0.7246  0.7749
 8516SOL    HW236228   7.901   2.491   0.144  0.8121  0.2802  1.6130
 8517SOL     OW36229   8.328   2.790   2.507 -0.1611 -0.5146 -0.0891
 8517SOL    HW136230   8.273   2.737   2.443  0.4668 -0.3535 -0.7714
 8517SOL    HW236231   8.288   2.881   2.516  0.2361 -0.2451 -0.9357
 8518SOL     OW36232   1.238   2.271   0.871 -0.4139  0.0253 -0.6468
 8518SOL    HW136233   1.153   2.218   0.865 -1.2288  1.2996 -0.5236
 8518SOL    HW236234   1.221   2.365   0.843  0.5655  0.7441  1.0814
 8519SOL     OW36235   3.218   1.753   3.717 -0.0719  0.2829  0.5256
 8519SOL    HW136236   3.240   1.667   3.671 -0.7918 -0.2324  1.1356
 8519SOL    HW236237   3.168   1.734   3.801 -1.8341  1.3839 -0.2569
 8520SOL     OW36238   0.966   7.464   3.350 -0.2069 -0.3280 -0.7538
 8520SOL    HW136239   0.904   7.411   3.291 -0.8676  0.5027 -0.8135
 8520SOL    HW236240   1.053   7.416   3.358 -0.8524 -1.5010 -0.6848
 8521SOL     OW36241   4.263   8.659   2.275 -0.2861  0.4749 -0.2207
 8521SOL    HW136242   4.302   8.573   2.308 -0.4287  0.0239 -1.1797
 8521SOL    HW236243   4.267   8.728   2.347  0.7656 -0.0407  0.2332
 8522SOL     OW36244   8.529   0.198   0.329  0.2974  0.3685 -0.0783
 8522SOL    HW136245   8.598   0.208   0.400 -1.8170  1.6475  1.8903
 8522SOL    HW236246   8.545   0.265   0.257  0.9109  0.8757  0.5233
 8523SOL     OW36247   2.810   2.316   3.746  0.0246 -0.0166  0.2103
 8523SOL    HW136248   2.792   2.415   3.747  0.6334  0.0942  0.2100
 8523SOL    HW236249   2.905   2.300   3.719 -0.6598 -0.6874 -1.8741
 8524SOL     OW36250   8.655   1.149   3.848  0.1461  0.4664 -0.1756
 8524SOL    HW136251   8.618   1.145   3.756 -0.0851  1.0418 -0.1101
 8524SOL    HW236252   8.749   1.185   3.845 -0.1272  1.2071 -0.1210
 8525SOL     OW36253   7.760   9.369   0.179  0.3814  0.7682  0.5044
 8525SOL    HW136254   7.837   9.418   0.138 -0.5131  1.1519 -0.7497
 8525SOL    HW236255   7.715   9.429   0.245  0.5442  0.9063  0.4911
 8526SOL     OW36256   7.655   1.888   1.655  0.0841 -0.1955  0.1020
 8526SOL    HW136257   7.659   1.788   1.653  0.8863 -0.1438 -1.6575
 8526SOL    HW236258   7.744   1.924   1.684 -0.2423  0.0132  0.8547
 8527SOL     OW36259   9.535   5.539   4.154  0.3635 -0.5842  0.0268
 8527SOL    HW136260   9.594   5.467   4.192  1.6369  0.3036 -0.2410
 8527SOL    HW236261   9.564   5.560   4.061  0.7009  1.0584  0.4969
 8528SOL     OW36262   0.018   5.941   1.902 -0.1679 -0.4802 -0.1389
 8528SOL    HW136263   0.082   5.956   1.827 -0.2839  0.5293 -0.0361
 8528SOL    HW236264  -0.073   5.922   1.865 -0.4661  1.1007 -0.2487
 8529SOL     OW36265   0.253   0.985   1.249 -0.4031  0.4359  0.0120
 8529SOL    HW136266   0.229   0.978   1.152 -0.8275 -1.1662  0.2175
 8529SOL    HW236267   0.314   0.910   1.274 -0.1723  0.9248  0.9600
 8530SOL     OW36268   2.221   9.205   4.329 -0.6685 -0.3191 -0.0244
 8530SOL    HW136269   2.158   9.264   4.279  0.4202  1.1503  0.3203
 8530SOL    HW236270   2.233   9.119   4.279 -3.0195 -0.6840 -0.0434
 8531SOL     OW36271   1.648   4.577   3.616 -0.0453  0.6831  0.1242
 8531SOL    HW136272   1.634   4.605   3.521  2.8048  0.0025 -0.5521
 8531SOL    HW236273   1.717   4.636   3.658  0.1595 -0.2717  1.1384
 8532SOL     OW36274   2.209   2.449   1.887 -0.1884  0.2550 -0.1298
 8532SOL    HW136275   2.212   2.353   1.915 -1.6740  0.6557  1.4543
 8532SOL    HW236276   2.302   2.485   1.880  0.4207 -1.5100 -1.5599
 8533SOL     OW36277   2.437   8.673   4.449  0.4715  0.1867 -0.0964
 8533SOL    HW136278   2.501   8.748   4.432 -0.5317  1.1634  0.4546
 8533SOL    HW236279   2.344   8.708   4.452 -0.0910 -1.2213 -0.7345
 8534SOL     OW36280   9.988   1.050   1.753 -0.3725 -0.4531  0.3836
 8534SOL    HW136281  10.007   1.092   1.842  0.3448  0.9506 -0.4084
 8534SOL    HW236282  10.074   1.020   1.712 -0.4268  1.0242 -0.8522
 8535SOL     OW36283   3.698   1.785   2.528 -0.0857 -0.0963  0.1195
 8535SOL    HW136284   3.684   1.872   2.481  0.5001  0.1644  0.4219
 8535SOL    HW236285   3.750   1.801   2.613  0.2139 -0.7662  0.0625
 8536SOL     OW36286   4.649   9.914   4.652 -0.7744  0.1045 -0.0744
 8536SOL    HW136287   4.742   9.906   4.618 -1.6426 -1.9856 -2.0548
 8536SOL    HW236288   4.614  10.006   4.633  0.8327  0.8947  0.6533
 8537SOL     OW36289   8.830   4.450   0.151 -0.6864 -0.0575  0.7854
 8537SOL    HW136290   8.777   4.471   0.069  0.0090  1.3953  0.6870
 8537SOL    HW236291   8.887   4.370   0.133 -0.7868  0.0460 -0.0421
 8538SOL     OW36292   2.556   4.944   1.809  0.1737 -0.5145 -0.4364
 8538SOL    HW136293   2.479   4.883   1.789 -0.2176  0.2038 -1.1538
 8538SOL    HW236294   2.545   4.984   1.900 -1.7111  1.6627 -1.5646
 8539SOL     OW36295   3.435   2.233   3.259 -0.4656 -0.1485  0.3036
 8539SOL    HW136296   3.406   2.309   3.201  0.4754  0.3222  0.4454
 8539SOL    HW236297   3.356   2.199   3.310 -1.1107  0.0259 -0.5680
 8540SOL     OW36298   0.886   5.989   4.077 -0.1686 -0.1590  0.1412
 8540SOL    HW136299   0.895   5.965   3.980 -0.1384 -0.6967  0.2795
 8540SOL    HW236300   0.956   6.057   4.100 -0.8415  0.7547 -0.4698
 8541SOL     OW36301   4.651   8.603   4.348  0.5346 -0.4021  0.7294
 8541SOL    HW136302   4.733   8.660   4.353 -0.0714  0.4723  0.9577
 8541SOL    HW236303   4.570   8.662   4.348 -0.0635 -1.1862 -0.6182
 8542SOL     OW36304   8.328   4.422   0.773 -0.4503  0.3400  0.1277
 8542SOL    HW136305   8.259   4.351   0.779  0.7202 -0.6430  2.3667
 8542SOL    HW236306   8.375   4.416   0.685 -1.6298 -0.4464 -0.4535
 8543SOL     OW36307   8.712   4.569   0.500  0.1917 -0.4571 -0.0454
 8543SOL    HW136308   8.636   4.507   0.517 -0.9336  0.5429 -1.2769
 8543SOL    HW236309   8.718   4.589   0.402  2.2769 -0.8000 -0.0124
 8544SOL     OW36310   5.423   9.769   1.096  0.1563 -0.0934 -0.3017
 8544SOL    HW136311   5.444   9.845   1.157 -0.4172  0.3055 -0.6005
 8544SOL    HW236312   5.508   9.729   1.063  0.4701 -0.2783  0.7172
 8545SOL     OW36313   1.189   7.304   3.344  0.2404  0.3748  0.1930
 8545SOL    HW136314   1.149   7.250   3.270  1.3982 -1.1638  0.6488
 8545SOL    HW236315   1.256   7.368   3.306  3.0372 -2.4633  0.0959
 8546SOL     OW36316   4.133   8.085   1.822 -0.2289  0.0337  0.2679
 8546SOL    HW136317   4.213   8.143   1.807 -0.4991  0.7751  1.6630
 8546SOL    HW236318   4.058   8.116   1.765 -0.3231  0.9549  0.8965
 8547SOL     OW36319   3.920   0.766   2.563 -0.6721 -0.1294  0.2492
 8547SOL    HW136320   3.906   0.720   2.650 -2.1991  1.5531  0.9164
 8547SOL    HW236321   3.889   0.707   2.488  1.0168 -1.7407  0.7828
 8548SOL     OW36322   3.507   4.242   3.109 -0.5972 -0.4635 -0.0389
 8548SOL    HW136323   3.481   4.321   3.164 -0.5742  0.9895 -2.0472
 8548SOL    HW236324   3.598   4.257   3.070 -1.4363 -0.5640 -2.0890
 8549SOL     OW36325   9.199   0.474   0.809  0.6107  0.2695 -0.0959
 8549SOL    HW136326   9.273   0.512   0.754  0.2222  0.1421 -0.7026
 8549SOL    HW236327   9.216   0.377   0.825  1.4460  0.6118  1.1994
 8550SOL     OW36328   0.896   1.402   0.137  0.1466  0.0244  0.2601
 8550SOL    HW136329   0.832   1.347   0.083 -0.1921 -0.1834  0.8767
 8550SOL    HW236330   0.875   1.392   0.234  1.0205  0.0757  0.4536
 8551SOL     OW36331   2.147   8.452   4.708  0.4098  0.2573  0.1860
 8551SOL    HW136332   2.149   8.460   4.807  1.5964  1.0641  0.1142
 8551SOL    HW236333   2.169   8.540   4.666  0.9622 -0.3185 -0.7763
 8552SOL     OW36334   3.674   9.063   2.858  0.4586  0.7721 -0.4797
 8552SOL    HW136335   3.666   9.021   2.948 -2.0517 -1.4210 -1.6849
 8552SOL    HW236336   3.771   9.074   2.835  1.1225  2.0881  2.7761
 8553SOL     OW36337   8.429   6.940   2.314  0.1041 -0.3872  0.4407
 8553SOL    HW136338   8.332   6.963   2.305  0.1777  0.4473  1.7261
 8553SOL    HW236339   8.480   7.019   2.348  1.0860 -1.1189  0.7169
 8554SOL     OW36340   4.220   3.297   3.147 -0.4582 -0.0456  0.4471
 8554SOL    HW136341   4.176   3.208   3.137 -0.3429 -0.2652  1.8429
 8554SOL    HW236342   4.163   3.356   3.205  0.3862  0.1453  1.0933
 8555SOL     OW36343   8.899   7.086   3.707 -0.2867 -0.1930 -0.1645
 8555SOL    HW136344   8.885   7.084   3.608 -0.4896 -1.8909 -0.1164
 8555SOL    HW236345   8.884   6.995   3.744  0.4052  0.3011  1.3564
 8556SOL     OW36346   9.957   0.109   3.285 -0.5063 -0.1721  0.5661
 8556SOL    HW136347   9.886   0.071   3.227 -0.4807 -0.0041  0.4242
 8556SOL    HW236348  10.019   0.036   3.313 -1.0175 -0.4064  1.0969
 8557SOL     OW36349   9.517   2.303   1.246  0.3540  0.0204  0.0021
 8557SOL    HW136350   9.479   2.388   1.209 -0.4394  0.6444  2.1616
 8557SOL    HW236351   9.472   2.225   1.203  1.4743  0.6533 -2.3997
 8558SOL     OW36352   2.839   5.945   1.944  0.1246  0.0093  0.3371
 8558SOL    HW136353   2.871   5.920   2.036 -1.0218  2.0510  1.3124
 8558SOL    HW236354   2.759   5.890   1.921  0.8630 -1.0438  0.2251
 8559SOL     OW36355   8.839   5.316   4.424 -0.4785  0.1708 -0.5580
 8559SOL    HW136356   8.794   5.338   4.511  0.0131  0.0637 -0.2750
 8559SOL    HW236357   8.938   5.330   4.434 -0.6979  3.0300 -1.9606
 8560SOL     OW36358   8.122   0.633   2.158 -0.3568 -0.6592  0.4284
 8560SOL    HW136359   8.217   0.658   2.138 -1.2632  0.8731 -2.1845
 8560SOL    HW236360   8.071   0.714   2.186 -1.6387 -0.8749 -1.2284
 8561SOL     OW36361   8.181   8.927   4.673 -0.6819  0.4358  0.3433
 8561SOL    HW136362   8.136   8.914   4.762  0.5677 -1.3866  0.7387
 8561SOL    HW236363   8.270   8.880   4.674 -2.3518 -3.0963 -3.1766
 8562SOL     OW36364   1.504   4.635   0.059 -0.2864 -0.2046 -0.0045
 8562SOL    HW136365   1.433   4.608  -0.006  0.1575 -0.3079 -0.4528
 8562SOL    HW236366   1.464   4.692   0.130 -0.5435  0.9964 -1.0824
 8563SOL     OW36367   3.250   7.878   0.609 -0.1906  0.6156 -0.8954
 8563SOL    HW136368   3.317   7.863   0.681 -1.4163  0.7790  0.3015
 8563SOL    HW236369   3.277   7.828   0.527  1.0264  0.1280 -0.2111
 8564SOL     OW36370   3.699   4.823   3.698 -0.5101 -0.3830  0.3375
 8564SOL    HW136371   3.760   4.745   3.708  0.0373  0.4569  4.4379
 8564SOL    HW236372   3.610   4.801   3.740 -1.2685  0.2289 -0.9396
 8565SOL     OW36373   3.759   6.162   2.749 -0.4828 -0.5226  0.1118
 8565SOL    HW136374   3.856   6.181   2.734 -0.8668  1.1403 -0.3864
 8565SOL    HW236375   3.718   6.129   2.664 -0.7225  0.4437 -0.1570
 8566SOL     OW36376   6.433   7.974   3.497  0.2493 -0.8923  0.3552
 8566SOL    HW136377   6.389   7.983   3.586  0.6229  0.9757  0.3635
 8566SOL    HW236378   6.470   8.062   3.468 -0.9406 -1.1609 -2.2162
 8567SOL     OW36379   1.787   5.489   1.262 -0.5581 -0.0865  0.0915
 8567SOL    HW136380   1.782   5.554   1.337 -1.8453 -1.4203  1.1865
 8567SOL    HW236381   1.798   5.539   1.176 -0.3877  1.5143  1.0225
 8568SOL     OW36382   0.702   8.573   2.853 -0.5128 -0.0079 -0.5950
 8568SOL    HW136383   0.661   8.486   2.824 -0.2626 -0.4467  0.3681
 8568SOL    HW236384   0.638   8.647   2.834 -0.5066 -0.3242 -1.9399
 8569SOL     OW36385   9.106   0.109   2.452 -0.0177 -0.1940  0.3973
 8569SOL    HW136386   9.060   0.023   2.429 -2.0367  0.6990  0.9790
 8569SOL    HW236387   9.055   0.186   2.413  0.9304  0.8344  1.1340
 8570SOL     OW36388   4.238   4.458   0.934  0.7172  0.0065  0.2751
 8570SOL    HW136389   4.160   4.470   0.996  0.8102 -0.3442  0.4685
 8570SOL    HW236390   4.280   4.546   0.915  0.4790  0.1572  0.4432
 8571SOL     OW36391   1.117   8.808   1.461 -0.1134 -0.4871 -0.6515
 8571SOL    HW136392   1.071   8.848   1.382 -3.5924  0.1457  1.5753
 8571SOL    HW236393   1.163   8.881   1.512 -1.8108 -0.1307  0.4065
 8572SOL     OW36394   8.669   5.039   3.340 -0.2759  0.0951  0.5199
 8572SOL    HW136395   8.645   4.962   3.280  1.5476 -0.8147  0.9070
 8572SOL    HW236396   8.761   5.024   3.377 -0.8576  1.2818  2.5132
 8573SOL     OW36397   3.147   4.960   4.182 -0.0174  0.0256 -0.8967
 8573SOL    HW136398   3.060   4.916   4.159  0.0361 -1.5018  1.6329
 8573SOL    HW236399   3.134   5.019   4.261  1.2664 -0.2946 -0.4375
 8574SOL     OW36400   2.814   1.702   0.152  0.1971 -0.1347  1.2080
 8574SOL    HW136401   2.725   1.656   0.146  1.8844 -3.4018  0.1882
 8574SOL    HW236402   2.858   1.677   0.239 -0.1614  2.0842  2.0617
 8575SOL     OW36403   2.125   7.634   0.353 -0.6587  0.0781  0.8070
 8575SOL    HW136404   2.139   7.666   0.446 -1.4260  1.0144  0.6063
 8575SOL    HW236405   2.203   7.660   0.296 -1.0314  1.1384  0.7682
 8576SOL     OW36406   3.798   0.980   0.110  0.2199  0.2211 -0.3116
 8576SOL    HW136407   3.816   0.883   0.120  0.4046  0.4267  1.7151
 8576SOL    HW236408   3.860   1.032   0.170 -1.0463  1.4665 -0.0381
 8577SOL     OW36409   8.948   1.067   2.913 -0.4120 -0.0665 -0.0598
 8577SOL    HW136410   9.024   1.131   2.907 -0.0297 -0.4299  0.7522
 8577SOL    HW236411   8.867   1.113   2.949 -0.0835 -0.0798  0.7037
 8578SOL     OW36412   9.577   1.910   2.613 -0.3944  0.4701 -0.4053
 8578SOL    HW136413   9.530   1.880   2.530 -1.8625  0.8491  0.2693
 8578SOL    HW236414   9.578   1.836   2.680  0.6807  0.2050 -0.7056
 8579SOL     OW36415   7.948   1.807   1.136 -0.0353  0.4835 -0.1285
 8579SOL    HW136416   8.026   1.836   1.191  1.3734 -3.2175 -0.0835
 8579SOL    HW236417   7.977   1.792   1.042 -1.3051  1.6483 -0.7296
 8580SOL     OW36418   8.836   1.840   1.139  0.0701 -0.4560  0.3896
 8580SOL    HW136419   8.838   1.778   1.061 -0.5563 -2.4060  1.8785
 8580SOL    HW236420   8.742   1.874   1.153  0.0616 -0.5951  0.6717
 8581SOL     OW36421   4.447   8.558   1.718 -0.2018  0.2570 -0.0558
 8581SOL    HW136422   4.376   8.508   1.668 -1.3852 -0.2555  2.0706
 8581SOL    HW236423   4.410   8.593   1.804  2.3174 -0.7096  1.4978
 8582SOL     OW36424   7.628   9.421   4.710  0.9460 -0.3386 -0.9185
 8582SOL    HW136425   7.678   9.393   4.628  0.9865 -2.7182 -0.1261
 8582SOL    HW236426   7.650   9.358   4.785  2.5572  2.9954  1.5395
 8583SOL     OW36427   2.926   4.246   3.799  0.2439 -0.6382  0.0510
 8583SOL    HW136428   2.935   4.343   3.777 -0.0307 -0.6763 -0.2354
 8583SOL    HW236429   2.985   4.223   3.877 -1.5001  0.2716  1.6723
 8584SOL     OW36430   9.113   6.688   2.216 -0.2245 -0.0373 -0.1597
 8584SOL    HW136431   9.118   6.705   2.314 -1.0470  1.1411 -0.3113
 8584SOL    HW236432   9.092   6.592   2.199  0.9047 -0.4604  0.7942
 8585SOL     OW36433   5.978   9.473   3.902 -0.2108 -0.8241 -0.2379
 8585SOL    HW136434   6.051   9.529   3.865 -0.7085 -0.1042 -0.1367
 8585SOL    HW236435   5.945   9.410   3.831 -0.3971 -0.2248 -0.6896
 8586SOL     OW36436   2.998   9.300   4.112  0.1027 -0.1704 -0.3021
 8586SOL    HW136437   2.936   9.222   4.108  0.8630 -0.7809 -0.2511
 8586SOL    HW236438   3.087   9.271   4.146  0.1885  0.8548  0.3860
 8587SOL     OW36439   1.601   9.750   1.187  0.1519  0.8346  0.1790
 8587SOL    HW136440   1.610   9.679   1.117 -0.8606 -0.2336  1.1095
 8587SOL    HW236441   1.568   9.834   1.145 -0.1364  0.2954 -0.6888
 8588SOL     OW36442   8.608   9.889   1.026 -0.1854  0.4633  0.4380
 8588SOL    HW136443   8.610   9.988   1.010  2.6356  0.5820  1.2061
 8588SOL    HW236444   8.700   9.852   1.016 -1.3428 -2.2633 -0.6990
 8589SOL     OW36445   0.879   3.473   1.903  0.3130 -0.1175  0.1509
 8589SOL    HW136446   0.970   3.497   1.936 -0.1853  0.4795  1.1203
 8589SOL    HW236447   0.874   3.374   1.890  0.7999 -0.2630  1.0338
 8590SOL     OW36448   9.494   0.521   4.123  0.2020 -0.4987 -0.3198
 8590SOL    HW136449   9.489   0.443   4.061 -2.5711 -1.1511  0.6177
 8590SOL    HW236450   9.540   0.494   4.207  1.0987 -0.5261 -0.8156
 8591SOL     OW36451   3.859   7.688   0.360 -0.2028  0.2924  0.0736
 8591SOL    HW136452   3.948   7.652   0.389  0.8545  3.4719  0.9728
 8591SOL    HW236453   3.787   7.647   0.417  0.9594 -0.2778  1.1692
 8592SOL     OW36454   4.033   6.198   2.805 -0.1977  0.0346 -0.3211
 8592SOL    HW136455   4.068   6.140   2.732 -0.4578  1.0104 -1.2326
 8592SOL    HW236456   4.082   6.178   2.890  0.2572 -0.9499 -0.8083
 8593SOL     OW36457   8.878   8.477   0.774 -0.1468  0.2855 -0.2825
 8593SOL    HW136458   8.853   8.554   0.834  0.0066 -0.8016  1.2020
 8593SOL    HW236459   8.975   8.485   0.749 -0.2820  0.8979 -0.6306
 8594SOL     OW36460   8.450   9.499   2.118 -0.2148  0.4041  0.3180
 8594SOL    HW136461   8.534   9.554   2.113 -1.3132  1.9527 -1.5352
 8594SOL    HW236462   8.376   9.547   2.072 -1.4895 -2.1501 -0.3739
 8595SOL     OW36463   0.180   9.534   3.864  0.0624 -0.7492 -0.3423
 8595SOL    HW136464   0.263   9.568   3.820  0.5005  0.7644  1.6030
 8595SOL    HW236465   0.191   9.436   3.883  0.7186 -0.9362 -1.5751
 8596SOL     OW36466   1.153   9.683   2.166  0.2646  0.3106  0.3880
 8596SOL    HW136467   1.115   9.742   2.238  0.7195 -2.5512  3.1175
 8596SOL    HW236468   1.079   9.636   2.119  0.0481  0.6767  0.3638
 8597SOL     OW36469   0.746   3.430   3.342  0.3658 -0.1904  0.3273
 8597SOL    HW136470   0.842   3.456   3.351  0.3889 -0.0772 -0.2301
 8597SOL    HW236471   0.738   3.330   3.335  0.5548 -0.1201 -0.9884
 8598SOL     OW36472   3.059   5.385   0.011  0.0313  0.5618  0.1448
 8598SOL    HW136473   3.158   5.394   0.016 -0.0834  0.8465  2.7671
 8598SOL    HW236474   3.035   5.288  -0.001  0.6424  0.6528 -1.8785
 8599SOL     OW36475   1.844   2.663   0.584  0.0228 -0.1810  0.8111
 8599SOL    HW136476   1.892   2.596   0.642  0.8632  0.1242  0.4795
 8599SOL    HW236477   1.780   2.616   0.524  0.6405 -0.6933  0.5488
 8600SOL     OW36478   9.941   6.184   0.442  0.3176  0.1027  0.5743
 8600SOL    HW136479  10.010   6.217   0.379 -1.1291 -0.3462 -1.2969
 8600SOL    HW236480   9.969   6.094   0.478  0.4579 -0.3191 -0.5766
 8601SOL     OW36481   9.905   0.524   3.763  0.3008 -0.1565 -0.1989
 8601SOL    HW136482   9.961   0.484   3.691 -1.4244 -0.2248 -1.5476
 8601SOL    HW236483   9.916   0.623   3.764  1.8221 -0.3246  0.7551
 8602SOL     OW36484   8.661   9.499   3.801 -0.1527  0.4368 -0.4808
 8602SOL    HW136485   8.686   9.582   3.851  1.9899 -1.1990  1.2753
 8602SOL    HW236486   8.674   9.514   3.703  1.4540  1.7724 -0.0973
 8603SOL     OW36487   8.124   1.899   3.266 -0.8517 -0.2363  0.0183
 8603SOL    HW136488   8.220   1.922   3.248 -0.7411 -1.5469 -1.1472
 8603SOL    HW236489   8.110   1.887   3.365  0.6254 -1.9067  0.0425
 8604SOL     OW36490   4.150   2.380   3.095  0.3399 -0.7754  0.4097
 8604SOL    HW136491   4.142   2.467   3.046 -3.0646 -0.5949  1.1430
 8604SOL    HW236492   4.201   2.314   3.039 -1.3794  0.1463 -2.3234
 8605SOL     OW36493   0.327   2.301   3.467 -0.2502  0.4489  0.2050
 8605SOL    HW136494   0.253   2.368   3.460  0.1314  0.8088 -0.4810
 8605SOL    HW236495   0.392   2.315   3.392 -0.6647 -1.3039 -0.4967
 8606SOL     OW36496   0.146   4.185   3.880  0.1276  0.4046 -0.4041
 8606SOL    HW136497   0.067   4.152   3.932 -0.3307  1.4601 -0.4259
 8606SOL    HW236498   0.230   4.161   3.929 -0.0533 -2.9248 -1.5854
 8607SOL     OW36499   4.579   2.745   3.059  0.1331 -0.6939  0.4352
 8607SOL    HW136500   4.617   2.808   2.990 -1.0672 -0.3924  0.0294
 8607SOL    HW236501   4.557   2.797   3.142 -2.9259 -0.1056 -0.6737
 8608SOL     OW36502   5.256   9.865   2.618 -0.7420 -0.5173 -0.0608
 8608SOL    HW136503   5.349   9.841   2.591 -0.5802  1.4419 -1.3972
 8608SOL    HW236504   5.255   9.898   2.712 -0.1373 -0.8664  0.0657
 8609SOL     OW36505   2.622   5.544   1.571 -0.3208  0.1602 -0.4091
 8609SOL    HW136506   2.693   5.594   1.621  0.3604 -1.7513  0.5865
 8609SOL    HW236507   2.541   5.533   1.629 -0.8163  0.8900 -0.9521
 8610SOL     OW36508   1.020   9.511   1.076 -0.0431  0.8501 -0.3797
 8610SOL    HW136509   1.058   9.527   1.167 -0.8446 -0.5039  0.2218
 8610SOL    HW236510   1.053   9.580   1.013  0.6219  1.7393  0.9205
 8611SOL     OW36511   4.220   9.526   2.059  0.3229 -0.0429  0.5749
 8611SOL    HW136512   4.198   9.438   2.017  1.3232  1.5264 -3.4822
 8611SOL    HW236513   4.139   9.585   2.056  0.3736  0.0456  0.9421
 8612SOL     OW36514   9.053   2.997   0.055 -0.0338  0.6418 -0.1664
 8612SOL    HW136515   8.966   3.036   0.088 -0.8320 -0.2531 -1.1613
 8612SOL    HW236516   9.036   2.948  -0.030  1.7290  1.6307 -1.0980
 8613SOL     OW36517   6.892   9.862   1.228 -0.8635  0.3100 -0.4271
 8613SOL    HW136518   6.796   9.857   1.255 -0.5515  0.9358  0.8543
 8613SOL    HW236519   6.899   9.869   1.129 -2.0578 -1.7498 -0.6747
 8614SOL     OW36520   5.358   2.156   2.076  0.5972 -0.3847 -0.2159
 8614SOL    HW136521   5.331   2.061   2.091  1.4987 -0.3961  1.5770
 8614SOL    HW236522   5.402   2.165   1.987  0.1129 -1.5560 -0.5786
 8615SOL     OW36523   0.565   7.475   3.242  0.6759  0.2233 -0.7146
 8615SOL    HW136524   0.509   7.462   3.160 -2.3187  1.0114  1.1420
 8615SOL    HW236525   0.608   7.565   3.239 -0.2295  0.6557 -0.9622
 8616SOL     OW36526   2.934   5.800   2.562  0.2861 -0.2577 -0.6470
 8616SOL    HW136527   2.925   5.818   2.660 -0.6278  0.5657 -0.8759
 8616SOL    HW236528   2.902   5.879   2.510  0.3658 -0.8506 -1.6223
 8617SOL     OW36529   3.159   4.725   4.430  0.1588  0.0836  0.8563
 8617SOL    HW136530   3.114   4.674   4.503  2.2927 -2.1012  0.7069
 8617SOL    HW236531   3.244   4.764   4.463  0.4050  0.3300 -0.0394
 8618SOL     OW36532   9.589   4.854   1.596 -0.6066  0.5406  0.0440
 8618SOL    HW136533   9.567   4.773   1.650  1.0353  0.1114  0.0874
 8618SOL    HW236534   9.599   4.933   1.657  1.3033  0.0454  0.3922
 8619SOL     OW36535   8.348   6.642   1.865  0.4249  0.1055 -0.6752
 8619SOL    HW136536   8.415   6.699   1.818  1.9952  0.3260  1.7297
 8619SOL    HW236537   8.394   6.587   1.934 -2.0097  1.2451  1.9565
 8620SOL     OW36538   1.745   0.009   1.361 -0.4751 -0.0386  0.4056
 8620SOL    HW136539   1.738  -0.085   1.397 -0.1413 -0.6842 -1.1722
 8620SOL    HW236540   1.656   0.053   1.365 -0.0920  0.6097  3.8282
 8621SOL     OW36541   8.980   3.940   2.708 -0.2635 -0.2610  0.1791
 8621SOL    HW136542   8.969   3.862   2.769 -0.9696 -0.0600  0.3216
 8621SOL    HW236543   8.947   4.023   2.755 -0.4052 -0.0366 -0.3132
 8622SOL     OW36544   8.498   2.643   3.382  0.2489 -0.0314 -0.6967
 8622SOL    HW136545   8.581   2.699   3.379 -1.6545  2.9749  1.5386
 8622SOL    HW236546   8.493   2.596   3.470 -0.9419  0.6106 -0.4198
 8623SOL     OW36547   4.516   4.446   0.059 -0.6945 -0.0297  0.4589
 8623SOL    HW136548   4.516   4.452  -0.041 -3.9131  1.4821  0.5010
 8623SOL    HW236549   4.484   4.355   0.086 -2.3494  0.4505  0.1265
 8624SOL     OW36550   7.561   4.876   4.685  0.6514  0.1455  0.5554
 8624SOL    HW136551   7.546   4.910   4.593 -0.5940  0.1780  0.7627
 8624SOL    HW236552   7.477   4.833   4.720  0.8652  0.8268  1.9580
 8625SOL     OW36553   8.290   7.931   1.122 -0.4639  0.1660  0.2597
 8625SOL    HW136554   8.365   7.956   1.184 -0.3637  0.8457 -0.1338
 8625SOL    HW236555   8.255   8.013   1.077 -1.4936 -0.1413  0.4906
 8626SOL     OW36556   6.832   8.911   2.269 -0.1652  0.7169  0.3961
 8626SOL    HW136557   6.844   8.879   2.364  0.6353 -1.8676 -0.5196
 8626SOL    HW236558   6.922   8.926   2.228 -0.5091  1.6606 -0.0209
 8627SOL     OW36559   5.513   9.614   4.136  0.2428  0.0063  0.1157
 8627SOL    HW136560   5.591   9.568   4.095  0.0382 -0.9482  0.7754
 8627SOL    HW236561   5.544   9.679   4.205  0.5635  1.2813 -1.2092
 8628SOL     OW36562   1.635   3.789   3.947  0.1033  0.1390  0.1051
 8628SOL    HW136563   1.720   3.754   3.986 -0.4709 -0.0324  1.2179
 8628SOL    HW236564   1.628   3.762   3.851  1.6525  0.7757 -0.2053
 8629SOL     OW36565   2.260   3.001   4.683 -0.0818 -0.2639 -0.2369
 8629SOL    HW136566   2.238   2.905   4.697  1.0925 -0.7405 -1.5754
 8629SOL    HW236567   2.312   3.035   4.761  0.0230 -0.8863 -0.0335
 8630SOL     OW36568   3.870   5.450   2.517 -0.4932  0.3561  0.0150
 8630SOL    HW136569   3.910   5.358   2.515  0.3388  0.7317 -1.1036
 8630SOL    HW236570   3.773   5.445   2.493 -0.0395 -0.0354 -1.8350
 8631SOL     OW36571   9.661   8.665   3.156 -0.4235  0.3558  0.4180
 8631SOL    HW136572   9.603   8.744   3.174 -0.1370  0.5940  0.3017
 8631SOL    HW236573   9.604   8.589   3.122 -1.2987 -0.7955  4.2621
 8632SOL     OW36574   8.501   3.841   4.401  0.8746  0.3784 -0.1669
 8632SOL    HW136575   8.574   3.867   4.337  1.1393 -1.1978 -0.5037
 8632SOL    HW236576   8.494   3.742   4.406 -0.1583  0.5003  1.1193
 8633SOL     OW36577   1.903   9.924   2.222 -0.0538 -0.8341  0.0680
 8633SOL    HW136578   1.848   9.985   2.166 -0.7439 -1.7673 -0.2799
 8633SOL    HW236579   1.955   9.862   2.163 -0.9940 -2.0088  0.4561
 8634SOL     OW36580   2.063   0.591   0.630 -0.3162  0.2837 -0.0688
 8634SOL    HW136581   2.059   0.571   0.532 -0.2064 -0.8684  0.1565
 8634SOL    HW236582   2.089   0.508   0.680 -1.4188  0.5843  1.0259
 8635SOL     OW36583   7.102   8.975   1.417 -1.0119 -0.3258 -0.4191
 8635SOL    HW136584   7.197   8.943   1.421 -0.2579  1.9996  1.2707
 8635SOL    HW236585   7.072   8.975   1.321  0.9156 -0.4708 -1.0628
 8636SOL     OW36586   5.141   0.445   2.863 -0.5811 -0.1017  0.0349
 8636SOL    HW136587   5.145   0.390   2.947 -0.0067  0.5094  0.4050
 8636SOL    HW236588   5.053   0.429   2.818 -0.7533 -0.6978  0.5678
 8637SOL     OW36589   8.483   0.137   4.368  0.0703  0.1033 -0.1721
 8637SOL    HW136590   8.518   0.061   4.422 -0.3398  0.8812  1.2121
 8637SOL    HW236591   8.399   0.110   4.321  0.2766 -0.4855 -0.2056
 8638SOL     OW36592   9.997   3.140   3.272 -0.1709  0.3019 -0.4050
 8638SOL    HW136593  10.002   3.111   3.176 -1.3101  0.4718 -0.5235
 8638SOL    HW236594  10.019   3.237   3.279  0.5707  0.1321 -0.4111
 8639SOL     OW36595   0.965   2.526   2.029 -0.1939  0.1347  0.0397
 8639SOL    HW136596   1.020   2.461   2.082  2.0891  1.2394 -0.9060
 8639SOL    HW236597   0.960   2.613   2.078 -1.7556 -0.1996  0.4782
 8640SOL     OW36598   4.541   8.429   3.319 -0.0676 -0.2337  0.3017
 8640SOL    HW136599   4.542   8.501   3.388 -0.2729  0.1219 -0.0603
 8640SOL    HW236600   4.509   8.343   3.359  1.1200 -0.3706  0.9742
 8641SOL     OW36601   9.880   4.009   3.441 -0.6735  0.0474 -0.0738
 8641SOL    HW136602   9.904   3.925   3.391  1.2031  1.3844 -1.4608
 8641SOL    HW236603   9.960   4.040   3.493 -1.4712  0.7782  0.7160
 8642SOL     OW36604   8.728   0.999   2.584  0.1109 -0.8498  0.3737
 8642SOL    HW136605   8.765   0.911   2.613  0.6217 -1.1720 -1.1971
 8642SOL    HW236606   8.799   1.051   2.537 -0.6378 -0.2660 -0.1218
 8643SOL     OW36607   9.838   6.911   4.476 -0.3721 -0.2840 -0.2264
 8643SOL    HW136608   9.788   6.830   4.447 -2.2670  0.5568  0.6023
 8643SOL    HW236609   9.859   6.904   4.574 -1.3280  0.6150  0.0514
 8644SOL     OW36610   9.412   9.732   1.352  0.1710 -0.1041  0.0488
 8644SOL    HW136611   9.450   9.695   1.267 -0.3219  0.6077 -0.4851
 8644SOL    HW236612   9.415   9.662   1.423 -0.0263 -0.9151 -0.7327
 8645SOL     OW36613   6.656   7.255   2.219  0.1434 -0.3531 -0.2283
 8645SOL    HW136614   6.714   7.316   2.165 -1.6348  0.4845 -1.2348
 8645SOL    HW236615   6.666   7.277   2.316 -0.6609  1.7396 -0.5835
 8646SOL     OW36616   2.104   0.269   1.395  0.1766 -0.3807  0.3171
 8646SOL    HW136617   2.162   0.350   1.394  0.4234 -0.5404  1.1534
 8646SOL    HW236618   2.117   0.218   1.310 -0.5104  0.8237 -0.5111
 8647SOL     OW36619   3.773   7.696   4.072 -0.5482 -0.1930 -0.2199
 8647SOL    HW136620   3.726   7.705   4.160  2.0389  0.2528  1.1618
 8647SOL    HW236621   3.856   7.642   4.084 -0.4180 -0.5605 -2.5174
 8648SOL     OW36622   0.057   1.409   3.208 -0.4067  0.4859  0.0431
 8648SOL    HW136623   0.140   1.369   3.169 -1.3090  0.4003 -1.8410
 8648SOL    HW236624   0.081   1.492   3.259  0.7729  0.7465 -0.9083
 8649SOL     OW36625   0.064   5.787   4.593  0.2273  0.5595 -0.1476
 8649SOL    HW136626   0.116   5.738   4.664  0.2704  0.5799 -0.1651
 8649SOL    HW236627   0.077   5.741   4.505 -0.6834 -0.0842  0.0522
 8650SOL     OW36628   0.216   6.714   0.853 -0.4885 -0.4326  0.1342
 8650SOL    HW136629   0.314   6.719   0.874 -0.9073 -0.5107  2.2785
 8650SOL    HW236630   0.165   6.697   0.938 -2.1602 -3.0294 -1.3261
 8651SOL     OW36631   3.574   9.598   0.916  0.4019 -0.1499 -0.6309
 8651SOL    HW136632   3.516   9.595   0.998 -0.0247  0.0168 -0.9219
 8651SOL    HW236633   3.644   9.668   0.926 -0.2633  0.5552 -0.8077
 8652SOL     OW36634   1.162   6.247   3.358 -0.2429  0.0306 -0.5605
 8652SOL    HW136635   1.195   6.309   3.287 -0.6912  0.1262 -0.6875
 8652SOL    HW236636   1.234   6.232   3.425 -0.0281  0.4410 -0.6974
 8653SOL     OW36637   9.270   9.299   1.464  0.2699 -0.5816  0.1766
 8653SOL    HW136638   9.249   9.322   1.369 -1.0515  3.8128  1.4205
 8653SOL    HW236639   9.186   9.275   1.512  0.7307 -1.2612  0.6616
 8654SOL     OW36640   9.956   7.223   2.288 -0.0576  1.1610  0.2408
 8654SOL    HW136641   9.909   7.208   2.375 -1.3831  0.5050 -0.5625
 8654SOL    HW236642  10.036   7.163   2.282 -0.4004  0.6531  0.7019
 8655SOL     OW36643   2.155   8.601   2.650  0.1337  0.4382  0.5023
 8655SOL    HW136644   2.178   8.566   2.740  0.0594  1.3601  0.8827
 8655SOL    HW236645   2.204   8.549   2.580  0.8075  0.2439  1.1199
 8656SOL     OW36646   8.978   7.551   2.549  0.0932 -0.2932 -0.5159
 8656SOL    HW136647   9.029   7.467   2.566 -0.8414 -0.8019 -0.2314
 8656SOL    HW236648   8.885   7.542   2.583  0.1497  1.0712  0.0620
 8657SOL     OW36649   2.552   8.657   2.942 -0.3525  0.6278 -0.0505
 8657SOL    HW136650   2.531   8.563   2.969 -0.0321  0.8254  0.9238
 8657SOL    HW236651   2.496   8.720   2.995 -0.4975  0.9920 -0.6343
 8658SOL     OW36652   4.476   0.571   1.552 -0.2057 -0.2479 -0.1366
 8658SOL    HW136653   4.409   0.501   1.579 -0.4618 -0.5242 -1.4730
 8658SOL    HW236654   4.446   0.615   1.468  0.5903  0.6211  0.0274
 8659SOL     OW36655   2.906   0.142   4.122 -0.2980 -0.2409 -0.2327
 8659SOL    HW136656   2.974   0.215   4.117 -1.8672  1.5421  3.0586
 8659SOL    HW236657   2.938   0.071   4.184 -1.4772  0.6662  1.4291
 8660SOL     OW36658   4.859   9.675   1.364 -0.4667  0.2421  0.0549
 8660SOL    HW136659   4.903   9.635   1.284 -0.4581 -4.0748  2.0960
 8660SOL    HW236660   4.779   9.727   1.334  0.8978  0.7518 -2.9289
 8661SOL     OW36661   9.497   5.037   1.993  0.1168  0.1519  1.0263
 8661SOL    HW136662   9.536   5.048   1.902 -0.3643  0.7771  0.8888
 8661SOL    HW236663   9.521   4.947   2.029 -0.2380 -0.3620  0.0099
 8662SOL     OW36664   2.717   5.505   4.524 -0.5964 -0.9159 -0.1426
 8662SOL    HW136665   2.697   5.587   4.471 -1.0075 -0.7029  0.3458
 8662SOL    HW236666   2.645   5.490   4.592  0.2441 -0.8446  0.7727
 8663SOL     OW36667   6.132   8.975   2.580 -0.4294 -0.6681  0.1490
 8663SOL    HW136668   6.226   8.942   2.575 -0.2637  0.1259 -2.2890
 8663SOL    HW236669   6.131   9.071   2.606 -0.3853  0.1036 -2.5654
 8664SOL     OW36670   8.802   8.703   4.041 -0.3921 -0.4879  0.0483
 8664SOL    HW136671   8.744   8.775   4.078  0.1694 -0.2743  0.5234
 8664SOL    HW236672   8.747   8.640   3.986 -0.5947  1.3895 -1.9891
 8665SOL     OW36673   2.063   5.275   2.946  0.1083 -0.4861 -0.1008
 8665SOL    HW136674   2.150   5.284   2.995  0.5192 -0.7026 -0.7779
 8665SOL    HW236675   2.071   5.319   2.856 -0.4965 -0.4632 -0.1435
 8666SOL     OW36676   2.474   4.664   1.031 -0.7570 -0.3873  0.2515
 8666SOL    HW136677   2.498   4.725   0.955 -0.0479 -2.2580 -1.0501
 8666SOL    HW236678   2.505   4.705   1.117  0.4961  0.6841 -0.6883
 8667SOL     OW36679   7.984   0.813   1.410 -0.2281 -0.1496 -0.0750
 8667SOL    HW136680   7.897   0.831   1.455 -0.3981 -1.7920  0.3155
 8667SOL    HW236681   8.059   0.838   1.471 -0.4140  1.0713 -0.3326
 8668SOL     OW36682   8.363   2.324   1.880 -0.2520  0.3816 -0.0360
 8668SOL    HW136683   8.348   2.356   1.974 -1.2015 -0.2086  0.0186
 8668SOL    HW236684   8.385   2.402   1.821 -1.8020  1.0487  0.2464
 8669SOL     OW36685   9.152   2.940   0.310  0.1119 -0.1702 -0.8850
 8669SOL    HW136686   9.093   3.013   0.345  0.7678 -0.1585  0.2355
 8669SOL    HW236687   9.203   2.973   0.231 -0.0687  0.3832 -0.7746
 8670SOL     OW36688   9.531   4.514   2.329  0.0287 -0.5214  0.1673
 8670SOL    HW136689   9.586   4.521   2.412  1.2609  1.2112 -0.7633
 8670SOL    HW236690   9.445   4.563   2.342  0.7925  0.9151  0.0056
 8671SOL     OW36691   5.049   6.502   2.833 -0.1916 -0.5656 -0.7763
 8671SOL    HW136692   5.014   6.426   2.779  0.5809 -0.8634 -0.8598
 8671SOL    HW236693   5.131   6.539   2.790  0.2104 -0.5568 -0.0124
 8672SOL     OW36694   1.516   5.851   1.124 -0.4719  0.2646  0.6351
 8672SOL    HW136695   1.481   5.944   1.127 -0.1154  0.3837  1.2832
 8672SOL    HW236696   1.448   5.788   1.162 -0.9396  0.1874 -0.3279
 8673SOL     OW36697   2.379   3.128   1.151  0.8579  0.4249 -0.1227
 8673SOL    HW136698   2.408   3.036   1.176  1.1452  0.8178  1.0135
 8673SOL    HW236699   2.311   3.123   1.078  0.1187 -0.7280  0.6267
 8674SOL     OW36700   8.136   9.827   3.005 -0.6459  0.6131  0.2144
 8674SOL    HW136701   8.176   9.796   2.918 -2.0461 -0.5005 -0.0370
 8674SOL    HW236702   8.180   9.913   3.032  0.0077  0.8263 -1.4448
 8675SOL     OW36703   3.548   3.539   2.728 -0.4980 -0.4022  0.0966
 8675SOL    HW136704   3.499   3.625   2.714 -0.9848 -0.3045  2.1686
 8675SOL    HW236705   3.578   3.533   2.824 -1.3743 -2.9983  0.2390
 8676SOL     OW36706   9.124   7.075   0.491  0.2112 -0.4771 -0.0276
 8676SOL    HW136707   9.125   7.047   0.394 -0.9014  0.7203 -0.4001
 8676SOL    HW236708   9.172   7.162   0.501  1.2326 -1.1199  0.6773
 8677SOL     OW36709   4.080   3.156   4.516 -0.6961 -0.4310  0.0433
 8677SOL    HW136710   4.078   3.077   4.454  0.1225 -1.1834  0.9569
 8677SOL    HW236711   4.016   3.225   4.484 -0.8014 -1.1147 -1.2471
 8678SOL     OW36712   9.946   4.751   1.992  0.0283 -0.2094 -0.0275
 8678SOL    HW136713   9.875   4.683   2.012  0.7959 -0.5134  1.7677
 8678SOL    HW236714  10.031   4.704   1.969 -0.1564  0.1531 -1.4657
 8679SOL     OW36715   9.537   9.835   2.535 -0.9469  0.4846 -0.4162
 8679SOL    HW136716   9.576   9.867   2.449 -2.9486  2.2689 -0.6992
 8679SOL    HW236717   9.455   9.781   2.516  0.6457 -2.2765  0.2295
 8680SOL     OW36718   7.142   9.752   2.780 -0.3422 -0.0509 -0.7163
 8680SOL    HW136719   7.174   9.774   2.688 -0.1078 -0.7084 -0.7932
 8680SOL    HW236720   7.125   9.836   2.831 -0.0322  0.3068 -1.2099
 8681SOL     OW36721   2.216   1.513   2.880 -0.4440 -0.1564 -0.3913
 8681SOL    HW136722   2.150   1.473   2.817 -0.9867 -0.3469  0.2871
 8681SOL    HW236723   2.287   1.446   2.902  0.1320  0.1406 -1.3402
 8682SOL     OW36724   4.233   9.218   4.364 -0.2109  0.4373 -0.0492
 8682SOL    HW136725   4.246   9.288   4.293  1.4368 -1.2065 -1.4375
 8682SOL    HW236726   4.232   9.262   4.454 -0.4041  2.3674 -0.9634
 8683SOL     OW36727   9.076   0.254   2.043 -0.5447 -0.7279  0.0030
 8683SOL    HW136728   9.148   0.251   2.112  0.6582  0.3085 -1.1776
 8683SOL    HW236729   9.016   0.333   2.060  1.0502  0.8408 -1.3461
 8684SOL     OW36730   5.022   7.477   3.560  0.6427  0.2100 -0.3538
 8684SOL    HW136731   5.099   7.540   3.552  1.5611 -1.0769 -1.9783
 8684SOL    HW236732   4.944   7.513   3.509  0.7119  0.6895 -0.1282
 8685SOL     OW36733   9.332   0.611   3.397  0.2441 -0.0825 -0.4216
 8685SOL    HW136734   9.331   0.670   3.317  0.3335 -1.1644 -1.2314
 8685SOL    HW236735   9.425   0.606   3.434  0.7802 -1.8152 -1.9424
 8686SOL     OW36736   0.922   9.521   4.258  0.0362  0.5726  0.2489
 8686SOL    HW136737   0.930   9.467   4.342  2.0513  1.3273  0.5842
 8686SOL    HW236738   0.942   9.463   4.179  0.1535  0.3231  0.4586
 8687SOL     OW36739   2.431   5.142   2.668 -0.6739  0.2262 -0.0413
 8687SOL    HW136740   2.419   5.094   2.755 -0.3728 -0.0979 -0.1781
 8687SOL    HW236741   2.465   5.078   2.599 -0.7784  0.5145 -0.3627
 8688SOL     OW36742   1.667   3.504   1.062 -0.6207 -0.0584  0.2800
 8688SOL    HW136743   1.631   3.421   1.018  0.2329 -0.4923  0.3936
 8688SOL    HW236744   1.753   3.531   1.018  0.5768 -0.8504  2.0610
 8689SOL     OW36745   1.013   2.403   0.553  0.0771 -0.7692  0.2165
 8689SOL    HW136746   0.980   2.312   0.575 -0.5759 -1.4997 -3.4517
 8689SOL    HW236747   0.935   2.465   0.541  0.4002 -0.3856  0.0699
 8690SOL     OW36748   0.838   2.095   2.659 -0.5248  0.1955 -0.5704
 8690SOL    HW136749   0.898   2.016   2.648  0.0655  0.8642 -2.1959
 8690SOL    HW236750   0.759   2.085   2.598 -1.0125  0.3217  0.0408
 8691SOL     OW36751   3.677   6.755   3.474  0.1499 -0.4340  1.0518
 8691SOL    HW136752   3.640   6.670   3.436  0.0435 -0.0346  0.2776
 8691SOL    HW236753   3.753   6.733   3.535  2.0001 -0.8994 -1.3890
 8692SOL     OW36754   3.972   0.776   1.333 -0.1652 -0.5206 -0.0392
 8692SOL    HW136755   3.913   0.826   1.269  1.0523  1.0221 -0.0072
 8692SOL    HW236756   4.022   0.705   1.283 -1.1958 -1.0842 -0.2806
 8693SOL     OW36757   3.217   8.138   4.466  0.3801  0.6052  0.1994
 8693SOL    HW136758   3.259   8.048   4.468 -0.9748 -0.0204  0.7879
 8693SOL    HW236759   3.265   8.196   4.400  0.8047 -0.7546 -0.6935
 8694SOL     OW36760   1.706   7.849   4.688 -0.3100  0.4054 -0.5575
 8694SOL    HW136761   1.659   7.930   4.724 -0.0771 -0.2488  1.2426
 8694SOL    HW236762   1.721   7.861   4.590  1.7558  3.5421  0.0712
 8695SOL     OW36763   7.481   9.154   4.409  0.1952 -0.8594  0.5971
 8695SOL    HW136764   7.382   9.161   4.420  0.0860  2.1627 -1.5582
 8695SOL    HW236765   7.503   9.086   4.340 -0.4947 -0.2953 -0.1856
 8696SOL     OW36766   7.738   9.885   2.215  0.0997 -0.0993  0.3966
 8696SOL    HW136767   7.750   9.948   2.292 -0.2025 -0.4867  0.7612
 8696SOL    HW236768   7.779   9.796   2.238 -1.0228 -0.5764  0.5686
 8697SOL     OW36769   9.519   3.604   1.437  0.2446 -0.1417 -0.3083
 8697SOL    HW136770   9.506   3.703   1.425  0.7196  0.2413  2.1441
 8697SOL    HW236771   9.616   3.582   1.427  0.2660 -0.2202  0.0625
 8698SOL     OW36772   8.186   9.161   1.443  0.9888 -0.1463  0.0210
 8698SOL    HW136773   8.197   9.101   1.364  0.6554 -1.0793  0.6822
 8698SOL    HW236774   8.234   9.122   1.522  2.2712  1.3396  0.0077
 8699SOL     OW36775   2.070   9.541   3.505  0.7245  0.2139 -0.1925
 8699SOL    HW136776   2.044   9.504   3.594 -1.7784  1.9553 -0.1436
 8699SOL    HW236777   2.169   9.554   3.502  1.0828 -1.8079  1.5513
 8700SOL     OW36778   2.082   3.347   0.116 -0.3702 -0.3503 -0.0519
 8700SOL    HW136779   1.999   3.400   0.137 -0.5266  0.2662 -2.1575
 8700SOL    HW236780   2.147   3.405   0.068  0.7558 -1.2111  0.4172
 8701SOL     OW36781   9.561   0.610   1.266 -0.2495  0.4599  0.3226
 8701SOL    HW136782   9.577   0.707   1.283  0.0141  0.9258 -2.3878
 8701SOL    HW236783   9.542   0.564   1.353  2.2963  2.3989  1.9985
 8702SOL     OW36784   9.448   9.565   0.249  0.2562  0.1470 -0.2189
 8702SOL    HW136785   9.488   9.649   0.211  2.1301 -1.2667 -1.4596
 8702SOL    HW236786   9.499   9.537   0.330  0.4838 -0.5215 -0.5887
 8703SOL     OW36787   0.731   8.862   0.871 -0.1174 -0.2082  0.0587
 8703SOL    HW136788   0.759   8.773   0.907  1.0956 -0.1392 -0.6785
 8703SOL    HW236789   0.705   8.852   0.775  0.4468  0.2939 -0.1542
 8704SOL     OW36790   5.334   9.546   1.223  0.2787  0.4265  0.5416
 8704SOL    HW136791   5.418   9.492   1.219  0.1556  0.3522 -1.6777
 8704SOL    HW236792   5.354   9.641   1.201  0.1103  0.8400  2.1245
 8705SOL     OW36793   9.962   0.998   0.586  0.1143 -0.3801  0.4168
 8705SOL    HW136794  10.056   1.031   0.585 -0.5950  1.7670  1.6739
 8705SOL    HW236795   9.925   1.002   0.679 -1.9198  0.9281 -0.3987
 8706SOL     OW36796   9.668   6.054   4.427 -0.1091 -0.1951  0.5550
 8706SOL    HW136797   9.656   5.960   4.460 -2.3253 -0.0389  0.2608
 8706SOL    HW236798   9.702   6.052   4.333  3.6537 -0.6532  1.8465
 8707SOL     OW36799   0.787   9.836   4.699  0.5125  0.6101  0.6354
 8707SOL    HW136800   0.868   9.853   4.756  1.0094  2.8919 -0.6838
 8707SOL    HW236801   0.718   9.905   4.717 -0.2499 -0.0050  0.1238
 8708SOL     OW36802   3.782   9.879   2.564  0.1901  0.4322 -0.5402
 8708SOL    HW136803   3.690   9.887   2.526 -0.1445 -0.7135  0.0220
 8708SOL    HW236804   3.843   9.838   2.496  0.2958  1.1797 -0.9080
 8709SOL     OW36805   2.495   0.454   3.959 -0.3227  0.5256 -0.3218
 8709SOL    HW136806   2.585   0.452   4.001 -0.9659  0.5499  1.0849
 8709SOL    HW236807   2.451   0.365   3.968 -0.1791  0.3097 -1.6163
 8710SOL     OW36808   2.827   4.131   0.693 -0.2600  0.6392  0.1990
 8710SOL    HW136809   2.818   4.231   0.696  0.8897  0.7352  1.0419
 8710SOL    HW236810   2.893   4.102   0.762 -0.5231 -0.7026 -0.1062
 8711SOL     OW36811   0.283   3.720   0.334 -0.2027  0.4558  0.2601
 8711SOL    HW136812   0.365   3.677   0.371  0.5355  0.9709 -0.7612
 8711SOL    HW236813   0.308   3.805   0.288 -1.0400 -0.3472 -1.7331
 8712SOL     OW36814   2.695   2.564   3.743  0.3301 -0.0830  0.2589
 8712SOL    HW136815   2.636   2.625   3.690  1.1873  0.8221  0.3295
 8712SOL    HW236816   2.655   2.547   3.833  0.9610  1.8372  0.9183
 8713SOL     OW36817   2.401   4.678   4.313 -0.0072 -0.0035  0.4339
 8713SOL    HW136818   2.463   4.756   4.302  0.3509 -0.4465 -0.7134
 8713SOL    HW236819   2.397   4.653   4.410  1.1149  0.4423  0.6044
 8714SOL     OW36820   2.077   6.080   3.420 -0.4765 -0.0993  0.2946
 8714SOL    HW136821   1.988   6.124   3.409  0.0275  0.4086 -2.0374
 8714SOL    HW236822   2.148   6.150   3.420  0.0775 -0.6603 -0.0882
 8715SOL     OW36823   8.042   2.841   2.822  0.1322 -0.1471  0.0679
 8715SOL    HW136824   8.048   2.840   2.922 -0.1897  0.3676  0.0944
 8715SOL    HW236825   8.134   2.837   2.783  0.2589 -0.3833  0.3838
 8716SOL     OW36826   1.516   3.832   3.160 -0.1718 -0.6145  0.1361
 8716SOL    HW136827   1.568   3.823   3.246  0.3197 -0.4067 -0.1342
 8716SOL    HW236828   1.478   3.924   3.154 -1.2639 -1.0253  0.7167
 8717SOL     OW36829   4.822   3.915   1.297 -0.3518  0.4076  0.1173
 8717SOL    HW136830   4.824   3.965   1.210  1.1161  0.5103  0.1908
 8717SOL    HW236831   4.780   3.971   1.368  1.3121  1.5526  0.2070
 8718SOL     OW36832   2.141   6.419   3.083  0.5539 -0.2489  0.7087
 8718SOL    HW136833   2.176   6.375   3.166 -0.2860 -1.6595  0.3391
 8718SOL    HW236834   2.214   6.423   3.014  0.5796 -1.3146  0.6610
 8719SOL     OW36835   8.958   9.973   3.957 -0.5283 -0.3101 -0.0615
 8719SOL    HW136836   9.000  10.063   3.944 -0.4360 -0.5617 -1.6776
 8719SOL    HW236837   9.026   9.901   3.937 -0.6229 -0.7385  1.1345
 8720SOL     OW36838   0.816   6.102   2.950  0.1673  0.1193  0.3645
 8720SOL    HW136839   0.836   6.051   3.034 -0.0872 -3.5596 -1.7075
 8720SOL    HW236840   0.900   6.116   2.898 -0.0806 -0.0410 -0.0821
 8721SOL     OW36841   7.744   2.242   3.639  0.9279  0.0623  0.1981
 8721SOL    HW136842   7.696   2.190   3.710 -0.2334  1.5395  0.5065
 8721SOL    HW236843   7.794   2.318   3.680  1.2070  0.2308 -0.4339
 8722SOL     OW36844   2.695   8.442   4.160  0.0808  0.0317 -0.0293
 8722SOL    HW136845   2.648   8.488   4.085 -0.0223 -0.5527 -0.3257
 8722SOL    HW236846   2.637   8.370   4.197 -0.1839  0.8176  1.1270
 8723SOL     OW36847   0.912   8.479   1.230 -0.1252  0.3470  0.3565
 8723SOL    HW136848   0.819   8.445   1.219  0.8121 -1.8635 -1.1700
 8723SOL    HW236849   0.915   8.576   1.205 -1.3184 -0.4879 -3.4847
 8724SOL     OW36850   9.162   6.343   2.515  0.0152 -0.1310  0.0676
 8724SOL    HW136851   9.077   6.362   2.465  1.6264  3.9364 -1.2940
 8724SOL    HW236852   9.228   6.301   2.454 -0.2386 -1.2312  0.5423
 8725SOL     OW36853   9.817   5.838   2.111  0.7836  0.2259  0.0271
 8725SOL    HW136854   9.726   5.808   2.138  0.1871  2.0147  0.1099
 8725SOL    HW236855   9.816   5.871   2.017  1.6930 -1.1550 -0.4786
 8726SOL     OW36856   2.665   7.965   0.884 -0.2328 -0.2737 -0.2972
 8726SOL    HW136857   2.594   7.895   0.878 -1.2775  0.9605 -3.3409
 8726SOL    HW236858   2.739   7.942   0.820  0.0303  0.7000 -0.3490
 8727SOL     OW36859   3.176   2.309   1.616 -0.6290 -0.6967 -0.1342
 8727SOL    HW136860   3.225   2.276   1.535 -0.8126  1.9597 -1.3940
 8727SOL    HW236861   3.085   2.340   1.589 -1.6319 -2.0525  1.5528
 8728SOL     OW36862   9.851   1.790   3.930  0.2271 -0.3207 -0.5412
 8728SOL    HW136863   9.804   1.789   4.018 -0.0990  0.2484 -0.7089
 8728SOL    HW236864   9.934   1.844   3.938 -0.3598  0.6260 -0.8710
 8729SOL     OW36865   9.557   5.479   0.625  0.1966  0.1244  0.6658
 8729SOL    HW136866   9.521   5.388   0.604  2.7736 -0.5784 -0.8889
 8729SOL    HW236867   9.526   5.543   0.555 -2.1019  0.6356  2.0741
 8730SOL     OW36868   2.803   8.897   4.607  0.0831  0.1406  0.2940
 8730SOL    HW136869   2.771   8.802   4.616  0.1913  0.4739  5.3723
 8730SOL    HW236870   2.903   8.898   4.608  0.1021  0.2197 -1.1846
 8731SOL     OW36871   2.337   3.397   1.200 -0.5283  0.0850 -0.3606
 8731SOL    HW136872   2.376   3.305   1.195  0.0061  0.1392  2.0598
 8731SOL    HW236873   2.246   3.397   1.158 -1.0765 -1.8833  0.7439
 8732SOL     OW36874   4.024   9.063   1.655 -0.2325 -0.4267  0.6015
 8732SOL    HW136875   4.019   9.042   1.752  1.8753 -1.0191  0.6129
 8732SOL    HW236876   3.983   9.152   1.637 -1.6107 -0.8002  1.8595
 8733SOL     OW36877   8.664   3.037   3.959  0.1492 -0.3008  0.1268
 8733SOL    HW136878   8.726   2.962   3.935  0.3546 -1.1441  3.0883
 8733SOL    HW236879   8.693   3.078   4.045 -0.3048  2.8483 -1.1493
 8734SOL     OW36880   8.375   2.047   1.852 -0.1048 -0.3159 -0.1440
 8734SOL    HW136881   8.355   2.142   1.829  0.7636 -0.1069 -0.0594
 8734SOL    HW236882   8.465   2.041   1.894 -0.5250 -1.0677  0.6650
 8735SOL     OW36883   0.743   5.239   4.180  0.0444  0.2631 -0.2653
 8735SOL    HW136884   0.653   5.203   4.206  0.8484  0.0206  2.3526
 8735SOL    HW236885   0.739   5.338   4.178  0.4447  0.3976  2.9316
 8736SOL     OW36886   1.165   5.252   0.874 -0.1743 -0.3404  0.0709
 8736SOL    HW136887   1.122   5.169   0.839 -0.5461 -0.0578 -0.1380
 8736SOL    HW236888   1.095   5.318   0.898  0.0974 -0.2974  0.7703
 8737SOL     OW36889   0.380   7.421   1.300 -0.2229 -0.3563 -0.5418
 8737SOL    HW136890   0.413   7.445   1.209 -0.8888 -0.4766 -0.8177
 8737SOL    HW236891   0.368   7.322   1.305 -1.8223 -0.1877 -0.8820
 8738SOL     OW36892   6.578   9.236   1.715  0.3409  0.7718  0.6938
 8738SOL    HW136893   6.658   9.293   1.697  1.2924 -0.3578  1.3205
 8738SOL    HW236894   6.519   9.281   1.782 -0.4197  2.3937 -1.0149
 8739SOL     OW36895   3.920   9.444   0.624 -0.6521 -0.0830 -0.7409
 8739SOL    HW136896   3.902   9.444   0.723 -0.2304  0.0875 -0.6607
 8739SOL    HW236897   3.979   9.521   0.602 -1.1403  0.1582 -1.2055
 8740SOL     OW36898   0.555   6.872   4.630  0.0506  0.1832  0.1921
 8740SOL    HW136899   0.477   6.850   4.690  0.1483  1.3252  0.7561
 8740SOL    HW236900   0.599   6.955   4.663  0.8573  0.1412 -0.7712
 8741SOL     OW36901   8.984   8.558   3.111  0.3385  0.0881  0.8222
 8741SOL    HW136902   9.021   8.468   3.088 -0.5047  0.3310 -1.6954
 8741SOL    HW236903   8.962   8.562   3.208  1.5986 -1.9647  1.2245
 8742SOL     OW36904   9.421   4.413   3.797  0.1566 -0.0868  0.1619
 8742SOL    HW136905   9.452   4.468   3.720  2.0307  0.6200  1.4106
 8742SOL    HW236906   9.494   4.349   3.824 -0.4938 -0.3381  1.3468
 8743SOL     OW36907   8.700   0.179   1.685  0.1197  0.0755 -0.1375
 8743SOL    HW136908   8.659   0.267   1.663  1.3495  1.1883  1.9371
 8743SOL    HW236909   8.799   0.185   1.680  0.2173 -1.2630 -0.1842
 8744SOL     OW36910   9.326   6.959   3.626  0.0781  0.3492 -0.6214
 8744SOL    HW136911   9.328   6.976   3.724  0.4902  0.2183 -0.6072
 8744SOL    HW236912   9.417   6.973   3.587 -0.5363  2.4548 -1.3395
 8745SOL     OW36913   0.743   3.606   4.008  0.5397 -0.1784  0.0136
 8745SOL    HW136914   0.813   3.585   3.939  0.3918  1.2139 -0.5847
 8745SOL    HW236915   0.749   3.540   4.083  2.0125 -0.5163 -0.3815
 8746SOL     OW36916   9.168   9.181   1.828  0.0467  0.5807 -0.6570
 8746SOL    HW136917   9.126   9.221   1.747 -1.6139 -0.4295 -0.3186
 8746SOL    HW236918   9.120   9.214   1.910  2.0676  2.0511 -0.0099
 8747SOL     OW36919   3.293   1.319   4.336  0.0686 -0.5120 -0.2209
 8747SOL    HW136920   3.287   1.356   4.243 -0.9003 -1.2162 -0.4427
 8747SOL    HW236921   3.232   1.241   4.345  0.3589 -0.6147  0.9375
 8748SOL     OW36922   0.477   0.759   0.366 -0.2603  0.4441 -0.1585
 8748SOL    HW136923   0.466   0.812   0.282  1.9094  0.2579 -0.6006
 8748SOL    HW236924   0.410   0.686   0.369 -2.2807  2.2268 -0.3011
 8749SOL     OW36925   3.217   1.502   1.185 -0.2586 -0.0440  0.5293
 8749SOL    HW136926   3.310   1.540   1.185  0.0260 -0.7103  1.6760
 8749SOL    HW236927   3.220   1.405   1.209 -1.2735 -0.0086  0.8339
 8750SOL     OW36928   1.567   4.857   3.962  0.6669 -0.2958  0.2369
 8750SOL    HW136929   1.500   4.790   3.994  2.0719 -2.1251 -0.5893
 8750SOL    HW236930   1.526   4.913   3.890  0.3079 -2.0077 -0.9020
 8751SOL     OW36931   9.681   1.867   2.302  0.1984 -0.0675  0.1228
 8751SOL    HW136932   9.594   1.845   2.346 -0.6194  0.0296 -1.3888
 8751SOL    HW236933   9.743   1.789   2.309 -0.2654 -0.3944  0.6104
 8752SOL     OW36934   3.738   1.071   0.739 -0.1131  1.0725  0.6219
 8752SOL    HW136935   3.763   1.006   0.811  0.7167  1.9988  1.1831
 8752SOL    HW236936   3.787   1.047   0.655 -1.4599 -0.3052  0.2024
 8753SOL     OW36937   2.971   8.277   1.600 -0.3579  0.1685  0.3462
 8753SOL    HW136938   3.016   8.303   1.686  0.9703  0.1525 -0.3346
 8753SOL    HW236939   2.982   8.179   1.585  0.6254  0.4047 -0.5297
 8754SOL     OW36940   2.474   6.615   3.667 -0.5231 -0.1143  0.1259
 8754SOL    HW136941   2.532   6.664   3.733 -2.0706 -0.5167  1.8243
 8754SOL    HW236942   2.417   6.681   3.619 -1.4349 -0.0744  1.2443
 8755SOL     OW36943   2.940   4.735   1.053  0.2529 -0.4697  0.2027
 8755SOL    HW136944   2.946   4.713   1.150  0.0229 -0.2316  0.2714
 8755SOL    HW236945   3.004   4.678   1.002 -0.6298 -1.5914  0.3243
 8756SOL     OW36946   7.277   8.224   2.696  0.5678 -0.0135  0.2238
 8756SOL    HW136947   7.191   8.271   2.676  0.0967  0.2133  2.6722
 8756SOL    HW236948   7.260   8.126   2.704  0.8947 -0.1967 -1.1295
 8757SOL     OW36949   9.395   4.796   2.514 -0.2615  0.3632 -0.0531
 8757SOL    HW136950   9.351   4.770   2.428  0.0096 -1.8474  0.4425
 8757SOL    HW236951   9.402   4.895   2.519 -0.9867  0.5549 -2.2298
 8758SOL     OW36952   1.491   6.640   2.223 -0.2786  0.7144  0.0283
 8758SOL    HW136953   1.393   6.633   2.207 -0.2750  1.7170 -0.4244
 8758SOL    HW236954   1.513   6.596   2.310 -0.6512 -2.5257 -1.4262
 8759SOL     OW36955   0.850   4.573   4.470 -0.4772 -0.0075  0.1380
 8759SOL    HW136956   0.751   4.572   4.465 -0.6125  1.7235  2.0277
 8759SOL    HW236957   0.880   4.595   4.563  1.6911 -1.6386 -0.1181
 8760SOL     OW36958   8.926   0.354   1.662 -0.5887  0.3785 -0.4700
 8760SOL    HW136959   8.973   0.286   1.718 -0.1250  0.8290 -0.3076
 8760SOL    HW236960   8.911   0.437   1.717  0.9183  1.2648 -1.3634
 8761SOL     OW36961   9.359   7.703   2.597  0.3257 -0.2178 -0.6648
 8761SOL    HW136962   9.392   7.699   2.502  0.6331  1.9342 -0.6563
 8761SOL    HW236963   9.391   7.621   2.646  0.0218 -1.4367 -2.4425
 8762SOL     OW36964   2.995   9.042   1.324 -0.3947 -0.0290 -0.0613
 8762SOL    HW136965   2.900   9.039   1.357 -0.5553  2.0839 -0.2928
 8762SOL    HW236966   2.995   9.034   1.225 -0.3796  0.7373 -0.1223
 8763SOL     OW36967   9.105   8.216   3.057  0.6315 -0.3531  0.4136
 8763SOL    HW136968   9.076   8.214   3.152  2.1335  0.2835  0.8838
 8763SOL    HW236969   9.067   8.136   3.009  0.6138 -1.1617  1.7531
 8764SOL     OW36970   5.895   0.884   2.035 -0.2032  0.3300  0.2109
 8764SOL    HW136971   5.797   0.887   2.053 -0.0309  2.6889  0.9292
 8764SOL    HW236972   5.911   0.874   1.937 -1.1683  0.6192  0.0201
 8765SOL     OW36973   0.904   4.936   3.974  0.2646  0.1256  0.4013
 8765SOL    HW136974   0.833   5.002   3.948  0.9601  0.1230 -1.6211
 8765SOL    HW236975   0.987   4.953   3.920  1.8939  0.2447  2.8583
 8766SOL     OW36976   7.567   8.780   4.485 -0.3139  0.2232  0.4709
 8766SOL    HW136977   7.529   8.853   4.541  0.5025  0.9282  0.1035
 8766SOL    HW236978   7.623   8.819   4.412  1.0416 -0.8185  0.9471
 8767SOL     OW36979   3.505   4.045   1.591  0.0592 -0.1863  0.2962
 8767SOL    HW136980   3.449   3.988   1.651  1.1175  0.2425  1.7248
 8767SOL    HW236981   3.450   4.117   1.551 -1.2960 -2.1485 -1.4933
 8768SOL     OW36982   4.019   7.032   3.424 -0.3776  0.1596 -0.1146
 8768SOL    HW136983   3.928   7.074   3.421 -0.3239  0.2729 -0.1476
 8768SOL    HW236984   4.045   7.017   3.519 -1.1670 -1.4815 -0.1419
 8769SOL     OW36985   9.233   9.873   1.501 -0.2348  0.0872  0.5507
 8769SOL    HW136986   9.145   9.833   1.476 -0.5860  1.0634  0.2273
 8769SOL    HW236987   9.304   9.837   1.440 -0.9746  1.9329 -1.4697
 8770SOL     OW36988   7.509   0.402   1.826  0.4152  0.1901  0.1174
 8770SOL    HW136989   7.479   0.306   1.823  1.5085 -0.1290 -0.8234
 8770SOL    HW236990   7.606   0.406   1.847  0.4783  1.0874 -0.3399
 8771SOL     OW36991   0.856   0.961   4.041 -0.0692  0.1303  0.1766
 8771SOL    HW136992   0.781   0.935   3.979  0.5633  1.3232 -1.1222
 8771SOL    HW236993   0.937   0.906   4.020 -0.0337  0.1232  0.3375
 8772SOL     OW36994   9.975   9.340   2.049 -0.0117 -0.1601 -0.4776
 8772SOL    HW136995  10.060   9.347   1.996  0.5460 -2.3045  0.0836
 8772SOL    HW236996   9.900   9.313   1.988  0.4517 -1.7432 -0.3827
 8773SOL     OW36997   9.703   3.524   2.590  0.3164 -0.4749 -0.0704
 8773SOL    HW136998   9.692   3.619   2.618  0.2902 -0.0416 -1.4858
 8773SOL    HW236999   9.613   3.480   2.584  0.2447 -0.2905 -0.3782
 8774SOL     OW37000   0.330   5.242   4.494 -0.3160 -0.1444  0.4450
 8774SOL    HW137001   0.421   5.202   4.482 -0.0350  0.2056  1.3317
 8774SOL    HW237002   0.261   5.171   4.482  0.0668 -0.3744 -0.4178
 8775SOL     OW37003   9.904   2.743   4.764  0.2744  0.1548  0.2635
 8775SOL    HW137004   9.912   2.685   4.683 -1.0555  0.2864  0.0300
 8775SOL    HW237005   9.854   2.694   4.835  0.2700  0.5369  0.5231
 8776SOL     OW37006   0.916   5.721   4.195 -0.1713 -0.1047  0.6179
 8776SOL    HW137007   0.950   5.758   4.281  0.2800  1.1976 -0.1019
 8776SOL    HW237008   0.874   5.795   4.141  0.1268 -0.7647 -0.5428
 8777SOL     OW37009   5.822   8.228   2.255  0.4154 -0.2616 -0.1234
 8777SOL    HW137010   5.909   8.181   2.240  0.5729 -0.1776  0.5175
 8777SOL    HW237011   5.798   8.279   2.173  0.0753 -1.7261 -0.9554
 8778SOL     OW37012   4.681   0.961   0.284 -0.3472 -0.3842  0.1280
 8778SOL    HW137013   4.726   1.033   0.232  1.0967 -0.8508  0.6849
 8778SOL    HW237014   4.715   0.962   0.378  1.7841 -3.5028 -0.5253
 8779SOL     OW37015   4.320   9.624   2.306  0.1385 -0.0346 -0.6840
 8779SOL    HW137016   4.417   9.647   2.310  0.0728  0.2608 -0.7672
 8779SOL    HW237017   4.297   9.591   2.215  0.2051 -0.3116 -0.6024
 8780SOL     OW37018   2.784   3.423   1.780  0.2894 -0.1682  0.0139
 8780SOL    HW137019   2.807   3.414   1.683  0.7907  0.6674  0.0590
 8780SOL    HW237020   2.804   3.337   1.826 -0.4865 -0.7640 -0.7269
 8781SOL     OW37021   2.529   5.142   1.127  0.2395 -0.4167 -0.2303
 8781SOL    HW137022   2.445   5.089   1.114  1.0785 -1.0095 -3.7842
 8781SOL    HW237023   2.606   5.080   1.144  0.5592 -0.1334 -0.6095
 8782SOL     OW37024   0.275   6.303   2.091  0.6875  0.4137  0.0363
 8782SOL    HW137025   0.195   6.361   2.075 -0.7935 -1.9092 -1.1047
 8782SOL    HW237026   0.286   6.290   2.190 -0.4524  0.5972  0.1995
 8783SOL     OW37027   2.924   3.331   2.674 -0.3339 -0.0673 -0.0799
 8783SOL    HW137028   2.891   3.424   2.693 -1.9344 -0.4642 -0.7859
 8783SOL    HW237029   3.013   3.318   2.716 -0.9252  1.1811  1.6191
 8784SOL     OW37030   8.361   5.314   4.006  0.4739  0.0244 -0.2166
 8784SOL    HW137031   8.419   5.330   3.926 -2.0251 -1.1305 -2.3211
 8784SOL    HW237032   8.419   5.300   4.087  3.2339 -2.8346 -2.5434
 8785SOL     OW37033   9.337   3.963   0.047 -0.3183  0.6081  0.0810
 8785SOL    HW137034   9.425   3.928   0.017 -0.1134  1.6221 -0.5332
 8785SOL    HW237035   9.326   3.945   0.145  0.5097  0.3610  0.1364
 8786SOL     OW37036   2.915   7.246   3.075  0.0861  0.0440  0.0192
 8786SOL    HW137037   2.839   7.199   3.030 -1.0619  0.9668  0.9699
 8786SOL    HW237038   2.989   7.181   3.092 -1.0646 -1.1878  0.3887
 8787SOL     OW37039   1.794   8.205   1.401  0.3865  0.0532  0.5234
 8787SOL    HW137040   1.756   8.145   1.331  1.2142 -0.6792  0.6928
 8787SOL    HW237041   1.750   8.295   1.396 -1.4754 -0.8144  0.8177
 8788SOL     OW37042   5.966   0.250   2.852 -0.2091 -0.3865 -0.1326
 8788SOL    HW137043   5.910   0.213   2.778  1.5612  0.0886 -1.7234
 8788SOL    HW237044   5.946   0.200   2.937 -1.0925 -1.9944 -1.2614
 8789SOL     OW37045   2.162   0.595   4.004  0.0225  0.6961 -0.2740
 8789SOL    HW137046   2.250   0.635   4.026 -0.0835  0.6440  0.2490
 8789SOL    HW237047   2.153   0.585   3.904  1.0218 -0.2501 -0.2746
 8790SOL     OW37048   1.588   3.765   0.054  0.2665 -0.1093  0.0456
 8790SOL    HW137049   1.569   3.706   0.132 -0.0026 -0.3977 -0.2355
 8790SOL    HW237050   1.655   3.834   0.080 -0.2243  0.1276  0.6839
 8791SOL     OW37051   0.578   9.296   3.395 -0.4174  0.2029  0.2896
 8791SOL    HW137052   0.580   9.378   3.452  0.9634  0.7312 -0.4938
 8791SOL    HW237053   0.552   9.321   3.302  1.6365  0.0406 -0.3574
 8792SOL     OW37054   0.548   2.481   1.566  0.1491  0.2861 -0.2429
 8792SOL    HW137055   0.533   2.577   1.542  0.2196  0.2341 -0.4929
 8792SOL    HW237056   0.621   2.443   1.509  1.6924  0.7147  1.3661
 8793SOL     OW37057   8.063   0.827   3.617  0.3458 -0.2487 -0.3490
 8793SOL    HW137058   8.059   0.813   3.715 -0.0690  0.7521 -0.2145
 8793SOL    HW237059   8.052   0.924   3.596 -1.4598 -0.6641 -1.4793
 8794SOL     OW37060   8.059   1.443   3.590 -0.0472 -0.3807 -0.1507
 8794SOL    HW137061   7.982   1.424   3.529  0.5262 -0.0423 -0.9845
 8794SOL    HW237062   8.144   1.414   3.547  0.4671  0.7852  0.0615
 8795SOL     OW37063   1.171   6.415   3.133 -0.5957 -0.5147 -0.0512
 8795SOL    HW137064   1.073   6.411   3.115 -0.6969  0.1408  0.3365
 8795SOL    HW237065   1.200   6.511   3.139  0.2183 -0.6984 -0.9732
 8796SOL     OW37066   9.168   1.364   0.508 -0.2377  0.2337 -0.0883
 8796SOL    HW137067   9.100   1.404   0.570 -1.2120  0.0479 -1.0127
 8796SOL    HW237068   9.234   1.310   0.560 -0.5731  0.7461  0.8684
 8797SOL     OW37069   1.124   0.332   2.727  0.5320 -0.1626  0.0983
 8797SOL    HW137070   1.223   0.346   2.723  0.4356  0.7574  0.7366
 8797SOL    HW237071   1.087   0.326   2.635  1.2384 -0.9233 -0.1411
 8798SOL     OW37072   2.935   8.132   1.081  0.1395 -0.1418  0.7319
 8798SOL    HW137073   2.957   8.057   1.143  2.2070  0.9127  1.3320
 8798SOL    HW237074   2.960   8.105   0.988  0.6863 -0.2642  0.9128
 8799SOL     OW37075   1.437   6.640   1.603 -0.0798 -0.3958 -0.4603
 8799SOL    HW137076   1.444   6.673   1.697 -1.8767  0.0925 -0.4867
 8799SOL    HW237077   1.527   6.644   1.559  0.1643  2.2890  0.2425
 8800SOL     OW37078   0.841   5.682   1.338 -0.4309  0.0413  0.1586
 8800SOL    HW137079   0.854   5.595   1.292 -1.9316 -0.3967  0.5321
 8800SOL    HW237080   0.893   5.683   1.424  1.8722  0.6266 -1.2227
 8801SOL     OW37081   8.232   9.154   0.102 -0.2274  0.0242 -0.2255
 8801SOL    HW137082   8.188   9.065   0.096 -0.6558  0.3223 -1.6429
 8801SOL    HW237083   8.309   9.158   0.038 -0.0183  0.5670  0.0520
 8802SOL     OW37084   7.962   6.953   1.941  0.4018 -0.2548 -0.4886
 8802SOL    HW137085   7.961   6.890   1.864 -0.1237  0.0948 -0.7712
 8802SOL    HW237086   8.033   7.023   1.926  0.3465 -0.2276 -0.6212
 8803SOL     OW37087   0.941   5.095   4.299  0.7933  0.2479  0.3823
 8803SOL    HW137088   0.869   5.157   4.266  0.6545  0.5398  1.1986
 8803SOL    HW237089   0.926   5.004   4.262  0.4780  0.5038 -0.1238
 8804SOL     OW37090   4.690   3.664   1.255  0.0992 -0.2955  0.2246
 8804SOL    HW137091   4.728   3.580   1.216  0.3163 -0.0920 -0.0036
 8804SOL    HW237092   4.762   3.733   1.260 -0.4784  0.4045 -1.0993
 8805SOL     OW37093   3.889   8.472   2.348  0.1981 -0.2738  0.2007
 8805SOL    HW137094   3.944   8.465   2.431  0.4057 -2.3240 -0.0616
 8805SOL    HW237095   3.941   8.522   2.278  1.4499 -1.4763  0.2280
 8806SOL     OW37096   9.367   0.686   4.761 -0.3563  0.0330  0.0060
 8806SOL    HW137097   9.434   0.733   4.818 -0.4905 -1.1234  1.1329
 8806SOL    HW237098   9.282   0.739   4.759  0.1118  0.7808 -0.2686
 8807SOL     OW37099   5.170   8.697   2.544  0.1750  0.1685  0.7532
 8807SOL    HW137100   5.216   8.727   2.627  2.6967  1.3388 -1.0005
 8807SOL    HW237101   5.191   8.601   2.526  0.7511  0.2992  0.7347
 8808SOL     OW37102   3.732   7.060   2.800 -0.5608 -0.0975  0.2430
 8808SOL    HW137103   3.689   7.105   2.722  0.0861  1.0751  0.5559
 8808SOL    HW237104   3.814   7.011   2.770 -0.9052 -0.5308  0.0092
 8809SOL     OW37105   9.840   9.115   1.498 -0.3207 -0.3101  0.5950
 8809SOL    HW137106   9.761   9.094   1.557 -1.8320  0.7178 -0.9966
 8809SOL    HW237107   9.875   9.206   1.522 -1.2727  0.3388 -0.4018
 8810SOL     OW37108   9.256   5.689   2.921  0.3881 -0.1126  0.2960
 8810SOL    HW137109   9.317   5.609   2.917  0.9923  0.2735  1.5555
 8810SOL    HW237110   9.246   5.718   3.016 -1.0816  0.3674  0.0035
 8811SOL     OW37111   4.467   3.587   1.423 -0.6571  0.1761  0.1264
 8811SOL    HW137112   4.474   3.492   1.454 -0.3945  0.7477  1.8899
 8811SOL    HW237113   4.557   3.619   1.396 -0.4331  0.4302  1.1359
 8812SOL     OW37114   9.751   7.699   2.051 -0.7171  0.3522  0.2637
 8812SOL    HW137115   9.768   7.644   2.133  1.1682  1.0465  0.3682
 8812SOL    HW237116   9.775   7.645   1.970 -3.5226 -0.6970  0.0566
 8813SOL     OW37117   8.828   1.831   1.890 -0.0988  0.0979  0.2015
 8813SOL    HW137118   8.904   1.767   1.894 -0.0018  0.1695 -0.4710
 8813SOL    HW237119   8.812   1.858   1.795 -0.0226  1.2102  0.5032
 8814SOL     OW37120   6.805   0.577   2.027 -0.3210 -0.5359 -0.0297
 8814SOL    HW137121   6.838   0.671   2.027 -1.4124 -0.1461 -0.6374
 8814SOL    HW237122   6.810   0.540   2.120 -0.3751  0.2945  0.3021
 8815SOL     OW37123   3.034   3.096   0.461  0.4290 -0.9060 -0.0249
 8815SOL    HW137124   3.090   3.044   0.397  0.3674  0.2676 -1.0617
 8815SOL    HW237125   2.954   3.042   0.487  0.1449 -1.1649 -1.4174
 8816SOL     OW37126   7.745   1.632   1.681  0.6748 -0.0357  0.8512
 8816SOL    HW137127   7.722   1.656   1.775 -0.3446  0.0680  0.5744
 8816SOL    HW237128   7.826   1.573   1.681  1.2630  0.7613  1.7257
 8817SOL     OW37129   4.372   1.042   2.618 -0.1881  0.2569 -0.7232
 8817SOL    HW137130   4.316   1.008   2.542 -1.4879  1.3834 -0.2847
 8817SOL    HW237131   4.440   1.107   2.583 -1.0465  1.0756 -0.8740
 8818SOL     OW37132   8.352   1.426   2.085  0.1475  0.3432  0.4299
 8818SOL    HW137133   8.259   1.389   2.082  0.1785  0.3320 -0.9295
 8818SOL    HW237134   8.417   1.351   2.098  0.1446 -0.0061 -1.3876
 8819SOL     OW37135   9.435   7.911   0.425 -0.3899 -0.2381  0.2769
 8819SOL    HW137136   9.533   7.905   0.404 -0.6843 -1.1824 -0.9176
 8819SOL    HW237137   9.388   7.832   0.385 -1.6508  0.2465  0.7815
 8820SOL     OW37138   3.076   1.155   4.066  0.1049 -0.2487  0.1011
 8820SOL    HW137139   3.025   1.223   4.119  0.0652 -0.4865  0.3679
 8820SOL    HW237140   3.128   1.201   3.994  1.0995  0.2117  1.0859
 8821SOL     OW37141   8.315   1.551   4.605 -0.0514  0.0204  0.4526
 8821SOL    HW137142   8.217   1.543   4.623 -0.2871 -0.2254 -0.8536
 8821SOL    HW237143   8.348   1.640   4.637 -0.6262 -0.0411  1.2210
 8822SOL     OW37144   1.884   5.724   3.975  0.4377  0.4029 -0.0495
 8822SOL    HW137145   1.807   5.760   4.026 -0.4157 -0.1285 -0.9411
 8822SOL    HW237146   1.929   5.797   3.924 -0.3132  0.4803 -0.5995
 8823SOL     OW37147   7.598   2.220   0.926 -0.1771 -0.2260  0.1883
 8823SOL    HW137148   7.582   2.142   0.865  0.6430 -0.2401 -0.0105
 8823SOL    HW237149   7.544   2.208   1.010 -1.2598 -0.2313 -0.4994
 8824SOL     OW37150   0.886   1.270   0.396  0.4410  0.3652 -0.3596
 8824SOL    HW137151   0.788   1.286   0.411  0.1442 -0.6136 -1.1523
 8824SOL    HW237152   0.936   1.289   0.480 -0.8817 -2.7045  1.2289
 8825SOL     OW37153   7.562   9.001   4.640 -0.2405 -0.1961  0.6664
 8825SOL    HW137154   7.559   9.077   4.575  1.4807 -0.5501  0.1409
 8825SOL    HW237155   7.568   9.037   4.733 -0.7608  0.3025  0.5145
 8826SOL     OW37156   4.431   3.282   2.539  0.1723  0.4689  0.1146
 8826SOL    HW137157   4.357   3.309   2.601  1.2169 -0.3576  1.7681
 8826SOL    HW237158   4.519   3.312   2.577  1.0783 -2.4092  0.4575
 8827SOL     OW37159   5.495   9.312   2.682 -0.1657 -0.2378 -0.0330
 8827SOL    HW137160   5.401   9.290   2.657 -0.2324 -0.7916  0.6706
 8827SOL    HW237161   5.549   9.228   2.687 -0.0518 -0.1025  1.2048
 8828SOL     OW37162   3.997   3.629   3.841 -0.3639  0.6566  0.2871
 8828SOL    HW137163   4.083   3.587   3.868 -1.5281 -2.4091 -0.5272
 8828SOL    HW237164   3.921   3.572   3.871 -1.9581  1.0903 -2.6485
 8829SOL     OW37165   1.160   1.885   2.918 -0.2928  0.4511 -0.2998
 8829SOL    HW137166   1.081   1.937   2.951 -0.8737 -0.6607  0.0755
 8829SOL    HW237167   1.244   1.925   2.955 -0.8463  0.0600  1.3811
 8830SOL     OW37168   4.057   8.984   3.514  0.2000 -0.3332 -0.5893
 8830SOL    HW137169   4.046   8.895   3.559  0.8061  0.2472  0.7615
 8830SOL    HW237170   4.026   8.978   3.420  0.4842 -2.0557 -0.5968
 8831SOL     OW37171   8.102   6.813   1.355 -0.2923 -0.2172 -0.1765
 8831SOL    HW137172   8.034   6.761   1.408 -0.3743 -1.5873 -1.6069
 8831SOL    HW237173   8.111   6.772   1.264 -0.4541  2.3603 -1.3788
 8832SOL     OW37174   0.557   6.864   3.691 -0.0299 -0.4017 -0.5912
 8832SOL    HW137175   0.487   6.876   3.620  0.0807  1.1716 -0.4624
 8832SOL    HW237176   0.535   6.785   3.748 -0.9855 -0.7036 -1.3735
 8833SOL     OW37177   1.825   1.724   0.247 -0.1658  0.6203 -0.5574
 8833SOL    HW137178   1.837   1.805   0.189 -0.6478  0.7768 -0.4395
 8833SOL    HW237179   1.776   1.749   0.330 -1.3676 -0.0045 -1.0524
 8834SOL     OW37180   5.850   8.248   2.536 -0.7167  0.0621  0.7478
 8834SOL    HW137181   5.827   8.229   2.441 -0.8024 -0.9196  0.9612
 8834SOL    HW237182   5.881   8.164   2.581  0.7710  0.8078  1.1791
 8835SOL     OW37183   2.544   5.295   3.634  0.7897 -0.3456 -0.2159
 8835SOL    HW137184   2.571   5.356   3.560 -0.2238 -1.0612 -1.1885
 8835SOL    HW237185   2.548   5.201   3.602  0.0202 -0.6352  0.5480
 8836SOL     OW37186   8.832   1.114   0.565  0.4344 -0.4453 -0.6675
 8836SOL    HW137187   8.832   1.024   0.521  2.1686 -0.5891 -0.4267
 8836SOL    HW237188   8.804   1.183   0.499  0.7396 -0.9583 -1.3416
 8837SOL     OW37189   6.154   0.081   1.740  0.3782  0.1058 -0.3064
 8837SOL    HW137190   6.233   0.037   1.784  0.7979 -0.0329 -1.1848
 8837SOL    HW237191   6.134   0.167   1.786  1.8756  0.7893 -0.8906
 8838SOL     OW37192   7.985   0.928   4.182  0.2067 -0.2248 -0.7496
 8838SOL    HW137193   7.957   0.918   4.278  1.8935  1.2378 -0.0784
 8838SOL    HW237194   7.985   1.025   4.157  1.4217 -0.4669 -1.7254
 8839SOL     OW37195   7.807   0.053   3.620  0.4558 -0.1266 -0.1027
 8839SOL    HW137196   7.835   0.143   3.656  1.3647 -0.4603  0.0365
 8839SOL    HW237197   7.789   0.061   3.522  0.7284  0.1623 -0.1310
 8840SOL     OW37198   8.352   6.009   1.588  0.0947 -0.0135  0.8302
 8840SOL    HW137199   8.344   6.073   1.511  0.3091 -0.0100  0.8111
 8840SOL    HW237200   8.279   6.027   1.653 -0.5252 -0.4939  0.2752
 8841SOL     OW37201   9.036   8.414   3.513  0.5454 -0.2452 -0.0186
 8841SOL    HW137202   9.031   8.336   3.451 -1.4027 -0.7239  0.7223
 8841SOL    HW237203   9.071   8.384   3.602 -1.5164 -0.5718  0.7042
 8842SOL     OW37204   0.082   2.747   1.711 -0.0189  0.4430  0.3141
 8842SOL    HW137205  -0.000   2.696   1.738 -1.8972  2.9941 -0.3538
 8842SOL    HW237206   0.150   2.742   1.784 -0.3925 -2.4432  0.5176
 8843SOL     OW37207   2.178   6.493   4.656 -0.3045  0.5789  0.2517
 8843SOL    HW137208   2.242   6.569   4.640  0.1524 -0.3790 -2.6198
 8843SOL    HW237209   2.105   6.496   4.588 -1.3362 -0.4894  1.2914
 8844SOL     OW37210   4.019   3.442   0.005 -0.4114  0.0485  0.3405
 8844SOL    HW137211   3.962   3.374   0.050 -2.0431 -0.6103 -2.5804
 8844SOL    HW237212   3.961   3.516  -0.030  0.7869  0.5899 -0.5431
 8845SOL     OW37213   8.922   0.648   0.257  0.0027 -0.2678 -0.2026
 8845SOL    HW137214   8.966   0.560   0.238  0.0061 -1.1307  3.3654
 8845SOL    HW237215   8.826   0.634   0.282  0.1764  0.6250  1.0619
 8846SOL     OW37216   4.195   1.437   1.821 -0.3907 -0.2453 -0.6119
 8846SOL    HW137217   4.118   1.429   1.758  0.2993  1.1915 -1.6790
 8846SOL    HW237218   4.281   1.427   1.770  0.1431 -1.7090  0.5390
 8847SOL     OW37219   2.385   3.052   4.411  0.0607  0.0566  0.8058
 8847SOL    HW137220   2.327   3.047   4.492 -0.9297  0.3704  0.1292
 8847SOL    HW237221   2.457   2.982   4.417 -1.4761 -1.5645  0.8103
 8848SOL     OW37222   0.567   6.498   4.390  0.7065  0.2592 -0.4068
 8848SOL    HW137223   0.605   6.574   4.443 -0.5873  0.2127  0.6208
 8848SOL    HW237224   0.565   6.415   4.446 -1.6214  0.4610 -0.1530
 8849SOL     OW37225   6.247   0.599   3.498 -0.5206  0.9003  0.2928
 8849SOL    HW137226   6.196   0.640   3.422 -1.2462  1.6548  1.1714
 8849SOL    HW237227   6.344   0.619   3.487 -0.0173 -2.7499 -2.7971
 8850SOL     OW37228   1.565   5.715   4.112  0.2171  0.0696 -0.0904
 8850SOL    HW137229   1.520   5.778   4.176 -0.4302 -2.1496  1.6973
 8850SOL    HW237230   1.496   5.665   4.060  0.7304  0.6883 -1.3941
 8851SOL     OW37231   0.258   6.670   2.515  0.1113 -0.0271  0.1240
 8851SOL    HW137232   0.274   6.658   2.613 -1.9596  2.2663  0.8018
 8851SOL    HW237233   0.322   6.737   2.479  0.7999 -0.7886 -0.0796
 8852SOL     OW37234   1.814   1.940   4.343 -0.4317 -0.5655  0.6443
 8852SOL    HW137235   1.780   1.943   4.249  0.6738  0.3043  0.2647
 8852SOL    HW237236   1.902   1.892   4.345  1.0487  2.0848  0.7577
 8853SOL     OW37237   4.456   8.001   3.213 -0.3936 -0.1789 -0.0476
 8853SOL    HW137238   4.458   7.903   3.232 -1.9269  0.2025  2.1615
 8853SOL    HW237239   4.403   8.017   3.130 -1.1204 -1.1207  0.2227
 8854SOL     OW37240   3.767   9.808   0.293  0.4720 -0.3125 -0.0194
 8854SOL    HW137241   3.753   9.712   0.268  1.8491 -0.6803  0.5762
 8854SOL    HW237242   3.755   9.818   0.392  1.3755 -0.0741  0.0686
 8855SOL     OW37243   1.157   4.093   0.284  0.3786 -0.2704  0.6562
 8855SOL    HW137244   1.154   4.025   0.357 -0.2819 -0.3183  0.5866
 8855SOL    HW237245   1.180   4.049   0.198 -1.1518 -0.5783  0.4062
 8856SOL     OW37246   3.347   9.777   3.249  0.3046  0.2793 -0.3209
 8856SOL    HW137247   3.403   9.707   3.293 -0.9309 -0.4792  0.0603
 8856SOL    HW237248   3.340   9.758   3.151  1.7452  1.0797 -0.5823
 8857SOL     OW37249   7.629   8.433   2.508 -0.0855 -0.1211  0.0581
 8857SOL    HW137250   7.595   8.442   2.414  1.9754  0.7512 -0.6467
 8857SOL    HW237251   7.722   8.469   2.512  0.2456 -1.1837  2.2069
 8858SOL     OW37252   9.632   3.831   0.277 -0.9418 -0.3466 -0.4750
 8858SOL    HW137253   9.552   3.816   0.334  1.1338 -0.6480  2.4557
 8858SOL    HW237254   9.667   3.923   0.292 -1.0677  0.0057 -2.2126
 8859SOL     OW37255   1.413   5.932   4.191 -0.3613  0.5146  0.6512
 8859SOL    HW137256   1.421   6.010   4.130  1.7039 -0.9714 -1.0400
 8859SOL    HW237257   1.319   5.896   4.187 -0.7287  1.5550 -0.2266
 8860SOL     OW37258   8.801   9.065   4.120  0.0749 -0.4921 -0.0247
 8860SOL    HW137259   8.899   9.053   4.139  0.1179  0.5227  0.4042
 8860SOL    HW237260   8.752   8.981   4.144  1.3274 -2.3568 -3.5896
 8861SOL     OW37261   7.904   6.943   2.566 -0.1017  0.0193 -0.1194
 8861SOL    HW137262   7.996   6.939   2.605 -0.4129  0.5131  0.6710
 8861SOL    HW237263   7.851   6.863   2.596 -0.1152  0.0244 -0.1299
 8862SOL     OW37264   4.834   3.426   1.274  0.3150 -0.0389 -0.0542
 8862SOL    HW137265   4.910   3.455   1.216 -0.4028  3.9036  0.7967
 8862SOL    HW237266   4.864   3.422   1.369 -0.3951  1.1198  0.2318
 8863SOL     OW37267   4.439   3.707   3.696 -0.0822 -0.1832 -0.5138
 8863SOL    HW137268   4.495   3.721   3.614  0.0126 -1.8151 -0.7503
 8863SOL    HW237269   4.345   3.737   3.678 -0.2096 -1.1042 -1.4348
 8864SOL     OW37270   7.578   1.188   2.497 -0.2571 -0.2821 -0.0504
 8864SOL    HW137271   7.512   1.129   2.544 -1.1034  0.0107 -0.8606
 8864SOL    HW237272   7.581   1.277   2.543  0.3896 -0.6647  0.6543
 8865SOL     OW37273   3.095   6.896   1.547 -0.0957 -0.0079 -0.3891
 8865SOL    HW137274   3.159   6.884   1.472  0.6772  0.6220  0.1590
 8865SOL    HW237275   3.005   6.862   1.520  0.1554  0.2821 -1.6171
 8866SOL     OW37276   8.627   0.075   4.629  0.6104  0.1709  0.2872
 8866SOL    HW137277   8.691   0.116   4.693  0.3917  0.2686  0.4409
 8866SOL    HW237278   8.676   0.010   4.570  0.9665  0.6901  0.0039
 8867SOL     OW37279   7.854   0.082   4.088 -0.4045 -0.4486 -0.6277
 8867SOL    HW137280   7.807   0.018   4.027 -0.7618 -0.6133 -0.1838
 8867SOL    HW237281   7.890   0.033   4.167  2.0701 -0.6245 -1.8204
 8868SOL     OW37282   2.261   0.570   4.328 -0.2668 -0.7214  0.2212
 8868SOL    HW137283   2.343   0.551   4.383  0.1339 -0.2833 -0.2193
 8868SOL    HW237284   2.180   0.537   4.377  0.2246 -1.6890  0.3900
 8869SOL     OW37285   0.714   3.545   2.394 -0.7460 -0.3053  0.2946
 8869SOL    HW137286   0.639   3.483   2.369  0.6848 -1.4378 -1.2817
 8869SOL    HW237287   0.788   3.536   2.328 -0.4451  3.0354  0.1093
 8870SOL     OW37288   3.338   4.839   0.294  0.1145  0.0647  0.0843
 8870SOL    HW137289   3.295   4.753   0.266 -0.1133  0.3927 -0.5831
 8870SOL    HW237290   3.427   4.819   0.336  0.3794 -0.4539 -0.7024
 8871SOL     OW37291   3.470   7.261   0.599  0.0993  0.1023  0.4313
 8871SOL    HW137292   3.406   7.243   0.525 -0.3768 -0.4793  0.9799
 8871SOL    HW237293   3.531   7.183   0.611 -1.2493 -0.7430  2.0811
 8872SOL     OW37294   2.100   7.064   0.501 -1.0223 -0.2382  0.0935
 8872SOL    HW137295   2.022   7.076   0.562 -1.5681 -0.2893 -0.5784
 8872SOL    HW237296   2.164   7.140   0.512 -1.9938  0.6890 -0.5492
 8873SOL     OW37297   4.318   1.419   2.420 -0.5394 -0.0096 -0.0776
 8873SOL    HW137298   4.257   1.358   2.370  0.5019  0.6555 -2.2250
 8873SOL    HW237299   4.380   1.364   2.476 -2.0867 -0.7461  0.9577
 8874SOL     OW37300   5.606   6.403   2.859  0.3632  0.3077  0.0759
 8874SOL    HW137301   5.651   6.348   2.929  0.1010  0.3285  0.2605
 8874SOL    HW237302   5.675   6.441   2.797  0.4600 -1.6591 -1.0977
 8875SOL     OW37303   8.481   1.093   1.082 -0.1128 -0.1961 -0.4314
 8875SOL    HW137304   8.532   1.172   1.048  0.0967 -0.4063 -0.6059
 8875SOL    HW237305   8.493   1.016   1.020 -1.2466 -0.0343 -0.8728
 8876SOL     OW37306   5.502   0.762   1.836  0.0531 -0.6647 -0.0792
 8876SOL    HW137307   5.436   0.787   1.765 -0.3350 -1.0738  0.1303
 8876SOL    HW237308   5.551   0.680   1.808 -0.9110 -1.4990  0.6211
 8877SOL     OW37309   9.967   4.478   1.727  0.7290  0.4642  0.2498
 8877SOL    HW137310  10.065   4.494   1.714  0.6547  2.0520  1.4861
 8877SOL    HW237311   9.955   4.401   1.790  1.1441 -1.1082 -1.5596
 8878SOL     OW37312   8.455   2.824   1.793 -0.7747 -0.0393 -0.5155
 8878SOL    HW137313   8.485   2.731   1.769 -0.3361  0.1970 -0.8873
 8878SOL    HW237314   8.533   2.877   1.825 -1.5871 -0.7779  2.8408
 8879SOL     OW37315   1.685   1.970   1.730 -0.1652  0.3102 -0.1764
 8879SOL    HW137316   1.607   2.013   1.775 -0.6150 -0.5730 -0.1052
 8879SOL    HW237317   1.657   1.882   1.691  1.1014 -0.6353  0.9823
 8880SOL     OW37318   1.814   3.036   3.734  0.0817  0.3047 -0.2168
 8880SOL    HW137319   1.721   3.043   3.700  0.3893  2.5502 -0.6746
 8880SOL    HW237320   1.815   3.051   3.833  0.0551  1.1067 -0.3387
 8881SOL     OW37321   8.693   8.363   0.350  0.2985 -0.5985  0.1909
 8881SOL    HW137322   8.783   8.391   0.319 -0.9951  0.7906 -2.4946
 8881SOL    HW237323   8.694   8.349   0.449  3.8204 -2.1463  0.0004
 8882SOL     OW37324   1.454   5.144   3.333 -0.4579  0.0198  0.0994
 8882SOL    HW137325   1.484   5.220   3.389 -0.3948  0.9650 -1.1941
 8882SOL    HW237326   1.457   5.170   3.236 -2.2137 -0.9788 -0.2604
 8883SOL     OW37327   2.165   9.547   0.264  0.3104 -0.4477  0.7630
 8883SOL    HW137328   2.156   9.626   0.204 -0.4744 -0.8979  0.2789
 8883SOL    HW237329   2.247   9.557   0.320  2.4523 -1.1947 -2.1330
 8884SOL     OW37330   2.241   2.885   3.804  0.1644  0.2112  0.6129
 8884SOL    HW137331   2.170   2.895   3.734 -1.3743  0.8265  2.2241
 8884SOL    HW237332   2.318   2.946   3.783  0.4800 -0.8584 -1.4311
 8885SOL     OW37333   1.700   8.471   1.353  0.2240  0.2028 -0.4240
 8885SOL    HW137334   1.748   8.481   1.441  1.5528  1.0241 -1.2213
 8885SOL    HW237335   1.617   8.526   1.354  0.8089  1.0963 -0.0661
 8886SOL     OW37336   2.822   9.664   2.382  0.0855  0.6108 -0.4214
 8886SOL    HW137337   2.843   9.751   2.337  2.4495  0.5519  0.5059
 8886SOL    HW237338   2.753   9.679   2.453  0.5043  1.7356 -0.2407
 8887SOL     OW37339   3.052   5.919   3.276 -0.2048  0.0219  0.2094
 8887SOL    HW137340   3.127   5.921   3.342 -1.2947  2.2701  1.4725
 8887SOL    HW237341   2.973   5.872   3.317 -1.3433  2.5934  1.1388
 8888SOL     OW37342   0.980   0.575   2.835 -0.2260 -0.2573  0.1384
 8888SOL    HW137343   0.989   0.597   2.932 -3.6048 -1.4765  0.7769
 8888SOL    HW237344   1.034   0.494   2.814 -0.4056 -0.6802  1.2638
 8889SOL     OW37345   4.860   0.408   4.100  0.2180  0.2551  0.0146
 8889SOL    HW137346   4.795   0.410   4.176 -0.3268  0.7783 -0.4560
 8889SOL    HW237347   4.813   0.436   4.016  0.9563  0.2313 -0.4057
 8890SOL     OW37348   3.544   1.885   1.919 -0.1575 -0.0605  0.2440
 8890SOL    HW137349   3.492   1.958   1.963  0.3936 -0.0290  0.8470
 8890SOL    HW237350   3.552   1.904   1.821  0.9497  1.2611  0.5916
 8891SOL     OW37351   2.462   8.340   2.939  0.2041  0.0459 -0.1110
 8891SOL    HW137352   2.425   8.271   3.001  1.7056  0.0854  0.8516
 8891SOL    HW237353   2.538   8.301   2.887 -0.3803  0.3188 -1.1673
 8892SOL     OW37354   8.116   3.732   4.681 -0.0041 -0.3280  0.7599
 8892SOL    HW137355   8.120   3.786   4.597 -0.9816 -2.3310 -0.6188
 8892SOL    HW237356   8.045   3.769   4.741 -1.7138 -0.9552 -0.8391
 8893SOL     OW37357   3.955   9.364   4.392 -0.0340  0.2621  0.0395
 8893SOL    HW137358   3.986   9.269   4.392 -0.3096  0.1345 -1.9895
 8893SOL    HW237359   3.995   9.412   4.470 -0.9588 -1.8298  1.8621
 8894SOL     OW37360   9.535   6.813   0.174  0.3997  0.3114  0.2112
 8894SOL    HW137361   9.566   6.845   0.084  0.1126 -2.0563 -0.7713
 8894SOL    HW237362   9.437   6.829   0.183  0.2085 -0.4797 -0.3762
 8895SOL     OW37363   0.301   7.555   2.609 -0.0192  0.2044 -0.8156
 8895SOL    HW137364   0.286   7.568   2.511  1.2003 -1.0707 -1.1764
 8895SOL    HW237365   0.266   7.635   2.658 -0.2231  1.0664 -2.3168
 8896SOL     OW37366   2.835   5.762   1.639 -0.0854  0.5402 -0.4968
 8896SOL    HW137367   2.830   5.800   1.546  2.5956  1.2932 -0.3868
 8896SOL    HW237368   2.906   5.810   1.690  0.3399 -1.6853  1.0695
 8897SOL     OW37369   8.934   2.273   1.288 -0.0205  0.5087 -0.3051
 8897SOL    HW137370   8.928   2.246   1.191 -0.0989  2.4316 -0.8662
 8897SOL    HW237371   8.902   2.367   1.297 -0.5903  0.1286  1.7098
 8898SOL     OW37372   4.234   9.825   1.244 -0.0559 -0.0524  0.7752
 8898SOL    HW137373   4.166   9.870   1.303 -0.2937 -0.2662  0.6689
 8898SOL    HW237374   4.299   9.892   1.210 -1.3736  0.5027 -0.7052
 8899SOL     OW37375   3.351   2.807   0.429  0.5104 -0.2650  0.3371
 8899SOL    HW137376   3.389   2.863   0.355 -0.8030  0.5982  0.2983
 8899SOL    HW237377   3.260   2.775   0.402  0.9852 -1.8785  0.6340
 8900SOL     OW37378   3.788   8.722   3.579 -0.2513  0.0457  0.2750
 8900SOL    HW137379   3.752   8.677   3.662 -3.2924 -0.9094 -1.4669
 8900SOL    HW237380   3.809   8.653   3.510  2.9469  0.7917  0.4670
 8901SOL     OW37381   4.886   1.703   2.822  0.6907 -0.3451  0.4307
 8901SOL    HW137382   4.912   1.747   2.736 -0.4403  1.9477  1.2190
 8901SOL    HW237383   4.967   1.666   2.866  1.6529  0.7512 -0.3841
 8902SOL     OW37384   5.306   0.996   3.677 -0.2442  0.1284  0.3166
 8902SOL    HW137385   5.380   0.930   3.664  1.5985  2.3105 -0.5681
 8902SOL    HW237386   5.337   1.069   3.738 -1.5140  1.2980 -0.4170
 8903SOL     OW37387   1.017   0.337   3.245 -0.3382 -0.6141  0.3397
 8903SOL    HW137388   0.976   0.428   3.244 -0.9556 -0.8971  0.1423
 8903SOL    HW237389   1.088   0.333   3.174  1.1677  0.3850  1.7517
 8904SOL     OW37390   3.387   6.503   2.170 -0.5929  0.8016  0.1196
 8904SOL    HW137391   3.334   6.586   2.151  0.3943  1.5362  0.5580
 8904SOL    HW237392   3.481   6.528   2.192  0.0266 -0.5106 -0.9613
 8905SOL     OW37393   0.545   1.518   3.994 -0.4341 -1.0443 -0.0785
 8905SOL    HW137394   0.532   1.524   3.895  1.6914 -0.3275 -0.3414
 8905SOL    HW237395   0.637   1.483   4.013 -0.7179 -0.8846  1.6550
 8906SOL     OW37396   9.929   9.556   3.732 -0.5401  0.2093  0.3256
 8906SOL    HW137397   9.862   9.508   3.789  0.6748 -1.3845  0.4321
 8906SOL    HW237398  10.019   9.552   3.775  0.1472  0.0682 -1.1010
 8907SOL     OW37399   1.442   6.031   3.309 -0.4834 -0.0626  0.2465
 8907SOL    HW137400   1.537   6.002   3.325 -0.5114 -0.0200  0.5022
 8907SOL    HW237401   1.405   5.983   3.230 -0.0266  0.4145 -0.2676
 8908SOL     OW37402   9.661   9.293   1.268  0.3794  0.3460  0.3639
 8908SOL    HW137403   9.721   9.226   1.224 -0.9200 -0.1523 -0.6937
 8908SOL    HW237404   9.692   9.385   1.244  1.7848  0.1344  1.2998
 8909SOL     OW37405   4.269   2.039   0.690 -0.0256 -0.0868 -0.5323
 8909SOL    HW137406   4.290   2.086   0.604  0.7393  0.1021 -0.2479
 8909SOL    HW237407   4.174   2.007   0.688 -0.2227  0.5102 -1.1742
 8910SOL     OW37408   3.477   3.431   2.207 -0.0379  0.4046 -0.2282
 8910SOL    HW137409   3.576   3.444   2.212  0.0232  0.7166 -1.9525
 8910SOL    HW237410   3.452   3.346   2.253  1.1496 -0.1824 -0.6524
 8911SOL     OW37411   8.496   6.681   4.157 -0.1436  0.6078 -0.0052
 8911SOL    HW137412   8.531   6.588   4.146  0.5150  0.7901  0.5716
 8911SOL    HW237413   8.426   6.698   4.087 -1.6183 -0.9611  1.0448
 8912SOL     OW37414   1.160   6.969   3.900 -0.5764 -0.3192 -0.2519
 8912SOL    HW137415   1.231   6.899   3.912  0.2226  0.7759  1.5073
 8912SOL    HW237416   1.072   6.930   3.925 -0.2753 -1.0027 -0.2204
 8913SOL     OW37417   7.549   2.342   1.417  0.0923  0.2887  0.0537
 8913SOL    HW137418   7.556   2.440   1.403 -0.6979  0.2363 -0.7290
 8913SOL    HW237419   7.641   2.302   1.418  0.4236  1.0492  0.5455
 8914SOL     OW37420   2.643   1.970   2.467 -0.3846  0.3422 -0.3269
 8914SOL    HW137421   2.700   1.894   2.437 -1.1637  0.0276 -1.0219
 8914SOL    HW237422   2.701   2.049   2.486  0.7899 -1.2661  3.2696
 8915SOL     OW37423   3.915   1.500   2.203  0.4583 -0.4860  0.0460
 8915SOL    HW137424   3.912   1.463   2.110  1.4123 -0.1010 -0.1378
 8915SOL    HW237425   3.999   1.552   2.216  0.0664 -0.0671  0.9508
 8916SOL     OW37426   9.473   1.584   1.067 -0.1991 -0.2716 -0.3869
 8916SOL    HW137427   9.537   1.626   1.130 -1.2281 -0.1243  0.5797
 8916SOL    HW237428   9.383   1.627   1.077 -0.8935 -1.6804 -0.4519
 8917SOL     OW37429   9.175   6.168   2.732 -0.1236  0.0287  0.0922
 8917SOL    HW137430   9.121   6.085   2.752 -0.6997  0.3509 -0.1127
 8917SOL    HW237431   9.135   6.216   2.654 -1.1998  1.7566  1.6675
 8918SOL     OW37432   1.922   6.738   2.110 -0.7560 -0.1354  0.3920
 8918SOL    HW137433   1.940   6.753   2.013  0.6885 -1.0314  0.5120
 8918SOL    HW237434   1.982   6.797   2.164  0.2315 -1.4409  0.7580
 8919SOL     OW37435   8.087   4.975   1.991  0.0908 -0.0335  0.3012
 8919SOL    HW137436   8.052   5.031   2.066  0.7969 -0.6079  1.0779
 8919SOL    HW237437   8.028   4.985   1.911 -1.2164 -0.1586  1.2373
 8920SOL     OW37438   3.972   0.520   1.176  0.3925 -0.0704 -0.2265
 8920SOL    HW137439   3.884   0.494   1.216  0.0019  1.0109 -0.3552
 8920SOL    HW237440   4.042   0.455   1.203 -0.2638 -0.4223  0.6335
 8921SOL     OW37441   9.147   3.355   3.564 -0.0566 -0.0374 -0.0048
 8921SOL    HW137442   9.224   3.417   3.577 -0.6088  0.9005 -1.0859
 8921SOL    HW237443   9.153   3.312   3.474  0.3818 -1.6527  0.7822
 8922SOL     OW37444   0.104   0.892   2.680 -0.5554  0.5168  0.1758
 8922SOL    HW137445   0.102   0.799   2.643 -0.1308  0.7231 -0.3634
 8922SOL    HW237446   0.198   0.926   2.681 -0.8583  1.3860 -0.7428
 8923SOL     OW37447   7.505   8.292   1.645  0.1427 -0.5412  0.3071
 8923SOL    HW137448   7.481   8.195   1.640  0.7214 -0.7371  1.2628
 8923SOL    HW237449   7.490   8.325   1.738  1.8913 -0.2279  0.4766
 8924SOL     OW37450   1.347   9.263   4.221  0.1948 -0.2478 -0.3268
 8924SOL    HW137451   1.292   9.180   4.232 -0.2187 -0.2077 -1.9580
 8924SOL    HW237452   1.428   9.257   4.278 -0.3188 -1.3508  0.3024
 8925SOL     OW37453   9.945   8.574   1.492 -0.0935  0.5704 -0.4827
 8925SOL    HW137454  10.010   8.558   1.418  1.7973 -2.9232  1.7787
 8925SOL    HW237455   9.880   8.498   1.496  0.9389 -0.2386  2.4716
 8926SOL     OW37456   0.123   7.124   1.535 -0.0046 -0.4156 -0.2330
 8926SOL    HW137457   0.186   7.171   1.473 -1.0665  1.0146 -0.2443
 8926SOL    HW237458   0.029   7.141   1.506 -0.7270  3.3582  3.8639
 8927SOL     OW37459   8.840   0.005   2.644  0.1037  0.1413 -0.1038
 8927SOL    HW137460   8.847  -0.063   2.571  0.4663 -0.7210  0.7172
 8927SOL    HW237461   8.753   0.054   2.636 -0.4508 -0.8610 -0.3346
 8928SOL     OW37462   0.023   3.575   1.862  0.0505 -0.0480  0.7387
 8928SOL    HW137463   0.118   3.573   1.892  0.2238  3.3186  0.6310
 8928SOL    HW237464  -0.036   3.545   1.936  0.9912  0.8578  1.8627
 8929SOL     OW37465   8.303   5.385   2.557 -0.2858 -0.3627  0.0711
 8929SOL    HW137466   8.359   5.415   2.480 -0.8442  3.0759  0.9052
 8929SOL    HW237467   8.318   5.446   2.635 -0.3031 -3.3334  2.4506
 8930SOL     OW37468   1.324   4.078   1.537  0.4624 -0.1175 -0.6629
 8930SOL    HW137469   1.297   3.989   1.574 -2.4769  1.3418  0.8917
 8930SOL    HW237470   1.391   4.120   1.598 -0.6147  0.1215  0.3842
 8931SOL     OW37471   6.139   9.411   1.924 -0.0065 -0.2906 -0.3699
 8931SOL    HW137472   6.224   9.392   1.876 -0.3651  0.5749 -1.3782
 8931SOL    HW237473   6.080   9.330   1.922  0.9189 -0.9996  0.6295
 8932SOL     OW37474   9.578   6.619   1.603 -0.0364  0.8432  0.4880
 8932SOL    HW137475   9.644   6.694   1.616 -0.8716  1.6478  0.1599
 8932SOL    HW237476   9.552   6.615   1.506  0.1506  0.0045  0.4743
 8933SOL     OW37477   1.648   9.834   1.756  0.1501  0.5969  0.4601
 8933SOL    HW137478   1.553   9.831   1.724 -0.0446  0.6611  1.0264
 8933SOL    HW237479   1.697   9.753   1.723 -0.1805  0.4181  0.4069
 8934SOL     OW37480   0.568   9.949   0.010  0.3835 -0.1061  0.2659
 8934SOL    HW137481   0.498   9.938   0.081 -0.8250  2.7804 -0.3731
 8934SOL    HW237482   0.523   9.954  -0.080  1.6891 -1.3839 -0.4601
 8935SOL     OW37483   2.395   0.263   3.092 -0.3343  0.5730 -0.0229
 8935SOL    HW137484   2.479   0.316   3.108  0.0507  0.1575 -0.6149
 8935SOL    HW237485   2.321   0.325   3.069  0.5433  0.7729 -2.5023
 8936SOL     OW37486   8.698   2.990   1.785  0.4428 -0.3760 -0.2577
 8936SOL    HW137487   8.714   3.023   1.691  0.3109  0.8542  0.1399
 8936SOL    HW237488   8.726   3.061   1.850 -0.4949 -0.7815  0.6046
 8937SOL     OW37489   1.857   1.966   4.609  0.3192 -0.9260 -0.0181
 8937SOL    HW137490   1.930   1.899   4.622  0.6984 -0.6937 -0.8992
 8937SOL    HW237491   1.839   1.976   4.511 -0.8817 -0.9689  0.2008
 8938SOL     OW37492   2.797   5.081   0.651 -0.2450  0.4298 -0.1473
 8938SOL    HW137493   2.827   5.007   0.712 -1.7934  0.3014  0.4843
 8938SOL    HW237494   2.846   5.165   0.675 -0.7166  0.3473  1.1809
 8939SOL     OW37495   1.452   1.187   0.557  0.5678  0.5975  0.4286
 8939SOL    HW137496   1.548   1.209   0.546  0.8656 -0.6015  0.5464
 8939SOL    HW237497   1.420   1.134   0.478  0.2569  0.1483  0.8551
 8940SOL     OW37498   1.757   3.354   1.365  0.6122  0.7841 -0.3188
 8940SOL    HW137499   1.740   3.446   1.329 -0.3866  1.1938  1.1367
 8940SOL    HW237500   1.748   3.356   1.465  0.7954 -0.8578 -0.2595
 8941SOL     OW37501   2.411   7.720   0.844 -0.5157  0.5660  0.2417
 8941SOL    HW137502   2.433   7.742   0.749 -0.3250  0.1055  0.1761
 8941SOL    HW237503   2.372   7.800   0.889  0.0635  0.9936 -0.0204
 8942SOL     OW37504   5.061   7.602   1.806  0.4640  0.0302 -0.1300
 8942SOL    HW137505   5.112   7.518   1.786  0.7450  0.4707 -1.2789
 8942SOL    HW237506   5.022   7.638   1.722 -0.2881  0.6567  0.4788
 8943SOL     OW37507   7.819   2.846   0.600 -0.3530 -0.4566 -0.0665
 8943SOL    HW137508   7.814   2.772   0.533 -2.3834 -0.5049  0.1078
 8943SOL    HW237509   7.753   2.917   0.577  1.0128  0.9358  0.2347
 8944SOL     OW37510   1.823   0.516   1.256  0.4210 -0.2092  0.5222
 8944SOL    HW137511   1.765   0.530   1.176  1.4937  0.5381 -0.1483
 8944SOL    HW237512   1.794   0.435   1.306 -1.0108  0.0037  0.0404
 8945SOL     OW37513   1.789   3.325   2.686  0.0639  0.2000 -0.1684
 8945SOL    HW137514   1.842   3.357   2.766 -0.3946  1.2666 -0.2811
 8945SOL    HW237515   1.798   3.226   2.678 -0.4526 -0.0083  1.6242
 8946SOL     OW37516   1.445   4.530   0.646  0.0788  0.2277 -0.2602
 8946SOL    HW137517   1.468   4.437   0.618 -1.1819 -0.2086  0.0997
 8946SOL    HW237518   1.346   4.543   0.639  0.2296  1.4911 -0.1560
 8947SOL     OW37519   0.779   9.976   2.616  0.5149  0.3776 -0.0973
 8947SOL    HW137520   0.832  10.025   2.547  3.1874 -0.1365  1.4927
 8947SOL    HW237521   0.734  10.041   2.678  0.1159  0.8246 -0.8579
 8948SOL     OW37522   0.628   3.807   0.300  0.2595  0.6350  0.2590
 8948SOL    HW137523   0.548   3.867   0.305 -1.4572 -1.5761 -0.1879
 8948SOL    HW237524   0.660   3.802   0.205 -0.5702 -0.3915  0.0283
 8949SOL     OW37525   7.546   4.803   0.851 -0.0637 -0.1168  0.4180
 8949SOL    HW137526   7.551   4.797   0.950  1.4238 -0.6695  0.3213
 8949SOL    HW237527   7.638   4.811   0.813 -0.6915  1.5294 -0.8400
 8950SOL     OW37528   8.812   8.602   1.380  0.2473  0.3615 -0.3489
 8950SOL    HW137529   8.886   8.570   1.321  0.2815 -1.0156  0.4243
 8950SOL    HW237530   8.730   8.617   1.325  0.2684 -0.9413 -0.7547
 8951SOL     OW37531   2.406   0.284   2.082  0.2956  0.4830 -0.6744
 8951SOL    HW137532   2.409   0.383   2.070 -1.0960  0.4312 -1.7172
 8951SOL    HW237533   2.465   0.240   2.014 -1.3299  0.5121 -2.1573
 8952SOL     OW37534   0.710   1.721   2.198  0.2452 -0.0912  0.1195
 8952SOL    HW137535   0.739   1.728   2.293  0.5193  1.8384 -0.0978
 8952SOL    HW237536   0.781   1.676   2.145  1.1293  1.0129  0.3652
 8953SOL     OW37537   3.050   1.013   3.204 -0.0837 -0.6211  0.4642
 8953SOL    HW137538   3.066   0.923   3.244 -1.2796 -1.8182 -1.6355
 8953SOL    HW237539   3.124   1.034   3.139 -0.3130 -0.5194  0.2337
 8954SOL     OW37540   9.706   4.065   2.124  0.3442 -0.5992 -0.1201
 8954SOL    HW137541   9.715   4.151   2.173  0.1971  0.2456 -1.5573
 8954SOL    HW237542   9.730   3.989   2.185  0.6722  0.4621  1.0871
 8955SOL     OW37543   0.564   8.099   4.715 -0.1499  0.2003 -0.0227
 8955SOL    HW137544   0.552   8.099   4.616 -0.7727 -3.1482  0.0211
 8955SOL    HW237545   0.491   8.153   4.757  0.2393  1.8239 -1.3578
 8956SOL     OW37546   1.925   4.810   4.265 -0.0674 -0.0804 -0.0874
 8956SOL    HW137547   1.990   4.818   4.189 -2.3484 -1.0904 -2.2052
 8956SOL    HW237548   1.890   4.717   4.269 -1.2224  0.3974  1.1845
 8957SOL     OW37549   3.750   7.662   2.701 -0.3155  0.2597 -0.1134
 8957SOL    HW137550   3.795   7.572   2.707  0.5884  0.7325  0.2613
 8957SOL    HW237551   3.774   7.716   2.781  1.9035  2.1064 -1.9797
 8958SOL     OW37552   3.593   3.975   4.622 -0.3224  0.3057 -0.1032
 8958SOL    HW137553   3.679   3.966   4.573  1.0350 -0.1879  2.2832
 8958SOL    HW237554   3.532   3.900   4.599  0.5070 -0.2169 -0.5883
 8959SOL     OW37555   3.309   4.744   2.907 -0.3080  0.6474 -0.3021
 8959SOL    HW137556   3.220   4.702   2.892  0.0819  0.2388 -1.5312
 8959SOL    HW237557   3.320   4.824   2.849  0.6351 -0.0786 -1.1530
 8960SOL     OW37558   9.933   6.761   1.843 -0.1632 -0.2405 -0.1677
 8960SOL    HW137559   9.969   6.853   1.858  0.3435 -0.5635  0.6458
 8960SOL    HW237560  10.008   6.701   1.814 -0.3060 -0.6020  0.2065
 8961SOL     OW37561   0.603   1.692   3.351  0.0097 -0.2120  0.2080
 8961SOL    HW137562   0.614   1.791   3.359 -0.8802 -0.1420  0.6489
 8961SOL    HW237563   0.663   1.657   3.280 -0.6460  0.8255 -0.8675
 8962SOL     OW37564   4.096   6.132   2.391 -0.0525  0.6562  0.4809
 8962SOL    HW137565   4.026   6.063   2.372 -0.3144  0.9246  0.4731
 8962SOL    HW237566   4.131   6.168   2.305 -1.3382  1.9730  0.4751
 8963SOL     OW37567   8.985   5.405   3.105 -0.3349  0.1468  0.2838
 8963SOL    HW137568   8.987   5.493   3.153 -1.2388 -0.2400  1.0556
 8963SOL    HW237569   9.040   5.339   3.156 -1.7699 -0.4224  1.1420
 8964SOL     OW37570   9.792   9.401   3.924 -0.2865  0.0259 -0.6193
 8964SOL    HW137571   9.726   9.465   3.965  2.5713  2.3920  0.4189
 8964SOL    HW237572   9.835   9.347   3.997  0.3166 -0.1753 -1.1259
 8965SOL     OW37573   8.477   0.191   1.257  0.8223  0.3151  0.5221
 8965SOL    HW137574   8.412   0.120   1.283  1.0605 -0.3235 -0.5988
 8965SOL    HW237575   8.472   0.266   1.322 -1.1891  0.3661  0.3268
 8966SOL     OW37576   8.881   0.076   0.361 -0.8087  0.0566 -0.0075
 8966SOL    HW137577   8.973   0.113   0.353 -0.9805  0.6625  0.7534
 8966SOL    HW237578   8.881  -0.020   0.332  0.1254 -0.0352  0.2739
 8967SOL     OW37579   2.227   6.615   0.714  0.1822 -0.8802 -0.6448
 8967SOL    HW137580   2.148   6.650   0.665  0.2569  0.3293  0.0897
 8967SOL    HW237581   2.309   6.627   0.659 -0.1246 -2.1182 -1.3985
 8968SOL     OW37582   0.215   7.368   4.770  0.2177  0.5089  0.1023
 8968SOL    HW137583   0.154   7.444   4.791  0.0240  0.0854  1.1018
 8968SOL    HW237584   0.173   7.309   4.701 -0.1272  0.6972  0.1536
 8969SOL     OW37585   7.747   6.966   3.106 -0.0441  0.3704  1.0511
 8969SOL    HW137586   7.728   7.011   3.194  1.3103  0.8259  1.1279
 8969SOL    HW237587   7.678   6.993   3.039 -1.1391 -0.0481  2.0012
 8970SOL     OW37588   4.047   8.572   2.127  0.6705 -0.1117 -0.5810
 8970SOL    HW137589   4.118   8.621   2.178  1.8083 -2.1040 -0.2095
 8970SOL    HW237590   4.080   8.553   2.034 -0.4222  1.2748 -1.2791
 8971SOL     OW37591   5.049   7.894   2.572  0.1887 -0.1135  0.1948
 8971SOL    HW137592   5.001   7.830   2.511  2.0924 -0.7070 -0.7189
 8971SOL    HW237593   5.147   7.873   2.572  0.7103  2.1916  0.6591
 8972SOL     OW37594   1.170   4.757   1.101 -0.6893 -0.1088 -0.4567
 8972SOL    HW137595   1.157   4.704   1.018 -0.1865 -1.9745  0.6123
 8972SOL    HW237596   1.259   4.734   1.141 -1.4571 -0.1760  1.2520
 8973SOL     OW37597   1.776   1.793   2.108  0.4317 -0.2589  0.3249
 8973SOL    HW137598   1.855   1.789   2.046  0.4458 -1.2228  0.4066
 8973SOL    HW237599   1.708   1.727   2.079 -0.5485  0.8685  0.0026
 8974SOL     OW37600   3.389   9.527   4.729  0.0014 -0.1749  0.2059
 8974SOL    HW137601   3.446   9.599   4.769 -1.6416 -0.0301  2.2944
 8974SOL    HW237602   3.302   9.565   4.700 -0.2364 -1.0161 -0.2103
 8975SOL     OW37603   3.121   5.556   4.252 -0.6225  0.4644  0.2223
 8975SOL    HW137604   3.092   5.482   4.191  4.5387 -2.3081  0.8376
 8975SOL    HW237605   3.079   5.543   4.342 -2.7188  0.5361 -0.7076
 8976SOL     OW37606   8.763   0.890   3.696 -0.4425 -0.2536  0.1144
 8976SOL    HW137607   8.729   0.927   3.782  0.4746 -2.9692  1.7278
 8976SOL    HW237608   8.839   0.946   3.664 -0.7379  0.7516  1.1259
 8977SOL     OW37609   1.506   7.658   0.061  0.0447 -0.1597 -0.3794
 8977SOL    HW137610   1.568   7.717   0.009 -0.3797  0.7242  0.1101
 8977SOL    HW237611   1.422   7.708   0.082 -0.5297 -1.1145 -0.4062
 8978SOL     OW37612   5.187   9.859   4.224  0.2695  0.0100  0.0291
 8978SOL    HW137613   5.239   9.783   4.262  1.9660  0.0851 -2.0266
 8978SOL    HW237614   5.249   9.923   4.179 -1.4399  0.8690 -1.1860
 8979SOL     OW37615   1.339   4.559   1.970 -0.4269 -0.0649  0.6240
 8979SOL    HW137616   1.355   4.613   1.888  1.5102  1.1099  1.7404
 8979SOL    HW237617   1.251   4.584   2.010 -0.4697  0.7666  0.0102
 8980SOL     OW37618   1.118   1.422   3.056  0.3660  0.6155 -0.6941
 8980SOL    HW137619   1.042   1.390   3.000 -1.0554  1.2253  0.8668
 8980SOL    HW237620   1.116   1.376   3.145  1.6230  0.9022 -0.5052
 8981SOL     OW37621   9.045   5.103   3.684  0.0930 -0.0480 -0.2622
 8981SOL    HW137622   8.949   5.072   3.682 -0.0937  0.3727  1.4862
 8981SOL    HW237623   9.096   5.050   3.752  1.0302 -0.0518 -0.9646
 8982SOL     OW37624   8.502   1.812   0.882  0.4717  0.0609  0.2648
 8982SOL    HW137625   8.592   1.822   0.840  0.6894  0.9594  0.9252
 8982SOL    HW237626   8.457   1.901   0.887  0.3522 -0.0690  1.7106
 8983SOL     OW37627   1.890   4.020   3.772  0.8166 -0.7523  0.2236
 8983SOL    HW137628   1.910   4.102   3.718 -2.0297  0.2103  0.5342
 8983SOL    HW237629   1.921   4.034   3.866  0.1906  0.0547  0.3174
 8984SOL     OW37630   9.016   5.867   2.167  0.0038  0.1882  0.0969
 8984SOL    HW137631   9.100   5.885   2.218 -1.2999 -0.9077  2.7230
 8984SOL    HW237632   9.037   5.814   2.085  1.7175 -1.0321  1.3073
 8985SOL     OW37633   8.213   0.363   3.077  0.2199 -0.1014 -0.0912
 8985SOL    HW137634   8.204   0.373   3.176 -0.7451  0.2381 -0.2109
 8985SOL    HW237635   8.146   0.420   3.031  0.3133 -0.6565 -0.9377
 8986SOL     OW37636   4.725   9.566   2.522 -0.0941 -0.0832 -0.0241
 8986SOL    HW137637   4.818   9.532   2.532  0.0568  0.0310 -1.0487
 8986SOL    HW237638   4.662   9.505   2.570  0.3321 -0.9910 -0.6259
 8987SOL     OW37639   2.334   2.227   0.079 -0.3377  0.3410 -0.3642
 8987SOL    HW137640   2.241   2.217   0.044 -0.8940  0.8387  0.9219
 8987SOL    HW237641   2.357   2.324   0.086  1.0836  0.2024 -2.7092
 8988SOL     OW37642   9.562   6.450   1.818 -0.1348  0.3327 -0.0492
 8988SOL    HW137643   9.545   6.490   1.728  0.2382  0.7572  0.0697
 8988SOL    HW237644   9.616   6.513   1.873  0.0296 -0.1211  0.3135
 8989SOL     OW37645   8.931   9.677   2.681 -0.2116  0.0090 -0.1100
 8989SOL    HW137646   8.917   9.581   2.708 -0.5802 -0.0711 -0.5542
 8989SOL    HW237647   8.963   9.680   2.586 -0.1918  0.3242 -0.0931
 8990SOL     OW37648   7.731   7.067   3.363  0.4341  0.5925  0.8602
 8990SOL    HW137649   7.661   7.136   3.383  0.0961  0.6556 -0.5250
 8990SOL    HW237650   7.791   7.057   3.443 -0.1777  1.6919  1.4743
 8991SOL     OW37651   2.569   0.592   1.454  0.0684 -0.0119 -0.1833
 8991SOL    HW137652   2.506   0.589   1.532 -0.2341 -0.4496 -0.4399
 8991SOL    HW237653   2.644   0.655   1.474  0.1864 -0.3974  0.6060
 8992SOL     OW37654   8.929   2.145   4.738 -0.3497 -0.0459 -0.4188
 8992SOL    HW137655   8.966   2.110   4.652 -0.7488  0.6506 -0.8876
 8992SOL    HW237656   8.991   2.124   4.813  1.2766  1.5601 -1.2571
 8993SOL     OW37657   8.490   0.686   0.338 -0.2664 -0.3007  0.2353
 8993SOL    HW137658   8.418   0.715   0.275 -1.1104 -0.9643  0.8675
 8993SOL    HW237659   8.453   0.684   0.431  0.3695 -1.3425  0.4734
 8994SOL     OW37660   2.041   2.614   1.243  0.5654 -0.4365 -0.0407
 8994SOL    HW137661   2.047   2.713   1.255 -1.7211 -0.3082  0.1407
 8994SOL    HW237662   2.091   2.568   1.317 -0.6521  0.5395  1.4055
 8995SOL     OW37663   8.088   2.212   2.404  0.2381  0.3198 -0.6175
 8995SOL    HW137664   8.012   2.199   2.467  1.3801  3.1214  1.4320
 8995SOL    HW237665   8.163   2.150   2.429  0.8018  1.6254  1.0372
 8996SOL     OW37666   3.387   7.936   1.155  0.4294 -0.2666 -0.3669
 8996SOL    HW137667   3.420   7.849   1.190 -0.0290  0.2717  1.4375
 8996SOL    HW237668   3.446   8.010   1.189  0.7867  0.1444 -1.8330
 8997SOL     OW37669   2.801   4.403   0.682 -0.2249  0.0803 -0.6328
 8997SOL    HW137670   2.772   4.435   0.772 -0.9058  1.7557 -1.4170
 8997SOL    HW237671   2.872   4.464   0.646  1.3866 -1.6532 -0.4638
 8998SOL     OW37672   4.391   8.532   0.416 -0.9313  0.1207  0.8328
 8998SOL    HW137673   4.343   8.495   0.337 -1.8479  0.7431  1.0866
 8998SOL    HW237674   4.325   8.575   0.478  0.0055  1.4336  0.9407
 8999SOL     OW37675   0.267   4.064   2.825 -0.3241  0.1656 -0.0074
 8999SOL    HW137676   0.187   4.034   2.877 -0.1337 -2.3334 -1.0607
 8999SOL    HW237677   0.350   4.029   2.869 -0.0344 -0.0844 -0.7391
 9000SOL     OW37678   3.627   0.643   0.451 -0.5818 -0.3654 -0.4712
 9000SOL    HW137679   3.652   0.732   0.412 -0.5140  0.3834  1.2400
 9000SOL    HW237680   3.544   0.653   0.506  0.4965 -0.9323  1.3241
 9001SOL     OW37681   8.904   2.416   4.341 -0.2506  0.0450  0.0728
 9001SOL    HW137682   8.929   2.386   4.433 -0.7813 -0.8581 -0.0721
 9001SOL    HW237683   8.861   2.341   4.292 -5.1556  2.0747  1.0173
 9002SOL     OW37684   4.391   9.121   0.591 -0.6359  0.6580 -0.0200
 9002SOL    HW137685   4.395   9.084   0.683 -0.9601 -1.5744 -0.8707
 9002SOL    HW237686   4.333   9.202   0.589 -2.7447 -0.7949  1.2400
 9003SOL     OW37687   4.658   9.411   3.974 -0.0140  0.1279  0.3439
 9003SOL    HW137688   4.663   9.371   4.066 -0.1604 -1.4657 -0.3146
 9003SOL    HW237689   4.699   9.501   3.975  2.2676 -0.8777  1.4347
 9004SOL     OW37690   8.774   4.806   4.623  0.4071  0.2520  0.5960
 9004SOL    HW137691   8.715   4.876   4.584  0.3687 -0.2952 -0.3661
 9004SOL    HW237692   8.727   4.717   4.619  0.0408  0.3359  2.7587
 9005SOL     OW37693   9.379   2.026   4.317  0.0133 -0.2983  1.0450
 9005SOL    HW137694   9.477   2.015   4.333  0.7631  0.3156 -2.7590
 9005SOL    HW237695   9.334   1.936   4.323  1.2578 -0.9954  0.0642
 9006SOL     OW37696   8.361   5.892   3.354  0.3527 -0.0991  0.2834
 9006SOL    HW137697   8.307   5.972   3.383  1.4299  0.3845  0.9816
 9006SOL    HW237698   8.448   5.890   3.404  0.9729 -0.8998 -0.8025
 9007SOL     OW37699   1.436   4.503   4.285  0.0186 -0.1432 -0.6933
 9007SOL    HW137700   1.352   4.459   4.317 -0.3715 -0.3359 -1.9311
 9007SOL    HW237701   1.490   4.534   4.363 -0.8304 -0.7225  0.1317
 9008SOL     OW37702   0.488   8.047   0.904 -0.3522  0.9369 -0.0717
 9008SOL    HW137703   0.469   8.125   0.844 -1.2234  0.2938 -0.6432
 9008SOL    HW237704   0.463   8.070   0.998  1.4019  2.1005  0.1472
 9009SOL     OW37705   1.225   8.902   1.740  0.1423  0.4085  0.3410
 9009SOL    HW137706   1.133   8.917   1.778 -0.2796  2.6097 -1.4654
 9009SOL    HW237707   1.289   8.884   1.815 -1.9691 -2.5165  1.5410
 9010SOL     OW37708   2.519   4.686   0.594  0.6337  0.6230 -0.0327
 9010SOL    HW137709   2.576   4.720   0.669 -0.1395  1.2819  0.2575
 9010SOL    HW237710   2.423   4.707   0.612  0.5284  1.6012 -1.6247
 9011SOL     OW37711   2.469   1.723   0.796  0.0534 -0.5932 -0.0662
 9011SOL    HW137712   2.425   1.641   0.833  1.0403 -0.6892  0.9008
 9011SOL    HW237713   2.516   1.772   0.869 -0.5802  0.8792 -0.6273
 9012SOL     OW37714   9.311   7.077   2.266  0.0529  0.8422 -0.5299
 9012SOL    HW137715   9.226   7.130   2.263 -0.2866  0.3696  0.5497
 9012SOL    HW237716   9.360   7.096   2.351  1.2965  1.5068 -1.3845
 9013SOL     OW37717   0.928   0.082   2.420 -0.2807  0.1584 -0.0114
 9013SOL    HW137718   0.985   0.163   2.425  1.0508 -0.5009 -3.1454
 9013SOL    HW237719   0.845   0.102   2.369 -1.1358  0.1492  1.3394
 9014SOL     OW37720   3.059   7.585   2.513  0.1793  0.4053  0.0099
 9014SOL    HW137721   2.981   7.565   2.573  1.0974 -0.0806  1.0531
 9014SOL    HW237722   3.032   7.655   2.447 -0.7778  1.1476  1.1574
 9015SOL     OW37723   8.445   1.269   2.572  0.1648  0.0820  0.2442
 9015SOL    HW137724   8.486   1.220   2.649  0.1907  0.0652  0.2195
 9015SOL    HW237725   8.366   1.321   2.604 -1.8529 -2.5670 -0.3266
 9016SOL     OW37726   7.639   1.135   1.831  0.2140 -0.4211  0.4919
 9016SOL    HW137727   7.671   1.040   1.826 -1.1911 -0.8922  0.1484
 9016SOL    HW237728   7.611   1.165   1.740  2.7302  1.0882  0.1707
 9017SOL     OW37729   9.900   2.465   0.532  0.1539  0.6691 -0.0385
 9017SOL    HW137730   9.833   2.532   0.501 -1.8039 -0.4818  1.6029
 9017SOL    HW237731   9.918   2.478   0.629  0.2749 -0.7515  0.1360
 9018SOL     OW37732   3.840   1.568   1.473  0.1764 -0.0672 -0.1498
 9018SOL    HW137733   3.806   1.552   1.380 -1.4881 -0.4604  0.5107
 9018SOL    HW237734   3.782   1.635   1.519  0.7990 -0.1125  0.7238
 9019SOL     OW37735   7.803   2.664   0.982 -0.2109  0.6680 -0.2419
 9019SOL    HW137736   7.810   2.565   0.968  1.4179  0.8152 -0.6174
 9019SOL    HW237737   7.865   2.691   1.056  0.1125  1.5385 -0.8235
 9020SOL     OW37738   9.284   3.575   0.805  0.8542  0.0924 -0.1173
 9020SOL    HW137739   9.261   3.518   0.726 -2.8252  1.9212 -0.4914
 9020SOL    HW237740   9.283   3.671   0.777  2.2453  0.6118  1.5608
 9021SOL     OW37741   1.306   5.107   3.585  0.1131  0.3795 -0.4701
 9021SOL    HW137742   1.259   5.193   3.565  0.6030  0.5726 -0.8098
 9021SOL    HW237743   1.366   5.083   3.508  0.9440  0.3890  0.1733
 9022SOL     OW37744   1.632   3.369   4.576 -0.2281  0.4434 -0.0168
 9022SOL    HW137745   1.613   3.275   4.604 -1.6362  1.3344  2.2275
 9022SOL    HW237746   1.651   3.372   4.478 -1.3730 -2.0112 -0.3549
 9023SOL     OW37747   9.667   4.527   4.119  0.1209 -0.1148  0.6688
 9023SOL    HW137748   9.683   4.562   4.211  0.6569  1.8180 -0.1527
 9023SOL    HW237749   9.672   4.601   4.052 -2.4958 -1.0901 -0.7108
 9024SOL     OW37750   1.294   0.243   1.187  0.1727  0.1544 -0.1275
 9024SOL    HW137751   1.228   0.317   1.203 -0.3032 -0.0402 -1.1642
 9024SOL    HW237752   1.379   0.281   1.151  0.2063  0.2814  0.0869
 9025SOL     OW37753   0.663   7.271   1.705  0.1057  0.5471  0.3053
 9025SOL    HW137754   0.563   7.266   1.692  0.3307 -1.6086 -0.7827
 9025SOL    HW237755   0.685   7.251   1.800 -0.3029 -2.3207 -0.1666
 9026SOL     OW37756   9.117   8.517   2.560  0.3173 -0.3868 -0.5322
 9026SOL    HW137757   9.205   8.519   2.608 -0.7399 -0.1794  1.4452
 9026SOL    HW237758   9.101   8.426   2.523  1.6912 -0.2344 -1.5252
 9027SOL     OW37759   8.287   0.335   0.113  0.2386 -0.6790  0.2235
 9027SOL    HW137760   8.314   0.342   0.017  0.1698  1.9197  0.3463
 9027SOL    HW237761   8.367   0.318   0.170  0.7970  1.2023  0.0213
 9028SOL     OW37762   1.233   0.784   1.647 -0.0050 -0.0719 -0.0122
 9028SOL    HW137763   1.218   0.689   1.672 -1.5426  0.2501  0.3065
 9028SOL    HW237764   1.243   0.792   1.548 -2.5780 -0.2155 -0.2929
 9029SOL     OW37765   8.818   8.854   2.369 -0.3730  0.7676 -0.9750
 9029SOL    HW137766   8.747   8.825   2.434  1.6299 -0.2184  0.8381
 9029SOL    HW237767   8.870   8.929   2.410  2.9239 -1.9299 -0.0664
 9030SOL     OW37768   2.963   1.943   1.703  0.4288 -0.5027 -0.1336
 9030SOL    HW137769   3.044   1.992   1.735  0.0201  1.0016 -1.3774
 9030SOL    HW237770   2.886   1.964   1.763  0.2575  0.3833 -0.6558
 9031SOL     OW37771   9.025   5.205   1.835  0.2238 -0.1732  0.4130
 9031SOL    HW137772   8.975   5.155   1.905  0.3585 -0.2329  0.4674
 9031SOL    HW237773   9.114   5.234   1.872  1.0192 -1.6679 -0.2680
 9032SOL     OW37774   9.624   8.389   1.954  0.1994 -0.2097 -0.2771
 9032SOL    HW137775   9.712   8.434   1.970  0.8798 -1.2185 -1.0546
 9032SOL    HW237776   9.557   8.422   2.020  1.5331 -0.4374  1.2327
 9033SOL     OW37777   3.052   3.251   3.355 -0.1452  0.0444  0.1821
 9033SOL    HW137778   2.963   3.223   3.318 -0.4276  0.2370  0.7003
 9033SOL    HW237779   3.043   3.266   3.453  0.9821 -2.0947  0.6455
 9034SOL     OW37780   8.883   8.749   4.413  0.8801  0.4278 -0.1134
 9034SOL    HW137781   8.839   8.830   4.375  1.3699  0.7322 -0.0334
 9034SOL    HW237782   8.975   8.772   4.444  0.9709 -0.1256  0.0381
 9035SOL     OW37783   1.231   1.456   3.832  0.2685 -0.3471  0.1639
 9035SOL    HW137784   1.263   1.522   3.765  0.8847 -0.6407  0.1620
 9035SOL    HW237785   1.272   1.477   3.921 -2.6902  1.7252  1.1193
 9036SOL     OW37786   3.598   8.206   3.595 -0.2539 -0.1462  0.4626
 9036SOL    HW137787   3.519   8.250   3.639 -0.6203 -1.0719  0.7394
 9036SOL    HW237788   3.656   8.276   3.553 -0.4887  0.6519  1.4534
 9037SOL     OW37789   9.170   8.950   0.941 -0.4855 -0.5878 -0.0281
 9037SOL    HW137790   9.113   9.014   0.889  1.8814  0.5138 -1.3384
 9037SOL    HW237791   9.181   8.984   1.035  1.5683  1.5122 -0.9811
 9038SOL     OW37792   0.459   1.988   2.821  0.4789  0.2976  0.4230
 9038SOL    HW137793   0.466   2.084   2.793 -0.9050 -0.1520 -1.5503
 9038SOL    HW237794   0.368   1.953   2.800  1.6695 -2.1041 -1.0423
 9039SOL     OW37795   1.722   8.855   2.101  0.9953 -0.7208  0.2612
 9039SOL    HW137796   1.660   8.814   2.168  0.9656  0.0086  0.6936
 9039SOL    HW237797   1.816   8.829   2.123  0.8048 -2.2674 -0.7134
 9040SOL     OW37798   6.739   9.101   4.134  0.3361 -0.0881 -0.1472
 9040SOL    HW137799   6.740   9.197   4.106  0.8774 -0.1941 -0.4986
 9040SOL    HW237800   6.800   9.089   4.213 -0.1433 -0.0454  0.2360
 9041SOL     OW37801   2.214   8.865   2.163  0.0394 -0.4771 -0.1216
 9041SOL    HW137802   2.247   8.770   2.170  0.0250 -0.4216  0.7543
 9041SOL    HW237803   2.251   8.907   2.080  0.6337 -1.0215 -0.1387
 9042SOL     OW37804   9.805   0.190   0.854 -0.3824  0.0828  0.0857
 9042SOL    HW137805   9.762   0.101   0.840  0.0955 -0.3334  1.1674
 9042SOL    HW237806   9.900   0.187   0.824 -0.8452  0.7554 -1.5126
 9043SOL     OW37807   0.683   9.495   1.974 -0.4081  0.1691 -0.6879
 9043SOL    HW137808   0.611   9.528   1.913 -1.0424 -0.2075 -0.1538
 9043SOL    HW237809   0.641   9.459   2.058  0.3925 -0.2659 -0.4747
 9044SOL     OW37810   9.489   0.632   0.966  0.1410 -0.1646  0.1866
 9044SOL    HW137811   9.524   0.550   0.922  2.3555  1.1674 -0.6294
 9044SOL    HW237812   9.488   0.619   1.065  0.7338 -1.0916  0.0700
 9045SOL     OW37813   9.836   5.487   0.492 -0.4217  0.2590 -0.5761
 9045SOL    HW137814   9.758   5.467   0.551 -0.5778 -0.7108 -1.0982
 9045SOL    HW237815   9.920   5.457   0.538 -0.6168 -1.2607 -1.1762
 9046SOL     OW37816   1.985   6.991   4.479 -0.4734 -0.1308 -0.1246
 9046SOL    HW137817   1.955   6.934   4.555  0.2045  1.2476  1.2140
 9046SOL    HW237818   1.935   7.078   4.481  0.7669  0.5997 -0.2130
 9047SOL     OW37819   2.538   0.298   4.424 -0.0029 -0.1582 -0.3142
 9047SOL    HW137820   2.495   0.247   4.350 -0.8334 -0.6754  0.5162
 9047SOL    HW237821   2.547   0.239   4.504  0.7687  0.4359  0.0386
 9048SOL     OW37822   3.383   9.617   2.603 -0.0336  0.1719  0.0331
 9048SOL    HW137823   3.291   9.637   2.570 -0.4317 -0.0680  0.9927
 9048SOL    HW237824   3.417   9.535   2.556 -0.8913 -0.6056  0.7367
 9049SOL     OW37825   3.560   9.706   1.803  0.0311 -0.4195 -0.2445
 9049SOL    HW137826   3.565   9.611   1.773  0.4107 -0.3805 -0.3135
 9049SOL    HW237827   3.567   9.710   1.903 -0.4666 -0.4983 -0.2091
 9050SOL     OW37828   0.173   0.916   2.985 -0.0856 -0.0464 -0.1448
 9050SOL    HW137829   0.147   1.011   2.999  0.5052 -0.0850  1.3135
 9050SOL    HW237830   0.125   0.880   2.905 -1.3266  1.0865  0.0658
 9051SOL     OW37831   0.446   2.352   2.216  0.0432 -0.0175 -0.2211
 9051SOL    HW137832   0.387   2.410   2.273  1.7150  2.5374 -0.9810
 9051SOL    HW237833   0.398   2.328   2.132 -0.6147  0.4455  0.0149
 9052SOL     OW37834   2.047   5.637   4.180 -0.2761  0.2711  0.4476
 9052SOL    HW137835   1.982   5.665   4.109  0.5943  1.4940  0.1218
 9052SOL    HW237836   2.028   5.542   4.207 -2.0725  0.5485  0.2233
 9053SOL     OW37837   7.409   0.280   0.155  0.5648  0.4803 -0.0987
 9053SOL    HW137838   7.374   0.196   0.114  0.9232  0.3044 -0.0492
 9053SOL    HW237839   7.508   0.285   0.141  0.2334  2.0444 -2.1919
 9054SOL     OW37840   1.009   0.736   1.127 -0.1367 -0.0722  0.0773
 9054SOL    HW137841   1.100   0.696   1.141 -0.1026 -0.1932 -0.4727
 9054SOL    HW237842   0.959   0.681   1.060 -0.9467 -0.5285  1.0436
 9055SOL     OW37843   2.739   0.547   0.935 -0.2499 -0.3123  0.1502
 9055SOL    HW137844   2.678   0.476   0.971  1.2233 -1.3537  0.6353
 9055SOL    HW237845   2.698   0.589   0.854 -1.3660 -1.3586  0.1650
 9056SOL     OW37846   2.462   6.478   1.787  0.0844  0.3770 -0.3423
 9056SOL    HW137847   2.438   6.387   1.820  0.0423  0.9017  1.1174
 9056SOL    HW237848   2.518   6.470   1.705 -1.6954 -0.9252 -1.4664
 9057SOL     OW37849   3.526   7.661   3.844 -0.2350  0.1518 -0.0062
 9057SOL    HW137850   3.615   7.617   3.837 -0.4054 -0.2621  0.4074
 9057SOL    HW237851   3.483   7.664   3.754 -1.3483 -2.9042  0.3791
 9058SOL     OW37852   1.096   2.181   2.401 -0.0077 -0.0782 -0.0863
 9058SOL    HW137853   1.187   2.179   2.360  0.9230  0.6837  1.8920
 9058SOL    HW237854   1.055   2.090   2.394  1.3307 -0.6988 -0.0905
 9059SOL     OW37855   8.857   7.976   4.488 -0.3486  0.6758  0.5665
 9059SOL    HW137856   8.867   7.878   4.508  0.2988  0.4212 -0.9264
 9059SOL    HW237857   8.761   8.001   4.495 -0.9032 -0.6765 -1.6179
 9060SOL     OW37858   8.100   7.127   3.865  0.0288 -0.6359 -0.0813
 9060SOL    HW137859   8.107   7.225   3.880  1.3470 -0.6357 -0.5983
 9060SOL    HW237860   8.157   7.101   3.787 -0.5869 -1.7612 -0.1718
 9061SOL     OW37861   8.221   8.471   1.657  0.4361  0.2369  0.9676
 9061SOL    HW137862   8.302   8.510   1.701  0.1652  0.6787  1.0836
 9061SOL    HW237863   8.165   8.425   1.725 -0.3747  1.5878  1.2478
 9062SOL     OW37864   3.207   7.658   3.966 -0.2006 -0.0840  0.1234
 9062SOL    HW137865   3.190   7.605   3.883  0.6396 -0.3367  0.1111
 9062SOL    HW237866   3.284   7.619   4.016 -0.9304 -0.1653  1.2190
 9063SOL     OW37867   8.380   8.265   1.844 -0.1291  0.2310 -0.1562
 9063SOL    HW137868   8.387   8.292   1.940  0.6907 -2.1901  0.4884
 9063SOL    HW237869   8.456   8.306   1.792  0.4588  0.0697  0.5759
 9064SOL     OW37870   8.719   1.799   1.426 -0.2696 -0.7442  0.3206
 9064SOL    HW137871   8.700   1.875   1.487 -0.2086 -1.2144  0.9333
 9064SOL    HW237872   8.811   1.763   1.445  0.3882  0.1392 -1.1451
 9065SOL     OW37873   4.743   1.476   0.151 -0.7507  0.1402  0.1269
 9065SOL    HW137874   4.776   1.537   0.223  0.7022 -1.1583  0.6038
 9065SOL    HW237875   4.689   1.402   0.192 -1.4783  0.4257 -0.3150
 9066SOL     OW37876   2.261   8.221   0.581  0.0854  0.4075 -0.4741
 9066SOL    HW137877   2.315   8.269   0.512  1.1550 -1.5752 -1.0394
 9066SOL    HW237878   2.319   8.199   0.659 -0.1969 -0.6909 -0.5690
 9067SOL     OW37879   8.076   9.671   4.153 -0.2567 -0.0652 -0.3625
 9067SOL    HW137880   8.168   9.633   4.149 -0.6755 -1.0589 -0.7698
 9067SOL    HW237881   8.037   9.674   4.061 -0.3618  1.0393 -0.2873
 9068SOL     OW37882   4.593   7.518   4.638 -0.0720 -0.5261 -0.4324
 9068SOL    HW137883   4.689   7.489   4.628 -0.0660 -1.5709  2.1626
 9068SOL    HW237884   4.564   7.503   4.733 -2.3658  1.1752 -0.8329
 9069SOL     OW37885   3.501   9.555   0.309 -0.7327 -0.4319  0.0462
 9069SOL    HW137886   3.439   9.484   0.276 -0.7748 -0.8271  0.9689
 9069SOL    HW237887   3.595   9.520   0.309 -0.9984 -1.1881  2.4340
 9070SOL     OW37888   1.783   0.503   3.913 -0.8232 -0.0606 -0.4109
 9070SOL    HW137889   1.856   0.465   3.856  0.1083  0.4651  0.4319
 9070SOL    HW237890   1.706   0.438   3.915 -0.5605 -0.4265 -1.6371
 9071SOL     OW37891   1.564   0.469   3.252 -0.3801  0.3284  0.2450
 9071SOL    HW137892   1.597   0.378   3.277  0.2082  0.8090  1.2667
 9071SOL    HW237893   1.586   0.534   3.325 -0.1762  1.4296 -0.7693
 9072SOL     OW37894   4.720   8.462   1.684  0.6590 -0.3355 -0.2024
 9072SOL    HW137895   4.627   8.494   1.703  1.0624  1.6513 -1.3503
 9072SOL    HW237896   4.779   8.478   1.763  0.0942 -1.3380  0.4238
 9073SOL     OW37897   1.962   0.386   3.667 -0.0004 -0.0120  0.1485
 9073SOL    HW137898   1.957   0.385   3.567  1.4098  0.0445  0.0687
 9073SOL    HW237899   2.015   0.465   3.697 -1.3189  0.5661  0.9950
 9074SOL     OW37900   8.197   6.630   1.616  0.2283  0.2906 -0.2918
 9074SOL    HW137901   8.265   6.605   1.685  0.2837  0.4396 -0.2919
 9074SOL    HW237902   8.244   6.662   1.533  0.1556  1.3470  0.0621
 9075SOL     OW37903   8.260   0.716   3.490 -0.1538 -0.1475 -0.4834
 9075SOL    HW137904   8.281   0.628   3.532 -0.0008  0.3215  0.4283
 9075SOL    HW237905   8.188   0.762   3.543 -0.2530  0.2675 -0.9719
 9076SOL     OW37906   3.693   1.151   1.155  0.2988  0.1597  0.3776
 9076SOL    HW137907   3.743   1.204   1.223  0.2981  0.4704  0.1367
 9076SOL    HW237908   3.697   1.198   1.066  1.1897 -0.7550 -0.0807
 9077SOL     OW37909   1.782   7.297   4.149 -0.4465 -0.4372  0.2871
 9077SOL    HW137910   1.682   7.302   4.145 -0.4128 -0.7716 -1.3071
 9077SOL    HW237911   1.817   7.378   4.197 -1.4629 -0.2376  0.7167
 9078SOL     OW37912   3.238   5.226   2.007 -0.1954 -0.2792  0.0641
 9078SOL    HW137913   3.299   5.222   1.928 -1.3508 -0.0548 -0.8661
 9078SOL    HW237914   3.291   5.238   2.090  1.0175 -0.0455 -0.7313
 9079SOL     OW37915   0.527   8.771   1.351  0.0098 -0.5296  0.1895
 9079SOL    HW137916   0.594   8.834   1.312  0.0640 -1.3488 -1.1005
 9079SOL    HW237917   0.472   8.731   1.277 -0.8451 -1.0638  1.0917
 9080SOL     OW37918   8.008   3.102   1.316  0.1278 -0.4553 -0.2233
 9080SOL    HW137919   8.037   3.021   1.367  0.0143 -0.6644 -0.4928
 9080SOL    HW237920   7.909   3.105   1.311  0.1815 -1.7366 -2.5225
 9081SOL     OW37921   0.914   0.570   2.408  0.4147  0.1330 -0.3469
 9081SOL    HW137922   0.928   0.634   2.484  0.6805  0.2190 -0.4701
 9081SOL    HW237923   0.818   0.542   2.406  0.2826  0.5829 -0.3394
 9082SOL     OW37924   2.747   7.619   1.057 -0.4092 -0.2735 -0.2085
 9082SOL    HW137925   2.779   7.527   1.079 -0.6232 -0.1048  0.7978
 9082SOL    HW237926   2.709   7.619   0.964 -0.5508 -1.2296 -0.1587
 9083SOL     OW37927   4.150   0.689   3.838  0.3983  0.0483  0.4906
 9083SOL    HW137928   4.112   0.772   3.878  0.7458  0.1734  0.5696
 9083SOL    HW237929   4.229   0.712   3.782  1.5530 -0.3769  1.8901
 9084SOL     OW37930   7.648   9.375   4.445 -0.6080  0.3183  0.1056
 9084SOL    HW137931   7.595   9.290   4.443 -0.5827  0.3075 -0.0904
 9084SOL    HW237932   7.707   9.380   4.364 -0.2351  0.2845  0.3748
 9085SOL     OW37933   8.423   9.057   1.629  0.0500 -0.1826  0.3110
 9085SOL    HW137934   8.439   8.960   1.610 -0.0724 -0.3356  0.9788
 9085SOL    HW237935   8.451   9.078   1.722  1.9795  0.8620 -0.4678
 9086SOL     OW37936   0.359   6.438   1.141 -0.3450 -0.4683 -0.4415
 9086SOL    HW137937   0.292   6.512   1.133 -1.3217 -1.2413  0.5997
 9086SOL    HW237938   0.315   6.350   1.122  0.2874 -1.0131  0.5920
 9087SOL     OW37939   9.672   7.327   1.859  0.1442 -0.3623  0.5789
 9087SOL    HW137940   9.573   7.311   1.850 -0.0338  0.6620  0.6859
 9087SOL    HW237941   9.694   7.345   1.955  0.0834  1.7004  0.2264
 9088SOL     OW37942   6.086   0.349   1.852  0.5661 -0.0381 -1.2741
 9088SOL    HW137943   6.036   0.433   1.871  1.8980  0.6750 -0.8909
 9088SOL    HW237944   6.176   0.371   1.815  1.5115 -1.2499  0.2527
 9089SOL     OW37945   1.984   0.705   3.515  0.2572  0.1463  0.5210
 9089SOL    HW137946   1.983   0.804   3.530 -2.0926 -0.0153  1.7242
 9089SOL    HW237947   1.901   0.678   3.465  1.2135 -1.1338 -0.4172
 9090SOL     OW37948   1.185   1.488   0.423  0.6436 -1.0001  0.5292
 9090SOL    HW137949   1.197   1.529   0.513  1.7601  0.7953 -0.4025
 9090SOL    HW237950   1.265   1.507   0.367 -0.4763 -1.2165 -1.1769
 9091SOL     OW37951   7.732   7.055   2.330  0.5568 -0.0310  0.0025
 9091SOL    HW137952   7.765   7.011   2.414 -3.0637 -2.1175  0.3922
 9091SOL    HW237953   7.769   7.148   2.326  0.5719  0.2539  4.0699
 9092SOL     OW37954   4.251   8.243   0.150 -0.1836 -0.3814  0.0223
 9092SOL    HW137955   4.278   8.339   0.146  0.4006 -0.4970  0.8795
 9092SOL    HW237956   4.164   8.234   0.198 -0.9360 -0.1623 -1.2739
 9093SOL     OW37957   1.806   8.513   0.279 -0.9278 -0.0415 -0.7067
 9093SOL    HW137958   1.802   8.609   0.304 -1.6349 -0.6723  1.7451
 9093SOL    HW237959   1.893   8.474   0.308 -1.3450 -0.5364 -0.0759
 9094SOL     OW37960   2.815   4.714   4.540  0.1791 -0.4461 -0.0079
 9094SOL    HW137961   2.740   4.656   4.509 -1.3980  1.2864  0.5048
 9094SOL    HW237962   2.857   4.759   4.461  0.9404 -1.6911 -0.3323
 9095SOL     OW37963   9.046   1.777   4.212 -0.2002 -0.4357  0.5640
 9095SOL    HW137964   9.063   1.801   4.116 -2.5719 -1.6182 -0.1916
 9095SOL    HW237965   8.970   1.833   4.247  0.5548 -0.1235  1.7129
 9096SOL     OW37966   7.439   8.382   1.904  0.0674 -0.3116  0.1121
 9096SOL    HW137967   7.417   8.479   1.894 -1.7865 -0.9759 -2.9212
 9096SOL    HW237968   7.380   8.341   1.974 -2.1594 -0.1276 -1.6245
 9097SOL     OW37969   4.306   8.232   2.139 -0.2022 -0.5779 -0.2552
 9097SOL    HW137970   4.380   8.228   2.071 -0.1683 -3.0149 -0.0991
 9097SOL    HW237971   4.227   8.279   2.098  1.1641  1.4700 -0.6379
 9098SOL     OW37972   3.793   8.698   4.427 -0.0736 -0.1575 -0.2062
 9098SOL    HW137973   3.889   8.687   4.401  0.5712  1.3318  1.4051
 9098SOL    HW237974   3.787   8.765   4.501 -2.1122 -2.1369  1.4617
 9099SOL     OW37975   3.033   2.573   2.430 -0.3243  1.1623  0.2844
 9099SOL    HW137976   2.996   2.545   2.342 -0.7459  3.6185 -0.3590
 9099SOL    HW237977   3.128   2.542   2.438 -0.8467 -0.6245 -0.2512
 9100SOL     OW37978   4.619   0.696   1.764  0.0248 -0.3636  0.0336
 9100SOL    HW137979   4.568   0.657   1.688  0.5133 -0.6635 -0.1418
 9100SOL    HW237980   4.712   0.659   1.765  0.0670 -0.2520  0.6851
 9101SOL     OW37981   9.692   7.733   2.617 -0.2255  0.5864  0.3190
 9101SOL    HW137982   9.663   7.782   2.699 -1.9840  0.1484 -0.0183
 9101SOL    HW237983   9.677   7.789   2.536 -0.0189  0.3984  0.1476
 9102SOL     OW37984   9.932   2.309   3.303  0.1132  0.5749 -0.0151
 9102SOL    HW137985   9.929   2.305   3.403 -0.1978  0.4423 -0.0290
 9102SOL    HW237986   9.979   2.227   3.269  2.1508  1.6600  0.1132
 9103SOL     OW37987   9.660   1.119   4.624  0.1261  0.8224 -0.3800
 9103SOL    HW137988   9.563   1.122   4.647  0.1975 -1.0687  0.2313
 9103SOL    HW237989   9.698   1.211   4.629 -0.7366  1.0520  3.2344
 9104SOL     OW37990   7.011   0.722   2.294  0.3052 -0.3563 -0.3633
 9104SOL    HW137991   7.107   0.722   2.267  0.7064  2.4238  0.8908
 9104SOL    HW237992   7.004   0.714   2.393 -0.8605 -2.7589 -0.6105
 9105SOL     OW37993   2.877   1.066   1.920 -0.9065 -0.1268 -0.9017
 9105SOL    HW137994   2.908   1.141   1.863  1.1916 -0.3853 -0.1474
 9105SOL    HW237995   2.857   1.100   2.012 -0.7079 -0.3569 -0.7726
 9106SOL     OW37996   2.607   2.793   4.601 -0.2327  0.1494 -0.1171
 9106SOL    HW137997   2.576   2.819   4.692  3.2639 -2.7923  2.0286
 9106SOL    HW237998   2.561   2.709   4.572 -0.2474  0.2606 -0.4191
 9107SOL     OW37999   6.801   7.515   2.172  0.6454 -0.5437  0.4601
 9107SOL    HW138000   6.833   7.574   2.099 -2.0253 -2.2779 -2.2132
 9107SOL    HW238001   6.729   7.562   2.224 -0.5422 -0.8861 -0.8342
 9108SOL     OW38002   1.019   4.339   3.650 -0.2232  0.2060 -0.1667
 9108SOL    HW138003   1.113   4.373   3.651 -0.5186  1.0349  0.3160
 9108SOL    HW238004   1.018   4.241   3.667  0.4599  0.4570  1.3510
 9109SOL     OW38005   9.930   5.708   3.766 -0.1009  0.3484 -0.3660
 9109SOL    HW138006   9.831   5.716   3.780 -0.1393 -0.0595 -0.3971
 9109SOL    HW238007   9.966   5.637   3.826  0.6078  2.3081  1.5993
 9110SOL     OW38008   8.379   7.382   4.722 -0.8362 -0.2143 -0.2466
 9110SOL    HW138009   8.285   7.358   4.748 -0.0478 -1.5439  1.5503
 9110SOL    HW238010   8.423   7.431   4.798 -0.6971  2.1729 -1.8464
 9111SOL     OW38011   3.882   4.100   3.182  0.5058 -0.0240  0.0191
 9111SOL    HW138012   3.816   4.169   3.152 -1.1007 -1.6855 -0.3065
 9111SOL    HW238013   3.848   4.056   3.265  2.4125  0.8418  1.3068
 9112SOL     OW38014   8.741   1.451   4.624 -0.6318 -0.3247 -0.2639
 9112SOL    HW138015   8.790   1.444   4.537  0.7342  2.4171  0.2399
 9112SOL    HW238016   8.805   1.471   4.697 -2.0839 -0.1945  1.0009
 9113SOL     OW38017   1.086   0.952   4.405  0.1801  0.5890 -0.3410
 9113SOL    HW138018   1.182   0.948   4.377  0.4760  0.5393  0.6399
 9113SOL    HW238019   1.081   0.965   4.504 -0.7407 -4.9318  0.5015
 9114SOL     OW38020   2.008   5.364   4.180 -0.0659 -0.8093 -0.6346
 9114SOL    HW138021   1.924   5.310   4.189 -0.2465 -0.3196  0.6505
 9114SOL    HW238022   2.062   5.328   4.104 -1.4745 -1.0721 -1.5341
 9115SOL     OW38023   3.694   1.626   2.297  0.0207 -0.6504 -0.7590
 9115SOL    HW138024   3.707   1.673   2.384  0.2188  0.3044 -1.3014
 9115SOL    HW238025   3.783   1.594   2.263 -0.1810 -1.9014 -0.1231
 9116SOL     OW38026   5.480   0.988   3.345 -0.5011  0.1303 -0.2853
 9116SOL    HW138027   5.443   0.971   3.253 -2.2902 -0.9960  0.6022
 9116SOL    HW238028   5.451   1.078   3.376 -1.4014 -0.1947 -0.1492
 9117SOL     OW38029   3.510   2.487   4.508 -0.3712 -0.1496  0.3804
 9117SOL    HW138030   3.558   2.574   4.519  0.1544 -0.5035  0.8937
 9117SOL    HW238031   3.468   2.484   4.417 -0.5108  0.6967  0.4139
 9118SOL     OW38032   8.834   4.330   2.651  0.1432  0.1318 -0.0561
 9118SOL    HW138033   8.782   4.415   2.642 -0.7541 -0.3857  0.2259
 9118SOL    HW238034   8.826   4.278   2.566 -0.5257 -0.3536  0.3006
 9119SOL     OW38035   1.141   9.679   0.124 -0.5534 -0.2320 -0.0327
 9119SOL    HW138036   1.160   9.631   0.039  0.1642 -0.3163  0.1715
 9119SOL    HW238037   1.221   9.674   0.184 -1.4115 -1.0367  1.0632
 9120SOL     OW38038   1.960   8.105   2.016  0.0685 -0.0849  0.4097
 9120SOL    HW138039   1.993   8.113   2.110  3.9678 -3.7045 -0.4492
 9120SOL    HW238040   1.993   8.183   1.963 -1.1759  1.3879  1.7530
 9121SOL     OW38041   9.709   6.798   4.053 -0.1955 -1.0511 -0.3196
 9121SOL    HW138042   9.791   6.855   4.038 -0.0893 -1.0267  0.3574
 9121SOL    HW238043   9.635   6.832   3.995 -0.4463  0.4343  0.8249
 9122SOL     OW38044   1.093   2.416   1.630  0.4504 -0.3217 -0.0508
 9122SOL    HW138045   1.064   2.486   1.695  1.2169  0.8392 -0.9330
 9122SOL    HW238046   1.046   2.330   1.650  0.8033 -0.0297  2.1258
 9123SOL     OW38047   2.749   2.919   1.405  0.3505 -0.0053  0.0192
 9123SOL    HW138048   2.784   2.911   1.498 -1.9505 -0.0258  0.9090
 9123SOL    HW238049   2.730   3.015   1.384 -2.0368 -0.2931  0.7058
 9124SOL     OW38050   1.466   8.505   4.644  0.2440  0.3632 -0.7192
 9124SOL    HW138051   1.425   8.422   4.682 -1.2149  1.2802 -0.2537
 9124SOL    HW238052   1.559   8.516   4.679 -0.4101  0.1992  1.0777
 9125SOL     OW38053   2.926   1.043   3.818 -0.0367 -0.2373  0.0601
 9125SOL    HW138054   2.982   1.055   3.736 -0.3636 -0.6911 -0.2324
 9125SOL    HW238055   2.981   1.065   3.899  0.1778  0.5639 -0.2995
 9126SOL     OW38056   0.306   3.289   1.112  0.4646 -0.2129  0.3050
 9126SOL    HW138057   0.357   3.211   1.148 -0.2195 -0.6888  0.2405
 9126SOL    HW238058   0.225   3.257   1.064  1.3429  0.4292 -1.6354
 9127SOL     OW38059   2.306   2.701   2.771  0.1156 -0.2696 -0.2580
 9127SOL    HW138060   2.312   2.641   2.851 -0.9168  0.7822  0.6240
 9127SOL    HW238061   2.223   2.679   2.720 -0.1390  0.2553 -0.0660
 9128SOL     OW38062   5.097   3.701   0.181 -0.1300  0.1592  0.0675
 9128SOL    HW138063   5.028   3.773   0.183 -0.9526 -0.5626 -1.8221
 9128SOL    HW238064   5.056   3.616   0.150  1.6459 -0.2539 -1.2016
 9129SOL     OW38065   3.514   4.816   2.559 -0.5593  0.3839 -0.0526
 9129SOL    HW138066   3.553   4.725   2.575 -0.8834  0.5579  1.8043
 9129SOL    HW238067   3.485   4.823   2.463 -0.3249 -1.3855 -0.2759
 9130SOL     OW38068   2.552   2.467   3.954 -0.3998 -0.2778 -0.1612
 9130SOL    HW138069   2.474   2.519   3.920 -0.7804 -1.2211 -0.7518
 9130SOL    HW238070   2.533   2.437   4.048 -1.3302 -1.6456 -0.7682
 9131SOL     OW38071   0.671   7.797   0.901  0.1379  0.3270  0.3656
 9131SOL    HW138072   0.616   7.849   0.966  0.7339  0.7066  0.5671
 9131SOL    HW238073   0.634   7.809   0.809 -1.3084 -1.0012  0.7408
 9132SOL     OW38074   4.973   7.223   3.457 -0.0333  0.4454 -0.2203
 9132SOL    HW138075   4.983   7.311   3.502  0.4809 -0.7637  2.1081
 9132SOL    HW238076   5.059   7.197   3.413  0.3202  0.3610  0.5137
 9133SOL     OW38077   4.709   0.166   3.104 -0.5191  0.4559  0.0250
 9133SOL    HW138078   4.682   0.226   3.029  0.6972  0.2744 -0.5794
 9133SOL    HW238079   4.768   0.093   3.069 -0.8632 -0.2949  0.9768
 9134SOL     OW38080   3.067   1.601   4.721  0.2110  0.0965  0.1843
 9134SOL    HW138081   3.113   1.654   4.793  2.5223 -2.5204  0.6775
 9134SOL    HW238082   3.128   1.589   4.644 -1.6068  1.2231 -1.4921
 9135SOL     OW38083   0.578   9.025   0.631  0.1149 -0.0359  0.7831
 9135SOL    HW138084   0.629   9.105   0.602 -0.0599  0.2787  1.3444
 9135SOL    HW238085   0.595   8.949   0.567 -0.2809  0.6527 -0.1541
 9136SOL     OW38086   7.715   4.923   3.747 -0.5175 -0.1364  0.0724
 9136SOL    HW138087   7.669   5.011   3.742  0.6719  0.4644 -0.3575
 9136SOL    HW238088   7.811   4.933   3.722 -0.3762 -1.5610 -0.0313
 9137SOL     OW38089   6.572   7.388   2.777  0.0102  0.2967  0.6451
 9137SOL    HW138090   6.503   7.411   2.846  0.1365 -0.5842  1.0695
 9137SOL    HW238091   6.529   7.389   2.687 -1.3688 -3.3254  1.1701
 9138SOL     OW38092   9.230   8.038   2.105 -0.3449 -0.2956 -0.4137
 9138SOL    HW138093   9.260   8.129   2.077 -0.3467 -0.5894 -1.3877
 9138SOL    HW238094   9.299   7.970   2.078  0.2662 -0.4397  1.4539
 9139SOL     OW38095   1.300   9.821   3.756  0.7103 -0.1191  0.1589
 9139SOL    HW138096   1.243   9.778   3.687  1.6376  0.0212 -0.7119
 9139SOL    HW238097   1.294   9.921   3.747  1.0369 -0.1020  0.1034
 9140SOL     OW38098   2.035   5.040   2.644  0.1956 -0.3361  0.3694
 9140SOL    HW138099   2.118   5.021   2.591  0.6447  1.8091  0.2783
 9140SOL    HW238100   2.012   4.960   2.699  0.0664 -2.3974 -2.5745
 9141SOL     OW38101   5.007   4.329   0.635 -0.2192 -0.2208  0.4437
 9141SOL    HW138102   4.944   4.345   0.559 -0.4079 -0.4321  0.5549
 9141SOL    HW238103   4.966   4.264   0.699  0.6778 -1.4306 -0.1874
 9142SOL     OW38104   8.143   2.644   0.557 -0.8075  0.1907 -0.2242
 9142SOL    HW138105   8.061   2.619   0.506  0.2112  0.0913 -1.8355
 9142SOL    HW238106   8.117   2.676   0.648 -2.6469  0.4253 -0.8138
 9143SOL     OW38107   9.735   4.444   1.555  0.1219 -0.4741  0.1592
 9143SOL    HW138108   9.644   4.431   1.594  0.8825 -1.2017  1.7358
 9143SOL    HW238109   9.802   4.452   1.628  1.8331 -3.7021 -0.9612
 9144SOL     OW38110   4.377   1.085   4.438  0.2364 -0.1445 -0.0210
 9144SOL    HW138111   4.424   1.111   4.354  1.2851 -1.7355  0.0384
 9144SOL    HW238112   4.437   1.026   4.493 -0.9527 -0.2690  1.1805
 9145SOL     OW38113   0.743   9.780   3.216 -0.1233 -0.1241 -0.2652
 9145SOL    HW138114   0.766   9.859   3.159 -2.4353  2.4662  2.1783
 9145SOL    HW238115   0.648   9.754   3.199  0.0867 -1.2377  0.2545
 9146SOL     OW38116   7.107   9.538   4.172  0.0308  0.1247  0.0977
 9146SOL    HW138117   7.153   9.606   4.230 -0.6872 -0.3452  1.2380
 9146SOL    HW238118   7.144   9.447   4.191  0.2453  0.0471 -0.6657
 9147SOL     OW38119   3.685   1.581   4.320 -0.3765  0.0707  0.2842
 9147SOL    HW138120   3.647   1.567   4.412  0.4074  0.1721  0.6217
 9147SOL    HW238121   3.639   1.518   4.256 -0.5459 -0.3786  0.8389
 9148SOL     OW38122   8.726   4.445   3.631  0.3365 -0.2551  0.3824
 9148SOL    HW138123   8.807   4.386   3.628 -0.6645 -1.5811 -1.4280
 9148SOL    HW238124   8.739   4.523   3.570 -0.0874 -0.9295 -0.5789
 9149SOL     OW38125   3.579   8.221   3.095  0.4685 -0.1858 -0.1204
 9149SOL    HW138126   3.597   8.150   3.027 -0.1405 -0.0257 -0.4519
 9149SOL    HW238127   3.482   8.245   3.094  0.9739  1.9406 -1.2927
 9150SOL     OW38128   3.715   5.139   1.441 -0.1736  0.2253 -0.1897
 9150SOL    HW138129   3.804   5.118   1.401  0.2447  1.2476  0.1890
 9150SOL    HW238130   3.689   5.233   1.417 -0.4325  0.4667  0.9756
 9151SOL     OW38131   1.016   4.035   3.695 -0.1820  0.7511  0.0082
 9151SOL    HW138132   1.103   3.996   3.728  0.6704  2.0749 -0.6386
 9151SOL    HW238133   0.958   4.057   3.773 -0.2691 -0.8478  0.4251
 9152SOL     OW38134   1.314   7.816   4.135  0.3310 -0.0070 -0.6365
 9152SOL    HW138135   1.333   7.908   4.100  0.5524  0.6058  1.0734
 9152SOL    HW238136   1.326   7.750   4.061  0.5874  1.2844 -1.7823
 9153SOL     OW38137   9.974   4.480   4.528  1.1527  0.0340  0.5517
 9153SOL    HW138138   9.965   4.396   4.581  0.0617  1.4251  2.6979
 9153SOL    HW238139  10.002   4.459   4.435 -0.9158 -2.8380  0.5115
 9154SOL     OW38140   1.347   1.039   0.327  0.0782  0.3602  0.3368
 9154SOL    HW138141   1.270   1.098   0.304  0.0405 -0.4031 -1.6107
 9154SOL    HW238142   1.315   0.960   0.379 -0.1309  1.1206  1.3760
 9155SOL     OW38143   2.027   5.991   4.538  0.2902  0.2195 -0.3465
 9155SOL    HW138144   2.022   5.990   4.638  3.6268 -1.8008 -0.1372
 9155SOL    HW238145   1.995   5.903   4.502  0.7573  0.2895 -0.9399
 9156SOL     OW38146   0.205   3.787   0.960  0.0215  0.0245  0.2944
 9156SOL    HW138147   0.107   3.803   0.951  0.4015  1.3975 -1.7124
 9156SOL    HW238148   0.223   3.688   0.963 -1.4573 -0.2294  1.6081
 9157SOL     OW38149   8.426   3.745   1.648  0.7600  0.3672  0.0716
 9157SOL    HW138150   8.405   3.648   1.642 -0.3329  0.6544 -0.9304
 9157SOL    HW238151   8.520   3.757   1.683  0.7807 -1.0179  0.5279
 9158SOL     OW38152   1.045   4.379   2.747 -0.2852 -0.3599  0.3103
 9158SOL    HW138153   0.973   4.447   2.758  0.3225  0.4101 -0.4002
 9158SOL    HW238154   1.004   4.288   2.738 -1.1311 -0.0070  0.5847
 9159SOL     OW38155   2.180   2.602   4.168  0.2094  0.5149 -0.0394
 9159SOL    HW138156   2.226   2.553   4.094  3.9116  1.1337  1.6781
 9159SOL    HW238157   2.125   2.538   4.222  1.5255 -0.9341 -0.3890
 9160SOL     OW38158   0.934   1.118   4.259  0.5717  0.3762  0.1445
 9160SOL    HW138159   0.891   1.060   4.190 -1.5002  2.0237 -0.0212
 9160SOL    HW238160   0.987   1.062   4.322  1.9079 -1.2439 -2.3361
 9161SOL     OW38161   1.182   7.601   2.256 -0.0241 -0.0429  0.8722
 9161SOL    HW138162   1.135   7.535   2.315 -2.2167 -0.5226 -1.3258
 9161SOL    HW238163   1.143   7.692   2.269  0.2989  0.0815  0.9963
 9162SOL     OW38164   2.802   5.607   3.235 -0.2024 -0.2602  0.2501
 9162SOL    HW138165   2.826   5.674   3.305  2.0642 -0.0636 -0.6964
 9162SOL    HW238166   2.831   5.516   3.264  1.2923 -0.0906 -0.6965
 9163SOL     OW38167   8.169   3.708   0.711 -0.7792 -0.1447 -0.4714
 9163SOL    HW138168   8.174   3.760   0.797 -2.9238  0.6443 -0.7753
 9163SOL    HW238169   8.130   3.618   0.729 -2.9507  0.6802 -0.8335
 9164SOL     OW38170   9.457   7.159   2.500 -0.1309  0.0561  0.1962
 9164SOL    HW138171   9.470   7.219   2.420 -1.7070  0.4410  0.2132
 9164SOL    HW238172   9.444   7.215   2.582  2.2128 -0.3418  0.8672
 9165SOL     OW38173   1.397   6.219   1.949  0.4715  0.3321  0.3737
 9165SOL    HW138174   1.480   6.249   1.996  0.2307  0.5120  0.6764
 9165SOL    HW238175   1.335   6.177   2.014  0.8063 -0.8364 -0.0402
 9166SOL     OW38176   1.570   0.139   1.798 -0.7908 -0.1377  0.2954
 9166SOL    HW138177   1.586   0.195   1.716 -1.1644  0.2418  0.4826
 9166SOL    HW238178   1.477   0.154   1.830 -1.5676 -2.3810 -0.8198
 9167SOL     OW38179   9.261   4.324   1.086 -0.1995  0.0674  0.1778
 9167SOL    HW138180   9.344   4.273   1.067  0.0215  0.5946 -0.2755
 9167SOL    HW238181   9.254   4.341   1.184  0.7911  0.9761  0.0966
 9168SOL     OW38182   8.712   3.909   2.972 -0.3355  0.2296  0.3536
 9168SOL    HW138183   8.747   4.002   2.958 -2.7397  1.0519 -0.3930
 9168SOL    HW238184   8.680   3.899   3.066  0.0938  0.0699  0.4878
 9169SOL     OW38185   4.727   1.155   1.712 -0.2753 -0.2196 -0.1610
 9169SOL    HW138186   4.768   1.241   1.741  1.0928 -0.6216 -0.8753
 9169SOL    HW238187   4.753   1.082   1.775  1.3031 -0.7511 -1.3735
 9170SOL     OW38188   4.847   7.261   1.598 -0.2550 -0.0430 -0.0055
 9170SOL    HW138189   4.766   7.225   1.553 -0.9423  0.6775  0.6214
 9170SOL    HW238190   4.823   7.346   1.646  1.0845  0.7011 -0.6145
 9171SOL     OW38191   4.892   0.621   1.785 -0.2113  0.7616 -0.6356
 9171SOL    HW138192   4.820   0.553   1.774 -1.0895  1.4577  0.7250
 9171SOL    HW238193   4.934   0.611   1.875 -0.8301  2.4521 -0.1275
 9172SOL     OW38194   8.966   0.888   4.186 -0.5496  0.3547  0.5080
 9172SOL    HW138195   8.924   0.959   4.242 -1.6597 -1.2793  1.7832
 9172SOL    HW238196   9.043   0.848   4.235  0.0409  0.6374 -0.1850
 9173SOL     OW38197   9.422   8.012   3.702 -0.1632 -0.1879 -0.2717
 9173SOL    HW138198   9.409   7.931   3.760  0.6782 -0.5274 -0.5537
 9173SOL    HW238199   9.395   7.991   3.608 -0.9134  0.1737 -0.1483
 9174SOL     OW38200   1.390   4.050   2.548  0.3183  0.3450 -0.1126
 9174SOL    HW138201   1.350   3.959   2.561  0.0985  0.6518  1.5670
 9174SOL    HW238202   1.338   4.101   2.480  0.1082 -0.5984 -0.6526
 9175SOL     OW38203   0.808   7.021   4.693 -0.5681 -0.3493  0.1386
 9175SOL    HW138204   0.891   6.966   4.707 -1.1987 -1.6346 -1.0350
 9175SOL    HW238205   0.824   7.087   4.620 -0.9597 -1.3968 -0.8927
 9176SOL     OW38206   6.576   0.480   3.681  0.3683 -0.1894  0.5690
 9176SOL    HW138207   6.672   0.458   3.665  0.0787 -1.9136  1.1072
 9176SOL    HW238208   6.550   0.559   3.625  2.5377  1.3972  1.6889
 9177SOL     OW38209   7.823   0.472   4.491  0.2985  0.7533  0.1181
 9177SOL    HW138210   7.820   0.517   4.401 -3.9498  0.6772  0.1460
 9177SOL    HW238211   7.822   0.542   4.563 -1.7014  0.7492  0.1176
 9178SOL     OW38212   1.365   3.493   4.031 -0.1164 -0.1350 -0.3566
 9178SOL    HW138213   1.348   3.587   4.061 -2.7243 -0.6607 -0.0468
 9178SOL    HW238214   1.387   3.436   4.110 -0.8519 -0.2638 -0.2466
 9179SOL     OW38215   8.099   8.671   2.849 -0.0866 -0.8210 -0.3889
 9179SOL    HW138216   8.138   8.690   2.759  0.3019  2.0018  0.3298
 9179SOL    HW238217   8.172   8.655   2.915 -0.3346 -1.5770 -0.2881
 9180SOL     OW38218   9.047   9.001   2.408 -0.0916  0.8093 -0.7189
 9180SOL    HW138219   9.108   8.931   2.371 -1.4796 -1.0468  0.4375
 9180SOL    HW238220   9.099   9.060   2.471  0.9039  0.3804 -1.1242
 9181SOL     OW38221   1.392   7.405   4.765  0.0528 -0.0120  0.1789
 9181SOL    HW138222   1.412   7.499   4.792  2.0013  0.2657 -2.2014
 9181SOL    HW238223   1.433   7.342   4.831  0.4943  0.7589  0.6430
 9182SOL     OW38224   2.696   7.868   1.160 -0.0194 -0.1667  0.1122
 9182SOL    HW138225   2.683   7.914   1.072  0.8833  2.0321  1.1053
 9182SOL    HW238226   2.679   7.770   1.148 -1.1680  0.2576 -2.2257
 9183SOL     OW38227   3.942   6.986   1.844  0.1028 -0.4840  0.1571
 9183SOL    HW138228   3.924   6.916   1.775 -1.2490  0.2756 -0.2819
 9183SOL    HW238229   3.998   7.058   1.804 -0.3431 -0.2426 -0.0371
 9184SOL     OW38230   2.165   5.209   3.709 -0.0085  0.5835 -0.0329
 9184SOL    HW138231   2.160   5.284   3.774  1.1554  0.0576  0.6868
 9184SOL    HW238232   2.241   5.224   3.646  0.1086  0.1191 -0.0063
 9185SOL     OW38233   9.149   2.687   3.934  0.5132 -0.1817 -0.2430
 9185SOL    HW138234   9.139   2.744   4.015 -0.3335  0.0364 -0.5006
 9185SOL    HW238235   9.101   2.600   3.949 -0.0356  0.0442 -0.6868
 9186SOL     OW38236   2.589   1.432   2.584  0.2498  0.4249  0.1157
 9186SOL    HW138237   2.664   1.441   2.650 -0.1238  1.0552  0.4574
 9186SOL    HW238238   2.624   1.450   2.492  0.9818 -1.3791  0.0046
 9187SOL     OW38239   1.931   6.967   0.832  0.0012 -0.8482 -0.4546
 9187SOL    HW138240   1.914   7.021   0.915 -0.2678 -1.1525 -0.3121
 9187SOL    HW238241   1.865   6.892   0.827 -1.5008  0.5438 -2.1613
 9188SOL     OW38242   9.514   3.717   2.710 -0.3214 -0.2148 -0.3284
 9188SOL    HW138243   9.454   3.674   2.777  0.5101  0.3507  0.7976
 9188SOL    HW238244   9.464   3.732   2.625 -0.3399 -4.4594 -1.1978
 9189SOL     OW38245   9.267   5.988   4.566  0.4860 -0.0839 -0.7008
 9189SOL    HW138246   9.268   5.940   4.479  0.5245  1.5864 -1.6451
 9189SOL    HW238247   9.329   6.067   4.561 -0.1419  0.5054  0.5531
 9190SOL     OW38248   2.180   9.768   0.127 -0.2777 -0.0404  1.2158
 9190SOL    HW138249   2.249   9.835   0.155 -0.3493  0.3372  0.4883
 9190SOL    HW238250   2.168   9.771   0.028 -0.8538 -0.5791  1.2647
 9191SOL     OW38251   2.545   4.933   2.100  0.4375  0.5101 -0.5458
 9191SOL    HW138252   2.541   5.031   2.116 -0.3513  0.0807  2.2345
 9191SOL    HW238253   2.572   4.886   2.185 -1.2084 -1.8081 -1.2416
 9192SOL     OW38254   3.896   1.657   0.247  0.0855 -0.2760 -0.3634
 9192SOL    HW138255   3.983   1.693   0.213  0.0970 -1.0627 -1.1787
 9192SOL    HW238256   3.846   1.613   0.172 -1.8561  1.7847 -0.3250
 9193SOL     OW38257   4.966   9.740   2.421 -0.1475 -0.4002 -0.1370
 9193SOL    HW138258   4.934   9.649   2.450 -0.6618 -0.1865 -0.0118
 9193SOL    HW238259   4.915   9.810   2.472 -0.5271 -0.0266 -1.0175
 9194SOL     OW38260   8.346   5.696   1.312  0.2024 -0.2138 -0.2420
 9194SOL    HW138261   8.407   5.729   1.384 -0.4716 -0.0790  0.2746
 9194SOL    HW238262   8.270   5.647   1.353  0.0904 -0.5897 -0.8974
 9195SOL     OW38263   9.688   4.191   2.614 -0.4893 -0.6364 -0.0313
 9195SOL    HW138264   9.706   4.122   2.684 -1.6271 -0.2457  0.6563
 9195SOL    HW238265   9.748   4.270   2.629  0.5216 -1.2876 -0.5759
 9196SOL     OW38266   0.626   5.384   3.796  0.6643  0.4018  0.1887
 9196SOL    HW138267   0.611   5.476   3.832 -0.2638 -0.4174  1.9492
 9196SOL    HW238268   0.539   5.344   3.767  0.8966 -0.3635  0.5249
 9197SOL     OW38269   9.680   1.784   0.427 -0.1265 -0.1318  0.1107
 9197SOL    HW138270   9.642   1.837   0.352  1.8457  0.1069 -0.7719
 9197SOL    HW238271   9.661   1.829   0.514  0.4572  1.3868 -0.5298
 9198SOL     OW38272   9.106   1.575   3.533  0.1330 -0.0229 -0.7984
 9198SOL    HW138273   9.167   1.577   3.453  1.1906  1.3218  0.0264
 9198SOL    HW238274   9.046   1.655   3.531 -1.0428 -0.9113 -1.1661
 9199SOL     OW38275   9.063   1.264   1.982 -0.2219  0.2506 -0.0627
 9199SOL    HW138276   9.008   1.337   1.941 -1.6000  0.1764  1.6054
 9199SOL    HW238277   9.049   1.180   1.930 -0.3138  0.6485 -0.6960
 9200SOL     OW38278   2.646   8.493   3.197 -0.1392  0.1379 -0.6339
 9200SOL    HW138279   2.684   8.519   3.109  0.5019  0.1869 -0.3458
 9200SOL    HW238280   2.613   8.574   3.245  0.2619  0.2062 -0.4780
 9201SOL     OW38281   3.770   2.968   2.207  0.7025  0.4641 -0.1214
 9201SOL    HW138282   3.705   3.043   2.219  0.1025 -0.1007  0.1948
 9201SOL    HW238283   3.751   2.921   2.121 -0.5667 -0.9087  0.8709
 9202SOL     OW38284   8.855   7.089   1.183  0.0229  0.2798 -0.7945
 9202SOL    HW138285   8.913   7.013   1.212 -0.3085  0.3264  0.0069
 9202SOL    HW238286   8.875   7.112   1.088  1.4253  0.3810 -0.4897
 9203SOL     OW38287   4.140   6.272   3.272  0.6956  0.5996 -0.7495
 9203SOL    HW138288   4.094   6.345   3.321 -2.8374 -2.6134  0.9240
 9203SOL    HW238289   4.086   6.247   3.191  1.4538 -0.6907 -0.8697
 9204SOL     OW38290   1.102   6.376   3.767  0.3057 -0.2078  0.4820
 9204SOL    HW138291   1.054   6.331   3.692  1.7781 -1.4370  0.2516
 9204SOL    HW238292   1.071   6.471   3.775 -1.5452 -0.7379 -0.1716
 9205SOL     OW38293   3.807   7.569   4.444  0.6120  0.0960 -0.1062
 9205SOL    HW138294   3.863   7.650   4.460 -2.3722  2.0221  1.0003
 9205SOL    HW238295   3.786   7.525   4.532 -0.0315 -0.2790 -0.4418
 9206SOL     OW38296   1.500   1.208   3.806  0.4748 -0.1865 -0.5395
 9206SOL    HW138297   1.517   1.262   3.888 -0.1693  1.6895 -1.6060
 9206SOL    HW238298   1.566   1.133   3.801  1.4876  0.5813  0.8963
 9207SOL     OW38299   1.816   6.050   0.961 -0.4826  1.0324  0.0368
 9207SOL    HW138300   1.809   6.090   1.052 -1.7245 -0.8010  0.7882
 9207SOL    HW238301   1.740   6.082   0.904 -1.0598  0.3706  0.4125
 9208SOL     OW38302   9.257   9.673   4.636  0.3903  0.0771 -0.5580
 9208SOL    HW138303   9.306   9.757   4.659  1.8836 -0.9352  0.0210
 9208SOL    HW238304   9.257   9.611   4.714  0.9899 -1.2562 -1.5843
 9209SOL     OW38305   6.075   8.569   1.662 -0.3207  0.9169 -0.1864
 9209SOL    HW138306   5.977   8.552   1.654  0.2861 -2.3505 -1.1508
 9209SOL    HW238307   6.119   8.554   1.574  1.1942  1.4579  0.4520
 9210SOL     OW38308   9.752   2.318   1.078 -0.2331  0.0657  0.1141
 9210SOL    HW138309   9.666   2.329   1.126 -0.8696 -0.9906 -0.7622
 9210SOL    HW238310   9.807   2.247   1.122  0.5088  1.2074  1.0834
 9211SOL     OW38311   9.899   0.689   1.604  0.4465  0.1855 -0.5062
 9211SOL    HW138312   9.851   0.728   1.526 -0.7136 -0.9346 -0.3816
 9211SOL    HW238313   9.974   0.631   1.571  0.0491 -0.1708 -0.7953
 9212SOL     OW38314   2.116   5.737   2.652 -0.0348 -0.2331 -0.3247
 9212SOL    HW138315   2.154   5.742   2.560  0.3144 -0.0048 -0.1669
 9212SOL    HW238316   2.016   5.743   2.648  0.0403  0.9264 -0.5983
 9213SOL     OW38317   3.572   1.311   2.512  0.6080 -0.2156 -0.5098
 9213SOL    HW138318   3.482   1.349   2.531  1.3726  2.3777 -1.8101
 9213SOL    HW238319   3.621   1.297   2.598 -0.4667 -0.2117  0.1069
 9214SOL     OW38320   1.214   7.135   4.724 -0.3266  0.1959  0.0112
 9214SOL    HW138321   1.271   7.215   4.704  0.8522 -0.7796 -0.5317
 9214SOL    HW238322   1.180   7.097   4.637  1.8376 -1.8858  0.0544
 9215SOL     OW38323   2.687   1.334   4.014 -0.4555 -0.6577  0.3615
 9215SOL    HW138324   2.646   1.292   4.096  0.2069 -1.9177  0.0715
 9215SOL    HW238325   2.708   1.262   3.948  0.3117  0.2067 -0.3381
 9216SOL     OW38326   2.695   7.689   0.318  0.0675 -0.0647 -0.5362
 9216SOL    HW138327   2.752   7.742   0.255  0.0017 -1.0353 -1.4307
 9216SOL    HW238328   2.752   7.651   0.391  0.1845  0.8609 -0.1378
 9217SOL     OW38329   8.942   9.901   3.520 -0.1394 -0.1924  0.4613
 9217SOL    HW138330   8.998   9.855   3.589  0.4015  0.2544  0.3244
 9217SOL    HW238331   8.890   9.833   3.468 -2.3959 -0.3945  2.8709
 9218SOL     OW38332   8.297   5.599   3.948 -0.3526 -0.1078  0.0230
 9218SOL    HW138333   8.389   5.626   3.976 -0.6686  0.7888  0.2458
 9218SOL    HW238334   8.294   5.588   3.849  0.3038 -1.3957  0.1426
 9219SOL     OW38335   8.308   4.397   1.736 -0.5677  0.2393 -0.1914
 9219SOL    HW138336   8.305   4.464   1.661 -1.6000  0.2639 -0.1424
 9219SOL    HW238337   8.340   4.309   1.701  1.4718  0.9218 -0.1173
 9220SOL     OW38338   1.165   1.352   2.537 -0.3742  0.3220  0.3111
 9220SOL    HW138339   1.242   1.403   2.575 -0.6656  0.9880 -0.0003
 9220SOL    HW238340   1.165   1.362   2.437 -1.0754  0.6125  0.3414
 9221SOL     OW38341   6.340   0.548   2.177 -0.2056  0.6087  0.5006
 9221SOL    HW138342   6.403   0.578   2.106 -0.1630  0.5705  0.5216
 9221SOL    HW238343   6.246   0.551   2.142 -0.1890  0.6403  0.4602
 9222SOL     OW38344   1.465   1.731   1.885 -0.1330  0.3419 -0.3038
 9222SOL    HW138345   1.540   1.675   1.920  1.2612  3.1801  1.5174
 9222SOL    HW238346   1.482   1.754   1.789  1.7001  1.4253  0.2364
 9223SOL     OW38347   9.113   2.704   3.673  0.6293 -0.3048 -0.1045
 9223SOL    HW138348   9.126   2.700   3.772  0.2844 -0.5212 -0.0674
 9223SOL    HW238349   9.108   2.612   3.636 -0.9500 -0.2322 -0.0924
 9224SOL     OW38350   2.151   0.630   3.306  0.1660 -0.2117  0.1174
 9224SOL    HW138351   2.132   0.709   3.248  0.6690  0.2863  0.6275
 9224SOL    HW238352   2.103   0.639   3.393  3.5544  1.6306  1.8919
 9225SOL     OW38353   2.142   7.347   1.156  0.2615 -0.0075  0.2313
 9225SOL    HW138354   2.121   7.441   1.182 -0.9422 -0.6804  1.7524
 9225SOL    HW238355   2.177   7.296   1.235 -1.7591 -1.5809  0.1813
 9226SOL     OW38356   9.660   3.863   4.777 -0.1869 -0.4014 -0.3258
 9226SOL    HW138357   9.632   3.840   4.871 -0.1061  0.1359 -0.1659
 9226SOL    HW238358   9.744   3.814   4.755  0.3894  0.2983  0.2762
 9227SOL     OW38359   4.481   3.114   3.465 -0.3436  0.0331 -0.2338
 9227SOL    HW138360   4.408   3.046   3.459 -0.4649  0.2705 -1.5923
 9227SOL    HW238361   4.543   3.102   3.388  0.6381  0.3137  0.5135
 9228SOL     OW38362   0.277   9.773   2.919  0.3694 -0.8927  0.7867
 9228SOL    HW138363   0.200   9.832   2.941 -0.1932 -1.9121  1.5663
 9228SOL    HW238364   0.323   9.808   2.837 -1.0225 -0.3849  0.2036
 9229SOL     OW38365   6.475   9.622   1.873 -0.1049  0.3823 -0.3715
 9229SOL    HW138366   6.497   9.684   1.948  2.3602 -0.6354 -0.2017
 9229SOL    HW238367   6.490   9.669   1.786  1.7104  0.0789 -0.2417
 9230SOL     OW38368   5.988   9.866   1.775 -0.0481 -0.0777  0.5838
 9230SOL    HW138369   6.041   9.788   1.744 -0.4434 -0.3124  0.4937
 9230SOL    HW238370   6.030   9.951   1.741  1.0972 -0.1686  1.7478
 9231SOL     OW38371   6.267   7.636   2.450  0.1130  0.2023  0.1025
 9231SOL    HW138372   6.201   7.701   2.411 -0.4069 -0.0462  0.5550
 9231SOL    HW238373   6.235   7.542   2.433  0.5690  0.0767 -0.0501
 9232SOL     OW38374   7.885   5.598   3.230  0.0362 -0.0630  0.3596
 9232SOL    HW138375   7.867   5.589   3.328 -0.3570 -1.2025  0.1958
 9232SOL    HW238376   7.981   5.577   3.211 -0.0983 -0.7233  0.3971
 9233SOL     OW38377   8.139   1.770   0.557 -0.1577  0.7747  0.3779
 9233SOL    HW138378   8.219   1.728   0.599  0.0866  0.8576  0.0028
 9233SOL    HW238379   8.085   1.699   0.510  0.1848  0.8494 -0.1420
 9234SOL     OW38380   3.382   6.583   3.952 -0.1714 -0.2111 -0.2280
 9234SOL    HW138381   3.425   6.671   3.967 -2.4300  1.0064 -0.6414
 9234SOL    HW238382   3.431   6.532   3.881  1.4839  0.4425  0.4307
 9235SOL     OW38383   3.919   1.652   3.881  0.0856 -0.0423 -0.5304
 9235SOL    HW138384   3.977   1.614   3.953  0.4446 -0.3587 -0.9792
 9235SOL    HW238385   3.958   1.628   3.791  0.6401  1.8732 -0.8110
 9236SOL     OW38386   4.622   1.594   1.343 -0.1274  0.0336 -0.2009
 9236SOL    HW138387   4.682   1.670   1.370  0.5349 -0.6126  0.1661
 9236SOL    HW238388   4.567   1.621   1.264 -0.5440  1.2043  0.4865
 9237SOL     OW38389   9.714   9.195   2.264  0.3560  0.1096  0.0155
 9237SOL    HW138390   9.687   9.291   2.269  0.2085  0.1108 -0.7087
 9237SOL    HW238391   9.776   9.173   2.340  0.3934  0.7788  0.1745
 9238SOL     OW38392   9.163   8.774   4.495 -0.0910 -0.1959 -0.1629
 9238SOL    HW138393   9.185   8.871   4.483 -0.3661 -0.0478  0.5170
 9238SOL    HW238394   9.240   8.718   4.464  0.2913  0.2538 -0.0338
 9239SOL     OW38395   3.737   2.108   1.423 -0.1670 -0.0715 -0.3574
 9239SOL    HW138396   3.801   2.096   1.347 -1.5539  1.1752 -1.7460
 9239SOL    HW238397   3.784   2.153   1.499  0.9908 -0.4851 -0.8142
 9240SOL     OW38398   4.222   2.175   1.938  0.4588  0.1384 -0.6159
 9240SOL    HW138399   4.183   2.267   1.947 -0.9868 -0.3711 -1.5726
 9240SOL    HW238400   4.178   2.115   2.005 -1.1310 -0.6570 -2.3293
 9241SOL     OW38401   1.229   7.013   3.401  0.2893 -0.1060 -0.2021
 9241SOL    HW138402   1.303   6.968   3.351  0.9920 -0.7725  1.3935
 9241SOL    HW238403   1.248   7.111   3.409  0.2773 -0.0338 -1.0499
 9242SOL     OW38404   4.519   3.316   4.738 -0.1210 -0.0754  0.1222
 9242SOL    HW138405   4.429   3.349   4.709  0.6876  0.9008 -1.3606
 9242SOL    HW238406   4.511   3.223   4.773 -1.3176 -0.9335 -2.3454
 9243SOL     OW38407   8.245   2.479   0.230  0.2497  0.0465 -0.8620
 9243SOL    HW138408   8.342   2.456   0.228  0.4981  0.8453  0.8269
 9243SOL    HW238409   8.195   2.405   0.277 -0.0621 -0.6721 -2.3073
 9244SOL     OW38410   0.387   7.227   4.360 -0.5662  0.1307 -0.3295
 9244SOL    HW138411   0.352   7.138   4.388 -0.4369  0.0267 -0.4919
 9244SOL    HW238412   0.316   7.276   4.309 -1.0069  0.5729  0.7018
 9245SOL     OW38413   8.392   3.101   3.955  0.6755  0.0004 -0.2929
 9245SOL    HW138414   8.491   3.091   3.945  0.7797 -0.0317  0.7223
 9245SOL    HW238415   8.353   3.017   3.993  0.7085  1.1176  2.3206
 9246SOL     OW38416   1.083   4.201   1.168 -0.1496 -0.0434  0.0108
 9246SOL    HW138417   1.089   4.260   1.087  0.3083 -0.9454 -0.6292
 9246SOL    HW238418   1.134   4.242   1.243 -0.4067  0.7097 -0.2184
 9247SOL     OW38419   3.273   8.677   0.048  0.2773 -0.2939 -0.4224
 9247SOL    HW138420   3.175   8.680   0.068  0.5680 -2.0149  1.3722
 9247SOL    HW238421   3.290   8.719  -0.041 -1.9853  0.7677 -0.3764
 9248SOL     OW38422   8.681   0.333   0.552  0.1165 -0.1178  0.4753
 9248SOL    HW138423   8.761   0.291   0.594 -0.5595 -3.9874 -1.9368
 9248SOL    HW238424   8.600   0.313   0.607  0.4801  2.5054  2.0805
 9249SOL     OW38425   0.227   1.216   0.878 -1.2034 -0.1551 -0.5719
 9249SOL    HW138426   0.164   1.200   0.954 -1.4171  1.9167 -0.2899
 9249SOL    HW238427   0.313   1.169   0.895 -1.5959 -0.4969  0.4872
 9250SOL     OW38428   2.987   9.375   0.313  0.7386 -0.5274 -0.2624
 9250SOL    HW138429   3.025   9.370   0.221 -1.2570 -0.1042 -1.1280
 9250SOL    HW238430   2.906   9.434   0.313 -0.6865 -2.4124  1.2762
 9251SOL     OW38431   3.358   2.500   4.265  0.0554  0.1719  0.2711
 9251SOL    HW138432   3.303   2.418   4.281 -1.0780  0.7796 -0.4514
 9251SOL    HW238433   3.416   2.486   4.185  1.2236 -0.5983  1.2390
 9252SOL     OW38434   8.777   5.403   4.725  0.4437  0.1625  0.2652
 9252SOL    HW138435   8.691   5.452   4.739  0.5545  0.4270  0.0190
 9252SOL    HW238436   8.853   5.468   4.728  0.6183 -0.0416  0.2747
 9253SOL     OW38437   2.005   0.637   1.035  0.2600  0.0902  0.0014
 9253SOL    HW138438   2.001   0.631   1.135  0.1650 -1.0965 -0.0729
 9253SOL    HW238439   2.045   0.725   1.010  0.0799  0.4958  1.0818
 9254SOL     OW38440   0.640   6.497   3.544  0.1226 -0.0081 -0.5718
 9254SOL    HW138441   0.629   6.431   3.470  0.1293  0.1112 -0.6807
 9254SOL    HW238442   0.549   6.524   3.579  0.1166 -0.0063 -0.5884
 9255SOL     OW38443   9.056   4.406   2.475  0.4694  0.6702 -0.0096
 9255SOL    HW138444   8.992   4.415   2.399  0.3164  1.9265  0.2565
 9255SOL    HW238445   9.005   4.388   2.559  0.4620  1.4685  0.1666
 9256SOL     OW38446   6.430   9.822   4.003 -0.0477  0.4978  0.4322
 9256SOL    HW138447   6.494   9.753   4.036 -0.3043  0.5900  1.1263
 9256SOL    HW238448   6.453   9.911   4.044 -0.0361  0.7246 -0.0574
 9257SOL     OW38449   0.583   3.957   2.144  0.1068 -1.2997 -0.2272
 9257SOL    HW138450   0.510   4.023   2.162  0.4024 -0.6074 -1.5289
 9257SOL    HW238451   0.666   4.005   2.115  0.8282 -2.1370  0.3984
 9258SOL     OW38452   9.382   2.533   1.133 -0.1272  0.4430  0.0641
 9258SOL    HW138453   9.290   2.526   1.171  0.1685  0.1045  0.7257
 9258SOL    HW238454   9.383   2.493   1.041  0.0504 -2.4520  1.2546
 9259SOL     OW38455   6.765   9.404   4.125  0.0992  0.5011 -0.0902
 9259SOL    HW138456   6.666   9.401   4.118  0.0948 -0.0060  0.1287
 9259SOL    HW238457   6.802   9.471   4.061 -0.4967  1.9220  1.0132
 9260SOL     OW38458   9.304   9.594   3.025 -0.3676 -0.0979 -0.5925
 9260SOL    HW138459   9.347   9.515   2.980  0.2298 -1.5839  2.4998
 9260SOL    HW238460   9.374   9.655   3.060 -0.7947 -0.4594  0.9163
 9261SOL     OW38461   1.188   8.304   0.166  0.1657 -0.4032 -0.3797
 9261SOL    HW138462   1.110   8.253   0.130  0.4201  0.2504 -1.8558
 9261SOL    HW238463   1.156   8.390   0.205  0.1023 -0.3340 -0.5840
 9262SOL     OW38464   2.527   7.255   2.636 -0.7142 -0.2094 -0.4492
 9262SOL    HW138465   2.564   7.297   2.553 -1.5351  1.2780 -0.0818
 9262SOL    HW238466   2.430   7.237   2.624 -0.3782 -2.0182 -0.5908
 9263SOL     OW38467   8.212   0.365   2.511 -0.6520  0.5367  0.0635
 9263SOL    HW138468   8.251   0.438   2.567  0.0473  0.1646  0.0680
 9263SOL    HW238469   8.128   0.331   2.555  0.2964 -0.2652  1.2847
 9264SOL     OW38470   8.968   8.025   3.807 -0.7929 -0.0867 -0.5060
 9264SOL    HW138471   8.876   8.057   3.784 -0.4461  1.7712  0.5762
 9264SOL    HW238472   8.961   7.943   3.864 -1.7311 -0.9277 -1.7888
 9265SOL     OW38473   3.265   1.822   4.164  0.2626  0.0612 -0.1008
 9265SOL    HW138474   3.295   1.915   4.144  0.8214 -0.0557  0.1718
 9265SOL    HW238475   3.208   1.823   4.247  0.0297  0.2001 -0.2621
 9266SOL     OW38476   7.419   0.439   1.216  0.4242 -0.3859 -0.6090
 9266SOL    HW138477   7.416   0.518   1.155  0.4798 -0.7690 -1.1120
 9266SOL    HW238478   7.411   0.470   1.311  0.0379  0.1855 -0.8238
 9267SOL     OW38479   9.683   6.540   4.566 -0.3407 -0.4874 -0.1807
 9267SOL    HW138480   9.694   6.442   4.551 -2.1531 -0.4822 -1.7776
 9267SOL    HW238481   9.772   6.585   4.563  0.3740 -1.9073 -0.6574
 9268SOL     OW38482   8.041   1.519   0.494 -0.1017  0.3325  0.3927
 9268SOL    HW138483   7.948   1.482   0.499 -0.5725  1.4814  0.3690
 9268SOL    HW238484   8.101   1.466   0.554 -0.8721 -0.1447  0.7523
 9269SOL     OW38485   0.176   1.748   0.270  0.2851  0.1569  0.4782
 9269SOL    HW138486   0.222   1.660   0.278  0.4327  0.3897  2.4774
 9269SOL    HW238487   0.077   1.735   0.272  0.3038 -0.0327  0.0341
 9270SOL     OW38488   2.333   7.053   4.239  0.1919  0.1027 -0.1938
 9270SOL    HW138489   2.239   7.051   4.206  0.3716  0.3765 -0.7143
 9270SOL    HW238490   2.367   6.959   4.246  0.5088  0.0924 -1.7822
 9271SOL     OW38491   0.137   0.008   0.994 -0.0103 -0.1376 -0.8594
 9271SOL    HW138492   0.173   0.044   1.080 -1.3164  1.1954 -0.8422
 9271SOL    HW238493   0.056  -0.047   1.013  0.3196 -0.7253 -1.1499
 9272SOL     OW38494   0.724   4.325   1.089  0.3402  0.3914  0.1712
 9272SOL    HW138495   0.787   4.375   1.028 -0.6128  2.6744  0.9832
 9272SOL    HW238496   0.776   4.288   1.166  0.7353  2.4734  0.9658
 9273SOL     OW38497   0.465   5.620   2.456 -0.0287 -0.7161  0.2990
 9273SOL    HW138498   0.563   5.618   2.436  0.1318 -0.3277  1.0093
 9273SOL    HW238499   0.414   5.581   2.380  0.7213 -1.5149  0.2023
 9274SOL     OW38500   3.953   6.934   2.706  0.2594 -0.5418  0.0782
 9274SOL    HW138501   3.998   6.947   2.618 -0.3211  1.8143  0.1102
 9274SOL    HW238502   4.023   6.922   2.777  0.7338 -1.5933 -0.5487
 9275SOL     OW38503   1.401   1.816   2.537 -0.2330 -0.1467 -0.1497
 9275SOL    HW138504   1.388   1.821   2.438  2.2859 -0.7788 -0.5686
 9275SOL    HW238505   1.463   1.740   2.558 -1.0223 -0.2441  1.9540
 9276SOL     OW38506   3.691   9.641   0.560 -1.0165  0.0974 -0.1654
 9276SOL    HW138507   3.729   9.556   0.597 -1.8939 -0.4198 -0.4216
 9276SOL    HW238508   3.616   9.672   0.619 -1.5530 -0.0178 -0.7761
 9277SOL     OW38509   1.346   0.890   4.355  0.2411  0.0016  0.1797
 9277SOL    HW138510   1.340   0.820   4.426  0.2751 -0.5654 -0.3706
 9277SOL    HW238511   1.333   0.848   4.265 -0.6189  0.8441 -0.1029
 9278SOL     OW38512   8.894   7.246   3.222  0.0135  0.2287  0.3260
 9278SOL    HW138513   8.816   7.225   3.163  0.7435 -2.0538  0.1406
 9278SOL    HW238514   8.978   7.248   3.167  0.5131 -0.5361  1.0525
 9279SOL     OW38515   4.449   6.806   3.367 -0.3423  0.5037 -0.0988
 9279SOL    HW138516   4.539   6.777   3.336 -1.3133 -1.0499 -1.5133
 9279SOL    HW238517   4.436   6.778   3.462  0.6675  0.7795  0.1269
 9280SOL     OW38518   0.436   5.223   0.514  0.4041 -0.2015 -0.3880
 9280SOL    HW138519   0.528   5.183   0.517 -0.3026 -1.8358  0.3676
 9280SOL    HW238520   0.427   5.290   0.587  0.2644 -1.7293  1.0247
 9281SOL     OW38521   0.947   4.434   3.395  0.4250 -0.1513  0.6530
 9281SOL    HW138522   0.888   4.355   3.406 -1.7480  1.4548  0.8431
 9281SOL    HW238523   1.009   4.441   3.473  0.5788 -1.6007  0.6717
 9282SOL     OW38524   1.357   2.142   2.289 -0.2895  0.3140  0.0403
 9282SOL    HW138525   1.412   2.097   2.219  1.1815  2.4137 -0.1980
 9282SOL    HW238526   1.411   2.148   2.374 -1.7500 -1.4489  1.1420
 9283SOL     OW38527   2.923   0.840   0.666  0.3349 -0.1430  0.9215
 9283SOL    HW138528   2.944   0.924   0.717  1.2644 -0.5319  1.1845
 9283SOL    HW238529   2.952   0.851   0.571 -0.4705  0.2022  0.7068
 9284SOL     OW38530   3.179   4.002   2.803  0.8781  0.2620  0.3308
 9284SOL    HW138531   3.258   3.991   2.863  0.4435  1.1289  1.0786
 9284SOL    HW238532   3.145   4.096   2.809 -0.6718 -0.2933  0.6152
 9285SOL     OW38533   2.250   6.775   2.678  0.1465  0.1665 -0.0277
 9285SOL    HW138534   2.334   6.749   2.631 -0.6050 -0.9335 -0.7855
 9285SOL    HW238535   2.254   6.872   2.702  1.3711  0.2632 -0.6055
 9286SOL     OW38536   3.647   4.287   0.243 -0.3216  0.0583  0.2456
 9286SOL    HW138537   3.637   4.366   0.303 -0.8095 -0.1506  0.4396
 9286SOL    HW238538   3.573   4.222   0.260 -0.3698 -0.0828 -0.4548
 9287SOL     OW38539   8.147   5.601   2.941 -0.4802  0.0031  0.4950
 9287SOL    HW138540   8.143   5.645   3.030  0.2305 -0.0874  0.5697
 9287SOL    HW238541   8.057   5.563   2.919 -0.7392  0.2966  1.0304
 9288SOL     OW38542   1.126   7.197   2.996  0.1347 -0.5742 -0.4764
 9288SOL    HW138543   1.081   7.183   3.084  1.2465  0.1689  0.2186
 9288SOL    HW238544   1.175   7.114   2.970 -0.3774 -0.8705 -0.5084
 9289SOL     OW38545   7.656   8.204   4.345 -0.0212 -0.3997  0.1701
 9289SOL    HW138546   7.600   8.180   4.424 -0.3190 -0.9385 -0.2074
 9289SOL    HW238547   7.706   8.289   4.364  0.9865 -1.2755  1.4715
 9290SOL     OW38548   1.606   0.550   4.236  0.1822 -0.0152  0.3345
 9290SOL    HW138549   1.616   0.547   4.336  1.4674 -1.7579  0.1741
 9290SOL    HW238550   1.583   0.458   4.203 -0.3560  0.5858 -0.9687
 9291SOL     OW38551   9.858   0.704   0.654 -0.2352  0.7230 -0.3916
 9291SOL    HW138552   9.869   0.629   0.720  0.6713  0.3503 -0.9622
 9291SOL    HW238553   9.797   0.773   0.693 -0.3077  0.1500  0.5353
 9292SOL     OW38554   7.278   1.060   2.784 -0.3791  0.1378 -0.8107
 9292SOL    HW138555   7.221   1.003   2.725  0.3234 -0.1805 -1.1872
 9292SOL    HW238556   7.366   1.016   2.798 -0.7879 -0.1057  1.0452
 9293SOL     OW38557   9.005   2.174   3.580  0.2471  0.4604  0.0731
 9293SOL    HW138558   9.095   2.133   3.562  0.5422  0.0836  2.2560
 9293SOL    HW238559   8.934   2.105   3.564  0.3914  0.5883 -1.1115
 9294SOL     OW38560   0.237   5.363   4.253 -0.2684 -0.1716 -0.5303
 9294SOL    HW138561   0.154   5.416   4.273  0.1721 -0.0665  1.1137
 9294SOL    HW238562   0.270   5.320   4.337  0.5824 -1.3351 -1.4429
 9295SOL     OW38563   1.269   8.271   1.800 -0.0345  0.0818 -0.1386
 9295SOL    HW138564   1.279   8.325   1.716  1.0081 -0.4502 -0.3617
 9295SOL    HW238565   1.240   8.332   1.874  0.1806  0.7745 -0.6129
 9296SOL     OW38566   2.979   8.152   3.225  0.2600 -0.2230  0.1913
 9296SOL    HW138567   2.893   8.148   3.275  0.3452  0.6790  0.4194
 9296SOL    HW238568   3.052   8.112   3.280 -0.1469 -1.6242 -0.2884
 9297SOL     OW38569   9.971   4.916   1.103  0.3295  0.5681  0.2125
 9297SOL    HW138570   9.952   4.820   1.126 -0.4020  0.8560  0.8143
 9297SOL    HW238571   9.979   4.970   1.186  0.2612  1.1277 -0.1364
 9298SOL     OW38572   4.773   9.865   2.851  0.4338 -0.2609  0.6852
 9298SOL    HW138573   4.693   9.815   2.884  1.0164 -0.4331  1.8857
 9298SOL    HW238574   4.834   9.885   2.929  0.7899  1.2502  0.0382
 9299SOL     OW38575   0.427   3.793   0.644 -0.1402  0.3944 -0.4911
 9299SOL    HW138576   0.426   3.701   0.605  0.5071  0.3823 -0.4750
 9299SOL    HW238577   0.519   3.816   0.676 -0.1184  1.3657 -1.2320
 9300SOL     OW38578   1.115   9.939   2.779 -0.2797 -0.0556  0.6177
 9300SOL    HW138579   1.028   9.896   2.758 -1.0672  1.4659  0.7008
 9300SOL    HW238580   1.171   9.945   2.696 -0.6669 -0.1143  0.3535
 9301SOL     OW38581   5.505   0.257   2.916 -0.0627 -0.1494  0.1421
 9301SOL    HW138582   5.602   0.272   2.932  0.1625 -0.3452 -1.0217
 9301SOL    HW238583   5.479   0.295   2.828 -0.7183 -1.4264 -0.2396
 9302SOL     OW38584   4.238   2.964   3.430 -0.4691  0.0948  0.0731
 9302SOL    HW138585   4.238   2.980   3.529  0.9653 -0.6642  0.2028
 9302SOL    HW238586   4.234   2.866   3.412  1.8449  0.1133 -0.5918
 9303SOL     OW38587   5.200   0.885   4.116 -0.5670 -0.0545  0.3180
 9303SOL    HW138588   5.120   0.827   4.126 -1.3949  1.2613  1.4142
 9303SOL    HW238589   5.227   0.889   4.019  0.0151 -2.8977  0.3291
 9304SOL     OW38590   0.564   0.423   4.281 -0.6703  0.4819  0.5986
 9304SOL    HW138591   0.510   0.432   4.366 -2.4815  0.1679 -0.4889
 9304SOL    HW238592   0.593   0.328   4.270  0.8625  0.8110  1.6118
 9305SOL     OW38593   8.123   5.668   2.077 -0.1092  0.1496 -0.0794
 9305SOL    HW138594   8.090   5.588   2.128  1.3170  0.2885  1.0851
 9305SOL    HW238595   8.067   5.680   1.995 -3.6161  0.9394  2.2976
 9306SOL     OW38596   8.771   1.078   0.087  0.1236  0.5831 -0.7581
 9306SOL    HW138597   8.693   1.131   0.053 -1.8285 -2.0395 -0.5170
 9306SOL    HW238598   8.812   1.027   0.011  0.9120  1.0773 -0.6693
 9307SOL     OW38599   6.962   8.007   3.255 -0.2166  0.5454 -0.5263
 9307SOL    HW138600   7.047   7.978   3.210  0.0078  1.0181 -0.4020
 9307SOL    HW238601   6.886   7.951   3.220  0.2063 -0.1500 -0.3394
 9308SOL     OW38602   4.600   8.212   4.653  0.2231  0.0620  0.1836
 9308SOL    HW138603   4.630   8.245   4.743  1.1145 -1.0505  0.3117
 9308SOL    HW238604   4.667   8.146   4.618 -0.1231  0.4752 -1.2920
 9309SOL     OW38605   3.917   3.110   1.039  0.2047 -0.0555 -0.2495
 9309SOL    HW138606   3.992   3.151   1.090  1.0040 -1.2249 -0.4560
 9309SOL    HW238607   3.902   3.160   0.954  1.3176 -0.3237 -0.6063
 9310SOL     OW38608   9.233   8.963   1.208 -0.3405 -0.1705  0.1847
 9310SOL    HW138609   9.332   8.959   1.216 -0.2663 -0.5669 -0.8584
 9310SOL    HW238610   9.192   8.891   1.265 -0.0193 -0.2517  0.3163
 9311SOL     OW38611   0.154   2.389   1.950  0.3027  0.1407  0.1913
 9311SOL    HW138612   0.108   2.388   1.862  0.8763  0.0976 -0.1137
 9311SOL    HW238613   0.253   2.377   1.936  0.5034  1.0810  0.7726
 9312SOL     OW38614   1.721   0.269   3.337  0.5654 -0.2490  0.4490
 9312SOL    HW138615   1.759   0.212   3.263  1.9433  0.6537  0.4291
 9312SOL    HW238616   1.699   0.212   3.415 -2.4673 -1.4693 -1.2230
 9313SOL     OW38617   9.614   1.769   1.462 -0.2144  0.7211  0.3234
 9313SOL    HW138618   9.657   1.854   1.493 -2.3284  2.0384 -0.2270
 9313SOL    HW238619   9.525   1.759   1.505 -0.1389 -1.0506  0.1014
 9314SOL     OW38620   3.043   0.899   0.417 -0.3716  0.0369  0.0065
 9314SOL    HW138621   3.104   0.840   0.364  1.2244  1.0422  0.6825
 9314SOL    HW238622   3.036   0.989   0.372 -1.4385 -0.1072 -0.1196
 9315SOL     OW38623   5.079   2.625   2.549  0.4750 -0.2649 -0.3367
 9315SOL    HW138624   5.062   2.536   2.507 -0.0722  0.0732 -0.8311
 9315SOL    HW238625   5.089   2.694   2.478 -1.0335  0.4143  0.0872
 9316SOL     OW38626   7.715   2.559   1.308  0.3298 -0.5470  0.2083
 9316SOL    HW138627   7.808   2.582   1.336  0.2433  1.3685 -0.9581
 9316SOL    HW238628   7.718   2.507   1.222  0.2659  1.1654 -0.8439
 9317SOL     OW38629   3.046   7.282   2.008 -0.0870 -0.0840 -0.1056
 9317SOL    HW138630   2.990   7.351   2.054 -4.3301 -1.8549 -2.3250
 9317SOL    HW238631   3.026   7.192   2.047  3.4312 -0.4912  0.9535
 9318SOL     OW38632   2.804   3.003   4.535 -0.5502 -0.2768 -0.9806
 9318SOL    HW138633   2.894   2.962   4.520 -0.2311 -0.5445  1.4371
 9318SOL    HW238634   2.739   2.931   4.560 -1.2516  0.0234 -1.9217
 9319SOL     OW38635   7.945   2.341   0.207 -0.4481  0.0913  0.2521
 9319SOL    HW138636   7.903   2.268   0.154  1.2689 -0.5417 -0.2895
 9319SOL    HW238637   7.952   2.313   0.303 -1.5601  0.3417  0.4058
 9320SOL     OW38638   0.672   9.632   2.918  0.3858 -0.3588 -0.4174
 9320SOL    HW138639   0.765   9.625   2.953 -0.3265 -0.6028  1.4616
 9320SOL    HW238640   0.613   9.569   2.968 -0.9586  0.3999 -1.0346
 9321SOL     OW38641   5.180   9.594   3.092  0.2092  0.0585  0.1742
 9321SOL    HW138642   5.153   9.509   3.137  1.2537  0.6703  2.0313
 9321SOL    HW238643   5.261   9.577   3.035  1.2122  0.0477  1.5680
 9322SOL     OW38644   7.846   0.203   0.302  0.5417 -0.1120 -0.4468
 9322SOL    HW138645   7.811   0.294   0.321  2.3690  0.2140  1.4605
 9322SOL    HW238646   7.794   0.135   0.354 -0.2885 -0.1124 -1.2512
 9323SOL     OW38647   8.324   3.638   2.960  0.5661 -0.7077  0.1993
 9323SOL    HW138648   8.418   3.665   2.937  0.0517  1.5779  0.6470
 9323SOL    HW238649   8.266   3.650   2.879  0.3031 -0.2988  0.4484
 9324SOL     OW38650   0.755   1.578   2.701 -0.2218  0.9434  0.2229
 9324SOL    HW138651   0.705   1.653   2.745 -0.4174  1.1688 -0.3815
 9324SOL    HW238652   0.778   1.509   2.770  1.3676  2.3074  1.0907
 9325SOL     OW38653   1.080   2.371   3.873 -0.1085 -0.1256  0.5858
 9325SOL    HW138654   1.100   2.430   3.795  1.3086  0.6615  1.5217
 9325SOL    HW238655   1.133   2.287   3.866 -0.7144 -0.4772  0.2078
 9326SOL     OW38656   1.265   8.033   1.636  0.4887 -0.0723 -0.0157
 9326SOL    HW138657   1.353   7.992   1.611  1.1000  0.8756  0.5594
 9326SOL    HW238658   1.281   8.119   1.685 -0.7602  0.0933  0.1106
 9327SOL     OW38659   0.253   3.888   3.613  0.2817  0.0950  0.0077
 9327SOL    HW138660   0.344   3.849   3.595  0.7736  0.7350  1.0921
 9327SOL    HW238661   0.183   3.825   3.580  1.1301 -0.0270 -1.6075
 9328SOL     OW38662   0.525   0.796   4.004 -0.4890  0.9528 -1.0742
 9328SOL    HW138663   0.525   0.893   3.983 -1.7421  1.3171  0.5888
 9328SOL    HW238664   0.431   0.763   4.013 -0.0524  0.2611  1.3568
 9329SOL     OW38665   0.695   9.060   4.571  0.0072  0.1775  0.1989
 9329SOL    HW138666   0.641   9.041   4.653 -0.7986 -0.1195 -0.3969
 9329SOL    HW238667   0.697   9.159   4.554  0.1633  0.2382  0.5582
 9330SOL     OW38668   4.272   3.838   1.051  0.6031  0.3481  0.2957
 9330SOL    HW138669   4.274   3.751   1.099  1.3919  0.9530  1.3957
 9330SOL    HW238670   4.329   3.904   1.100 -2.0536  2.2401  0.9444
 9331SOL     OW38671   0.554   4.559   2.801  0.4502 -0.3815 -0.4934
 9331SOL    HW138672   0.531   4.520   2.712 -0.0527  0.5613 -0.7835
 9331SOL    HW238673   0.534   4.657   2.801  2.6928  0.1077 -0.1331
 9332SOL     OW38674   2.153   8.670   3.492  0.3629  0.1205  0.6155
 9332SOL    HW138675   2.055   8.651   3.489  0.0285  1.1406  3.1964
 9332SOL    HW238676   2.167   8.769   3.500  1.5363 -0.1268  1.8433
 9333SOL     OW38677   4.397   0.050   2.782 -0.0623  0.1099  0.1901
 9333SOL    HW138678   4.337   0.086   2.854 -0.4527 -0.4125  0.1309
 9333SOL    HW238679   4.450  -0.027   2.818 -0.5258 -0.3856 -0.1812
 9334SOL     OW38680   8.472   4.905   3.133 -0.2228 -0.2372 -0.2481
 9334SOL    HW138681   8.509   4.833   3.074 -0.7663 -0.5396 -0.2212
 9334SOL    HW238682   8.470   4.991   3.083  0.0193 -0.3352 -0.4277
 9335SOL     OW38683   2.781   7.582   2.261 -0.2193  0.3938  1.0139
 9335SOL    HW138684   2.846   7.656   2.277  0.8957 -0.4249  0.3906
 9335SOL    HW238685   2.830   7.503   2.223 -1.5883 -0.2249  0.5056
 9336SOL     OW38686   3.573   8.358   1.690 -0.5472 -0.3789 -0.0209
 9336SOL    HW138687   3.495   8.362   1.752  0.1662 -1.5073  0.9619
 9336SOL    HW238688   3.657   8.345   1.743  0.5457  2.6058 -0.9007
 9337SOL     OW38689   7.965   7.671   4.002  0.4851  0.2081 -0.6834
 9337SOL    HW138690   7.875   7.631   4.021  1.1812 -0.9090  0.3248
 9337SOL    HW238691   7.967   7.706   3.908 -0.3592 -1.4966 -1.3533
 9338SOL     OW38692   7.009   8.989   2.666 -0.1747  0.9728  0.2740
 9338SOL    HW138693   7.096   8.963   2.707 -1.4027  1.0055  3.0653
 9338SOL    HW238694   6.968   8.909   2.621 -1.1728 -0.5417  3.6769
 9339SOL     OW38695   8.212   7.086   1.813 -0.1688 -0.0981  0.0222
 9339SOL    HW138696   8.278   7.132   1.872  0.7069 -0.3128 -0.7827
 9339SOL    HW238697   8.258   7.052   1.731 -1.2359 -0.4411 -0.4456
 9340SOL     OW38698   9.188   5.732   0.553  0.4211  0.0833 -0.0528
 9340SOL    HW138699   9.231   5.781   0.629  1.4821 -0.5176 -0.2615
 9340SOL    HW238700   9.153   5.644   0.586 -0.2834  0.3817  0.0178
 9341SOL     OW38701   0.116   9.068   0.348  0.8721 -0.0381  0.6530
 9341SOL    HW138702   0.214   9.046   0.343  0.9681  0.7481 -1.2727
 9341SOL    HW238703   0.077   9.068   0.256 -1.0347 -0.6814  1.4414
 9342SOL     OW38704   0.721   0.284   3.209  0.4324 -0.0486 -0.0434
 9342SOL    HW138705   0.819   0.279   3.187  0.2568 -0.2554 -0.8174
 9342SOL    HW238706   0.709   0.312   3.304  1.2473 -0.1110  0.0812
 9343SOL     OW38707   3.067   9.811   2.150 -0.5098  0.2019 -0.3800
 9343SOL    HW138708   2.971   9.835   2.168 -0.4443  1.0824 -1.1716
 9343SOL    HW238709   3.081   9.714   2.171 -1.5849  0.0553 -0.2892
 9344SOL     OW38710   0.005   1.002   0.072  0.4610 -0.0958 -0.0574
 9344SOL    HW138711  -0.052   1.050   0.139 -0.7477 -0.8184 -0.5469
 9344SOL    HW238712   0.027   0.911   0.106  1.0971  0.0888  0.0148
 9345SOL     OW38713   1.643   1.638   0.732 -0.2843  0.6022 -0.5219
 9345SOL    HW138714   1.559   1.589   0.711 -1.0955  1.6005  0.3336
 9345SOL    HW238715   1.625   1.708   0.801  1.5740 -0.2378  0.8996
 9346SOL     OW38716   9.249   2.756   4.683  0.8497  0.1583 -0.8515
 9346SOL    HW138717   9.274   2.693   4.610  0.3888  0.2897 -1.1266
 9346SOL    HW238718   9.184   2.711   4.745 -0.6421  0.8598 -1.8885
 9347SOL     OW38719   4.054   3.200   3.429  0.0981  0.3534 -0.3212
 9347SOL    HW138720   4.082   3.290   3.463  1.8423  0.6621 -2.4931
 9347SOL    HW238721   4.122   3.131   3.456 -1.2046 -0.3504  1.2932
 9348SOL     OW38722   0.967   0.481   0.276 -0.0917 -0.4036 -0.0170
 9348SOL    HW138723   1.048   0.502   0.222 -0.4539 -0.1867 -0.4856
 9348SOL    HW238724   0.886   0.520   0.231 -0.3049  0.5268  1.1185
 9349SOL     OW38725   7.096   8.917   1.773 -0.7748 -0.0674 -0.4586
 9349SOL    HW138726   7.035   8.992   1.746 -0.6383  0.1982 -0.0313
 9349SOL    HW238727   7.049   8.858   1.839  0.0644  1.1727  1.2763
 9350SOL     OW38728   2.428   8.146   3.852  0.2127  0.9348 -0.2138
 9350SOL    HW138729   2.381   8.231   3.877  2.4371  2.1325  0.0624
 9350SOL    HW238730   2.526   8.156   3.871  0.7573 -1.0672 -1.8453
 9351SOL     OW38731   8.687   4.089   2.038  0.3329  0.0577 -0.1955
 9351SOL    HW138732   8.641   4.155   2.096  0.1345  1.2569 -1.6866
 9351SOL    HW238733   8.730   4.136   1.961 -0.2966 -1.5857 -1.6010
 9352SOL     OW38734   9.000   0.685   3.631  0.0552 -0.1134  0.3004
 9352SOL    HW138735   9.024   0.782   3.628  2.2686 -0.6093  1.0472
 9352SOL    HW238736   8.953   0.659   3.547  0.7986  1.2629 -0.5434
 9353SOL     OW38737   0.131   7.453   2.356 -1.2199  0.8621  1.0546
 9353SOL    HW138738   0.065   7.450   2.281 -1.3230  0.5501  1.1573
 9353SOL    HW238739   0.095   7.401   2.433  0.2503 -1.4518  0.2276
 9354SOL     OW38740   7.541   7.665   2.968 -0.6363  0.1282 -0.5620
 9354SOL    HW138741   7.484   7.626   2.896  1.4661 -1.6500 -1.2928
 9354SOL    HW238742   7.528   7.614   3.053 -2.1423  1.4329  0.0352
 9355SOL     OW38743   0.901   5.370   1.550 -0.7136  0.2019 -0.1637
 9355SOL    HW138744   0.854   5.295   1.596 -0.1751 -0.1708 -0.2161
 9355SOL    HW238745   0.934   5.339   1.461 -0.2185  0.4060 -0.0557
 9356SOL     OW38746   3.119   8.337   0.172  0.0960  0.5480 -0.7577
 9356SOL    HW138747   3.203   8.350   0.225  0.7964  0.5948 -1.8473
 9356SOL    HW238748   3.143   8.312   0.078 -1.0846  1.6546 -1.3758
 9357SOL     OW38749   9.450   3.174   4.294 -0.6779 -0.8203 -0.7603
 9357SOL    HW138750   9.399   3.257   4.319  0.1675 -0.4784 -0.1290
 9357SOL    HW238751   9.395   3.118   4.232 -2.3506 -1.0604  0.8630
 9358SOL     OW38752   9.044   0.926   2.223 -0.1828 -0.1037  0.1285
 9358SOL    HW138753   9.100   0.926   2.306  0.2647 -0.2233 -0.1716
 9358SOL    HW238754   9.000   1.015   2.212  1.5168  0.6603 -0.6864
 9359SOL     OW38755   9.069   3.835   0.563  0.9388  0.6872  0.1361
 9359SOL    HW138756   9.092   3.766   0.494 -0.4806 -0.6087  0.9207
 9359SOL    HW238757   8.999   3.897   0.526  0.1692 -0.0152  0.3866
 9360SOL     OW38758   3.750   9.654   1.209  0.3947  0.3641  0.3196
 9360SOL    HW138759   3.723   9.750   1.220 -1.5922 -0.0826 -0.2745
 9360SOL    HW238760   3.718   9.601   1.288  0.3590 -0.0210  0.0495
 9361SOL     OW38761   3.922   8.692   0.251 -0.1077  0.2041 -0.2418
 9361SOL    HW138762   3.983   8.753   0.200 -0.4259  1.5259  0.9394
 9361SOL    HW238763   3.973   8.650   0.326  0.6677 -2.6303 -2.2778
 9362SOL     OW38764   1.766   1.318   0.235 -0.0616  0.0308 -0.7255
 9362SOL    HW138765   1.741   1.325   0.331 -0.2536  2.5247 -0.9044
 9362SOL    HW238766   1.748   1.226   0.201 -1.4962 -0.4144  1.2090
 9363SOL     OW38767   2.406   6.290   1.455  0.2488  0.3981  0.1091
 9363SOL    HW138768   2.339   6.332   1.394 -0.0445  0.9127  0.7822
 9363SOL    HW238769   2.359   6.247   1.531  0.6660  0.5293  0.4413
 9364SOL     OW38770   1.180   5.781   4.074  0.2447 -0.1109 -0.3064
 9364SOL    HW138771   1.195   5.867   4.026 -0.7542 -0.5589 -1.4388
 9364SOL    HW238772   1.082   5.770   4.093  0.4594 -0.6345  0.5283
 9365SOL     OW38773   8.053   2.863   2.124 -0.0809  0.1697  0.2378
 9365SOL    HW138774   8.054   2.823   2.216  0.3905 -0.5785 -0.0891
 9365SOL    HW238775   8.116   2.941   2.120 -0.5967  0.6178  0.7277
 9366SOL     OW38776   9.203   9.016   0.084 -0.2347 -0.2345  0.0084
 9366SOL    HW138777   9.146   9.097   0.069 -0.3273 -0.0566  1.3144
 9366SOL    HW238778   9.161   8.938   0.039  0.0748  0.5194 -1.6357
 9367SOL     OW38779   4.376   4.208   1.864 -0.8483  0.0700  0.2548
 9367SOL    HW138780   4.434   4.204   1.782 -1.5652  0.4522 -0.2786
 9367SOL    HW238781   4.364   4.304   1.891 -1.0107 -0.0263  0.5209
 9368SOL     OW38782   5.003   8.417   2.716 -0.3288  0.0937 -0.0081
 9368SOL    HW138783   4.909   8.403   2.687 -0.5345  1.6700 -0.1308
 9368SOL    HW238784   5.030   8.343   2.777 -1.3129 -0.9055 -0.7675
 9369SOL     OW38785   2.142   8.213   2.581 -0.3276  0.0046 -0.3802
 9369SOL    HW138786   2.122   8.268   2.500 -0.9575  0.3996  0.0371
 9369SOL    HW238787   2.073   8.230   2.651 -0.7561 -1.6085 -0.3756
 9370SOL     OW38788   3.793   0.848   4.354  0.2061 -0.4270  0.0121
 9370SOL    HW138789   3.724   0.819   4.287 -0.7664 -2.1757  1.7564
 9370SOL    HW238790   3.845   0.769   4.385  2.0301  0.6757 -0.1518
 9371SOL     OW38791   1.668   6.838   1.535 -0.2811 -0.0814 -0.7214
 9371SOL    HW138792   1.747   6.896   1.555 -1.2795  0.5445  1.6616
 9371SOL    HW238793   1.591   6.896   1.505 -0.7955 -0.3366  0.0930
 9372SOL     OW38794   8.996   5.483   2.238  0.5082 -0.5121  0.4448
 9372SOL    HW138795   8.914   5.500   2.293  0.5250 -0.8198  0.5630
 9372SOL    HW238796   8.972   5.484   2.141  0.8193  1.9971  0.3651
 9373SOL     OW38797   1.431   9.994   0.760 -0.2648  0.6201 -0.4736
 9373SOL    HW138798   1.359   9.929   0.785 -1.4366  1.0075 -2.6706
 9373SOL    HW238799   1.390  10.071   0.711  1.5212  1.4363 -0.7246
 9374SOL     OW38800   9.322   5.271   0.815 -0.2487  0.7700  0.3109
 9374SOL    HW138801   9.393   5.223   0.866  0.3297  0.9980 -0.2688
 9374SOL    HW238802   9.310   5.363   0.854  0.1941  0.9446  0.0415
 9375SOL     OW38803   0.390   2.701   4.372  0.5918 -0.1514  0.3381
 9375SOL    HW138804   0.461   2.640   4.410 -0.9419 -1.9901  0.3514
 9375SOL    HW238805   0.414   2.726   4.279  1.3466 -0.6475  0.3931
 9376SOL     OW38806   1.134   8.504   3.301  0.0167 -0.1034 -0.2894
 9376SOL    HW138807   1.200   8.451   3.247 -0.6233  1.2180 -2.4217
 9376SOL    HW238808   1.042   8.490   3.264 -0.3515  1.2543  0.1018
 9377SOL     OW38809   2.885   9.104   4.427 -0.4655  0.4668 -0.3307
 9377SOL    HW138810   2.904   9.180   4.489 -0.1729  1.1325 -1.2283
 9377SOL    HW238811   2.858   9.024   4.480 -1.1375  1.2996  0.5973
 9378SOL     OW38812   8.796   2.655   1.520 -0.7658  0.2274 -0.4669
 9378SOL    HW138813   8.787   2.686   1.614  1.3197 -3.0927  0.9167
 9378SOL    HW238814   8.852   2.720   1.468  0.3810  0.7162  1.3438
 9379SOL     OW38815   8.019   4.685   0.675 -0.0548  0.4883 -0.0460
 9379SOL    HW138816   7.987   4.598   0.714 -0.7625  0.1626 -1.3176
 9379SOL    HW238817   8.113   4.674   0.644  0.5236  0.7555  1.5419
 9380SOL     OW38818   0.637   0.869   1.760  0.0120 -0.0870 -0.6689
 9380SOL    HW138819   0.654   0.928   1.839 -2.0311  0.1562 -0.3745
 9380SOL    HW238820   0.682   0.781   1.773 -0.9051 -0.3129  1.1391
 9381SOL     OW38821   4.001   7.933   4.538  0.9547  0.3888 -0.2562
 9381SOL    HW138822   3.944   7.967   4.612 -1.5775  0.9374 -2.4022
 9381SOL    HW238823   4.033   7.841   4.561 -0.0360  0.4320  1.3674
 9382SOL     OW38824   8.340   9.045   3.934 -0.3379  1.1820 -0.2644
 9382SOL    HW138825   8.335   9.108   3.856 -0.7428  2.0102  0.4302
 9382SOL    HW238826   8.267   9.065   3.999  0.9244  1.5248  1.0939
 9383SOL     OW38827   8.809   5.008   1.724  0.0716 -0.4215  0.0241
 9383SOL    HW138828   8.761   5.011   1.636 -0.2162  0.3472  0.2019
 9383SOL    HW238829   8.871   5.087   1.731 -1.1814  0.4912  1.2145
 9384SOL     OW38830   3.328   5.357   0.096 -1.2929 -0.3791 -0.3604
 9384SOL    HW138831   3.400   5.290   0.114 -0.8338 -0.0134 -0.8370
 9384SOL    HW238832   3.325   5.424   0.171  0.0445  0.6363 -1.1965
 9385SOL     OW38833   4.298   9.526   4.765  0.0012  0.4776  0.1115
 9385SOL    HW138834   4.232   9.571   4.825  2.1311  0.5259  2.4979
 9385SOL    HW238835   4.367   9.591   4.736  0.0460 -0.0005 -0.8609
 9386SOL     OW38836   3.233   0.279   1.140  0.1001 -1.2155  0.2316
 9386SOL    HW138837   3.264   0.222   1.064 -1.0633 -0.2048 -1.0467
 9386SOL    HW238838   3.135   0.267   1.153 -0.0428 -0.0295  0.3704
 9387SOL     OW38839   6.128   8.359   2.158 -0.1641 -0.1345 -0.0285
 9387SOL    HW138840   6.202   8.348   2.091 -0.0065 -1.8564  0.4118
 9387SOL    HW238841   6.052   8.408   2.115  0.2401 -0.5470 -1.2368
 9388SOL     OW38842   3.624   4.565   1.996  0.0175  0.2509  0.3562
 9388SOL    HW138843   3.637   4.581   2.094  0.3093 -0.0843  0.3735
 9388SOL    HW238844   3.657   4.645   1.945  1.5597 -0.3067  0.4346
 9389SOL     OW38845   8.750   4.771   2.757 -0.2915 -0.0422 -0.3830
 9389SOL    HW138846   8.739   4.749   2.854  0.9286 -2.1864 -0.7009
 9389SOL    HW238847   8.695   4.851   2.734 -0.5669  0.4998  2.0851
 9390SOL     OW38848   4.450   9.055   1.415 -0.4286 -0.2277 -0.6925
 9390SOL    HW138849   4.435   9.034   1.318 -0.5198 -0.3306 -0.6567
 9390SOL    HW238850   4.546   9.076   1.431 -0.8398  2.3530 -1.2997
 9391SOL     OW38851   0.444   9.752   1.383  0.1719 -1.4381 -0.3004
 9391SOL    HW138852   0.411   9.781   1.473 -1.6352 -0.0742 -1.3656
 9391SOL    HW238853   0.507   9.821   1.347 -1.6625 -0.3526 -1.4765
 9392SOL     OW38854   3.547   4.774   2.269 -0.0218 -0.0942 -0.1755
 9392SOL    HW138855   3.644   4.748   2.260  0.4854  2.1031 -1.5026
 9392SOL    HW238856   3.519   4.823   2.186 -2.1282 -0.2199  0.4511
 9393SOL     OW38857   7.966   3.421   0.176 -0.1536  0.0395 -0.1827
 9393SOL    HW138858   8.062   3.426   0.148 -0.7105 -0.1985 -2.2400
 9393SOL    HW238859   7.945   3.500   0.235  1.2693  0.1318  0.2299
 9394SOL     OW38860   1.237   8.181   0.952 -0.1498 -0.1680  0.1958
 9394SOL    HW138861   1.196   8.271   0.968  1.4610  0.1976  2.3564
 9394SOL    HW238862   1.166   8.111   0.960 -1.0054  0.7146  0.5273
 9395SOL     OW38863   4.085   3.421   1.549  0.0984 -0.1648  0.1473
 9395SOL    HW138864   4.158   3.422   1.617  2.0168 -2.9399 -1.7486
 9395SOL    HW238865   4.052   3.327   1.537 -1.4837  0.5622 -1.4390
 9396SOL     OW38866   4.408   7.860   1.731  0.5486  0.9824 -0.5637
 9396SOL    HW138867   4.416   7.873   1.830  1.3923  1.7329 -0.7130
 9396SOL    HW238868   4.466   7.783   1.703  0.1829  0.6678 -0.4497
 9397SOL     OW38869   5.280   9.642   1.932  0.2101  0.3893 -0.1329
 9397SOL    HW138870   5.233   9.598   1.855 -1.5029 -0.6487  1.4706
 9397SOL    HW238871   5.250   9.737   1.940  1.2041  0.8265 -1.3806
 9398SOL     OW38872   0.574   1.969   0.422  0.3543  0.1141 -0.1567
 9398SOL    HW138873   0.617   2.055   0.450  1.0321 -0.7307  1.4455
 9398SOL    HW238874   0.570   1.907   0.500 -0.6838 -1.0887 -1.1529
 9399SOL     OW38875   9.164   5.223   2.958 -0.1049 -0.4209  0.3267
 9399SOL    HW138876   9.150   5.304   3.015 -2.7451  1.3499 -2.6362
 9399SOL    HW238877   9.236   5.241   2.891 -0.2177 -0.7684  0.1123
 9400SOL     OW38878   3.640   2.576   0.374  0.5822  0.1421  0.1819
 9400SOL    HW138879   3.704   2.639   0.330 -0.2666  0.7679 -0.1589
 9400SOL    HW238880   3.676   2.550   0.464  2.1600 -0.8806 -0.7199
 9401SOL     OW38881   7.403   0.075   3.771  0.4864 -0.3955 -0.8967
 9401SOL    HW138882   7.423   0.165   3.731  2.0589 -1.2899 -2.1630
 9401SOL    HW238883   7.479   0.013   3.754 -0.4988 -1.9303  0.1436
 9402SOL     OW38884   9.315   3.138   1.163 -0.6150 -0.1631 -0.2007
 9402SOL    HW138885   9.257   3.059   1.144  0.5868 -0.7690 -1.4391
 9402SOL    HW238886   9.270   3.221   1.129 -2.1882 -0.2002  1.7105
 9403SOL     OW38887   9.861   6.433   2.517 -0.3262  0.6581  0.6375
 9403SOL    HW138888   9.789   6.381   2.563 -0.2365  0.7681  0.9097
 9403SOL    HW238889   9.931   6.458   2.585 -1.9541  3.9151  1.2104
 9404SOL     OW38890   7.759   8.667   3.068  0.0131 -0.1768 -0.1769
 9404SOL    HW138891   7.844   8.617   3.086  0.7516 -0.4881 -4.1452
 9404SOL    HW238892   7.715   8.630   2.986 -3.0633  1.1627  0.8100
 9405SOL     OW38893   0.722   1.731   4.660  0.2258  0.5174 -0.4312
 9405SOL    HW138894   0.630   1.704   4.688  0.3671 -0.3575 -0.7923
 9405SOL    HW238895   0.728   1.730   4.561  1.0848 -1.0284 -0.3821
 9406SOL     OW38896   1.115   3.496   2.028 -0.2909  0.5561  0.0393
 9406SOL    HW138897   1.102   3.558   2.106 -0.2736 -0.5022  0.9004
 9406SOL    HW238898   1.187   3.531   1.969  0.3225  0.9005  0.9835
 9407SOL     OW38899   4.409   8.011   0.178  0.0011 -0.8307 -0.1339
 9407SOL    HW138900   4.473   8.016   0.255  1.2604 -2.0421 -1.0958
 9407SOL    HW238901   4.357   8.097   0.173  2.8525  0.9363 -0.4821
 9408SOL     OW38902   8.197   5.896   3.131  0.1374 -0.1446  0.0739
 9408SOL    HW138903   8.270   5.856   3.186 -1.6476 -3.4381  0.2169
 9408SOL    HW238904   8.131   5.942   3.191  0.7410  0.5623  0.1963
 9409SOL     OW38905   0.768   0.275   2.110 -0.6536 -0.1419 -0.3162
 9409SOL    HW138906   0.735   0.225   2.029 -1.5334  0.9436 -0.6462
 9409SOL    HW238907   0.852   0.233   2.143 -1.2084 -1.6515 -0.7725
 9410SOL     OW38908   7.621   9.753   1.327 -0.0436 -0.2195 -0.1119
 9410SOL    HW138909   7.574   9.675   1.285 -0.0881 -0.3597  0.2010
 9410SOL    HW238910   7.644   9.731   1.421  0.6794 -0.1639 -0.2761
 9411SOL     OW38911   0.353   3.133   3.694 -0.4299 -0.0155 -0.5825
 9411SOL    HW138912   0.448   3.158   3.713 -0.5471 -0.5767  0.7825
 9411SOL    HW238913   0.331   3.156   3.599  1.2039 -0.2926 -1.0441
 9412SOL     OW38914   5.586   9.073   3.416  0.2186 -0.4347  0.1404
 9412SOL    HW138915   5.529   8.991   3.407 -0.9592  0.1252  2.0399
 9412SOL    HW238916   5.537   9.152   3.380  0.3943 -0.1866  0.4413
 9413SOL     OW38917   8.783   8.398   2.504 -0.6080 -0.0706  0.7955
 9413SOL    HW138918   8.784   8.372   2.408 -0.5114  2.6922  0.0098
 9413SOL    HW238919   8.689   8.407   2.536 -0.6386 -0.4285  0.8102
 9414SOL     OW38920   4.935   1.563   2.564 -0.0266  0.0216  0.1670
 9414SOL    HW138921   4.923   1.524   2.655 -1.6807 -0.1816 -0.1223
 9414SOL    HW238922   4.969   1.657   2.572 -0.2968  0.0521  0.9917
 9415SOL     OW38923   0.697   0.469   2.863 -0.3410 -0.1143  0.7106
 9415SOL    HW138924   0.793   0.495   2.850 -0.7328  0.6488 -0.7336
 9415SOL    HW238925   0.654   0.531   2.928 -0.4824  1.0038 -0.4487
 9416SOL     OW38926   3.494   9.522   2.188  0.0851 -0.3360  0.5234
 9416SOL    HW138927   3.523   9.614   2.163  0.5750 -0.3003  1.2333
 9416SOL    HW238928   3.516   9.459   2.113 -0.2492  0.1192  0.0399
 9417SOL     OW38929   2.130   0.663   2.459  0.3679  0.4409  0.0692
 9417SOL    HW138930   2.099   0.568   2.462 -1.3027  1.0131  2.1196
 9417SOL    HW238931   2.125   0.703   2.550  0.6377  2.6353 -0.8381
 9418SOL     OW38932   5.145   2.722   1.968  0.1510  0.1742 -0.3774
 9418SOL    HW138933   5.190   2.782   2.033 -0.0152 -0.7126  0.5734
 9418SOL    HW238934   5.213   2.675   1.912  0.3220  0.4039 -0.3620
 9419SOL     OW38935   2.174   9.481   1.929 -0.2534 -0.0479  0.0320
 9419SOL    HW138936   2.250   9.439   1.980 -2.1115 -1.7433  1.5003
 9419SOL    HW238937   2.096   9.419   1.931 -0.7929  0.4275 -3.8893
 9420SOL     OW38938   1.612   1.946   2.800 -0.1767  0.3726  0.4796
 9420SOL    HW138939   1.708   1.957   2.825 -0.5828 -1.1966  2.8351
 9420SOL    HW238940   1.601   1.866   2.742 -0.3477 -0.6806  1.9575
 9421SOL     OW38941   2.937   6.372   1.565  0.0921 -0.0105  0.5043
 9421SOL    HW138942   2.926   6.274   1.577  0.0546 -0.0351  0.2651
 9421SOL    HW238943   2.934   6.417   1.654 -2.7359  0.0773  0.3973
 9422SOL     OW38944   3.302   8.636   2.057 -0.3541  0.4621  0.2408
 9422SOL    HW138945   3.211   8.627   2.017 -0.2808 -3.4189  0.8071
 9422SOL    HW238946   3.307   8.583   2.141  3.2089 -1.5796 -1.1766
 9423SOL     OW38947   2.267   4.899   1.484  0.2048  0.3641 -0.1741
 9423SOL    HW138948   2.189   4.921   1.426 -0.2488 -0.6460  0.0459
 9423SOL    HW238949   2.322   4.981   1.499 -0.7115  1.0357 -0.4841
 9424SOL     OW38950   9.452   4.153   0.994 -0.6104 -0.7392  0.2998
 9424SOL    HW138951   9.445   4.141   0.895  0.4410 -0.0356  0.1311
 9424SOL    HW238952   9.489   4.070   1.036 -2.1275 -1.4593  0.2504
 9425SOL     OW38953   2.236   8.278   3.172  0.4298  0.2720 -0.1940
 9425SOL    HW138954   2.162   8.278   3.105  0.6604 -1.1924 -0.4538
 9425SOL    HW238955   2.266   8.372   3.188  0.9121  0.5909 -2.7568
 9426SOL     OW38956   0.370   4.632   4.178  0.0145 -0.2275  0.3423
 9426SOL    HW138957   0.272   4.651   4.169 -0.3505 -0.7932  2.6891
 9426SOL    HW238958   0.404   4.595   4.092 -1.4935  1.3630 -0.9868
 9427SOL     OW38959   6.189   9.842   4.135 -0.4657  1.1837  0.0723
 9427SOL    HW138960   6.161   9.746   4.137  0.0040  1.0381 -0.3113
 9427SOL    HW238961   6.242   9.860   4.052  0.7784  1.3915  0.8925
 9428SOL     OW38962   9.225   8.523   1.114 -0.5790 -0.3094  0.1578
 9428SOL    HW138963   9.287   8.456   1.155 -1.9922 -0.8851  1.4057
 9428SOL    HW238964   9.135   8.517   1.158 -0.9396  1.9288 -0.1984
 9429SOL     OW38965   0.120   3.462   4.556 -0.3814  0.0381  0.1480
 9429SOL    HW138966   0.066   3.435   4.636 -0.0237 -0.2564  0.2939
 9429SOL    HW238967   0.059   3.496   4.485 -0.8519 -1.0761 -0.0033
 9430SOL     OW38968   8.411   2.425   2.153  0.0943  0.2365 -0.2708
 9430SOL    HW138969   8.376   2.407   2.245  1.8082 -3.4397 -0.2619
 9430SOL    HW238970   8.511   2.428   2.155  0.1117  1.1514 -1.8599
 9431SOL     OW38971   1.628   9.364   1.611 -0.3062 -0.1000 -0.2792
 9431SOL    HW138972   1.706   9.317   1.570  0.1307  0.9158 -0.6125
 9431SOL    HW238973   1.655   9.456   1.640 -1.9412  1.0893 -2.3884
 9432SOL     OW38974   3.706   2.608   4.069  0.4817 -0.3366 -0.2350
 9432SOL    HW138975   3.762   2.587   3.989 -1.3592  0.1943 -1.6709
 9432SOL    HW238976   3.661   2.525   4.101  0.2346 -0.3033 -0.4983
 9433SOL     OW38977   5.150   2.299   1.686 -0.0140 -0.2244 -0.1413
 9433SOL    HW138978   5.083   2.373   1.676 -1.1248 -1.3285 -1.0750
 9433SOL    HW238979   5.133   2.251   1.772  0.2666  0.1763  0.1371
 9434SOL     OW38980   3.242   4.332   3.073 -0.6538 -0.1629  0.3559
 9434SOL    HW138981   3.332   4.290   3.082 -0.6651 -0.0154  1.1403
 9434SOL    HW238982   3.248   4.429   3.095 -1.1211 -0.2730  0.9893
 9435SOL     OW38983   5.893   8.895   3.702  0.0186 -0.2762 -0.5162
 9435SOL    HW138984   5.875   8.958   3.626  1.3746  0.1138 -0.5341
 9435SOL    HW238985   5.878   8.801   3.673 -0.9477 -0.0348 -0.8138
 9436SOL     OW38986   1.939   9.639   0.812 -1.1516 -0.2205 -0.4892
 9436SOL    HW138987   1.904   9.703   0.880 -0.0513 -1.1257  0.9444
 9436SOL    HW238988   1.982   9.561   0.858 -0.9562 -1.1541 -2.2158
 9437SOL     OW38989   1.377   9.623   1.697  1.0333  0.1732  0.4301
 9437SOL    HW138990   1.345   9.692   1.762  0.0677 -1.4197  1.6736
 9437SOL    HW238991   1.303   9.558   1.677  1.7149 -0.1139 -1.2675
 9438SOL     OW38992   8.068   9.863   2.563 -0.3669  0.3328 -0.4773
 9438SOL    HW138993   8.139   9.834   2.628 -1.5044 -2.0869 -0.2383
 9438SOL    HW238994   8.103   9.855   2.470 -0.8411 -2.6985 -0.4700
 9439SOL     OW38995   0.782   5.601   1.842 -0.0050  0.0031 -0.4373
 9439SOL    HW138996   0.822   5.685   1.879  0.4683 -1.2516  2.0661
 9439SOL    HW238997   0.683   5.606   1.850  0.0562  0.0462  0.3796
 9440SOL     OW38998   4.391   9.020   4.141  0.4763  0.4604 -0.0497
 9440SOL    HW138999   4.379   9.101   4.083 -2.2579 -0.6696 -1.1399
 9440SOL    HW239000   4.329   8.948   4.111 -0.8391 -0.2700  4.1207
 9441SOL     OW39001   0.968   3.830   2.780  0.3508 -0.6013  0.3894
 9441SOL    HW139002   0.909   3.760   2.740  1.0137 -0.7844 -0.2764
 9441SOL    HW239003   0.931   3.920   2.758  1.0915 -0.6789 -1.2629
 9442SOL     OW39004   7.416   7.673   3.464  0.1241 -0.5523  0.7502
 9442SOL    HW139005   7.413   7.773   3.460 -1.5616 -0.5176  2.2312
 9442SOL    HW239006   7.325   7.636   3.448  1.0389 -1.9546 -1.3717
 9443SOL     OW39007   2.624   1.381   1.679 -0.1569  0.2579 -0.2804
 9443SOL    HW139008   2.676   1.461   1.650 -0.5942  1.4627  2.1635
 9443SOL    HW239009   2.529   1.390   1.649 -0.2185  0.6742  0.0444
 9444SOL     OW39010   3.465   9.465   3.091 -0.0328 -0.3558  0.1258
 9444SOL    HW139011   3.403   9.390   3.114 -2.5195  0.9186 -2.0415
 9444SOL    HW239012   3.524   9.439   3.015 -1.1238 -0.0667 -0.8471
 9445SOL     OW39013   9.082   3.490   3.181  0.1599 -0.0650  0.2462
 9445SOL    HW139014   9.140   3.462   3.258  1.7259  1.6976 -0.2515
 9445SOL    HW239015   9.098   3.587   3.161 -0.6836 -0.3505 -1.9204
 9446SOL     OW39016   9.193   4.358   2.899 -0.4349 -0.2277  0.4370
 9446SOL    HW139017   9.236   4.366   2.809  1.3236  0.9369  1.3420
 9446SOL    HW239018   9.094   4.365   2.889 -0.2120  0.9543 -1.3190
 9447SOL     OW39019   2.784   2.508   3.019 -0.3714 -0.0794  0.7140
 9447SOL    HW139020   2.878   2.474   3.026 -0.5064 -0.3598  1.2341
 9447SOL    HW239021   2.784   2.599   2.979 -0.2659 -2.0019 -4.0142
 9448SOL     OW39022   7.864   1.313   2.576 -0.0792  0.0868  0.0597
 9448SOL    HW139023   7.903   1.360   2.656  0.7655 -0.2440 -0.1464
 9448SOL    HW239024   7.783   1.362   2.545  0.6106  1.2439  0.0437
 9449SOL     OW39025   7.770   0.079   3.337 -0.1516 -0.4684 -0.0249
 9449SOL    HW139026   7.733   0.025   3.262 -0.4882 -1.5589  0.9217
 9449SOL    HW239027   7.695   0.125   3.386 -0.1064 -1.2408  0.7811
 9450SOL     OW39028   8.075   4.956   3.913  0.1009  0.2461 -0.8458
 9450SOL    HW139029   8.128   4.937   3.996 -1.6332 -0.1712  0.1798
 9450SOL    HW239030   8.031   5.045   3.921 -1.4563 -0.5271 -0.5748
 9451SOL     OW39031   4.230   8.836   1.050 -0.3544  0.3487  0.3480
 9451SOL    HW139032   4.225   8.931   1.017  0.8524  0.1812 -0.3635
 9451SOL    HW239033   4.258   8.836   1.146 -0.1721  0.7208  0.2990
 9452SOL     OW39034   1.317   0.483   1.663  0.2346  0.0470  0.0156
 9452SOL    HW139035   1.391   0.492   1.731  1.8076 -1.1944 -1.4815
 9452SOL    HW239036   1.355   0.496   1.572 -1.1614 -1.8407 -0.8651
 9453SOL     OW39037   8.100   9.605   3.208  0.0566 -0.1106 -0.3758
 9453SOL    HW139038   8.154   9.683   3.177  1.5312 -0.5785  0.9860
 9453SOL    HW239039   8.070   9.620   3.302 -0.1020 -0.9636 -0.2900
 9454SOL     OW39040   0.368   6.247   2.951  0.2710  0.0301 -0.0431
 9454SOL    HW139041   0.369   6.340   2.988  0.0460 -0.2451  0.6666
 9454SOL    HW239042   0.337   6.184   3.022  0.9125 -0.6546 -0.3708
 9455SOL     OW39043   2.199   3.401   3.747 -0.5030  0.0787 -0.2100
 9455SOL    HW139044   2.142   3.322   3.725 -0.0513  0.4806 -3.0442
 9455SOL    HW239045   2.152   3.458   3.813 -1.7339 -1.5128  0.3368
 9456SOL     OW39046   3.535   4.339   2.746 -0.5296 -0.3695 -0.3696
 9456SOL    HW139047   3.450   4.373   2.707  0.5822  0.0416 -2.5274
 9456SOL    HW239048   3.541   4.240   2.734 -0.3675 -0.2959 -0.9316
 9457SOL     OW39049   7.896   9.422   0.474  0.3821 -0.0838 -0.2184
 9457SOL    HW139050   7.936   9.469   0.552  0.3293  0.4013 -0.4825
 9457SOL    HW239051   7.961   9.421   0.398  1.1431 -2.1963  0.4418
 9458SOL     OW39052   8.069   0.171   0.155  0.1217 -0.2786  0.1728
 9458SOL    HW139053   7.999   0.199   0.222 -2.0670  0.5873 -2.3637
 9458SOL    HW239054   8.133   0.246   0.141 -1.3206  0.7780 -1.0216
 9459SOL     OW39055   2.367   6.591   1.099  0.1920 -0.1080  0.3731
 9459SOL    HW139056   2.340   6.681   1.064  3.7528  1.6063  1.8255
 9459SOL    HW239057   2.426   6.546   1.033 -0.2522 -0.6647  0.3576
 9460SOL     OW39058   9.897   1.049   3.151 -0.0627 -0.3722  0.6982
 9460SOL    HW139059   9.816   1.054   3.091 -1.1470  0.0781  2.1845
 9460SOL    HW239060   9.890   0.968   3.209 -0.1824  0.4803  1.8804
 9461SOL     OW39061   6.263   9.760   2.149 -0.2949  0.1430 -0.0792
 9461SOL    HW139062   6.298   9.795   2.235  0.9447  0.7234 -0.8063
 9461SOL    HW239063   6.227   9.668   2.162  2.0238 -0.6998  0.5745
 9462SOL     OW39064   9.614   1.745   4.072 -0.5336  0.0411  0.5587
 9462SOL    HW139065   9.525   1.717   4.037 -0.8758  0.8674  0.7423
 9462SOL    HW239066   9.643   1.682   4.144 -1.3804  0.2816  1.1119
 9463SOL     OW39067   8.983   0.688   4.556 -0.6041  0.1684 -0.2491
 9463SOL    HW139068   8.918   0.635   4.502  0.7308 -0.8645 -0.8686
 9463SOL    HW239069   9.056   0.721   4.497  1.5330 -2.0272  1.0952
 9464SOL     OW39070   6.047   9.242   3.008  0.5642  0.1534 -0.1710
 9464SOL    HW139071   5.954   9.229   3.042  0.4011 -1.5417 -1.2545
 9464SOL    HW239072   6.076   9.336   3.027 -1.1941  0.5618  0.5739
 9465SOL     OW39073   0.599   6.751   1.765 -0.4778  0.2841  0.2772
 9465SOL    HW139074   0.603   6.678   1.833 -1.8012  0.8169  0.9360
 9465SOL    HW239075   0.643   6.833   1.802  2.9510 -0.7492 -1.2547
 9466SOL     OW39076   3.570   6.982   3.582  0.2948  0.0549 -0.0943
 9466SOL    HW139077   3.475   6.966   3.610  0.4259  0.7358  0.7471
 9466SOL    HW239078   3.606   6.898   3.541 -0.7108 -0.1686 -0.5552
 9467SOL     OW39079   4.522   0.146   4.599 -0.4524  0.0952 -0.1784
 9467SOL    HW139080   4.566   0.223   4.553  2.3633 -1.4581 -0.1872
 9467SOL    HW239081   4.452   0.107   4.540  0.9146  0.1367 -1.8586
 9468SOL     OW39082   5.108   1.499   1.397 -0.3925 -0.1136 -0.5303
 9468SOL    HW139083   5.022   1.473   1.441 -0.1476  0.1631  0.1185
 9468SOL    HW239084   5.088   1.544   1.310 -0.7948 -2.9149 -1.9343
 9469SOL     OW39085   3.637   2.544   1.891 -0.4011  0.1628  0.0611
 9469SOL    HW139086   3.551   2.540   1.941 -0.5129  1.3286 -0.0268
 9469SOL    HW239087   3.713   2.550   1.956 -0.3901 -0.7891  0.1368
 9470SOL     OW39088   2.955   7.860   4.408 -0.3065  0.1774 -0.0015
 9470SOL    HW139089   2.876   7.806   4.438 -0.7494  1.0477  0.4269
 9470SOL    HW239090   3.018   7.871   4.485  0.0979 -0.2908 -0.2698
 9471SOL     OW39091   3.355   2.844   4.677 -0.5317 -0.0475  0.3859
 9471SOL    HW139092   3.354   2.799   4.766  0.1628 -0.3563  0.2422
 9471SOL    HW239093   3.439   2.820   4.628 -0.7355  0.4121 -0.2028
 9472SOL     OW39094   0.036   2.643   2.845 -0.1592 -0.6393  0.0648
 9472SOL    HW139095   0.013   2.692   2.928  1.6934 -0.9088  0.7516
 9472SOL    HW239096   0.134   2.625   2.842 -0.2847 -1.1711 -1.8819
 9473SOL     OW39097   9.802   0.172   2.275 -0.2447  0.5633 -0.0108
 9473SOL    HW139098   9.866   0.190   2.201  1.0407  0.5597  1.0710
 9473SOL    HW239099   9.802   0.250   2.338  0.1579 -0.2747  1.0301
 9474SOL     OW39100   2.248   6.109   0.036  0.3542  0.0987  0.1086
 9474SOL    HW139101   2.158   6.082   0.003 -0.8770  1.3056  2.3395
 9474SOL    HW239102   2.295   6.030   0.074 -1.1271  0.0677  1.9266
 9475SOL     OW39103   8.724   7.598   3.326 -0.3182 -0.3526  0.1794
 9475SOL    HW139104   8.652   7.580   3.393  0.8695  1.8760  2.1257
 9475SOL    HW239105   8.808   7.550   3.353  0.2953  0.9218  0.5532
 9476SOL     OW39106   2.126   2.424   3.525 -0.0563  0.4202 -0.0338
 9476SOL    HW139107   2.046   2.422   3.466 -0.2695 -0.3728  0.2715
 9476SOL    HW239108   2.190   2.353   3.495  0.2212  0.5919  0.1550
 9477SOL     OW39109   2.214   1.711   3.476 -0.3701 -0.1752  0.4240
 9477SOL    HW139110   2.269   1.795   3.483  0.9671 -0.9364 -0.6143
 9477SOL    HW239111   2.117   1.735   3.469  0.0037  1.2934  0.1071
 9478SOL     OW39112   6.993   0.965   3.121  1.1124 -0.3036  0.2601
 9478SOL    HW139113   7.037   0.890   3.170  1.5471 -0.0018  0.3393
 9478SOL    HW239114   6.986   1.045   3.181 -1.7051 -1.0800  1.0311
 9479SOL     OW39115   7.405   9.100   2.203  0.2101  0.6158  0.6729
 9479SOL    HW139116   7.400   9.059   2.112  1.5182 -1.1547  1.3603
 9479SOL    HW239117   7.421   9.198   2.195 -0.5222  0.6129 -1.0027
 9480SOL     OW39118   1.661   1.935   1.091  0.4846 -0.0965 -0.1901
 9480SOL    HW139119   1.578   1.989   1.089  0.0872 -0.6950 -0.0161
 9480SOL    HW239120   1.722   1.965   1.017  0.8000  1.4093  0.6652
 9481SOL     OW39121   1.969   4.552   1.412  0.5667  0.0843  0.3048
 9481SOL    HW139122   2.041   4.565   1.480  0.9178  0.3374 -0.1150
 9481SOL    HW239123   1.990   4.606   1.331 -0.0428  0.0762  0.1412
 9482SOL     OW39124   8.623   0.633   2.897  0.0214  0.2042  0.1997
 9482SOL    HW139125   8.544   0.606   2.951 -1.4634  2.1115 -0.9806
 9482SOL    HW239126   8.696   0.664   2.957 -0.5014 -0.5278  1.2321
 9483SOL     OW39127   3.657   0.478   1.827 -0.1321 -0.0296 -0.5667
 9483SOL    HW139128   3.570   0.468   1.778  0.2772 -0.2626 -1.2625
 9483SOL    HW239129   3.665   0.570   1.863 -2.2720 -1.0417  2.6249
 9484SOL     OW39130   8.176   3.326   1.293  0.2566 -0.0285  0.0142
 9484SOL    HW139131   8.209   3.348   1.201  2.6468 -0.8911  0.6357
 9484SOL    HW239132   8.103   3.258   1.286  0.9738 -0.7057 -1.2186
 9485SOL     OW39133   1.901   2.153   1.892  0.0833  0.6766 -0.2193
 9485SOL    HW139134   1.845   2.086   1.843  1.1034 -0.1134 -0.3150
 9485SOL    HW239135   1.945   2.214   1.827  0.4853  0.3850 -0.2197
 9486SOL     OW39136   4.898   1.312   2.893  0.2802  0.0426 -0.1867
 9486SOL    HW139137   4.985   1.329   2.847  0.8678  0.0323  0.9173
 9486SOL    HW239138   4.902   1.348   2.986 -0.5629 -0.8246  0.1900
 9487SOL     OW39139   1.836   2.552   1.485 -0.2405  0.0871  0.3689
 9487SOL    HW139140   1.826   2.473   1.424  0.1160  1.2006 -1.1819
 9487SOL    HW239141   1.863   2.522   1.576  1.0573 -1.5019 -0.5195
 9488SOL     OW39142   9.077   3.371   4.241 -0.0588  0.1043  0.1827
 9488SOL    HW139143   9.093   3.428   4.160 -1.3901  1.5814  0.9405
 9488SOL    HW239144   9.148   3.388   4.309  0.8892 -0.9171 -0.5216
 9489SOL     OW39145   1.157   6.175   0.759  0.1844 -0.5400 -1.2807
 9489SOL    HW139146   1.243   6.223   0.741 -0.1001 -0.0759 -1.4287
 9489SOL    HW239147   1.102   6.230   0.822  0.5661 -1.4660 -0.1181
 9490SOL     OW39148   9.004   2.394   4.593  0.5471 -0.2033  0.1108
 9490SOL    HW139149   8.959   2.333   4.659  0.8523  1.4375  1.8753
 9490SOL    HW239150   9.102   2.374   4.591  1.0012  1.5421  2.2449
 9491SOL     OW39151   0.429   2.702   0.404  0.4654 -0.0523  0.0161
 9491SOL    HW139152   0.431   2.744   0.313 -2.4252  0.7530  0.2598
 9491SOL    HW239153   0.390   2.610   0.396 -1.7100  0.7800  0.6652
 9492SOL     OW39154   6.297   8.543   2.320  0.1889  0.6394  0.4275
 9492SOL    HW139155   6.245   8.467   2.283 -0.9101  1.7387 -0.3063
 9492SOL    HW239156   6.302   8.534   2.420  0.4802 -0.6383  0.3102
 9493SOL     OW39157   3.416   9.550   1.144  0.2435 -0.4319  0.0278
 9493SOL    HW139158   3.485   9.483   1.173 -0.3313 -0.9046  0.3309
 9493SOL    HW239159   3.342   9.552   1.212 -0.2873 -0.3064 -0.5510
 9494SOL     OW39160   9.300   5.262   2.698 -0.6391  0.2541  0.1445
 9494SOL    HW139161   9.202   5.281   2.687 -0.0838  2.1487 -1.9914
 9494SOL    HW239162   9.324   5.180   2.646 -0.8608  0.4736 -0.3045
 9495SOL     OW39163   8.812   8.806   0.615 -0.1726 -0.1029  0.2143
 9495SOL    HW139164   8.720   8.802   0.576  0.9373 -1.0473 -2.3864
 9495SOL    HW239165   8.828   8.897   0.653 -1.0806  1.0482 -2.0731
 9496SOL     OW39166   1.231   7.325   0.815 -0.1602  0.4851 -0.3890
 9496SOL    HW139167   1.198   7.320   0.720  1.5933  1.8881 -1.1109
 9496SOL    HW239168   1.155   7.346   0.876 -1.3244 -0.5200 -1.4782
 9497SOL     OW39169   6.605   0.280   2.687  0.0552 -0.3734 -0.2412
 9497SOL    HW139170   6.574   0.213   2.754  0.4631 -1.5271 -1.2050
 9497SOL    HW239171   6.557   0.367   2.702 -2.3981 -1.6210 -0.6630
 9498SOL     OW39172   2.997   5.346   3.622 -0.0134  0.9170  0.6082
 9498SOL    HW139173   3.096   5.338   3.633  0.2004  0.3725 -1.4810
 9498SOL    HW239174   2.955   5.256   3.627 -0.0700  0.8127 -1.1716
 9499SOL     OW39175   9.802   9.904   2.803  0.2574 -0.1763 -0.4932
 9499SOL    HW139176   9.705   9.887   2.820  0.3062 -0.5507 -0.6046
 9499SOL    HW239177   9.816  10.002   2.785 -0.1023 -0.1287 -0.5071
 9500SOL     OW39178   9.864   9.714   1.894  0.3783 -0.2651 -0.6202
 9500SOL    HW139179   9.789   9.663   1.935  2.1140 -0.6834  2.2005
 9500SOL    HW239180   9.840   9.811   1.887 -0.4719 -0.4266  0.0856
 9501SOL     OW39181   0.348   7.823   0.280 -0.5027 -0.2020  0.2662
 9501SOL    HW139182   0.382   7.729   0.289  0.6462  0.3194  1.6472
 9501SOL    HW239183   0.262   7.832   0.330 -0.1871 -0.3225  0.8397
 9502SOL     OW39184   1.188   4.761   4.026 -0.1544 -0.6148 -0.2117
 9502SOL    HW139185   1.199   4.860   4.021 -0.0651 -0.6701 -1.1799
 9502SOL    HW239186   1.131   4.729   3.950  2.0944 -1.6108 -1.5361
 9503SOL     OW39187   1.115   9.504   1.380 -0.1767 -0.4495 -0.7970
 9503SOL    HW139188   1.215   9.501   1.371  0.2371 -1.7035  3.1801
 9503SOL    HW239189   1.086   9.597   1.402  0.2545 -0.3659 -0.5779
 9504SOL     OW39190   2.586   4.141   4.450  0.3127 -0.2751  0.0662
 9504SOL    HW139191   2.628   4.231   4.435 -2.1737  0.8513 -0.3664
 9504SOL    HW239192   2.620   4.076   4.383  0.1922  1.0039 -1.2433
 9505SOL     OW39193   3.901   3.223   0.116  0.0908 -0.0717 -0.1212
 9505SOL    HW139194   3.888   3.138   0.064 -0.2591 -0.0085 -0.1396
 9505SOL    HW239195   3.812   3.255   0.149  0.1559  0.5700 -0.5621
 9506SOL     OW39196   3.797   9.202   4.684  0.1072  0.4480  0.5773
 9506SOL    HW139197   3.720   9.266   4.681 -1.1203 -1.0000  0.9677
 9506SOL    HW239198   3.809   9.161   4.594  1.3090  1.6795  0.1538
 9507SOL     OW39199   7.690   5.406   2.883  0.0509  0.4325 -0.7822
 9507SOL    HW139200   7.610   5.426   2.939  0.4308 -0.4075  0.0710
 9507SOL    HW239201   7.754   5.483   2.888  0.5432 -0.0406  0.7847
 9508SOL     OW39202   8.800   6.844   0.097 -0.0339 -0.1165 -0.4082
 9508SOL    HW139203   8.858   6.789   0.037  0.4393  0.3910 -0.4221
 9508SOL    HW239204   8.773   6.790   0.177 -1.1314 -0.9765 -1.3501
 9509SOL     OW39205   8.413   9.791   3.559 -0.3315 -0.4583  0.0394
 9509SOL    HW139206   8.464   9.707   3.575 -0.0886 -0.5510 -1.1565
 9509SOL    HW239207   8.339   9.773   3.494 -0.2936  0.2415 -0.2079
 9510SOL     OW39208   1.257   0.380   4.389 -0.1812  0.0419 -0.1492
 9510SOL    HW139209   1.251   0.414   4.295  1.0026 -0.2712 -0.3520
 9510SOL    HW239210   1.353   0.382   4.418 -0.3959 -1.0162  0.6270
 9511SOL     OW39211   5.173   8.445   3.469  0.4064  0.1330  0.7734
 9511SOL    HW139212   5.129   8.361   3.438  3.1949 -1.6696  1.4182
 9511SOL    HW239213   5.224   8.486   3.393  1.4203 -0.3986  1.1449
 9512SOL     OW39214   0.575   4.763   0.112 -0.2470  0.5624  0.7630
 9512SOL    HW139215   0.526   4.833   0.164 -1.3519  1.6481 -1.6257
 9512SOL    HW239216   0.609   4.804   0.027 -1.2197 -1.8954 -0.8440
 9513SOL     OW39217   3.615   8.717   1.352 -0.1503 -0.2316  0.4538
 9513SOL    HW139218   3.595   8.815   1.351 -0.1705 -0.2282  1.0399
 9513SOL    HW239219   3.558   8.672   1.422  0.9113 -0.4373  1.1928
 9514SOL     OW39220   8.803   2.829   0.836 -0.2307 -0.4753  0.1944
 9514SOL    HW139221   8.852   2.855   0.753 -0.6317 -2.9854 -0.8761
 9514SOL    HW239222   8.712   2.796   0.812 -0.4257 -1.0665  1.6718
 9515SOL     OW39223   4.452   9.119   1.129 -0.5653  0.1888  0.1957
 9515SOL    HW139224   4.466   9.084   1.036  0.4602 -1.5958  0.9839
 9515SOL    HW239225   4.481   9.214   1.134 -0.5362  0.2679 -1.2963
 9516SOL     OW39226   6.702   9.424   3.481  0.3073  0.2932  0.6483
 9516SOL    HW139227   6.734   9.412   3.387 -2.2946 -0.0327 -0.2262
 9516SOL    HW239228   6.777   9.405   3.545  1.2602 -2.5130 -1.2535
 9517SOL     OW39229   4.729   0.760   3.142 -0.1077  0.3576  0.0397
 9517SOL    HW139230   4.791   0.691   3.106  1.2043  0.7871  1.4102
 9517SOL    HW239231   4.682   0.806   3.066 -0.1916 -1.2901 -0.9107
 9518SOL     OW39232   2.774   1.173   1.218 -0.6585 -0.1759  0.4451
 9518SOL    HW139233   2.729   1.119   1.146 -2.7451  0.3042  1.3462
 9518SOL    HW239234   2.746   1.269   1.208  0.0752  0.1034  1.1106
 9519SOL     OW39235   2.099   8.848   0.366 -0.0160  0.0929  0.0749
 9519SOL    HW139236   2.118   8.924   0.303  1.9262 -0.4558 -0.0445
 9519SOL    HW239237   2.091   8.883   0.459  1.0578  0.4350  0.0438
 9520SOL     OW39238   9.295   0.315   4.543 -0.1301 -0.1728 -0.2553
 9520SOL    HW139239   9.293   0.362   4.632 -2.2977  0.0679 -0.4082
 9520SOL    HW239240   9.260   0.376   4.472 -0.3981 -1.0915 -0.9240
 9521SOL     OW39241   9.648   1.065   3.562 -0.0193 -1.0314 -0.1864
 9521SOL    HW139242   9.739   1.061   3.604  0.0808 -2.0646 -0.4991
 9521SOL    HW239243   9.640   1.150   3.510 -0.1386  0.2621  1.8837
 9522SOL     OW39244   1.227   3.798   3.184 -0.0863 -0.2853 -0.4905
 9522SOL    HW139245   1.214   3.894   3.161  0.4019 -0.1794 -0.3421
 9522SOL    HW239246   1.325   3.779   3.190 -0.1559 -1.0740 -1.6934
 9523SOL     OW39247   7.339   9.338   0.544 -0.1225  0.1144  0.0110
 9523SOL    HW139248   7.426   9.293   0.524  0.5935  1.1821  0.6544
 9523SOL    HW239249   7.302   9.378   0.461  0.2160  0.0104 -0.1914
 9524SOL     OW39250   7.928   4.880   0.327  0.0233 -0.5319  0.2002
 9524SOL    HW139251   7.953   4.891   0.423  1.9828  0.5815 -0.4116
 9524SOL    HW239252   7.986   4.938   0.271 -0.6831 -1.6516 -1.7285
 9525SOL     OW39253   8.881   5.086   4.268  0.3813 -0.1261 -0.6419
 9525SOL    HW139254   8.829   5.149   4.325  0.6181 -0.8827  0.4196
 9525SOL    HW239255   8.818   5.027   4.218  0.1956 -0.6362  0.1824
 9526SOL     OW39256   5.325   3.109   0.810 -0.4563 -0.4101  0.5737
 9526SOL    HW139257   5.389   3.116   0.887 -0.0610 -1.2403  0.3201
 9526SOL    HW239258   5.373   3.132   0.725  0.0067 -2.9225  0.1386
 9527SOL     OW39259   8.260   4.626   1.500 -0.2044 -1.0144  0.1503
 9527SOL    HW139260   8.260   4.697   1.571 -0.9023 -1.2624  0.4064
 9527SOL    HW239261   8.351   4.585   1.493  0.3877  0.4085 -0.5090
 9528SOL     OW39262   0.574   7.220   3.393  0.5918  0.2157 -0.4535
 9528SOL    HW139263   0.600   7.163   3.316 -1.6746  0.6830 -1.6067
 9528SOL    HW239264   0.546   7.310   3.360  2.3571  1.4186  1.1791
 9529SOL     OW39265   4.253   3.856   0.361 -0.4935  0.0056  0.6426
 9529SOL    HW139266   4.241   3.857   0.262 -0.9992 -2.5912  0.6597
 9529SOL    HW239267   4.164   3.849   0.406 -0.4334  3.0553  1.3894
 9530SOL     OW39268   1.525   4.044   0.410  0.6552 -0.2468  0.2640
 9530SOL    HW139269   1.610   3.996   0.433 -0.3759 -1.9742  0.5954
 9530SOL    HW239270   1.475   3.990   0.342 -0.1401  0.8089  0.0084
 9531SOL     OW39271   8.852   9.197   3.704 -0.1804 -0.0166  0.1031
 9531SOL    HW139272   8.908   9.194   3.787 -0.6142  1.1608  0.4470
 9531SOL    HW239273   8.860   9.110   3.655  0.3884 -0.5708  1.1683
 9532SOL     OW39274   8.936   4.165   0.119 -0.3467 -0.2281 -0.1449
 9532SOL    HW139275   9.011   4.169   0.054  0.0780  1.2760  0.4270
 9532SOL    HW239276   8.849   4.156   0.070  0.1069 -0.8935 -0.8360
 9533SOL     OW39277   8.174   9.482   1.083 -0.4759  0.4189 -0.0878
 9533SOL    HW139278   8.088   9.532   1.074  0.2494  1.4545 -1.5881
 9533SOL    HW239279   8.155   9.385   1.098 -1.9139  0.5566 -0.9047
 9534SOL     OW39280   0.133   2.474   0.373 -0.1771  0.2178  0.0523
 9534SOL    HW139281   0.100   2.506   0.461  0.1025 -1.6735  0.8691
 9534SOL    HW239282   0.055   2.443   0.318 -0.0635 -1.5358  0.8605
 9535SOL     OW39283   2.791   0.621   2.057  0.6148 -0.0265  0.0067
 9535SOL    HW139284   2.694   0.646   2.055  0.9196  1.2078  0.2485
 9535SOL    HW239285   2.808   0.550   1.989 -1.2532 -3.2581  2.7355
 9536SOL     OW39286   2.361   8.596   1.056  0.1720  0.4443  0.0911
 9536SOL    HW139287   2.273   8.640   1.037 -0.6935 -0.4400  2.0045
 9536SOL    HW239288   2.401   8.563   0.970 -1.4021  0.7617 -0.7749
 9537SOL     OW39289   8.343   0.875   3.057 -0.1024 -0.0256 -0.0057
 9537SOL    HW139290   8.430   0.856   3.011  0.6280  1.7439  0.5813
 9537SOL    HW239291   8.357   0.870   3.156 -0.5831  0.5824  0.0936
 9538SOL     OW39292   1.089   0.569   1.826  0.2701  0.0518  0.0796
 9538SOL    HW139293   1.096   0.575   1.926 -0.0620  0.4968  0.0776
 9538SOL    HW239294   1.160   0.507   1.792  2.1478  2.0061  0.3420
 9539SOL     OW39295   9.845   1.910   0.924 -0.6145  0.0614  0.1035
 9539SOL    HW139296   9.858   1.900   1.022  2.7794  0.4663 -0.2525
 9539SOL    HW239297   9.880   1.999   0.894  0.8234 -1.1066 -1.8347
 9540SOL     OW39298   8.852   3.552   1.070 -0.0215  0.2741 -0.2074
 9540SOL    HW139299   8.824   3.479   1.133 -0.4434 -0.1701 -0.8966
 9540SOL    HW239300   8.921   3.610   1.114 -0.0830 -0.2164  0.5443
 9541SOL     OW39301   9.076   0.751   0.050 -0.8834  0.2961  0.3029
 9541SOL    HW139302   9.044   0.683  -0.016  1.4812 -0.2383 -0.3146
 9541SOL    HW239303   9.043   0.726   0.141  0.7108 -2.2120  0.2245
 9542SOL     OW39304   5.314   7.955   1.797 -0.3985  0.2469 -0.1802
 9542SOL    HW139305   5.344   7.908   1.880  0.9180  0.2827 -0.6319
 9542SOL    HW239306   5.302   8.052   1.816 -1.5277  0.0199  0.3321
 9543SOL     OW39307   9.777   6.837   3.344 -0.2646  0.0049  0.0927
 9543SOL    HW139308   9.825   6.827   3.257 -1.2636  1.0905 -0.5932
 9543SOL    HW239309   9.834   6.800   3.418  1.2562  0.4717 -0.8152
 9544SOL     OW39310   3.504   6.977   1.794  0.6011  0.2912 -0.0992
 9544SOL    HW139311   3.588   7.009   1.838  0.8902  1.3678 -1.3763
 9544SOL    HW239312   3.486   6.882   1.820  0.7615  0.8959  2.2877
 9545SOL     OW39313   7.730   1.449   0.414  0.0150 -0.4132  0.1685
 9545SOL    HW139314   7.715   1.402   0.501 -0.6642 -0.5144  0.0031
 9545SOL    HW239315   7.694   1.542   0.420  0.1872 -0.3417  0.0795
 9546SOL     OW39316   4.501   7.288   0.474  0.4378  0.0886 -0.0237
 9546SOL    HW139317   4.443   7.344   0.415  0.7245  0.2034 -0.2009
 9546SOL    HW239318   4.503   7.327   0.566 -0.0646 -0.1292  0.0835
 9547SOL     OW39319   9.478   1.528   3.929 -0.0589 -0.2473  0.2143
 9547SOL    HW139320   9.401   1.549   3.869  0.2626  0.3986  0.0259
 9547SOL    HW239321   9.536   1.459   3.886  0.1076  0.1307 -0.1641
 9548SOL     OW39322   1.486   2.252   1.364  0.2196 -0.4814  0.2266
 9548SOL    HW139323   1.538   2.174   1.400  0.1238 -0.0427  1.3348
 9548SOL    HW239324   1.458   2.310   1.440  0.4466  0.7312 -0.6157
 9549SOL     OW39325   3.335   5.604   0.241 -0.1408  0.0845  0.1626
 9549SOL    HW139326   3.289   5.689   0.266 -0.0225  0.5749 -1.2641
 9549SOL    HW239327   3.392   5.573   0.318 -0.5734  1.0160  0.8650
 9550SOL     OW39328   3.839   1.429   3.211  0.3716  0.3774 -0.3563
 9550SOL    HW139329   3.928   1.410   3.253  0.7925  0.0283 -1.3904
 9550SOL    HW239330   3.799   1.510   3.253  0.4115 -0.4360  1.2777
 9551SOL     OW39331   8.767   1.275   0.321 -0.3656 -0.7509  0.5024
 9551SOL    HW139332   8.689   1.337   0.308  0.4850 -0.0439 -1.5071
 9551SOL    HW239333   8.775   1.216   0.241  0.3985 -1.6822  1.2736
 9552SOL     OW39334   1.891   8.689   0.803  0.3806 -0.0328  0.0212
 9552SOL    HW139335   1.883   8.640   0.889 -0.2062  3.0847  1.8200
 9552SOL    HW239336   1.820   8.658   0.740  0.2389 -1.6926  0.9763
 9553SOL     OW39337   1.609   2.597   3.323  0.0949  0.0063  0.1926
 9553SOL    HW139338   1.687   2.562   3.374  0.5502  0.6801 -0.0419
 9553SOL    HW239339   1.556   2.659   3.381 -0.0490 -0.1474  0.2260
 9554SOL     OW39340   6.901   9.874   2.006  0.3534  0.7850 -0.1145
 9554SOL    HW139341   6.838   9.838   2.075  0.0715  1.0222 -0.2441
 9554SOL    HW239342   6.937   9.962   2.037  1.7991 -0.0585  0.6451
 9555SOL     OW39343   1.963   0.189   0.358 -0.1583  0.2928  0.1339
 9555SOL    HW139344   1.939   0.145   0.444  0.3336 -0.1063  0.0696
 9555SOL    HW239345   1.971   0.120   0.286 -0.2620  0.5889 -0.1657
 9556SOL     OW39346   5.131   9.072   1.606 -0.3057 -0.3613 -0.2580
 9556SOL    HW139347   5.177   9.071   1.695 -0.7808  1.5075  0.0323
 9556SOL    HW239348   5.200   9.065   1.533  0.2767  0.3001  0.2193
 9557SOL     OW39349   2.068   7.228   4.217 -0.0314  0.4224 -0.0614
 9557SOL    HW139350   1.977   7.265   4.198 -0.8010 -1.1630  0.4253
 9557SOL    HW239351   2.093   7.250   4.312  0.7474  2.1419 -0.6465
 9558SOL     OW39352   0.341   6.550   4.203  0.1816  0.2115 -0.2676
 9558SOL    HW139353   0.300   6.533   4.292 -0.1848 -0.6227 -0.5899
 9558SOL    HW239354   0.437   6.523   4.204 -0.0147 -0.5146 -0.3364
 9559SOL     OW39355   8.786   8.741   3.572  0.2158 -0.0620 -0.3658
 9559SOL    HW139356   8.831   8.793   3.645 -2.3192  0.4844  0.8662
 9559SOL    HW239357   8.855   8.698   3.515  2.3256  1.9564  0.5622
 9560SOL     OW39358   9.015   3.667   2.078  0.6143 -0.1182 -0.0696
 9560SOL    HW139359   8.924   3.710   2.075  0.6099 -0.2097 -1.8754
 9560SOL    HW239360   9.061   3.680   1.990  2.5707  0.3656  1.0079
 9561SOL     OW39361   0.551   9.739   2.691 -0.0769  0.2088  0.1198
 9561SOL    HW139362   0.629   9.746   2.628  1.0293  1.9370  1.6130
 9561SOL    HW239363   0.581   9.698   2.777 -1.0131  0.1439  0.4236
 9562SOL     OW39364   3.435   5.432   0.760  0.0982  0.4352 -0.5014
 9562SOL    HW139365   3.400   5.408   0.851  2.1870 -1.0810 -0.0690
 9562SOL    HW239366   3.360   5.469   0.705 -1.5157  0.0355  1.3501
 9563SOL     OW39367   4.612   8.186   2.605  0.3077  0.4123 -0.9605
 9563SOL    HW139368   4.681   8.151   2.669 -0.2350  1.4333  0.2157
 9563SOL    HW239369   4.579   8.111   2.548 -0.2514 -0.8529  0.9506
 9564SOL     OW39370   4.381   2.838   1.322 -0.1340 -0.0310  0.3000
 9564SOL    HW139371   4.304   2.799   1.372  0.6133 -0.6874  0.9766
 9564SOL    HW239372   4.364   2.831   1.224 -1.3816  0.7756  0.4544
 9565SOL     OW39373   4.058   3.292   1.213  0.0145 -0.0958 -0.1384
 9565SOL    HW139374   4.035   3.262   1.306  2.1765  0.9270  0.7637
 9565SOL    HW239375   4.116   3.373   1.218  2.0586 -1.3603 -2.3071
 9566SOL     OW39376   1.485   6.767   4.720  0.1914  0.1195  0.2884
 9566SOL    HW139377   1.431   6.778   4.637  0.6616 -0.5238 -0.1097
 9566SOL    HW239378   1.512   6.857   4.754 -0.8754  0.4368  0.3328
 9567SOL     OW39379   2.227   6.425   0.879 -0.0230  0.0528  0.0600
 9567SOL    HW139380   2.165   6.438   0.957  1.9851  0.3377  1.6590
 9567SOL    HW239381   2.228   6.508   0.824  0.0312  0.5810  0.8427
 9568SOL     OW39382   8.086   3.092   0.750  0.1922 -0.0530 -0.0902
 9568SOL    HW139383   8.005   3.150   0.737 -0.2178 -0.5746  0.1159
 9568SOL    HW239384   8.106   3.044   0.664 -0.0881 -0.3908  0.0294
 9569SOL     OW39385   1.722   2.866   4.243  0.2543  0.3912  0.1008
 9569SOL    HW139386   1.779   2.821   4.312  0.4009  1.1672  0.4948
 9569SOL    HW239387   1.627   2.864   4.272  0.1841 -0.1536 -0.1526
 9570SOL     OW39388   7.543   7.528   3.207  0.3594  0.5912  0.2397
 9570SOL    HW139389   7.540   7.431   3.227  1.4630  0.7321  1.0961
 9570SOL    HW239390   7.477   7.577   3.265 -0.3571  0.3363 -0.3497
 9571SOL     OW39391   0.188   4.135   0.842  0.3831  1.0335  0.0296
 9571SOL    HW139392   0.241   4.079   0.778 -1.3159 -1.1138  0.4571
 9571SOL    HW239393   0.219   4.117   0.935 -0.6143  0.3043  0.2215
 9572SOL     OW39394   2.475   8.469   0.833  0.0434  0.1675 -0.4960
 9572SOL    HW139395   2.564   8.465   0.879  0.2818 -1.4646 -1.0318
 9572SOL    HW239396   2.489   8.463   0.734 -0.7255 -1.6399 -0.5167
 9573SOL     OW39397   0.392   9.573   1.177  0.0419  0.3131 -0.3011
 9573SOL    HW139398   0.427   9.626   1.254 -1.9143 -0.0986  0.9124
 9573SOL    HW239399   0.468   9.534   1.126  1.4519  2.8191 -0.1813
 9574SOL     OW39400   0.940   9.508   2.085  0.2334  0.0735 -0.0725
 9574SOL    HW139401   0.918   9.440   2.155 -0.1174  2.3565  2.0784
 9574SOL    HW239402   0.856   9.555   2.057  1.0004  2.4281  1.4492
 9575SOL     OW39403   8.565   2.322   0.919  0.7704  0.0815 -0.7116
 9575SOL    HW139404   8.569   2.348   0.822  0.6356  0.8703 -0.5038
 9575SOL    HW239405   8.560   2.404   0.976  1.9339 -0.3397  0.0258
 9576SOL     OW39406   0.615   4.581   0.915 -0.3470 -0.0537 -0.3822
 9576SOL    HW139407   0.685   4.645   0.884 -1.3410  2.4541  2.2483
 9576SOL    HW239408   0.643   4.542   1.003 -1.2568 -0.6875 -0.3707
 9577SOL     OW39409   6.275   6.866   2.209 -0.3575 -0.2839  0.1261
 9577SOL    HW139410   6.334   6.917   2.147  0.8470 -1.8707 -0.0723
 9577SOL    HW239411   6.331   6.812   2.272 -1.5757  0.4769  1.9024
 9578SOL     OW39412   0.439   4.826   0.493  0.5361 -0.1201 -0.4725
 9578SOL    HW139413   0.416   4.880   0.574  4.0360 -2.0904  2.0285
 9578SOL    HW239414   0.402   4.734   0.503 -0.1485  0.0091 -1.7734
 9579SOL     OW39415   4.573   1.198   2.105 -0.5056 -0.1261 -0.0567
 9579SOL    HW139416   4.673   1.192   2.103 -0.5190 -0.3467 -0.0359
 9579SOL    HW239417   4.546   1.294   2.101 -0.2978 -0.0760 -0.2676
 9580SOL     OW39418   8.174   8.547   0.777  0.3843 -0.0107  0.3524
 9580SOL    HW139419   8.201   8.514   0.867  1.3960  1.9847  0.8251
 9580SOL    HW239420   8.254   8.585   0.731 -0.7067  1.7437 -0.1411
 9581SOL     OW39421   7.919   0.376   2.662 -0.5242  0.2369  0.4692
 9581SOL    HW139422   7.838   0.400   2.609 -0.7451  0.6526  0.9982
 9581SOL    HW239423   7.917   0.278   2.684 -2.1038  0.7153  2.5717
 9582SOL     OW39424   1.831   9.560   3.089  0.0968 -0.1894  0.1532
 9582SOL    HW139425   1.849   9.658   3.086  1.1143 -0.3873 -0.6153
 9582SOL    HW239426   1.881   9.515   3.015  0.2436 -1.3762  0.9608
 9583SOL     OW39427   5.320   8.464   2.901 -0.1935  0.9282  0.4009
 9583SOL    HW139428   5.283   8.372   2.889 -1.0918  1.3654 -0.2585
 9583SOL    HW239429   5.372   8.491   2.820 -0.4438  1.2356  0.3410
 9584SOL     OW39430   3.756   0.009   2.803  0.2398  0.0166  0.1538
 9584SOL    HW139431   3.657   0.012   2.819  0.4699  0.6684  1.6228
 9584SOL    HW239432   3.774  -0.023   2.711 -1.3990  1.3418 -0.6685
 9585SOL     OW39433   1.485   2.087   3.607  0.5608 -0.0758  0.4623
 9585SOL    HW139434   1.446   2.060   3.696  0.4963  0.6801  0.6714
 9585SOL    HW239435   1.480   2.186   3.598 -2.8142 -0.3618 -1.9590
 9586SOL     OW39436   9.487   9.579   3.821  0.3128  0.1486 -0.2349
 9586SOL    HW139437   9.537   9.567   3.906 -0.5843 -1.5168  0.0636
 9586SOL    HW239438   9.510   9.506   3.757  1.8384  1.9972 -1.8802
 9587SOL     OW39439   1.960   4.559   0.867 -0.5969 -0.2957  0.4395
 9587SOL    HW139440   1.958   4.538   0.965 -1.0925 -1.1601  0.2474
 9587SOL    HW239441   1.992   4.479   0.817 -1.1629 -0.1365 -0.1783
 9588SOL     OW39442   9.126   9.281   0.062  0.0584 -0.4612 -0.2391
 9588SOL    HW139443   9.182   9.359   0.036  0.5815 -1.1406 -1.1938
 9588SOL    HW239444   9.064   9.307   0.136  3.0028 -0.2236  2.2273
 9589SOL     OW39445   2.493   0.553   4.483  0.4116 -0.2957 -0.1637
 9589SOL    HW139446   2.511   0.459   4.456 -1.3059 -0.8698  0.5781
 9589SOL    HW239447   2.495   0.561   4.582 -0.3354  0.2336 -0.1793
 9590SOL     OW39448   1.575   9.861   3.092 -0.5201  0.9078  0.0537
 9590SOL    HW139449   1.574   9.776   3.144 -0.8854  0.3314 -0.8937
 9590SOL    HW239450   1.487   9.908   3.102 -0.6343  0.7364 -0.1352
 9591SOL     OW39451   3.966   4.271   3.544 -0.2984  0.0844 -0.8571
 9591SOL    HW139452   4.046   4.236   3.495 -0.1142  1.1517 -1.3140
 9591SOL    HW239453   3.995   4.311   3.631 -0.2016  1.4969 -1.5357
 9592SOL     OW39454   0.828   5.648   0.735  0.9877 -0.2588 -0.0543
 9592SOL    HW139455   0.752   5.585   0.747  0.8887 -0.2006 -0.3909
 9592SOL    HW239456   0.843   5.665   0.638 -0.8382  2.5008  0.0825
 9593SOL     OW39457   1.595   8.896   0.514 -0.4099 -0.2782 -0.0768
 9593SOL    HW139458   1.524   8.850   0.568  1.0025 -2.8343 -0.3283
 9593SOL    HW239459   1.574   8.886   0.416  0.7404 -1.8642 -0.1852
 9594SOL     OW39460   9.080   2.442   3.543 -0.0141 -0.2020 -1.1607
 9594SOL    HW139461   9.068   2.344   3.558  1.0451 -0.4381 -1.8446
 9594SOL    HW239462   8.994   2.482   3.511  0.4460 -1.5387 -4.2076
 9595SOL     OW39463   4.956   9.266   1.232  0.2375 -0.7382 -0.1975
 9595SOL    HW139464   4.924   9.209   1.308  0.7153 -0.1811  0.4291
 9595SOL    HW239465   5.056   9.266   1.230  0.2971  1.8950  1.2194
 9596SOL     OW39466   0.886   7.452   4.295 -0.2467  0.3333 -0.3153
 9596SOL    HW139467   0.905   7.358   4.324 -1.4772  0.5403  1.2581
 9596SOL    HW239468   0.972   7.498   4.275  0.4606 -0.7101  0.2400
 9597SOL     OW39469   9.433   9.410   2.887  0.1806 -0.3210  0.0153
 9597SOL    HW139470   9.431   9.332   2.949  1.3292 -0.7824 -0.5091
 9597SOL    HW239471   9.521   9.412   2.838  0.4511  1.6775  0.5117
 9598SOL     OW39472   0.289   0.601   2.724  0.3158  0.2646  0.3595
 9598SOL    HW139473   0.323   0.533   2.789 -1.1227 -0.0922  0.7409
 9598SOL    HW239474   0.192   0.619   2.742  0.3805  1.5135 -0.5201
 9599SOL     OW39475   3.609   4.701   4.065  0.0286  0.4159  0.4081
 9599SOL    HW139476   3.578   4.684   3.971 -0.4263 -1.7147  0.9099
 9599SOL    HW239477   3.709   4.701   4.068  0.0642 -2.0335  0.3115
 9600SOL     OW39478   0.019   3.443   3.314 -0.5855 -0.1165 -0.3716
 9600SOL    HW139479   0.087   3.453   3.387 -1.9465  0.3690  0.8678
 9600SOL    HW239480  -0.071   3.426   3.355 -1.2624 -0.4510 -1.9683
 9601SOL     OW39481   4.427   7.770   1.307 -0.6376  0.2508  0.0069
 9601SOL    HW139482   4.455   7.732   1.219  0.4326 -0.7988  0.7862
 9601SOL    HW239483   4.501   7.828   1.343  0.9654 -3.0906  2.4095
 9602SOL     OW39484   2.877   7.653   0.511  0.0512  0.3390  0.3562
 9602SOL    HW139485   2.944   7.662   0.437 -1.7214  0.9684 -1.2067
 9602SOL    HW239486   2.888   7.729   0.576  1.0026  0.3050  0.2342
 9603SOL     OW39487   4.346   0.686   3.596  0.4302 -0.2371  0.0529
 9603SOL    HW139488   4.373   0.704   3.502  1.8315  0.1842  0.5232
 9603SOL    HW239489   4.399   0.609   3.632  0.3445  0.0052  0.7045
 9604SOL     OW39490   0.982   6.291   0.939  0.4439  0.5431  0.2213
 9604SOL    HW139491   0.968   6.270   1.035 -2.3903  0.0500 -0.2534
 9604SOL    HW239492   0.952   6.385   0.921  0.5729  0.4958 -0.2471
 9605SOL     OW39493   1.289   9.593   0.768 -0.0710  0.2586  0.1821
 9605SOL    HW139494   1.356   9.536   0.816  1.6827  1.9321 -0.2186
 9605SOL    HW239495   1.257   9.665   0.829 -0.9107 -0.0526  0.1125
 9606SOL     OW39496   6.052   9.916   3.123  0.0776 -0.1275  0.2140
 9606SOL    HW139497   6.048   9.880   3.216  1.1807  0.3804  0.4785
 9606SOL    HW239498   6.142   9.896   3.084 -1.5162 -3.2842 -1.9961
 9607SOL     OW39499   4.884   2.730   2.700  0.5727 -0.4006  0.0927
 9607SOL    HW139500   4.918   2.704   2.791  1.7121  0.5669 -0.0385
 9607SOL    HW239501   4.943   2.690   2.630 -0.0092 -0.7234 -0.2214
 9608SOL     OW39502   4.003   9.431   3.838  0.6834 -0.0950 -0.1056
 9608SOL    HW139503   3.905   9.440   3.819  0.8532  0.7557 -0.5991
 9608SOL    HW239504   4.020   9.345   3.886 -0.7239  1.2704  2.9790
 9609SOL     OW39505   2.357   5.210   0.456 -0.4263 -0.2370  0.3153
 9609SOL    HW139506   2.298   5.132   0.475 -2.1451  0.6126 -1.4533
 9609SOL    HW239507   2.451   5.177   0.443 -1.0312 -1.9531  0.0764
 9610SOL     OW39508   9.994   8.000   3.094 -0.0844 -0.0790 -0.4650
 9610SOL    HW139509  10.012   8.091   3.058  1.2524  0.2911  1.0914
 9610SOL    HW239510   9.903   7.998   3.135  0.5432  1.0828  1.0511
 9611SOL     OW39511   9.581   9.607   2.020  0.2830  0.0545 -0.1707
 9611SOL    HW139512   9.552   9.681   1.959  1.2370  0.7104  0.1607
 9611SOL    HW239513   9.515   9.598   2.095 -0.1643  0.1478 -0.5455
 9612SOL     OW39514   3.223   3.448   0.851  0.1169  0.5210 -0.4983
 9612SOL    HW139515   3.240   3.374   0.787  1.8265  1.3786 -1.0928
 9612SOL    HW239516   3.260   3.423   0.941 -0.9365 -0.0763 -0.2293
 9613SOL     OW39517   8.370   8.606   3.857  0.4012  0.0975  0.3755
 9613SOL    HW139518   8.380   8.525   3.915  0.5824  0.4572  0.8485
 9613SOL    HW239519   8.414   8.684   3.901  0.2760  0.4421 -0.1048
 9614SOL     OW39520   9.437   4.752   2.884  0.3565 -0.2998 -0.4452
 9614SOL    HW139521   9.337   4.741   2.878 -0.1301  2.2972  1.8911
 9614SOL    HW239522   9.480   4.661   2.884 -2.0918 -1.5104 -0.2432
 9615SOL     OW39523   0.449   1.196   0.124  0.4102 -0.4647  0.7488
 9615SOL    HW139524   0.421   1.188   0.028 -0.5265 -0.3118  1.0084
 9615SOL    HW239525   0.417   1.115   0.174  0.3578 -0.2421  1.0710
 9616SOL     OW39526   1.456   3.393   1.746  0.1218 -0.3930  0.1363
 9616SOL    HW139527   1.489   3.475   1.794 -2.9998 -0.8814  3.2568
 9616SOL    HW239528   1.374   3.416   1.694  0.4701 -1.0816 -0.7285
 9617SOL     OW39529   3.506   1.804   4.421  0.0144 -0.2276 -0.4770
 9617SOL    HW139530   3.571   1.791   4.346 -0.2958  0.0981 -0.8033
 9617SOL    HW239531   3.551   1.854   4.496  0.4319 -0.8758 -0.2938
 9618SOL     OW39532   3.104  10.000   1.344  0.0869 -0.0915 -0.4740
 9618SOL    HW139533   3.115   9.984   1.246 -0.3958 -0.3271 -0.4922
 9618SOL    HW239534   3.189  10.035   1.383  0.7509 -1.4572 -0.6950
 9619SOL     OW39535   9.674   3.604   3.533  0.0337 -0.0639  0.7865
 9619SOL    HW139536   9.733   3.598   3.614 -1.4084  0.2143  1.8758
 9619SOL    HW239537   9.629   3.693   3.531  1.1576  0.4752 -1.1122
 9620SOL     OW39538   3.029   7.142   1.557 -0.6043  0.2896  0.1869
 9620SOL    HW139539   2.937   7.132   1.594 -0.9329  0.3300 -0.6097
 9620SOL    HW239540   3.075   7.053   1.557  0.9784  1.0049  4.7313
 9621SOL     OW39541   1.344   0.723   2.210 -0.1181 -0.7713 -0.7554
 9621SOL    HW139542   1.363   0.644   2.269  0.8073 -0.5410 -0.7266
 9621SOL    HW239543   1.429   0.751   2.164  0.0384  1.5642  0.8983
 9622SOL     OW39544   0.542   9.383   0.884  0.2132  0.5073 -0.5196
 9622SOL    HW139545   0.463   9.365   0.824  0.2507 -1.1793 -0.0634
 9622SOL    HW239546   0.621   9.405   0.827 -0.3791  1.4214 -1.0093
 9623SOL     OW39547   5.032   8.489   3.784  0.0200  0.0707  0.5335
 9623SOL    HW139548   4.986   8.417   3.836 -0.4914  0.5333  0.7304
 9623SOL    HW239549   5.093   8.448   3.717  0.3517 -0.5403  1.1986
 9624SOL     OW39550   8.751   0.051   1.271  0.0095  0.1105  0.1079
 9624SOL    HW139551   8.654   0.074   1.262 -0.1184 -0.7266 -0.6409
 9624SOL    HW239552   8.770  -0.034   1.223  1.1759  0.4096  0.0286
 9625SOL     OW39553   2.338   1.259   4.414  0.1390  0.0784  0.5759
 9625SOL    HW139554   2.429   1.235   4.448  0.1698 -0.4566  0.1239
 9625SOL    HW239555   2.284   1.297   4.489  0.6620  0.1952  0.8981
 9626SOL     OW39556   2.323   7.164   1.571  0.3785 -0.1470  0.1449
 9626SOL    HW139557   2.228   7.149   1.542 -0.9358  1.1148  3.5304
 9626SOL    HW239558   2.353   7.086   1.626  0.4860  0.4909  0.9977
 9627SOL     OW39559   8.715   2.939   4.469 -0.5156 -0.1398  0.2280
 9627SOL    HW139560   8.694   2.845   4.443 -0.4089  0.0646 -0.6027
 9627SOL    HW239561   8.714   2.998   4.388  1.0075  0.2779  0.4863
 9628SOL     OW39562   7.703   5.134   2.357  0.5567  0.0404  0.7565
 9628SOL    HW139563   7.631   5.066   2.373  0.5996  0.0201  0.8638
 9628SOL    HW239564   7.751   5.152   2.443 -0.2624  1.1268  0.9839
 9629SOL     OW39565   3.651   9.423   2.871  0.0630 -0.0655 -0.0242
 9629SOL    HW139566   3.731   9.365   2.886 -0.2244 -0.4107  0.1753
 9629SOL    HW239567   3.676   9.500   2.812  0.2803 -0.7845 -0.8879
 9630SOL     OW39568   0.103   0.070   1.802  0.2640  0.3361  0.0506
 9630SOL    HW139569   0.132  -0.011   1.853 -0.6464 -1.4506 -2.1574
 9630SOL    HW239570   0.176   0.138   1.803  1.1208 -0.5684  1.8035
 9631SOL     OW39571   2.448   0.666   1.130  0.2170 -0.1240 -0.3121
 9631SOL    HW139572   2.535   0.698   1.168 -0.1589  1.1352 -0.5104
 9631SOL    HW239573   2.383   0.649   1.205  0.4297 -0.4691 -0.2051
 9632SOL     OW39574   8.665   2.140   0.270  0.3516 -0.0440 -0.0063
 9632SOL    HW139575   8.759   2.173   0.281  0.1515  0.0012  1.5685
 9632SOL    HW239576   8.604   2.219   0.257  0.3048  0.0239  0.6214
 9633SOL     OW39577   1.965   5.070   3.944 -0.3423  0.1446 -0.2961
 9633SOL    HW139578   1.905   5.148   3.924 -0.2501  0.5800  1.1124
 9633SOL    HW239579   2.044   5.101   3.996 -0.9252 -1.0676  1.3790
 9634SOL     OW39580   6.187   9.509   2.168  0.0222 -0.4545  0.1664
 9634SOL    HW139581   6.189   9.482   2.072 -0.4951 -0.0794  0.0458
 9634SOL    HW239582   6.186   9.427   2.225 -1.8856 -0.7219 -0.2086
 9635SOL     OW39583   0.357   8.679   4.513 -0.4066  0.1838  0.2322
 9635SOL    HW139584   0.436   8.739   4.515 -0.4403  0.2221  0.4305
 9635SOL    HW239585   0.318   8.673   4.605 -0.1210 -0.5180  0.3067
 9636SOL     OW39586   7.713   6.693   3.748  0.4058 -0.3225  0.0388
 9636SOL    HW139587   7.703   6.791   3.733 -0.3014 -0.5998 -1.3545
 9636SOL    HW239588   7.777   6.678   3.823 -0.2354  1.2165  0.9214
 9637SOL     OW39589   0.939   6.356   1.395 -0.2928 -0.0927 -0.2514
 9637SOL    HW139590   0.923   6.289   1.322 -0.9385  0.6819 -0.8334
 9637SOL    HW239591   1.009   6.321   1.457 -1.0024 -1.5407 -0.2357
 9638SOL     OW39592   3.168   4.638   0.195 -0.1088  0.3293 -0.1282
 9638SOL    HW139593   3.135   4.654   0.102 -0.9713  0.4655  0.1959
 9638SOL    HW239594   3.118   4.562   0.235  0.8599 -0.2824 -0.0732
 9639SOL     OW39595   4.717   2.209   2.751 -0.0504  0.4517  0.5090
 9639SOL    HW139596   4.659   2.135   2.784 -1.0789  1.0749  0.1273
 9639SOL    HW239597   4.659   2.285   2.722  0.9178  0.7018 -0.7848
 9640SOL     OW39598   8.244   9.404   3.291  0.0199 -0.1671 -0.1807
 9640SOL    HW139599   8.191   9.474   3.243 -1.0448  1.0064  2.5830
 9640SOL    HW239600   8.182   9.346   3.345  1.2243 -1.0297  0.3148
 9641SOL     OW39601   2.112   5.926   1.707 -0.3359 -0.7435 -0.2949
 9641SOL    HW139602   2.148   5.833   1.703  2.0993  0.0565  1.4061
 9641SOL    HW239603   2.063   5.939   1.793 -0.2116 -0.3294 -0.2819
 9642SOL     OW39604   8.358   6.680   3.886  0.3503 -0.6323  0.2055
 9642SOL    HW139605   8.441   6.690   3.831  0.3287 -0.8413  0.1353
 9642SOL    HW239606   8.315   6.770   3.899  0.2895 -0.6033 -0.2143
 9643SOL     OW39607   8.340   0.237   3.747  0.1958 -0.1625 -0.2729
 9643SOL    HW139608   8.305   0.222   3.840  1.8555  1.6483  0.6740
 9643SOL    HW239609   8.403   0.163   3.722  2.6760  1.2781  1.5310
 9644SOL     OW39610   7.658   6.779   2.229  0.3088 -0.8747  0.5368
 9644SOL    HW139611   7.751   6.814   2.240 -0.3757  1.0641  0.4385
 9644SOL    HW239612   7.619   6.816   2.145 -0.4329 -1.9696  0.3887
 9645SOL     OW39613   3.717   3.427   2.344  0.3251  0.1247 -0.0464
 9645SOL    HW139614   3.787   3.401   2.411  1.2820 -0.0989 -1.1146
 9645SOL    HW239615   3.722   3.526   2.328 -2.2312  0.8134  2.7916
 9646SOL     OW39616   8.789   9.884   2.371 -0.0744 -0.6056  0.4061
 9646SOL    HW139617   8.715   9.947   2.347  0.7091  0.3423  0.4334
 9646SOL    HW239618   8.752   9.793   2.387 -1.5518  0.3757  2.7917
 9647SOL     OW39619   6.200   8.911   2.077 -0.1925 -0.6925 -0.3434
 9647SOL    HW139620   6.247   8.850   2.141 -0.2601 -1.7650 -1.2915
 9647SOL    HW239621   6.136   8.969   2.127  1.2957 -0.0156  0.8233
 9648SOL     OW39622   3.174   6.976   4.316  0.2007 -0.1385  0.3472
 9648SOL    HW139623   3.114   6.926   4.253  0.3462 -1.1703  1.0183
 9648SOL    HW239624   3.118   7.037   4.373 -0.1518 -0.6605  0.5647
 9649SOL     OW39625   1.432   9.573   4.414 -0.2193 -0.2449 -0.2207
 9649SOL    HW139626   1.457   9.655   4.466  0.9029 -0.5688 -0.2310
 9649SOL    HW239627   1.335   9.553   4.427 -0.1547  0.2128  1.0115
 9650SOL     OW39628   0.607   7.485   1.953  0.4428 -0.6703 -0.9820
 9650SOL    HW139629   0.616   7.508   2.050  1.2030  2.2642 -1.7241
 9650SOL    HW239630   0.697   7.484   1.911 -0.2738  2.9338 -2.7102
 9651SOL     OW39631   1.762  10.000   4.011  0.0186 -0.0210 -0.4597
 9651SOL    HW139632   1.779   9.902   4.025  1.0473  0.2986  0.6622
 9651SOL    HW239633   1.747  10.017   3.914  1.7944 -1.0268 -0.9388
 9652SOL     OW39634   8.872   7.063   3.435  0.4263 -0.6687  0.2861
 9652SOL    HW139635   8.896   7.120   3.356  2.7323 -0.7870  0.8814
 9652SOL    HW239636   8.939   6.990   3.446 -0.6146 -1.4601  1.5656
 9653SOL     OW39637   9.148   4.027   3.124 -0.1378 -0.0320  0.6690
 9653SOL    HW139638   9.164   4.084   3.204 -2.5401  1.0735  0.4078
 9653SOL    HW239639   9.222   4.040   3.058  0.3905  1.1956  1.4920
 9654SOL     OW39640   0.933   8.134   0.383 -0.1810 -0.5741  0.4325
 9654SOL    HW139641   0.942   8.057   0.320  1.6595 -0.0154 -0.0400
 9654SOL    HW239642   0.842   8.174   0.375 -0.4437 -1.4035 -0.8478
 9655SOL     OW39643   5.971   9.132   1.725 -0.0561 -0.4534  0.1368
 9655SOL    HW139644   5.895   9.189   1.756  0.3425 -0.5721  1.3671
 9655SOL    HW239645   5.968   9.123   1.626 -2.2067 -1.2489  0.2481
 9656SOL     OW39646   2.445   2.536   1.770 -0.1317  0.3632 -0.1246
 9656SOL    HW139647   2.443   2.483   1.686 -0.8191  0.2455 -0.0389
 9656SOL    HW239648   2.525   2.596   1.770  0.8839 -0.9540 -0.0385
 9657SOL     OW39649   1.530   8.246   3.958 -0.0712  0.2923 -0.1728
 9657SOL    HW139650   1.480   8.312   3.903 -1.0387  1.1360  1.6605
 9657SOL    HW239651   1.573   8.293   4.036  2.6784 -0.5917 -1.0987
 9658SOL     OW39652   2.386   3.988   2.442  0.3702 -0.0741  0.4564
 9658SOL    HW139653   2.467   4.041   2.417 -0.6761  1.8034  0.8846
 9658SOL    HW239654   2.307   4.050   2.449 -1.3508 -2.0019 -1.0367
 9659SOL     OW39655   3.750   9.928   0.569 -0.6204 -0.8749  0.2462
 9659SOL    HW139656   3.722   9.970   0.655  0.4798 -0.5064  0.4295
 9659SOL    HW239657   3.820   9.859   0.586  1.4239  0.9370 -0.5730
 9660SOL     OW39658   0.741   5.144   3.922  0.0912  0.5958 -0.2897
 9660SOL    HW139659   0.748   5.169   4.019 -1.2291  0.0567 -0.0433
 9660SOL    HW239660   0.712   5.224   3.869  1.7104  1.1289 -0.3743
 9661SOL     OW39661   7.973   6.181   3.462 -0.2584 -0.2978  0.0738
 9661SOL    HW139662   8.028   6.250   3.509 -1.0629  1.0753 -0.9342
 9661SOL    HW239663   7.890   6.164   3.514 -0.2026 -0.2646  0.1729
 9662SOL     OW39664   9.820   4.443   2.664 -0.7585  0.1973  0.3616
 9662SOL    HW139665   9.908   4.491   2.663 -0.6505  0.0843  2.1232
 9662SOL    HW239666   9.748   4.507   2.692 -1.6120  0.8216 -3.0487
 9663SOL     OW39667   7.687   3.890   0.488  0.6014  0.1632  0.2233
 9663SOL    HW139668   7.665   3.839   0.405  1.5186  0.3770 -0.1556
 9663SOL    HW239669   7.705   3.986   0.464  1.8461  0.0125  0.5271
 9664SOL     OW39670   8.839   2.650   3.091 -0.1119  1.0328 -0.0833
 9664SOL    HW139671   8.790   2.737   3.104  2.3734  2.4321  0.2186
 9664SOL    HW239672   8.937   2.668   3.082  0.4410 -1.7612 -0.0645
 9665SOL     OW39673   0.193   1.432   3.609 -0.2010  0.3317  0.5204
 9665SOL    HW139674   0.252   1.417   3.689 -0.5893  1.1872  0.9717
 9665SOL    HW239675   0.250   1.436   3.527  0.2381 -0.1742  0.7931
 9666SOL     OW39676   1.599   4.101   1.413  0.0119 -0.0976  0.3466
 9666SOL    HW139677   1.587   4.147   1.501 -0.0237 -0.4437  0.5262
 9666SOL    HW239678   1.531   4.028   1.404  1.7005 -1.8427  1.2185
 9667SOL     OW39679   0.921   7.787   0.918 -0.2105  0.3043  0.2143
 9667SOL    HW139680   0.948   7.729   0.841 -0.5231 -0.3513  0.5990
 9667SOL    HW239681   0.822   7.793   0.923 -0.1819  0.7050  0.2962
 9668SOL     OW39682   0.742   0.541   2.062 -0.1726  0.4605 -0.3310
 9668SOL    HW139683   0.694   0.582   2.140 -0.9735  0.4072 -0.7900
 9668SOL    HW239684   0.751   0.442   2.077  2.1668  0.8422  0.9911
 9669SOL     OW39685   8.521   9.133   1.878  0.2859 -0.3037 -0.0071
 9669SOL    HW139686   8.573   9.156   1.961 -0.3630 -0.2347  0.3836
 9669SOL    HW239687   8.438   9.083   1.904  0.2136 -0.5148 -0.6388
 9670SOL     OW39688   1.556   6.860   1.906 -0.2679 -0.1566 -0.5976
 9670SOL    HW139689   1.571   6.762   1.915  1.2940 -0.0880 -2.1264
 9670SOL    HW239690   1.604   6.908   1.979 -0.6447 -0.5010 -0.1245
 9671SOL     OW39691   0.604   5.715   0.174 -0.3094  0.3464 -0.1515
 9671SOL    HW139692   0.663   5.764   0.237 -0.0164 -0.8131  0.4939
 9671SOL    HW239693   0.642   5.624   0.157 -1.3702 -0.0333 -0.5252
 9672SOL     OW39694   3.921   9.286   0.406 -0.4067 -0.0489  0.0804
 9672SOL    HW139695   3.932   9.189   0.424  3.0702  0.1128 -0.8343
 9672SOL    HW239696   3.909   9.335   0.492 -1.0195 -1.1600  0.6334
 9673SOL     OW39697   1.783   9.356   2.183 -0.1476  0.5320 -1.4621
 9673SOL    HW139698   1.808   9.434   2.240 -0.5020 -0.3645 -0.0656
 9673SOL    HW239699   1.737   9.287   2.239 -0.0903 -0.5546 -2.7369
 9674SOL     OW39700   3.134   0.812   3.382  0.1781  0.0407  0.4875
 9674SOL    HW139701   3.159   0.720   3.411 -1.2539 -0.5884 -0.1939
 9674SOL    HW239702   3.118   0.869   3.462 -0.1555 -0.6613  0.9274
 9675SOL     OW39703   0.295   4.022   0.623  0.1083 -0.4839  0.1790
 9675SOL    HW139704   0.339   3.932   0.626  1.4045  0.0691 -1.7828
 9675SOL    HW239705   0.242   4.030   0.539  0.5234  0.8267  0.0395
 9676SOL     OW39706   0.566   6.536   0.397  0.2735  0.0433  0.8111
 9676SOL    HW139707   0.528   6.619   0.356  1.9802  0.6160  0.3250
 9676SOL    HW239708   0.608   6.480   0.326 -1.9605 -1.8901  0.9456
 9677SOL     OW39709   6.835   0.659   3.638 -0.3425 -0.2461  0.2042
 9677SOL    HW139710   6.781   0.736   3.673 -0.5563 -0.1741 -0.2724
 9677SOL    HW239711   6.911   0.695   3.583  0.4601 -0.3314  1.2417
 9678SOL     OW39712   8.546   9.482   1.530 -0.2898  0.0385  0.7135
 9678SOL    HW139713   8.504   9.451   1.445 -1.1388 -0.7567  1.4126
 9678SOL    HW239714   8.474   9.507   1.595  0.3515  1.8724  0.7622
 9679SOL     OW39715   8.099   2.365   1.113  0.4625  0.4176  0.5977
 9679SOL    HW139716   8.168   2.420   1.161  0.2810  1.5854 -0.4351
 9679SOL    HW239717   8.105   2.383   1.015 -1.9149  1.2546  0.5651
 9680SOL     OW39718   2.527   1.277   4.217 -0.2901  0.1873 -0.6043
 9680SOL    HW139719   2.437   1.258   4.256 -0.0763  1.5581  0.5909
 9680SOL    HW239720   2.570   1.353   4.266  1.5875 -0.5396 -1.0633
 9681SOL     OW39721   3.102   6.561   4.060 -0.0949 -0.0728  0.2896
 9681SOL    HW139722   3.087   6.475   4.109  1.0649 -0.6961 -0.4148
 9681SOL    HW239723   3.199   6.570   4.037 -0.5792  0.3173 -1.6772
 9682SOL     OW39724   3.609   2.759   1.676  0.4449  0.4778 -0.5414
 9682SOL    HW139725   3.552   2.839   1.693 -1.7300 -0.8291 -1.4747
 9682SOL    HW239726   3.551   2.677   1.673  2.2618 -0.7873 -2.3106
 9683SOL     OW39727   8.791   2.986   2.720  0.2190  0.0171  0.6264
 9683SOL    HW139728   8.741   3.072   2.723 -1.2059 -0.7587 -0.1721
 9683SOL    HW239729   8.884   3.000   2.752 -0.4504  1.5320  1.9611
 9684SOL     OW39730   8.876   7.531   1.347 -0.1598  0.0076 -0.0158
 9684SOL    HW139731   8.806   7.534   1.276  0.0490  0.7189 -0.1938
 9684SOL    HW239732   8.846   7.472   1.421  0.2426 -1.9404 -1.3571
 9685SOL     OW39733   1.107   4.310   0.884  0.3181 -0.3859 -0.4603
 9685SOL    HW139734   1.105   4.323   0.785 -0.2970 -0.0060 -0.4047
 9685SOL    HW239735   1.201   4.311   0.917  0.5453 -0.9658 -1.1005
 9686SOL     OW39736   7.365   1.741   3.233  0.2367  0.0374 -0.0153
 9686SOL    HW139737   7.279   1.776   3.196  0.4466  1.2516  0.6479
 9686SOL    HW239738   7.348   1.695   3.320  0.2937  0.5088  0.2461
 9687SOL     OW39739   8.180   9.793   0.874  0.4674 -0.1820 -0.1081
 9687SOL    HW139740   8.103   9.755   0.924  0.9772  0.8128  1.4912
 9687SOL    HW239741   8.160   9.889   0.850  0.4424 -0.4896 -1.3716
 9688SOL     OW39742   8.210   2.025   0.296  0.2818  0.0242  0.4552
 9688SOL    HW139743   8.200   2.027   0.196 -0.5389  2.1880  0.5430
 9688SOL    HW239744   8.279   1.957   0.321  1.7216  0.5995 -1.7213
 9689SOL     OW39745   2.115   3.971   3.117  0.5206  0.0989  0.2620
 9689SOL    HW139746   2.146   3.997   3.025  0.5965  2.3690  0.8962
 9689SOL    HW239747   2.194   3.954   3.175  0.4712 -1.4668 -0.1048
 9690SOL     OW39748   4.027   1.392   0.317 -0.1129  0.3478  0.4394
 9690SOL    HW139749   4.001   1.486   0.296  1.6013  1.1084  1.5992
 9690SOL    HW239750   3.995   1.369   0.409 -0.9657 -0.3728 -0.0375
 9691SOL     OW39751   9.037   9.348   0.446 -0.2856  0.4436 -0.0163
 9691SOL    HW139752   9.079   9.427   0.402  0.3902 -0.0430 -0.2522
 9691SOL    HW239753   8.979   9.300   0.380 -0.0426  0.2695 -0.1006
 9692SOL     OW39754   2.594   0.552   2.660 -0.0543  0.3744  0.2980
 9692SOL    HW139755   2.503   0.512   2.674  0.5362 -0.8245  0.7870
 9692SOL    HW239756   2.631   0.581   2.748  0.5419 -0.2447  0.2493
 9693SOL     OW39757   0.199   2.184   1.324 -0.7041  0.1152 -0.6255
 9693SOL    HW139758   0.267   2.113   1.342 -2.5571 -1.7806 -0.9002
 9693SOL    HW239759   0.223   2.233   1.241  2.1646  1.8053  1.1213
 9694SOL     OW39760   9.098   6.448   4.174  0.3707  0.5212  0.0333
 9694SOL    HW139761   9.122   6.544   4.189  1.1764  0.2442  0.5571
 9694SOL    HW239762   9.133   6.392   4.250  0.0231 -0.2006 -0.3301
 9695SOL     OW39763   9.103   2.369   0.973 -0.1773 -0.0059  0.6315
 9695SOL    HW139764   9.116   2.456   1.021  0.6787  0.4818 -0.4669
 9695SOL    HW239765   9.145   2.374   0.883 -0.1567 -1.5501  0.5397
 9696SOL     OW39766   0.395   2.829   1.062 -0.0943 -0.0125  0.2577
 9696SOL    HW139767   0.312   2.835   1.007 -0.6579  1.4400  1.2423
 9696SOL    HW239768   0.395   2.902   1.131  1.8874 -0.1240  0.4113
 9697SOL     OW39769   8.433   1.240   0.495  0.7009 -0.3756  0.1769
 9697SOL    HW139770   8.415   1.142   0.504  0.2037 -0.4087 -1.1127
 9697SOL    HW239771   8.461   1.261   0.402 -0.2019  0.8631  0.1663
 9698SOL     OW39772   1.131   2.079   4.459 -0.0261 -0.5411 -0.1261
 9698SOL    HW139773   1.094   1.987   4.471  0.4328 -0.7253 -0.1153
 9698SOL    HW239774   1.059   2.140   4.427 -0.5513 -0.7065  0.7187
 9699SOL     OW39775   9.333   0.381   1.920  0.4159 -0.3943 -0.0644
 9699SOL    HW139776   9.302   0.470   1.887  0.1009 -0.8122 -0.9315
 9699SOL    HW239777   9.279   0.353   1.999  0.2613  0.0123 -0.0269
 9700SOL     OW39778   5.045   7.264   2.421  0.7447  0.7633  0.2107
 9700SOL    HW139779   5.117   7.331   2.405 -0.2261  1.3034 -2.1285
 9700SOL    HW239780   5.032   7.208   2.339 -0.7109 -0.0969  0.9931
 9701SOL     OW39781   2.928   7.288   0.399  0.0269 -0.5534 -0.1698
 9701SOL    HW139782   2.848   7.295   0.340  0.3180 -0.0187 -0.5080
 9701SOL    HW239783   2.910   7.224   0.473 -0.1887 -1.5512 -1.0849
 9702SOL     OW39784   1.443   9.901   0.122  0.0447 -0.4956  0.3734
 9702SOL    HW139785   1.501   9.828   0.086  0.2111 -0.6181  0.8856
 9702SOL    HW239786   1.463   9.915   0.219  0.3600  0.5650  0.1619
 9703SOL     OW39787   2.358   8.599   2.215  0.4864  0.2684 -0.6260
 9703SOL    HW139788   2.343   8.502   2.196  0.0607  0.6016 -2.0551
 9703SOL    HW239789   2.455   8.619   2.208  0.9099 -0.5787  2.2703
 9704SOL     OW39790   4.527   9.104   3.722  0.4696 -0.4644  0.2294
 9704SOL    HW139791   4.432   9.078   3.710  0.0000  1.0926  0.3914
 9704SOL    HW239792   4.532   9.194   3.766  1.9906 -0.1559 -0.5082
 9705SOL     OW39793   1.566   9.561   0.992  0.2342  0.2849  0.1042
 9705SOL    HW139794   1.646   9.506   0.969  0.0674  0.6611 -1.4651
 9705SOL    HW239795   1.490   9.501   1.016  0.2922 -0.1563 -0.7792
 9706SOL     OW39796   8.682   3.777   0.540 -0.2130 -0.1884  0.3713
 9706SOL    HW139797   8.680   3.867   0.584  1.4370 -0.8118  1.7281
 9706SOL    HW239798   8.589   3.753   0.510 -0.8329  1.5207  0.8746
 9707SOL     OW39799   0.542   2.512   4.752  0.1624  0.1292 -0.2409
 9707SOL    HW139800   0.611   2.468   4.696  0.6117 -2.1972  2.0786
 9707SOL    HW239801   0.452   2.472   4.732  0.2570 -0.3951  0.3842
 9708SOL     OW39802   1.085   1.281   0.880  0.0996  0.3328  0.4088
 9708SOL    HW139803   1.120   1.371   0.908  0.6585 -0.0504  0.9718
 9708SOL    HW239804   0.995   1.266   0.921  0.3344  0.3285  0.9379
 9709SOL     OW39805   1.840   4.569   3.937 -0.4738  0.6160 -0.0961
 9709SOL    HW139806   1.857   4.664   3.910 -0.8119  0.4380 -0.9633
 9709SOL    HW239807   1.923   4.515   3.924 -0.4054  0.6997 -0.0096
 9710SOL     OW39808   4.653   8.365   0.089 -0.4357 -0.4515  0.1206
 9710SOL    HW139809   4.626   8.366   0.185  1.5600 -1.3732  0.7109
 9710SOL    HW239810   4.719   8.438   0.072 -0.6505 -0.4015 -0.5217
 9711SOL     OW39811   8.940   9.416   2.759 -0.1916  0.2432  0.6986
 9711SOL    HW139812   9.010   9.373   2.702 -1.0461 -0.2430  0.0073
 9711SOL    HW239813   8.981   9.444   2.846  0.7599 -0.4435  0.4832
 9712SOL     OW39814   7.869   0.204   1.796 -0.2583  0.1296  0.4376
 9712SOL    HW139815   7.967   0.209   1.816  0.6007 -1.9704 -2.9357
 9712SOL    HW239816   7.833   0.118   1.831 -0.6744  0.4160  0.7167
 9713SOL     OW39817   7.578   8.065   2.485 -0.1441  0.0804  0.3652
 9713SOL    HW139818   7.584   8.139   2.553  0.7262 -0.6540  1.1005
 9713SOL    HW239819   7.606   7.979   2.527 -0.0710 -0.4740 -0.7983
 9714SOL     OW39820   4.330   1.598   0.818 -0.2043  0.0828  0.2211
 9714SOL    HW139821   4.311   1.537   0.895 -2.4047 -0.8255 -1.0138
 9714SOL    HW239822   4.244   1.628   0.777  0.9430  0.7242 -1.7790
 9715SOL     OW39823   5.934   9.502   3.271  0.6768  0.2895  0.0635
 9715SOL    HW139824   5.966   9.576   3.330  0.4002  0.8230 -0.4558
 9715SOL    HW239825   5.880   9.539   3.196  2.0203 -0.2724 -1.2129
 9716SOL     OW39826   2.676   7.128   1.197 -0.3903  0.2519 -0.1326
 9716SOL    HW139827   2.763   7.166   1.230 -0.9638  1.4074  0.0889
 9716SOL    HW239828   2.691   7.087   1.107  0.0728  1.8729 -0.8179
 9717SOL     OW39829   3.083   6.884   3.430  0.0153 -0.1841  0.2016
 9717SOL    HW139830   3.167   6.874   3.376  0.1428  0.7027  0.2342
 9717SOL    HW239831   3.098   6.847   3.522  0.7766  1.1058  0.6135
 9718SOL     OW39832   0.711   4.386   2.102  0.0871 -0.5885  0.4074
 9718SOL    HW139833   0.620   4.393   2.061  1.2346  1.6528 -1.9107
 9718SOL    HW239834   0.714   4.439   2.186 -0.8710 -1.0470  0.7333
 9719SOL     OW39835   6.074   0.650   2.077  0.0085 -0.3911  0.3929
 9719SOL    HW139836   6.027   0.697   2.152  1.1677  2.1209 -0.3966
 9719SOL    HW239837   6.006   0.614   2.013 -0.9156 -0.2242  1.2626
 9720SOL     OW39838   0.882   0.391   4.005 -0.1442  0.1718 -0.0152
 9720SOL    HW139839   0.876   0.366   4.102 -0.7141  0.4940  0.0315
 9720SOL    HW239840   0.810   0.456   3.982  1.3475  1.8283 -0.1244
 9721SOL     OW39841   8.226   7.918   1.485 -0.0443 -0.1297 -0.4779
 9721SOL    HW139842   8.255   7.988   1.550  0.1518  0.6637 -1.4065
 9721SOL    HW239843   8.293   7.910   1.412  0.5395 -2.1775  0.2742
 9722SOL     OW39844   0.869   0.300   1.143  0.7928  0.2517  0.1316
 9722SOL    HW139845   0.803   0.354   1.195 -1.1037 -1.3287 -0.5551
 9722SOL    HW239846   0.831   0.277   1.054  1.6701 -1.9334  0.2840
 9723SOL     OW39847   1.929   5.023   0.296  0.1089  0.0385 -0.0055
 9723SOL    HW139848   1.845   4.979   0.264 -1.4812  1.4574  2.0871
 9723SOL    HW239849   1.990   4.955   0.335  0.4466 -1.1643 -2.5194
 9724SOL     OW39850   1.164   2.453   4.118  0.8733 -0.2927  0.3668
 9724SOL    HW139851   1.261   2.470   4.102  0.9977 -1.5496 -0.2744
 9724SOL    HW239852   1.122   2.420   4.034 -0.1361  0.3434  0.6165
 9725SOL     OW39853   9.946   2.611   3.549  0.1981  0.1691  0.1429
 9725SOL    HW139854   9.973   2.599   3.454  1.4170 -0.4170  0.5543
 9725SOL    HW239855  10.010   2.673   3.595  1.0287 -1.4031  1.1817
 9726SOL     OW39856   0.512   2.746   4.122 -0.1817 -0.2870 -0.0585
 9726SOL    HW139857   0.473   2.730   4.031 -0.1880  3.3798 -0.7958
 9726SOL    HW239858   0.607   2.715   4.125 -0.2315 -0.5577 -1.2653
 9727SOL     OW39859   5.401   6.313   2.289  0.2255  0.2236  0.2103
 9727SOL    HW139860   5.306   6.303   2.316  0.2298  1.9778  0.9367
 9727SOL    HW239861   5.459   6.260   2.351  0.0046  2.0340  2.0191
 9728SOL     OW39862   2.780   4.542   0.935 -0.1165  0.0786  0.0100
 9728SOL    HW139863   2.691   4.576   0.964 -0.4188 -0.3462 -0.4184
 9728SOL    HW239864   2.847   4.616   0.940 -0.6557  0.6006 -0.4131
 9729SOL     OW39865   9.719   1.828   3.496  0.5549 -0.2947 -0.2817
 9729SOL    HW139866   9.750   1.755   3.435  0.0120 -0.3067 -0.5476
 9729SOL    HW239867   9.781   1.906   3.488  0.2452 -0.1323 -1.1765
 9730SOL     OW39868   4.887   0.203   0.015 -0.1009  0.4188  0.2981
 9730SOL    HW139869   4.976   0.248   0.006 -0.4063  0.7268 -1.3355
 9730SOL    HW239870   4.900   0.105   0.025  0.3928  0.3322 -1.0979
 9731SOL     OW39871   3.947   0.100   3.390  0.0744  0.2048  0.3452
 9731SOL    HW139872   3.935   0.175   3.325  1.4631  2.0080  2.0797
 9731SOL    HW239873   3.995   0.025   3.345 -0.6033  0.6872 -1.2128
 9732SOL     OW39874   0.987   7.143   3.236 -0.4516  0.1998  0.0349
 9732SOL    HW139875   0.999   7.065   3.298  0.7858  2.0910  2.2267
 9732SOL    HW239876   0.890   7.163   3.226 -0.6356  0.2751  1.8595
 9733SOL     OW39877   1.141   7.947   0.268 -0.8185  0.4062 -0.0532
 9733SOL    HW139878   1.169   8.028   0.320  1.6145 -0.3334 -0.1555
 9733SOL    HW239879   1.077   7.974   0.196 -2.2266  1.8083  1.6961
 9734SOL     OW39880   7.623   6.281   3.603  0.3748 -0.3373  0.5811
 9734SOL    HW139881   7.660   6.306   3.693 -0.9906  2.8238  0.3388
 9734SOL    HW239882   7.539   6.332   3.586  0.5057 -1.0178 -2.4406
 9735SOL     OW39883   7.757   1.700   0.727 -0.1236 -0.2857  0.5485
 9735SOL    HW139884   7.852   1.672   0.739  1.1231  2.3969 -2.3379
 9735SOL    HW239885   7.697   1.637   0.776  3.0822 -2.4774  1.7886
 9736SOL     OW39886   0.534   4.145   0.674  0.5456 -0.4156 -0.0133
 9736SOL    HW139887   0.446   4.100   0.664  0.2419 -0.1821  1.4721
 9736SOL    HW239888   0.596   4.114   0.602 -0.6657 -0.7690 -0.9137
 9737SOL     OW39889   8.169   7.905   3.538 -0.2457 -0.2385 -0.3900
 9737SOL    HW139890   8.194   7.920   3.442 -1.1788  1.3570 -0.4007
 9737SOL    HW239891   8.142   7.810   3.551 -1.0319 -0.2285 -1.9169
 9738SOL     OW39892   0.868   7.440   0.364 -0.7486 -0.0617  0.0563
 9738SOL    HW139893   0.812   7.401   0.291  0.6543  1.7177 -2.0411
 9738SOL    HW239894   0.945   7.379   0.382  0.2080  0.6238 -1.6338
 9739SOL     OW39895   6.867   9.606   0.322  0.0506  0.4422 -0.2399
 9739SOL    HW139896   6.907   9.548   0.393 -1.1003  0.4415  0.4147
 9739SOL    HW239897   6.799   9.666   0.362 -0.3593  0.6923 -1.2900
 9740SOL     OW39898   4.272   7.948   3.982 -0.8960 -0.1522  0.5561
 9740SOL    HW139899   4.276   8.014   4.057  0.2882  0.8897 -0.4050
 9740SOL    HW239900   4.322   7.984   3.903 -0.9621 -1.8330 -0.2702
 9741SOL     OW39901   2.811   7.300   2.177  0.7373 -0.1705  0.2915
 9741SOL    HW139902   2.792   7.229   2.245  0.7554  0.0527  0.5307
 9741SOL    HW239903   2.726   7.331   2.135  0.7858 -0.7677 -0.2527
 9742SOL     OW39904   2.873   5.059   3.932  0.0826  0.1699 -0.0876
 9742SOL    HW139905   2.928   5.141   3.923  0.7238 -0.2169  0.3060
 9742SOL    HW239906   2.787   5.082   3.978  0.7801  0.4054  1.1363
 9743SOL     OW39907   8.136   6.218   2.757  0.1248 -0.3932  0.4531
 9743SOL    HW139908   8.052   6.253   2.716  0.5615  1.4414  1.1035
 9743SOL    HW239909   8.122   6.123   2.786 -0.9312 -0.9319 -1.6975
 9744SOL     OW39910   2.399   2.846   1.082 -0.4290  0.1944 -0.2890
 9744SOL    HW139911   2.418   2.818   0.988 -1.3882 -0.2503 -0.3557
 9744SOL    HW239912   2.322   2.792   1.118  1.0692 -0.9023  1.3587
 9745SOL     OW39913   5.826   8.685   3.109 -0.2330  0.3768 -0.2232
 9745SOL    HW139914   5.730   8.705   3.092 -0.1846 -0.3837 -1.4097
 9745SOL    HW239915   5.869   8.764   3.153 -1.3346  0.8068  0.1001
 9746SOL     OW39916   3.586   5.083   3.150 -1.1252 -0.6247 -0.2834
 9746SOL    HW139917   3.610   5.018   3.078 -1.4461 -0.0277 -0.9337
 9746SOL    HW239918   3.495   5.060   3.186 -1.1687 -0.6349 -0.3999
 9747SOL     OW39919   4.795   7.551   3.416  0.5106  0.2931  0.1700
 9747SOL    HW139920   4.793   7.504   3.328  0.1175 -0.8891  0.8014
 9747SOL    HW239921   4.702   7.575   3.443  0.6826  1.1768 -0.0076
 9748SOL     OW39922   3.136   9.644   4.685  0.3932  0.7129 -0.2226
 9748SOL    HW139923   3.119   9.616   4.590  1.1211  0.8227 -0.3864
 9748SOL    HW239924   3.048   9.654   4.733  0.0806 -0.5550 -0.5247
 9749SOL     OW39925   7.847   6.922   1.553 -0.7576  0.3421 -0.1461
 9749SOL    HW139926   7.825   6.855   1.482  2.3852 -0.2209 -0.6348
 9749SOL    HW239927   7.917   6.885   1.614 -0.4579  2.4041  0.8135
 9750SOL     OW39928   1.281   3.373   1.517  0.0929 -0.3677 -0.0614
 9750SOL    HW139929   1.273   3.391   1.419  1.2593  1.5971  0.1955
 9750SOL    HW239930   1.190   3.371   1.558 -0.3254  0.0965 -0.9630
 9751SOL     OW39931   8.901   7.848   3.488  0.2995 -0.0191 -0.5372
 9751SOL    HW139932   8.990   7.877   3.523  0.6702 -0.3362 -1.2227
 9751SOL    HW239933   8.866   7.775   3.547  0.0069  0.8197  0.3499
 9752SOL     OW39934   7.999   1.444   2.801  0.0499  0.3141  0.5212
 9752SOL    HW139935   7.958   1.535   2.798  0.4278  0.4975  0.7351
 9752SOL    HW239936   7.989   1.407   2.894  3.2511  1.7393  1.5148
 9753SOL     OW39937   5.426   8.789   2.185 -0.3414  0.3622  0.0442
 9753SOL    HW139938   5.468   8.876   2.158 -0.1569  0.1260 -0.4295
 9753SOL    HW239939   5.353   8.766   2.121 -0.6704  0.3753  0.4122
 9754SOL     OW39940   8.361   6.438   3.725  0.3785 -0.4692 -0.1976
 9754SOL    HW139941   8.309   6.477   3.801 -1.4247 -0.1216 -1.5757
 9754SOL    HW239942   8.443   6.493   3.710 -1.9353  2.7110 -1.8703
 9755SOL     OW39943   5.200   7.923   3.764 -0.0028 -0.5046 -0.3347
 9755SOL    HW139944   5.124   7.869   3.800 -0.1460 -1.4031 -1.9368
 9755SOL    HW239945   5.188   8.019   3.788 -1.1394 -0.7838  0.2332
 9756SOL     OW39946   1.641   4.480   2.419 -0.0933  0.2286 -0.6723
 9756SOL    HW139947   1.739   4.486   2.399 -0.2467  0.4561 -1.3770
 9756SOL    HW239948   1.589   4.519   2.343 -0.7478 -0.2955 -0.5012
 9757SOL     OW39949   2.527   1.854   3.731  0.6156 -0.0057  0.0862
 9757SOL    HW139950   2.609   1.910   3.736  0.7321 -0.3617  3.3091
 9757SOL    HW239951   2.552   1.757   3.736  0.1145 -0.1728 -0.6102
 9758SOL     OW39952   1.073   0.428   4.616  0.4366 -0.3442  0.4542
 9758SOL    HW139953   1.130   0.396   4.540  0.8266  0.9782  0.1747
 9758SOL    HW239954   1.055   0.526   4.605 -3.0926 -0.9903 -0.2644
 9759SOL     OW39955   2.042   6.441   3.590  0.1412 -0.6975 -0.6306
 9759SOL    HW139956   2.115   6.387   3.632  2.0575  0.2091 -2.7077
 9759SOL    HW239957   2.005   6.392   3.511 -1.3140 -1.0049  0.2171
 9760SOL     OW39958   3.444   1.564   1.416  0.2771  0.3484 -0.7332
 9760SOL    HW139959   3.404   1.482   1.456  0.6022  0.8993  0.7429
 9760SOL    HW239960   3.492   1.616   1.486  0.9390  1.2927 -1.8543
 9761SOL     OW39961   6.478   9.233   3.676  0.0984  0.3103 -0.2307
 9761SOL    HW139962   6.381   9.214   3.692  0.2013  0.0608  0.1130
 9761SOL    HW239963   6.491   9.266   3.583 -0.2032 -0.5094 -0.5698
 9762SOL     OW39964   1.567   2.537   2.381 -0.0174 -0.0981  0.4297
 9762SOL    HW139965   1.554   2.505   2.287  0.8723  1.9447 -0.4192
 9762SOL    HW239966   1.506   2.486   2.442 -0.5750 -1.4839 -1.2347
 9763SOL     OW39967   9.059   3.023   2.789 -0.4403 -0.4966 -0.2818
 9763SOL    HW139968   9.110   3.109   2.801  0.0352 -0.7396 -0.5229
 9763SOL    HW239969   9.112   2.962   2.731  0.6685 -2.1527  2.3879
 9764SOL     OW39970   7.702   3.475   1.084 -0.1622 -0.2736 -0.1653
 9764SOL    HW139971   7.770   3.508   1.149 -0.6562 -1.7067  1.0986
 9764SOL    HW239972   7.687   3.377   1.098 -0.4607 -0.5477 -2.2693
 9765SOL     OW39973   9.851   1.661   2.293  0.9018  0.2102 -0.0575
 9765SOL    HW139974   9.846   1.582   2.355 -0.1203  0.2648 -0.0610
 9765SOL    HW239975   9.832   1.630   2.199  1.0578  0.3696 -0.1416
 9766SOL     OW39976   9.497   2.324   3.069  0.3796 -0.6281  0.1276
 9766SOL    HW139977   9.580   2.372   3.099 -1.5249  1.2578  2.6401
 9766SOL    HW239978   9.495   2.233   3.111  0.7006 -0.2942  0.8882
 9767SOL     OW39979   9.317   9.064   2.130  0.1708  0.8477 -0.6416
 9767SOL    HW139980   9.237   9.005   2.135  0.1964  0.8766  0.0870
 9767SOL    HW239981   9.386   9.022   2.071  0.1052  0.2618 -0.2986
 9768SOL     OW39982   8.153   3.602   4.356 -0.5658  0.7418 -0.2361
 9768SOL    HW139983   8.126   3.691   4.392  0.3553  1.2133 -0.6691
 9768SOL    HW239984   8.248   3.582   4.383 -0.9430 -0.3547  0.3177
 9769SOL     OW39985   2.213   3.256   1.706  0.1359 -0.1337 -0.1524
 9769SOL    HW139986   2.157   3.211   1.636 -1.0867 -0.1316  0.8109
 9769SOL    HW239987   2.174   3.238   1.796  0.1080  2.1820  0.3136
 9770SOL     OW39988   7.982   2.209   4.157  0.2136  0.0884 -0.7282
 9770SOL    HW139989   7.923   2.278   4.200 -0.1029 -0.6347  0.0212
 9770SOL    HW239990   8.076   2.223   4.187 -0.0240 -0.4923  0.3522
 9771SOL     OW39991   8.360   1.696   4.342 -0.3105  0.5251  0.3925
 9771SOL    HW139992   8.422   1.621   4.367  0.5897  1.4763  1.0149
 9771SOL    HW239993   8.265   1.663   4.348  0.1422 -1.1427 -1.2633
 9772SOL     OW39994   8.672   9.558   3.057  0.0496 -0.1773  0.4667
 9772SOL    HW139995   8.675   9.567   3.157 -0.6878  1.1495  0.3832
 9772SOL    HW239996   8.720   9.475   3.030 -0.6646 -1.1343  2.0134
 9773SOL     OW39997   9.199   7.608   3.948  0.0480 -0.0143  0.6255
 9773SOL    HW139998   9.206   7.558   3.861 -1.7947 -0.7064  0.8525
 9773SOL    HW239999   9.261   7.569   4.015  2.1052  1.0508 -0.6126
 9774SOL     OW40000   0.788   9.140   3.480  0.2802 -0.4512  0.4189
 9774SOL    HW140001   0.862   9.205   3.464  0.2744 -0.7850 -1.0115
 9774SOL    HW240002   0.706   9.170   3.431  0.4362 -1.8103 -0.6976
 9775SOL     OW40003   1.337   5.636   1.820 -0.0289  0.0906  0.1989
 9775SOL    HW140004   1.425   5.619   1.865 -0.2800 -0.2372  0.5656
 9775SOL    HW240005   1.305   5.552   1.777  1.2707  0.9264 -2.4850
 9776SOL     OW40006   2.080   2.141   1.287 -0.2739 -0.0793  0.6485
 9776SOL    HW140007   2.088   2.083   1.206 -0.6685 -1.3174  1.4872
 9776SOL    HW240008   2.134   2.224   1.273 -0.4657 -0.1945 -0.9482
 9777SOL     OW40009   8.790   6.198   3.617 -0.0658  0.2899 -0.4045
 9777SOL    HW140010   8.794   6.138   3.698  0.3493  2.2654  1.0805
 9777SOL    HW240011   8.872   6.183   3.561  0.2677 -0.1799  0.1972
 9778SOL     OW40012   3.423   0.208   0.398 -0.6209  0.1152  0.5853
 9778SOL    HW140013   3.491   0.278   0.421 -0.3307  0.3451 -0.8990
 9778SOL    HW240014   3.470   0.122   0.378 -0.7476  0.2475 -0.3418
 9779SOL     OW40015   1.943   0.765   4.007 -0.0442 -0.0564  0.2485
 9779SOL    HW140016   2.006   0.688   4.000 -1.8460 -1.3964 -2.0813
 9779SOL    HW240017   1.849   0.732   3.997 -1.0145  2.1550  1.6524
 9780SOL     OW40018   4.348   5.236   1.709  0.4509  0.6816 -0.5904
 9780SOL    HW140019   4.422   5.233   1.776  0.9943  0.6380 -1.1999
 9780SOL    HW240020   4.363   5.167   1.638 -0.2620  0.5488 -0.6234
 9781SOL     OW40021   7.197   4.389   4.084  0.4499 -0.3468  0.9438
 9781SOL    HW140022   7.297   4.392   4.081  0.4546  0.9258  1.7867
 9781SOL    HW240023   7.166   4.295   4.096  1.5781 -0.6291  1.6483
 9782SOL     OW40024   0.639   8.968   2.250 -0.2461 -0.5888  0.5667
 9782SOL    HW140025   0.690   9.034   2.196 -0.7996  1.2519  2.2550
 9782SOL    HW240026   0.703   8.916   2.308  0.1562 -1.3723 -0.5616
 9783SOL     OW40027   4.332   1.553   3.438 -0.4956  0.0672  0.7618
 9783SOL    HW140028   4.296   1.511   3.355 -1.4732  1.5508  0.4137
 9783SOL    HW240029   4.275   1.631   3.463  2.2606  2.2833  0.3872
 9784SOL     OW40030   7.395   9.079   1.923  0.2708 -0.2730 -0.2478
 9784SOL    HW140031   7.426   8.995   1.880  0.0020  0.5693 -2.1602
 9784SOL    HW240032   7.353   9.139   1.854 -0.3714  1.0411  1.2278
 9785SOL     OW40033   9.522   9.825   3.629 -0.1728 -0.0649  0.8093
 9785SOL    HW140034   9.549   9.763   3.703  0.4606  0.6113  1.1561
 9785SOL    HW240035   9.574   9.910   3.637 -0.1930  0.0611 -0.3447
 9786SOL     OW40036   8.706   8.524   3.840 -0.0482  0.6621 -0.4676
 9786SOL    HW140037   8.721   8.481   3.751 -0.4257  1.6542 -1.0193
 9786SOL    HW240038   8.673   8.456   3.905  0.9817 -0.2387 -0.8739
 9787SOL     OW40039   4.623   3.826   1.858  0.3065 -0.0499  0.3778
 9787SOL    HW140040   4.722   3.815   1.849  0.7601  2.8021  1.3317
 9787SOL    HW240041   4.602   3.921   1.883 -2.7488 -0.2937 -1.0120
 9788SOL     OW40042   9.754   0.022   4.361 -0.1913  0.0383  0.1438
 9788SOL    HW140043   9.795   0.097   4.413  0.7938  0.5726 -1.3656
 9788SOL    HW240044   9.687   0.059   4.297  1.1373 -0.2058 -1.4343
 9789SOL     OW40045   8.984   5.570   3.925  0.5929  0.1195  0.9530
 9789SOL    HW140046   9.064   5.630   3.929 -0.8809  2.3749 -1.6013
 9789SOL    HW240047   9.004   5.491   3.868  0.9105  0.9346 -0.0960
 9790SOL     OW40048   1.386   5.006   4.227  0.2565 -0.0213 -0.5150
 9790SOL    HW140049   1.343   4.999   4.317  1.5706 -0.1718  0.1104
 9790SOL    HW240050   1.485   5.001   4.237  0.3992 -0.3613 -2.0075
 9791SOL     OW40051   0.931   2.353   3.455 -0.0408  0.2405 -0.1128
 9791SOL    HW140052   1.012   2.307   3.419 -0.3049 -0.7989  0.5992
 9791SOL    HW240053   0.871   2.286   3.499 -1.1379  1.0422 -0.3464
 9792SOL     OW40054   1.195   6.697   3.114 -0.7453  0.3120  0.1616
 9792SOL    HW140055   1.259   6.695   3.191  1.3083 -0.9598 -1.5271
 9792SOL    HW240056   1.211   6.779   3.059 -2.3061  1.2924  1.1189
 9793SOL     OW40057   1.221   7.904   1.876 -0.3621 -0.2988 -0.2812
 9793SOL    HW140058   1.206   7.955   1.790  1.1602 -0.1484 -0.4580
 9793SOL    HW240059   1.264   7.817   1.855  0.8550  0.1347  0.4213
 9794SOL     OW40060   3.420   5.639   4.294 -0.5052 -0.1308 -0.2449
 9794SOL    HW140061   3.329   5.622   4.256 -0.9253  0.6820  0.3727
 9794SOL    HW240062   3.480   5.562   4.272 -1.0379 -0.1804 -1.5799
 9795SOL     OW40063   3.154   4.592   0.955 -0.2049  0.1863  0.7805
 9795SOL    HW140064   3.217   4.545   1.018  1.2681  0.3237 -0.5518
 9795SOL    HW240065   3.197   4.599   0.865 -2.5375 -0.5469 -0.4170
 9796SOL     OW40066   8.183   0.583   0.417  0.1329  0.6221 -0.3053
 9796SOL    HW140067   8.231   0.524   0.352  0.0157  0.6657 -0.4304
 9796SOL    HW240068   8.105   0.627   0.372 -0.1824  0.3467 -0.0313
 9797SOL     OW40069   7.179   6.945   3.336 -0.1385 -0.7334 -0.0742
 9797SOL    HW140070   7.250   6.929   3.405  1.3984  0.3945 -1.3645
 9797SOL    HW240071   7.208   6.907   3.248 -0.3099  1.2988 -1.0429
 9798SOL     OW40072   9.344   8.241   2.419  0.2207  0.1215  0.5597
 9798SOL    HW140073   9.248   8.222   2.398  0.7123  0.6513 -2.4602
 9798SOL    HW240074   9.362   8.338   2.409  1.5382 -0.2664 -1.1466
 9799SOL     OW40075   2.495   0.903   3.609 -0.7701  0.2016  0.3968
 9799SOL    HW140076   2.472   0.838   3.537 -0.6731 -0.9101  1.3511
 9799SOL    HW240077   2.542   0.982   3.569  0.7452 -1.1465 -0.5495
 9800SOL     OW40078   3.140   4.930   0.442  0.1159  0.3875 -0.1438
 9800SOL    HW140079   3.213   4.909   0.376 -1.4361  0.0351 -1.8025
 9800SOL    HW240080   3.052   4.903   0.403 -0.8128 -0.0250  2.2092
 9801SOL     OW40081   9.741   7.916   2.809 -0.1455 -0.0381 -0.1453
 9801SOL    HW140082   9.825   7.954   2.771  0.2407 -0.2552  0.4723
 9801SOL    HW240083   9.763   7.836   2.864 -0.9829 -1.3009 -1.6298
 9802SOL     OW40084   1.776   9.055   0.642  0.1650 -0.1461  0.4375
 9802SOL    HW140085   1.707   8.986   0.621  0.3099 -0.2642  0.3437
 9802SOL    HW240086   1.853   9.011   0.689  1.1242 -0.4052 -1.3418
 9803SOL     OW40087   6.340   7.335   3.140 -0.1759  0.2203 -0.5306
 9803SOL    HW140088   6.439   7.325   3.152 -0.2214 -0.6408 -0.8839
 9803SOL    HW240089   6.320   7.428   3.109  0.5178  0.4216 -0.3876
 9804SOL     OW40090   9.186   1.639   3.219 -0.0669  0.1681 -0.0427
 9804SOL    HW140091   9.226   1.705   3.283 -1.4434 -0.3447  1.3840
 9804SOL    HW240092   9.196   1.673   3.126  0.7111  1.6143  0.5480
 9805SOL     OW40093   1.677   9.001   3.056 -0.1996  0.1227  0.3124
 9805SOL    HW140094   1.747   9.059   3.098  0.7464 -0.6159 -0.2308
 9805SOL    HW240095   1.653   9.037   2.966  0.3357 -0.2787  0.0057
 9806SOL     OW40096   7.667   8.432   4.686 -0.0252  0.2333  0.4522
 9806SOL    HW140097   7.722   8.369   4.631 -0.7476 -0.7550  0.8592
 9806SOL    HW240098   7.582   8.453   4.638 -0.4291 -0.2336  0.9572
 9807SOL     OW40099   0.051   9.750   2.421 -0.0595  0.1032  0.1254
 9807SOL    HW140100   0.143   9.711   2.434  0.1142  1.2437  2.6027
 9807SOL    HW240101  -0.009   9.718   2.494 -1.7794 -1.0040 -1.7520
 9808SOL     OW40102   0.463   3.716   2.174  0.4070  0.3424  0.3964
 9808SOL    HW140103   0.549   3.669   2.153  0.9525  0.4797  2.2504
 9808SOL    HW240104   0.473   3.814   2.156 -0.0202  0.0896 -1.3176
 9809SOL     OW40105   1.970   1.719   1.254  0.0460 -0.2039  0.4613
 9809SOL    HW140106   1.906   1.794   1.264  1.7455  1.3272  0.1960
 9809SOL    HW240107   1.977   1.668   1.340 -0.7514  0.2216  0.7805
 9810SOL     OW40108   4.513   7.625   3.428 -0.3328  0.3181  0.2272
 9810SOL    HW140109   4.485   7.532   3.405 -1.5319  0.2356  1.8835
 9810SOL    HW240110   4.526   7.678   3.345 -0.5424 -1.0783 -0.7112
 9811SOL     OW40111   3.399   5.314   3.020  0.3242  0.1340  0.0963
 9811SOL    HW140112   3.446   5.389   2.973  0.8767 -0.0722  0.3187
 9811SOL    HW240113   3.387   5.336   3.116  0.1224  0.1076  0.0791
 9812SOL     OW40114   7.845   9.133   0.034 -0.1526  1.0080 -0.6242
 9812SOL    HW140115   7.797   9.207   0.081 -1.1163  0.8654 -1.3708
 9812SOL    HW240116   7.910   9.172  -0.030 -1.7040  1.2450 -2.0914
 9813SOL     OW40117   2.273   4.585   0.387 -0.3515 -0.3996  0.0647
 9813SOL    HW140118   2.188   4.564   0.339 -1.1290  0.2493  1.1427
 9813SOL    HW240119   2.256   4.593   0.485  0.8179  0.4306  0.2209
 9814SOL     OW40120   8.686   8.755   1.993  0.0392 -0.7387  0.0133
 9814SOL    HW140121   8.601   8.752   2.047 -0.6837 -0.9845 -1.1153
 9814SOL    HW240122   8.742   8.832   2.024 -1.1800  0.2118 -0.0558
 9815SOL     OW40123   0.041   2.574   1.330  0.2215  0.1207 -0.2544
 9815SOL    HW140124   0.044   2.510   1.406  0.8958  0.6905  0.2054
 9815SOL    HW240125   0.096   2.655   1.352 -2.0761  1.6751 -0.0868
 9816SOL     OW40126   9.611   0.717   3.050  0.2254 -0.0300 -0.2843
 9816SOL    HW140127   9.562   0.647   2.998 -0.3436 -0.8370  1.3151
 9816SOL    HW240128   9.710   0.709   3.032  0.0605 -0.4512 -1.0331
 9817SOL     OW40129   3.864   5.385   1.218  0.1429  0.1753  0.7827
 9817SOL    HW140130   3.954   5.413   1.183  0.6602 -2.3582 -0.0761
 9817SOL    HW240131   3.865   5.387   1.318  0.4769  2.1249  0.7572
 9818SOL     OW40132   2.417   2.309   0.395  0.1508 -0.1383 -0.2721
 9818SOL    HW140133   2.517   2.317   0.403  0.1757 -1.2383  0.6018
 9818SOL    HW240134   2.394   2.222   0.351 -0.3962  0.6273 -1.5283
 9819SOL     OW40135   9.081   0.190   0.934 -0.0845  0.2700 -0.3734
 9819SOL    HW140136   9.131   0.146   1.009 -0.0413  0.7158 -0.1366
 9819SOL    HW240137   9.015   0.254   0.973  0.2191  0.7994 -0.7367
 9820SOL     OW40138   7.466   0.244   4.558  0.4106  0.1547 -0.1095
 9820SOL    HW140139   7.538   0.196   4.507  0.0352 -0.3358 -0.1767
 9820SOL    HW240140   7.386   0.256   4.499  0.4728  0.7867 -0.0652
 9821SOL     OW40141   3.381   0.598   4.779 -0.2329 -0.0082  0.0814
 9821SOL    HW140142   3.396   0.503   4.809 -2.4000 -0.6304 -0.7864
 9821SOL    HW240143   3.461   0.653   4.804  2.2323 -2.6095 -1.7565
 9822SOL     OW40144   1.750   0.801   2.374  0.2305 -0.1437  0.0549
 9822SOL    HW140145   1.794   0.737   2.311  0.8001  0.1462  0.1604
 9822SOL    HW240146   1.795   0.890   2.370  0.0564 -0.0222  0.6203
 9823SOL     OW40147   3.254   4.995   1.841  0.1431 -0.0650  0.3316
 9823SOL    HW140148   3.201   4.923   1.796  0.1725  0.9528 -1.3490
 9823SOL    HW240149   3.199   5.036   1.914 -0.0842 -1.3672  0.9190
 9824SOL     OW40150   3.852   2.687   1.154 -0.0037  0.2147  0.4626
 9824SOL    HW140151   3.796   2.627   1.098  0.0769  0.1794  0.4201
 9824SOL    HW240152   3.935   2.712   1.104 -0.5360  1.2159  0.0640
 9825SOL     OW40153   8.765   7.699   1.899  0.2887  0.3171  0.4836
 9825SOL    HW140154   8.773   7.599   1.904  2.2202  0.5216  1.8617
 9825SOL    HW240155   8.805   7.731   1.814 -0.5220 -0.0771 -0.0610
 9826SOL     OW40156   1.931   4.950   2.338 -0.6114  0.0100 -0.0947
 9826SOL    HW140157   2.002   4.946   2.409 -1.3852 -0.3748  0.6583
 9826SOL    HW240158   1.841   4.960   2.380 -1.1638 -1.1449 -0.9768
 9827SOL     OW40159   8.666   8.446   3.360  0.1327 -0.0688  0.2959
 9827SOL    HW140160   8.646   8.405   3.271 -1.5930 -0.2307  0.7354
 9827SOL    HW240161   8.658   8.376   3.431  0.1730  0.3572  0.7189
 9828SOL     OW40162   9.266   3.880   0.753  0.4077 -0.1518  0.6859
 9828SOL    HW140163   9.202   3.865   0.678  0.1389  1.4585  0.5763
 9828SOL    HW240164   9.227   3.945   0.819  2.2528  1.5679  0.1542
 9829SOL     OW40165   7.586   0.767   1.099  0.3439 -0.3377 -0.5282
 9829SOL    HW140166   7.665   0.822   1.071  0.4139  0.1523  0.6144
 9829SOL    HW240167   7.535   0.816   1.169  0.4077 -1.7389  0.4986
 9830SOL     OW40168   2.876   5.995   4.183 -0.8697 -0.1025  0.2090
 9830SOL    HW140169   2.872   5.975   4.281 -1.4185 -0.4802  0.1145
 9830SOL    HW240170   2.971   6.006   4.154 -0.5907 -1.8004  0.4219
 9831SOL     OW40171   4.464   9.344   3.251  0.7638 -0.0034 -0.4272
 9831SOL    HW140172   4.516   9.397   3.318 -2.6430  2.2214  0.5894
 9831SOL    HW240173   4.375   9.319   3.290  0.5603 -2.7395 -2.4883
 9832SOL     OW40174   0.308   4.189   0.199  0.3806 -0.5854 -0.3075
 9832SOL    HW140175   0.237   4.181   0.130 -1.6974  0.5157  1.6328
 9832SOL    HW240176   0.327   4.286   0.216  1.9399 -0.8590 -0.3885
 9833SOL     OW40177   2.574   3.890   1.247 -0.2303  0.2291 -0.4234
 9833SOL    HW140178   2.656   3.849   1.286 -1.4734  0.3331  2.4678
 9833SOL    HW240179   2.597   3.941   1.164  2.4870 -0.2845 -0.0051
 9834SOL     OW40180   9.477   1.373   4.183 -0.0126 -0.3584  0.0643
 9834SOL    HW140181   9.453   1.454   4.129  1.0017  0.2016  0.4271
 9834SOL    HW240182   9.487   1.399   4.279  1.6939 -0.6122 -0.0215
 9835SOL     OW40183   3.073   3.000   1.088  0.3365  0.5199  0.1751
 9835SOL    HW140184   2.988   3.047   1.064 -0.4048 -1.9761 -2.3009
 9835SOL    HW240185   3.057   2.939   1.165  0.6644  2.2421  1.6555
 9836SOL     OW40186   2.747   9.094   2.507 -0.1742  0.2397  0.4161
 9836SOL    HW140187   2.719   9.152   2.584  0.5085 -0.8994  1.5502
 9836SOL    HW240188   2.833   9.048   2.530  0.1966  0.1126 -1.1638
 9837SOL     OW40189   7.818   2.872   3.975 -0.0456 -0.7543  0.6268
 9837SOL    HW140190   7.880   2.938   4.015  1.0818 -0.8931 -0.8371
 9837SOL    HW240191   7.744   2.920   3.927  0.2090 -0.5647  0.4250
 9838SOL     OW40192   2.983   8.966   2.526 -0.1011 -0.0423  0.1670
 9838SOL    HW140193   3.001   8.929   2.617 -0.0342 -1.4696 -0.4209
 9838SOL    HW240194   3.070   8.986   2.480 -0.1357  1.7885  0.8428
 9839SOL     OW40195   3.903   0.830   3.490  0.0253  0.1935 -0.8917
 9839SOL    HW140196   3.989   0.828   3.540 -0.4440  1.9655  0.0677
 9839SOL    HW240197   3.854   0.915   3.511 -1.0667  0.1208 -2.9139
 9840SOL     OW40198   8.865   0.299   3.954  0.1258 -0.2898  0.4524
 9840SOL    HW140199   8.897   0.364   3.885 -0.9973  0.4239  0.5835
 9840SOL    HW240200   8.943   0.265   4.006  0.7630  0.8020  0.2446
 9841SOL     OW40201   9.554   4.533   0.761  0.0933 -0.4715 -0.4256
 9841SOL    HW140202   9.534   4.506   0.667  3.2530 -2.4239 -0.6209
 9841SOL    HW240203   9.570   4.631   0.765 -2.0092 -0.0540 -1.5348
 9842SOL     OW40204   2.558   2.778   2.610  0.0995  0.3069  0.1584
 9842SOL    HW140205   2.484   2.753   2.671 -0.7650  0.0013 -1.0031
 9842SOL    HW240206   2.624   2.703   2.605  0.2761  0.4141  0.8690
 9843SOL     OW40207   0.793   4.892   3.607  0.1807  0.1983  0.4905
 9843SOL    HW140208   0.882   4.919   3.642 -0.3109  0.9463  1.1744
 9843SOL    HW240209   0.743   4.841   3.677 -0.2596  0.4927  0.3925
 9844SOL     OW40210   2.001   6.137   2.230  0.2588 -0.0084  0.3496
 9844SOL    HW140211   1.938   6.126   2.306 -0.1786 -0.4396 -0.0720
 9844SOL    HW240212   2.076   6.198   2.257 -0.3935  0.5959  0.8180
 9845SOL     OW40213   0.379   1.788   3.598 -0.4574  0.2014 -0.6666
 9845SOL    HW140214   0.295   1.838   3.575 -0.2269  1.2106  0.6464
 9845SOL    HW240215   0.359   1.690   3.603 -2.1254  0.6248  2.0182
 9846SOL     OW40216   8.485   8.686   2.176 -0.3054 -0.3937 -0.3888
 9846SOL    HW140217   8.503   8.745   2.255  0.7774  0.9582 -1.6186
 9846SOL    HW240218   8.428   8.609   2.205 -0.6530  0.5357  1.5272
 9847SOL     OW40219   2.640   1.792   1.737 -0.1118  0.2105 -0.3246
 9847SOL    HW140220   2.687   1.862   1.790  0.6307 -0.9347  0.5594
 9847SOL    HW240221   2.576   1.835   1.673 -1.2445  1.6142  1.6990
 9848SOL     OW40222   3.950   0.621   4.418 -0.1383 -0.0135 -0.0245
 9848SOL    HW140223   3.879   0.557   4.448 -1.4560  2.4516  2.2303
 9848SOL    HW240224   4.010   0.643   4.494  2.1994 -0.8584 -1.5409
 9849SOL     OW40225   7.583   9.551   3.755 -0.1798 -0.1028  0.8407
 9849SOL    HW140226   7.635   9.590   3.831  0.7705 -0.6710  0.5019
 9849SOL    HW240227   7.487   9.577   3.763  0.2274  1.3626  1.2379
 9850SOL     OW40228   3.630   9.181   0.285  0.3592 -0.0080  0.2372
 9850SOL    HW140229   3.565   9.238   0.234  0.0275  1.1734  1.9312
 9850SOL    HW240230   3.706   9.156   0.225 -2.3647 -2.7189 -2.2422
 9851SOL     OW40231   2.109   8.752   3.871 -0.2054  0.1280  0.0958
 9851SOL    HW140232   2.183   8.729   3.807 -0.1774 -1.3518  0.6477
 9851SOL    HW240233   2.148   8.784   3.957 -0.2334  0.9769 -0.2011
 9852SOL     OW40234   1.436   1.448   2.609 -0.1385 -0.2242 -0.6918
 9852SOL    HW140235   1.460   1.351   2.615 -0.7605 -0.3474 -0.2056
 9852SOL    HW240236   1.470   1.496   2.690 -1.7314 -0.4434  0.1182
 9853SOL     OW40237   2.492   1.229   4.778  0.4800 -0.1001 -0.2755
 9853SOL    HW140238   2.474   1.327   4.767 -0.4508 -0.1270  0.9805
 9853SOL    HW240239   2.511   1.188   4.689  1.0975  1.2637 -0.7833
 9854SOL     OW40240   4.104   7.960   1.232  0.3852  0.5950 -0.2949
 9854SOL    HW140241   4.027   8.007   1.276  0.5094  1.0237 -0.5283
 9854SOL    HW240242   4.190   7.995   1.269  0.5259  1.9033 -1.7880
 9855SOL     OW40243   0.689   2.483   2.022 -0.0473  0.0207  0.1757
 9855SOL    HW140244   0.788   2.491   2.023 -0.0002 -0.4519 -0.2506
 9855SOL    HW240245   0.653   2.496   2.115  0.2419  2.0679  0.0054
 9856SOL     OW40246   1.640   2.534   0.466  0.3370 -0.1136  0.6247
 9856SOL    HW140247   1.603   2.519   0.374  1.4696  2.3783 -0.2902
 9856SOL    HW240248   1.576   2.589   0.519  0.5219  0.0411  0.6879
 9857SOL     OW40249   1.419   5.894   3.056  0.2609  0.2761  1.0576
 9857SOL    HW140250   1.470   5.949   2.989 -1.2532  0.9493  0.4296
 9857SOL    HW240251   1.324   5.886   3.026  1.1903 -5.8912 -0.8847
 9858SOL     OW40252   8.018   1.230   3.337 -0.2955  0.0857  0.1859
 9858SOL    HW140253   7.964   1.236   3.252 -0.6880  1.5183  0.5184
 9858SOL    HW240254   8.110   1.197   3.315 -1.0393 -1.5806 -0.5029
 9859SOL     OW40255   3.364   1.810   2.862  0.0298 -0.3874 -0.5178
 9859SOL    HW140256   3.369   1.784   2.765 -0.9982 -2.2247 -0.0960
 9859SOL    HW240257   3.449   1.786   2.907  0.3653  0.1139 -0.8787
 9860SOL     OW40258   0.279   4.946   4.631  0.3270 -0.2803  0.3492
 9860SOL    HW140259   0.310   4.860   4.671 -1.4585 -0.8221  0.6126
 9860SOL    HW240260   0.267   4.935   4.532 -0.1557 -0.4074  0.4227
 9861SOL     OW40261   7.322   9.534   1.861  0.7131  0.1766 -0.5428
 9861SOL    HW140262   7.366   9.469   1.923  0.6176 -0.8910 -1.5788
 9861SOL    HW240263   7.228   9.551   1.890  0.3347 -1.1207 -0.9658
 9862SOL     OW40264   1.410   4.785   2.392 -0.4273 -0.5950  0.5200
 9862SOL    HW140265   1.341   4.823   2.331  0.3081  0.1461  0.1276
 9862SOL    HW240266   1.466   4.719   2.342  0.0847 -0.0934  0.4249
 9863SOL     OW40267   6.014   7.897   2.306 -0.3845 -0.1176  0.3412
 9863SOL    HW140268   5.943   7.941   2.251  0.2430 -0.5412 -0.8214
 9863SOL    HW240269   6.020   7.800   2.282 -0.7428 -0.5284  1.8338
 9864SOL     OW40270   4.989   3.678   4.462 -0.1364  0.0447 -0.2513
 9864SOL    HW140271   4.958   3.633   4.379 -1.2925  3.0669 -1.5225
 9864SOL    HW240272   4.952   3.631   4.542  0.3117 -2.3902 -1.4444
 9865SOL     OW40273   8.921   3.392   3.851  0.3642  0.0630 -0.5257
 9865SOL    HW140274   8.868   3.410   3.769  3.0737  0.6490 -2.2094
 9865SOL    HW240275   8.922   3.294   3.869 -0.4049 -0.0486 -1.0535
 9866SOL     OW40276   8.917   0.256   0.699  0.2618 -0.0104  0.5292
 9866SOL    HW140277   8.969   0.233   0.782 -0.7970 -2.1329  0.6656
 9866SOL    HW240278   8.978   0.256   0.620  0.8476 -0.3674  0.9752
 9867SOL     OW40279   7.734   0.394   1.972  0.2135  0.0065  0.8014
 9867SOL    HW140280   7.770   0.487   1.981 -1.6220  0.8568 -0.4364
 9867SOL    HW240281   7.803   0.336   1.926  0.1308  1.5585 -1.3617
 9868SOL     OW40282   9.119   4.027   1.135  0.2637  0.2628 -0.2725
 9868SOL    HW140283   9.157   4.115   1.162 -0.0917  0.5314 -0.6260
 9868SOL    HW240284   9.129   4.015   1.036  0.5813 -0.2265 -0.1805
 9869SOL     OW40285   9.792   5.698   1.605  0.1560  0.3081  0.2403
 9869SOL    HW140286   9.866   5.705   1.538  0.4515 -1.5576  0.3512
 9869SOL    HW240287   9.719   5.641   1.568  0.3950 -0.8733  1.5571
 9870SOL     OW40288   5.577   7.227   2.729  0.0120 -0.0593 -0.2748
 9870SOL    HW140289   5.623   7.230   2.640  0.1918  0.2033 -0.1741
 9870SOL    HW240290   5.643   7.208   2.801 -0.1249 -0.2161 -0.1884
 9871SOL     OW40291   9.814   8.067   1.568  0.2572  0.2898 -0.1373
 9871SOL    HW140292   9.824   8.045   1.665 -1.6774  1.1681  0.2808
 9871SOL    HW240293   9.827   7.984   1.514 -3.1937 -1.2392  1.1788
 9872SOL     OW40294   5.082   5.329   1.826  0.2365 -0.7290  0.1673
 9872SOL    HW140295   5.158   5.276   1.787  0.6740  0.2457 -0.3312
 9872SOL    HW240296   5.007   5.333   1.760  0.1687 -0.7864  0.2403
 9873SOL     OW40297   9.868   8.628   3.875 -0.2356 -0.6313 -0.4686
 9873SOL    HW140298   9.862   8.537   3.834  1.5482 -0.5164 -1.0210
 9873SOL    HW240299   9.835   8.625   3.969  0.0774 -1.9107 -0.3930
 9874SOL     OW40300   9.771   5.783   0.478 -0.7670  0.5566 -0.0412
 9874SOL    HW140301   9.761   5.685   0.465 -0.1775  0.5964 -0.8514
 9874SOL    HW240302   9.681   5.825   0.488 -1.0360 -0.0213 -0.0274
 9875SOL     OW40303   3.376   7.694   3.621  0.6998 -0.1965  0.0187
 9875SOL    HW140304   3.282   7.662   3.608  0.7508  0.0542 -1.0271
 9875SOL    HW240305   3.417   7.713   3.532  0.8823  2.1579  0.5833
 9876SOL     OW40306   1.614   7.232   0.572  0.3288 -0.2331 -0.2309
 9876SOL    HW140307   1.625   7.293   0.650 -1.4194 -1.7956  1.2670
 9876SOL    HW240308   1.568   7.281   0.498 -1.4525  0.1489  1.1152
 9877SOL     OW40309   2.901   3.746   4.616  0.0992  0.0467 -0.0664
 9877SOL    HW140310   2.811   3.787   4.604  0.7123  1.7463  0.9370
 9877SOL    HW240311   2.925   3.692   4.535 -1.9668 -0.7325 -0.1769
 9878SOL     OW40312   2.953   6.660   3.861  0.3553 -0.4224  0.0625
 9878SOL    HW140313   2.854   6.646   3.851  0.5989 -1.4361 -1.0023
 9878SOL    HW240314   2.983   6.624   3.949 -0.4951  1.4119  1.1404
 9879SOL     OW40315   9.313   3.578   1.627 -0.1962 -0.1027 -0.0362
 9879SOL    HW140316   9.325   3.485   1.662  1.3036  0.6837  1.6277
 9879SOL    HW240317   9.390   3.603   1.568 -0.3451  0.2546 -0.0858
 9880SOL     OW40318   2.396   5.519   1.759  0.7452  0.0698  0.2525
 9880SOL    HW140319   2.378   5.420   1.759  1.0510 -0.0001 -0.9181
 9880SOL    HW240320   2.378   5.556   1.849 -1.2675 -0.7257  0.2080
 9881SOL     OW40321   5.354   0.188   2.231  0.2338  0.4091  0.2063
 9881SOL    HW140322   5.425   0.205   2.300 -0.0066  1.4282  0.2125
 9881SOL    HW240323   5.377   0.105   2.180  1.3193  0.6004  0.3519
 9882SOL     OW40324   9.808   3.377   0.840 -0.6065 -0.4095  0.1449
 9882SOL    HW140325   9.875   3.438   0.798 -2.9555  2.1843  0.0041
 9882SOL    HW240326   9.804   3.393   0.938 -2.5275  1.0275 -0.1425
 9883SOL     OW40327   1.820   3.922   4.394  0.0812 -0.1973 -0.2889
 9883SOL    HW140328   1.844   3.890   4.486 -0.4447 -0.9211 -0.3950
 9883SOL    HW240329   1.822   3.844   4.331  0.6374  0.3280 -0.9346
 9884SOL     OW40330   0.966   9.150   3.076  0.5398  0.3556  0.0011
 9884SOL    HW140331   0.943   9.083   3.147 -0.1339 -2.5741 -2.8931
 9884SOL    HW240332   0.884   9.176   3.027  1.3414  0.5003 -1.2857
 9885SOL     OW40333   2.991   9.485   3.433  0.6650  0.0068  0.0689
 9885SOL    HW140334   2.967   9.408   3.374  2.2306 -1.2187  0.9753
 9885SOL    HW240335   3.082   9.518   3.409  1.0701 -0.1207  1.4213
 9886SOL     OW40336   7.535   7.548   4.219  0.0709 -0.1358 -0.5227
 9886SOL    HW140337   7.453   7.526   4.271  0.5484 -0.1120  0.2383
 9886SOL    HW240338   7.532   7.645   4.192 -0.2699 -0.2003 -0.7225
 9887SOL     OW40339   1.832   9.799   1.002  0.8822  0.1392 -0.2584
 9887SOL    HW140340   1.762   9.851   0.953 -0.6422 -1.7535 -0.1553
 9887SOL    HW240341   1.798   9.775   1.093  2.7760  1.6138  0.8524
 9888SOL     OW40342   4.000   8.495   1.728  0.5650  0.1732  0.7307
 9888SOL    HW140343   3.930   8.504   1.658  1.1330  0.1471  0.1593
 9888SOL    HW240344   4.066   8.571   1.720  1.3738 -0.5600  0.3911
 9889SOL     OW40345   8.866   0.329   4.734 -0.0289  0.3109 -0.2364
 9889SOL    HW140346   8.920   0.311   4.651  0.3080  2.8995 -0.6242
 9889SOL    HW240347   8.777   0.366   4.709 -1.1731 -1.8899  0.4849
 9890SOL     OW40348   8.249   7.991   3.024 -0.1129 -0.1915 -0.3100
 9890SOL    HW140349   8.210   8.073   3.065  0.7412 -0.3470  0.8405
 9890SOL    HW240350   8.188   7.956   2.953 -0.2344  1.7335 -1.1714
 9891SOL     OW40351   1.457   8.751   3.854  0.2307 -0.5455 -0.1815
 9891SOL    HW140352   1.474   8.757   3.756  1.4586  1.5041  0.1074
 9891SOL    HW240353   1.360   8.733   3.871 -0.1696  0.0567 -1.7730
 9892SOL     OW40354   9.991   4.849   2.806 -0.3816 -0.2555 -0.4626
 9892SOL    HW140355   9.933   4.876   2.729 -1.0147  2.4578  0.8940
 9892SOL    HW240356   9.938   4.854   2.891  0.5795 -2.2772  0.2943
 9893SOL     OW40357   7.759   3.525   4.356  0.1651 -0.0430 -0.5700
 9893SOL    HW140358   7.823   3.488   4.424 -1.7462 -0.4567  1.0378
 9893SOL    HW240359   7.781   3.621   4.339 -1.0200  0.8604  2.7100
 9894SOL     OW40360   9.521   4.410   4.428  0.0566 -0.5150 -0.1259
 9894SOL    HW140361   9.494   4.435   4.335 -2.7475  0.2709  0.8368
 9894SOL    HW240362   9.527   4.493   4.484 -0.9370 -1.2093  1.0285
 9895SOL     OW40363   9.466   0.603   2.721  0.2134  0.1813 -0.2763
 9895SOL    HW140364   9.494   0.521   2.672  0.3867 -0.0812  0.2560
 9895SOL    HW240365   9.456   0.582   2.819 -2.4042  0.1167 -0.5155
 9896SOL     OW40366   4.074   4.448   4.043 -0.0065 -0.1559 -0.8394
 9896SOL    HW140367   4.110   4.445   4.136  0.3357 -0.0338 -0.9686
 9896SOL    HW240368   3.982   4.409   4.042 -0.2793  0.4801 -0.3303
 9897SOL     OW40369   2.551   3.453   1.402 -0.1892 -0.4811  0.2882
 9897SOL    HW140370   2.500   3.441   1.317  0.0942 -0.3549  0.1013
 9897SOL    HW240371   2.524   3.382   1.467  1.3653 -2.0602 -0.7466
 9898SOL     OW40372   3.970   2.035   1.222 -0.5069  0.5083 -0.5011
 9898SOL    HW140373   4.001   1.966   1.287  0.0802 -0.0104 -1.3088
 9898SOL    HW240374   4.018   2.022   1.135 -0.7566  1.6285 -0.8179
 9899SOL     OW40375   3.373   0.809   4.332  0.3296 -0.3707 -0.1066
 9899SOL    HW140376   3.374   0.845   4.425  0.0237 -0.9425  0.1222
 9899SOL    HW240377   3.313   0.866   4.275  2.0887  1.1772 -0.4588
 9900SOL     OW40378   0.403   5.796   3.349 -0.3640 -0.4573  0.4221
 9900SOL    HW140379   0.470   5.841   3.408 -0.4372 -1.3374  1.1661
 9900SOL    HW240380   0.410   5.834   3.256  0.4708  0.1632  0.7382
 9901SOL     OW40381   2.064   7.348   3.434  0.5980 -0.2264 -0.4950
 9901SOL    HW140382   2.108   7.432   3.467  1.2944 -1.1303  0.9403
 9901SOL    HW240383   1.993   7.320   3.499 -2.2370  1.2807 -2.8580
 9902SOL     OW40384   3.306   6.433   3.435  0.3161 -0.7777 -0.5903
 9902SOL    HW140385   3.390   6.479   3.463 -0.6742  0.6359  0.1229
 9902SOL    HW240386   3.289   6.452   3.338 -0.5947  1.2220 -0.0692
 9903SOL     OW40387   8.373   8.317   2.126  0.6243  0.4542 -0.5617
 9903SOL    HW140388   8.333   8.406   2.149  0.2589 -0.2415  1.6525
 9903SOL    HW240389   8.383   8.263   2.210  0.9480 -1.5511 -1.8616
 9904SOL     OW40390   9.643   1.349   2.935 -0.3143  0.1967  0.2644
 9904SOL    HW140391   9.643   1.249   2.939 -0.7788  0.2623  1.9959
 9904SOL    HW240392   9.553   1.384   2.961 -0.3212  1.0589 -0.8710
 9905SOL     OW40393   1.198   1.254   0.258  0.0383  0.1261 -0.3839
 9905SOL    HW140394   1.272   1.299   0.208  0.1538  0.0384 -0.2908
 9905SOL    HW240395   1.142   1.324   0.303 -1.4807  0.3678 -2.5835
 9906SOL     OW40396   8.882   9.808   1.074  0.1817  0.0560 -0.2760
 9906SOL    HW140397   8.952   9.767   1.133  0.6865  0.8063 -0.3546
 9906SOL    HW240398   8.920   9.824   0.983  0.1161  1.0736 -0.1329
 9907SOL     OW40399   0.094   9.930   4.542 -0.1341 -0.3107  0.4393
 9907SOL    HW140400   0.181   9.906   4.586 -0.2155 -0.8618  0.3105
 9907SOL    HW240401   0.020   9.924   4.609 -0.2460 -1.0611  0.2592
 9908SOL     OW40402   8.852   9.603   4.123 -0.2074 -0.1231  0.1604
 9908SOL    HW140403   8.802   9.637   4.043  0.0868  1.5288  0.6795
 9908SOL    HW240404   8.873   9.506   4.109 -0.8392 -0.0532 -1.4298
 9909SOL     OW40405   4.277   1.782   1.571 -0.2382  0.7258  0.0689
 9909SOL    HW140406   4.340   1.859   1.585 -1.2512  1.0017  3.5422
 9909SOL    HW240407   4.330   1.697   1.565  0.7290  1.4116 -1.5745
 9910SOL     OW40408   1.583   5.193   0.137 -0.1716  0.2076  0.0541
 9910SOL    HW140409   1.645   5.114   0.142 -2.3496 -1.5205  0.6716
 9910SOL    HW240410   1.547   5.200   0.043 -0.7482 -0.1737  0.2402
 9911SOL     OW40411   8.781   2.725   2.598  0.3933  0.0166  0.3039
 9911SOL    HW140412   8.785   2.674   2.684  0.6642 -0.3805  0.0551
 9911SOL    HW240413   8.771   2.823   2.618 -1.0956 -0.2124  0.7719
 9912SOL     OW40414   0.747   2.432   0.694  0.1761  0.1630  0.3423
 9912SOL    HW140415   0.673   2.367   0.716 -0.1273  0.5176  0.3792
 9912SOL    HW240416   0.721   2.485   0.613  0.5883 -0.0197  0.0880
 9913SOL     OW40417   3.413   0.494   1.719 -0.4531 -0.5755  0.3685
 9913SOL    HW140418   3.357   0.534   1.791 -2.0945 -3.3811  0.7461
 9913SOL    HW240419   3.382   0.527   1.629  0.7550  1.9217  0.8338
 9914SOL     OW40420   1.644   4.703   1.302 -0.5218 -0.4988 -0.4453
 9914SOL    HW140421   1.675   4.775   1.364  2.5275 -0.3278 -2.0498
 9914SOL    HW240422   1.660   4.732   1.208 -2.7077 -1.7969 -1.2516
 9915SOL     OW40423   8.668   0.696   0.647  0.1937  0.3059  0.5822
 9915SOL    HW140424   8.579   0.685   0.601  0.7605  0.0105 -0.4530
 9915SOL    HW240425   8.728   0.751   0.589  2.0670 -2.9171 -0.6516
 9916SOL     OW40426   4.409   3.898   3.333  0.1831  0.2475 -0.3065
 9916SOL    HW140427   4.504   3.901   3.364  0.2381  1.5407 -0.5733
 9916SOL    HW240428   4.372   3.806   3.347  0.8676  0.2422  1.5670
 9917SOL     OW40429   2.443   2.749   0.046  0.3370  0.1279  0.4230
 9917SOL    HW140430   2.444   2.649   0.054 -1.2167 -0.2230 -2.8552
 9917SOL    HW240431   2.350   2.782   0.058  0.4084  0.9064 -1.0776
 9918SOL     OW40432   2.432   3.022   1.961 -0.2004 -0.6422  0.0748
 9918SOL    HW140433   2.361   2.967   2.005 -1.3522  0.7348 -0.0387
 9918SOL    HW240434   2.438   2.999   1.864 -0.5131 -0.7479  0.0808
 9919SOL     OW40435   4.636   7.831   2.962 -0.2162 -0.0274 -0.0880
 9919SOL    HW140436   4.729   7.863   2.978 -0.3958  1.2808 -1.5071
 9919SOL    HW240437   4.594   7.885   2.888 -1.8626 -1.0380  0.0712
 9920SOL     OW40438   2.619   2.007   4.776  0.0198  0.3124  0.1302
 9920SOL    HW140439   2.579   1.925   4.817 -1.3518  0.2699 -1.2815
 9920SOL    HW240440   2.717   2.010   4.798 -0.1786 -1.0215  1.2678
 9921SOL     OW40441   5.528   9.674   3.806 -0.0753  0.1101 -0.0842
 9921SOL    HW140442   5.473   9.597   3.838  0.0258  0.3693  0.7068
 9921SOL    HW240443   5.494   9.759   3.847  1.0730  0.2441  0.5851
 9922SOL     OW40444   8.477   1.916   3.359 -0.5210 -1.0747 -0.3566
 9922SOL    HW140445   8.457   1.980   3.285 -3.0115 -1.2340  0.1229
 9922SOL    HW240446   8.510   1.830   3.321  0.8910 -0.2115 -1.1133
 9923SOL     OW40447   6.387   8.895   2.567 -0.1547 -0.6006 -0.0047
 9923SOL    HW140448   6.429   8.983   2.592 -2.9619 -0.0517  3.1619
 9923SOL    HW240449   6.444   8.820   2.601  1.5692 -0.0221 -1.5504
 9924SOL     OW40450   0.391   1.960   1.338 -0.1196  0.0447  0.5865
 9924SOL    HW140451   0.336   1.877   1.345 -1.5985  0.8636 -0.6898
 9924SOL    HW240452   0.481   1.938   1.302 -0.6126 -0.9760 -0.0547
 9925SOL     OW40453   2.824   4.625   0.169 -0.0332 -0.1035 -0.8227
 9925SOL    HW140454   2.746   4.672   0.212  0.9402 -0.0572  0.9513
 9925SOL    HW240455   2.872   4.688   0.108  0.2158  0.6811  0.1772
 9926SOL     OW40456   4.075   7.103   2.480  0.1344  0.4981  0.2791
 9926SOL    HW140457   4.141   7.127   2.551  0.4315  2.3308 -0.5909
 9926SOL    HW240458   4.091   7.160   2.399 -0.8248 -0.8878 -0.9035
 9927SOL     OW40459   9.732   1.379   4.084  0.1095  0.8270 -0.0584
 9927SOL    HW140460   9.760   1.352   3.991 -1.1565 -1.4877  0.2078
 9927SOL    HW240461   9.634   1.365   4.095  0.0436  2.1840  1.2954
 9928SOL     OW40462   8.568   1.655   3.383  0.3784 -0.2796  0.3814
 9928SOL    HW140463   8.667   1.640   3.386  0.1153 -2.0490  0.9222
 9928SOL    HW240464   8.523   1.592   3.446 -1.1431  0.1440 -0.2553
 9929SOL     OW40465   2.142   9.519   1.648 -0.1463 -0.6223 -0.0678
 9929SOL    HW140466   2.185   9.608   1.632 -2.6831  0.5706 -0.5667
 9929SOL    HW240467   2.122   9.509   1.746  1.1395 -1.1444  0.1525
 9930SOL     OW40468   3.603   4.577   4.390 -0.0138 -0.2228  0.3407
 9930SOL    HW140469   3.625   4.521   4.469  0.3925 -0.2220  0.2318
 9930SOL    HW240470   3.531   4.643   4.414  1.3911  1.0211  1.2547
 9931SOL     OW40471   3.863   3.283   0.823  0.2259 -0.8096 -0.2920
 9931SOL    HW140472   3.827   3.257   0.733  0.0845 -0.6181 -0.2896
 9931SOL    HW240473   3.962   3.291   0.818  0.2068 -0.6795 -0.4616
 9932SOL     OW40474   9.580   6.887   2.037  0.2079 -0.2908  0.2182
 9932SOL    HW140475   9.488   6.853   2.058  0.8821 -2.2326  0.0873
 9932SOL    HW240476   9.618   6.932   2.117 -0.1482 -1.0995  0.8456
 9933SOL     OW40477   8.395   5.742   2.060 -0.3954 -0.6878 -0.3732
 9933SOL    HW140478   8.443   5.726   2.146 -0.9428  0.1599  0.1036
 9933SOL    HW240479   8.297   5.731   2.075 -0.3493 -2.4600 -1.3537
 9934SOL     OW40480   8.953   8.504   1.184  0.0314  0.2949  0.3350
 9934SOL    HW140481   8.908   8.562   1.116  1.1608  0.8003  0.0089
 9934SOL    HW240482   8.941   8.408   1.158  0.9335  0.4997 -0.8975
 9935SOL     OW40483   0.374   5.557   1.576  0.5408  0.6941  0.2745
 9935SOL    HW140484   0.359   5.596   1.485 -0.9489  0.2815  0.3301
 9935SOL    HW240485   0.335   5.465   1.580  2.0429  0.0685  0.8341
 9936SOL     OW40486   0.344   2.214   2.495 -0.0086 -0.1100  0.1628
 9936SOL    HW140487   0.342   2.130   2.439 -2.2177  0.9410 -1.4133
 9936SOL    HW240488   0.342   2.294   2.435 -0.8712  1.0704  1.7222
 9937SOL     OW40489   0.495   8.619   3.572 -0.3937 -0.0690 -0.1432
 9937SOL    HW140490   0.421   8.677   3.606  1.0259  1.4701  0.3387
 9937SOL    HW240491   0.542   8.665   3.497 -1.0270 -1.8021 -1.6514
 9938SOL     OW40492   3.749   8.606   2.042  0.1308 -0.4207  0.4373
 9938SOL    HW140493   3.688   8.645   2.110 -0.0469  0.1830 -0.0535
 9938SOL    HW240494   3.844   8.623   2.069  0.0709 -0.7197  0.8380
 9939SOL     OW40495   4.894   1.362   1.489  0.1700  0.4425 -0.3151
 9939SOL    HW140496   4.907   1.265   1.469  0.1533  0.5584 -0.8722
 9939SOL    HW240497   4.797   1.380   1.506  0.2461  0.2563  0.3613
 9940SOL     OW40498   6.296   0.142   1.475 -0.0189  0.3398  0.4469
 9940SOL    HW140499   6.391   0.174   1.479 -0.7088  2.1656  3.5427
 9940SOL    HW240500   6.268   0.109   1.565 -1.1385 -3.9696 -1.3453
 9941SOL     OW40501   5.038   3.422   0.095  0.6314  0.3473 -0.5655
 9941SOL    HW140502   5.011   3.393   0.186  0.7343  1.2682 -0.2314
 9941SOL    HW240503   5.131   3.389   0.075  0.5078 -0.0724 -0.4463
 9942SOL     OW40504   2.503   5.317   3.914  0.6081 -0.4568 -0.4189
 9942SOL    HW140505   2.526   5.312   3.817  2.0307  0.8438 -0.1637
 9942SOL    HW240506   2.557   5.388   3.958 -1.1097  0.0133  1.0289
 9943SOL     OW40507   9.955   1.538   1.583 -0.0899 -0.0039 -0.0380
 9943SOL    HW140508   9.883   1.578   1.639  0.9649  0.7886  0.7891
 9943SOL    HW240509   9.992   1.457   1.629 -0.5795 -0.5176 -0.5486
 9944SOL     OW40510   0.890   2.500   2.934 -0.2101  0.1253 -0.3316
 9944SOL    HW140511   0.953   2.578   2.929 -0.4872  0.2787 -2.1004
 9944SOL    HW240512   0.804   2.529   2.977  0.2024  0.4392  0.2724
 9945SOL     OW40513   9.036   1.814   0.750 -0.0478 -0.5850  0.6051
 9945SOL    HW140514   9.123   1.852   0.783 -0.8508  1.6102  0.3122
 9945SOL    HW240515   8.961   1.862   0.795 -1.1288 -1.9078  0.2346
 9946SOL     OW40516   6.900   0.442   3.369  0.0630 -1.1154  0.2211
 9946SOL    HW140517   6.929   0.505   3.440 -1.7976 -0.2174  0.2219
 9946SOL    HW240518   6.947   0.354   3.380  2.7204  0.2688  0.1653
 9947SOL     OW40519   9.821   3.668   0.370 -0.3715 -0.0448  0.0613
 9947SOL    HW140520   9.847   3.715   0.454 -0.0147  0.2312 -0.1977
 9947SOL    HW240521   9.746   3.718   0.325 -0.9847 -0.5376  0.5302
 9948SOL     OW40522   5.399   7.632   1.795  0.1635 -0.3372 -1.0754
 9948SOL    HW140523   5.343   7.714   1.810  0.6663  0.2545 -2.3220
 9948SOL    HW240524   5.342   7.551   1.801 -0.2441  0.0499  0.7548
 9949SOL     OW40525   9.024   6.993   1.846 -0.3360 -0.3269 -0.1969
 9949SOL    HW140526   8.961   7.070   1.853  0.3344  0.0272  2.2641
 9949SOL    HW240527   9.013   6.933   1.925  0.5393 -1.7164 -1.1031
 9950SOL     OW40528   2.024   4.611   3.129 -0.3226 -0.0307  0.3587
 9950SOL    HW140529   2.059   4.565   3.211  0.3408  0.3502  0.2938
 9950SOL    HW240530   2.078   4.581   3.050  0.9107  1.7830  0.4985
 9951SOL     OW40531   1.302   5.797   0.316 -0.6491  0.2532 -0.1743
 9951SOL    HW140532   1.382   5.856   0.308 -0.4745 -0.3260 -3.6640
 9951SOL    HW240533   1.270   5.796   0.410  1.3592  3.2490  0.6087
 9952SOL     OW40534   0.254   3.526   0.914 -0.1128  0.1363 -0.5050
 9952SOL    HW140535   0.255   3.443   0.969 -0.0494  0.3445 -0.1917
 9952SOL    HW240536   0.302   3.510   0.828  2.3993  0.6589  0.7343
 9953SOL     OW40537   3.916   2.808   4.162  0.4074  0.5143 -0.2900
 9953SOL    HW140538   3.884   2.819   4.068 -1.3455  1.4234  0.3871
 9953SOL    HW240539   3.912   2.711   4.187 -0.5253  0.4437 -0.6839
 9954SOL     OW40540   1.703   5.288   1.626 -0.1092 -0.1488 -0.1625
 9954SOL    HW140541   1.788   5.260   1.581  0.6644  0.8263  0.6530
 9954SOL    HW240542   1.704   5.387   1.639 -3.1824  0.4901 -3.8305
 9955SOL     OW40543   5.010   9.799   1.579 -0.0145 -0.7788  0.0201
 9955SOL    HW140544   4.980   9.879   1.632  0.3829  0.2695 -1.3030
 9955SOL    HW240545   4.943   9.778   1.509  0.5572 -0.7257 -0.5509
 9956SOL     OW40546   4.473   8.387   1.378 -0.0249  0.3913  0.0053
 9956SOL    HW140547   4.382   8.379   1.419 -0.1185  0.4434 -0.1927
 9956SOL    HW240548   4.479   8.473   1.327  0.1352  0.3870  0.0189
 9957SOL     OW40549   9.496   5.382   1.413 -0.2786 -0.3241 -0.1139
 9957SOL    HW140550   9.587   5.384   1.371 -0.3478 -1.1620 -0.3181
 9957SOL    HW240551   9.505   5.365   1.511 -0.1775  0.3932  0.0007
 9958SOL     OW40552   3.757   8.039   2.644  0.3529 -0.7116  0.3139
 9958SOL    HW140553   3.791   8.094   2.568  2.0040 -2.3631 -0.2102
 9958SOL    HW240554   3.664   8.007   2.624  1.7347 -3.3848 -2.3519
 9959SOL     OW40555   8.458   2.403   2.716  0.2217  0.2704  1.1931
 9959SOL    HW140556   8.522   2.339   2.759 -0.7789 -1.8854 -0.4699
 9959SOL    HW240557   8.366   2.365   2.720 -0.4215  1.7193  0.3515
 9960SOL     OW40558   2.212   5.126   3.382  0.0609  0.0443  0.0510
 9960SOL    HW140559   2.214   5.225   3.391 -0.1485  0.0493  0.0487
 9960SOL    HW240560   2.164   5.101   3.297  2.0903 -0.0044 -1.1143
 9961SOL     OW40561   2.150   9.075   3.280 -0.4183  0.3482 -0.3951
 9961SOL    HW140562   2.091   9.007   3.324 -0.1242 -0.3607 -1.0912
 9961SOL    HW240563   2.097   9.159   3.264 -1.4771 -0.5462 -1.7153
 9962SOL     OW40564   7.232   1.366   2.416  0.2954  0.1962 -0.3350
 9962SOL    HW140565   7.304   1.361   2.486 -0.6426 -0.7583  0.5675
 9962SOL    HW240566   7.149   1.405   2.457 -0.4118 -0.8300 -0.7860
 9963SOL     OW40567   8.040   5.322   3.613  0.2755  0.3656  0.1289
 9963SOL    HW140568   8.086   5.351   3.697  0.2163 -0.6674  0.5326
 9963SOL    HW240569   8.054   5.224   3.600 -1.7360  0.0410  0.2116
 9964SOL     OW40570   4.887   7.669   2.909 -0.6814  0.3837  0.8375
 9964SOL    HW140571   4.857   7.647   2.816  0.8322 -0.6826  0.5773
 9964SOL    HW240572   4.885   7.768   2.922 -4.6710  0.3347  1.0007
 9965SOL     OW40573   8.621   8.868   1.355  0.5904  0.1881  0.4423
 9965SOL    HW140574   8.594   8.965   1.358  0.7691  0.2263  1.0332
 9965SOL    HW240575   8.573   8.818   1.427 -1.4374 -0.6850 -1.4539
 9966SOL     OW40576   8.365   0.101   2.511  0.3943  0.3500  0.3215
 9966SOL    HW140577   8.303   0.045   2.566 -2.0564  0.9503 -1.7269
 9966SOL    HW240578   8.344   0.198   2.525 -0.0199  0.5202 -1.3465
 9967SOL     OW40579   1.963   8.774   2.222 -0.7007  0.1931 -0.0342
 9967SOL    HW140580   1.937   8.793   2.316 -0.3410 -2.1123  0.5546
 9967SOL    HW240581   2.061   8.791   2.210 -1.1510  2.5739 -0.5770
 9968SOL     OW40582   2.594   9.833   1.657 -0.1326  0.0814  0.1550
 9968SOL    HW140583   2.574   9.928   1.681  0.3362  0.0777  0.5711
 9968SOL    HW240584   2.657   9.794   1.725  0.2936 -0.2848 -0.4474
 9969SOL     OW40585   4.997   7.396   2.719 -0.5545 -0.5974 -0.0816
 9969SOL    HW140586   4.914   7.452   2.721  0.1605  0.5102 -0.6354
 9969SOL    HW240587   5.064   7.439   2.659  0.5322 -1.3297  0.5933
 9970SOL     OW40588   0.026   0.503   2.215 -0.0643  0.5361  0.0855
 9970SOL    HW140589   0.119   0.482   2.244  0.1151  1.0532 -0.1126
 9970SOL    HW240590  -0.007   0.431   2.154 -0.2752 -0.3174  1.1820
 9971SOL     OW40591   1.103   2.678   2.945  0.4980 -0.0482  0.0805
 9971SOL    HW140592   1.052   2.764   2.947 -0.3238 -0.5398  1.3836
 9971SOL    HW240593   1.201   2.697   2.941  0.2648  0.9233 -1.1966
 9972SOL     OW40594   8.282   6.123   2.238  0.3662 -0.3468  0.0651
 9972SOL    HW140595   8.213   6.085   2.300  0.7742 -1.6821 -0.2629
 9972SOL    HW240596   8.369   6.133   2.286  0.3842 -0.3179  0.0261
 9973SOL     OW40597   4.264   2.979   2.202 -0.2237  0.6869  0.3345
 9973SOL    HW140598   4.311   3.032   2.273 -1.0896  2.5206 -0.4341
 9973SOL    HW240599   4.169   2.964   2.229  0.3924 -1.8456  1.2535
 9974SOL     OW40600   8.139   0.070   0.868  0.0821 -0.1840  0.0663
 9974SOL    HW140601   8.098   0.120   0.791 -1.2653 -0.2589  0.7109
 9974SOL    HW240602   8.076   0.074   0.947 -0.2448 -3.2555  0.0007
 9975SOL     OW40603   2.664   4.830   4.057  0.2851  0.4849 -0.1270
 9975SOL    HW140604   2.758   4.811   4.029  0.5755  0.2908  0.9532
 9975SOL    HW240605   2.626   4.751   4.104  0.0481  1.0397  0.6256
 9976SOL     OW40606   1.894   4.252   2.078  0.4979  0.5522  0.6321
 9976SOL    HW140607   1.917   4.243   1.982 -0.9796 -0.1935  0.3269
 9976SOL    HW240608   1.959   4.199   2.133 -0.4716 -1.5936 -0.2068
 9977SOL     OW40609   3.944   6.878   2.375  0.1318 -0.2895  0.3341
 9977SOL    HW140610   3.846   6.865   2.382  0.0372 -1.3277 -2.4979
 9977SOL    HW240611   3.967   6.973   2.397 -1.5750  0.1247  0.3291
 9978SOL     OW40612   0.192   2.842   0.882 -0.2736 -1.2118  0.7156
 9978SOL    HW140613   0.199   2.841   0.782  0.6535  0.1437  0.7549
 9978SOL    HW240614   0.113   2.789   0.910 -0.6928 -1.3928 -0.7609
 9979SOL     OW40615   1.133   7.052   4.456 -0.1240  0.4557 -0.0950
 9979SOL    HW140616   1.139   6.998   4.373  1.8964  1.0230 -0.3349
 9979SOL    HW240617   1.078   7.134   4.439 -1.0099 -0.2047 -0.4336
 9980SOL     OW40618   8.455   1.787   1.717  0.0265  0.5252  1.0343
 9980SOL    HW140619   8.437   1.834   1.804 -1.7745  0.1478  0.8906
 9980SOL    HW240620   8.397   1.706   1.710  0.4749  0.3068 -0.3261
 9981SOL     OW40621   4.360   7.197   3.978  0.2950 -0.0396 -0.0583
 9981SOL    HW140622   4.438   7.177   4.037  1.0334  1.0534 -0.6320
 9981SOL    HW240623   4.382   7.169   3.885 -1.5369 -3.3786  0.4526
 9982SOL     OW40624   4.530   1.437   4.586 -0.1744 -0.0212 -0.0161
 9982SOL    HW140625   4.533   1.455   4.487  0.6153 -0.8864 -0.1551
 9982SOL    HW240626   4.623   1.439   4.623 -0.4884  0.4806  0.7428
 9983SOL     OW40627   0.118   2.132   2.649 -0.1863  0.1592 -0.1947
 9983SOL    HW140628   0.179   2.135   2.570  0.6614  1.2931  0.4902
 9983SOL    HW240629   0.122   2.219   2.698  0.3676 -0.9996  1.9071
 9984SOL     OW40630   7.591   9.197   0.372  0.1265  0.3285  0.2935
 9984SOL    HW140631   7.639   9.256   0.308  1.4017 -1.6274 -0.6086
 9984SOL    HW240632   7.657   9.149   0.430 -0.9568  1.0001  2.1243
 9985SOL     OW40633   4.492   4.271   0.833 -0.2864  0.0098 -0.2072
 9985SOL    HW140634   4.444   4.234   0.754  0.4461  1.7363 -1.4967
 9985SOL    HW240635   4.571   4.213   0.854 -0.5152 -0.4818 -0.6866
 9986SOL     OW40636   9.183   7.225   1.497 -0.1018  0.3603 -1.2113
 9986SOL    HW140637   9.271   7.239   1.450  0.4286 -0.2899 -0.4370
 9986SOL    HW240638   9.200   7.190   1.589 -1.1494  1.2490 -0.6721
 9987SOL     OW40639   9.586   9.554   0.483 -0.3852  0.4409 -0.0972
 9987SOL    HW140640   9.648   9.476   0.499  0.9336  1.5029  0.1041
 9987SOL    HW240641   9.501   9.540   0.534 -0.8301 -1.6316 -1.3572
 9988SOL     OW40642   9.413   1.200   3.665  0.1942 -0.0932 -0.2291
 9988SOL    HW140643   9.337   1.171   3.723  1.0480 -0.2807  0.8195
 9988SOL    HW240644   9.457   1.119   3.626 -1.0377  0.0843 -2.0005
 9989SOL     OW40645   1.484   4.815   0.277  0.0277  0.0562 -0.0306
 9989SOL    HW140646   1.387   4.838   0.272  0.0452  0.1382  0.0098
 9989SOL    HW240647   1.501   4.755   0.355  0.0377  0.1768  0.0582
 9990SOL     OW40648   4.158   9.703   0.137  0.1764  0.3877 -0.5849
 9990SOL    HW140649   4.132   9.731   0.230  1.3997 -0.0227 -0.1155
 9990SOL    HW240650   4.192   9.783   0.087  1.1676  0.2849 -0.1002
 9991SOL     OW40651   4.210   8.863   2.460  0.4118  0.2397  0.1855
 9991SOL    HW140652   4.131   8.831   2.512 -0.1196 -0.4021 -0.9977
 9991SOL    HW240653   4.245   8.948   2.501 -0.0910 -0.1600  1.4743
 9992SOL     OW40654   1.692   6.325   2.030  0.1304 -0.2214  0.1054
 9992SOL    HW140655   1.769   6.376   2.068  1.8090 -2.1321 -0.6410
 9992SOL    HW240656   1.716   6.292   1.939 -2.3679  0.9329 -1.0152
 9993SOL     OW40657   1.096   4.353   0.250 -0.7681 -0.2959 -0.0436
 9993SOL    HW140658   1.096   4.253   0.261 -1.3830 -0.3086 -0.1577
 9993SOL    HW240659   1.024   4.393   0.306 -0.8917  0.0415 -0.4425
 9994SOL     OW40660   5.525   1.302   2.444 -0.5174 -0.8228 -0.2261
 9994SOL    HW140661   5.622   1.277   2.444 -0.3930 -0.3450 -1.8228
 9994SOL    HW240662   5.484   1.272   2.531  1.3265  0.0788  0.9966
 9995SOL     OW40663   1.806   7.889   2.672 -0.3148 -0.3938 -0.0683
 9995SOL    HW140664   1.769   7.799   2.696 -2.2995  0.2996 -0.4942
 9995SOL    HW240665   1.885   7.909   2.730 -0.4197 -2.0160  0.6574
 9996SOL     OW40666   6.644   9.692   3.351  0.1123  0.6053 -0.0054
 9996SOL    HW140667   6.591   9.608   3.337  3.1263 -1.5439  0.8586
 9996SOL    HW240668   6.635   9.721   3.446  0.6636  0.0922  0.2074
 9997SOL     OW40669   9.049   1.886   0.174  0.2783  0.2653 -0.3031
 9997SOL    HW140670   9.095   1.938   0.245 -0.8648 -0.9222  1.3484
 9997SOL    HW240671   9.075   1.789   0.181 -0.9368 -0.0962 -0.5871
 9998SOL     OW40672   8.336   0.148   4.008  0.0322 -0.1629 -0.5890
 9998SOL    HW140673   8.291   0.104   4.086 -0.4377  3.2314  1.1497
 9998SOL    HW240674   8.433   0.126   4.009  0.5213  1.8037  2.4706
 9999SOL     OW40675   6.780   7.176   2.743  0.0534  0.1866  0.0542
 9999SOL    HW140676   6.751   7.115   2.670  0.5275 -0.1499  0.1393
 9999SOL    HW240677   6.702   7.229   2.777 -0.6440 -1.3681  0.9178
10000SOL     OW40678   0.580   9.222   3.732 -0.2352  0.1302 -0.2474
10000SOL    HW140679   0.488   9.225   3.771 -0.2666  0.4437 -0.3451
10000SOL    HW240680   0.575   9.240   3.633 -0.1055 -0.1806 -0.3121
10001SOL     OW40681   2.091   0.988   3.724  0.0843  0.7555 -0.1850
10001SOL    HW140682   2.038   1.015   3.804 -2.7167 -0.7599 -1.4430
10001SOL    HW240683   2.165   0.928   3.752  0.0960  1.4855  1.4227
10002SOL     OW40684   2.489   9.949   2.518  0.5242  0.3230  0.7257
10002SOL    HW140685   2.578   9.993   2.509  0.2995  0.6658  0.2049
10002SOL    HW240686   2.417  10.014   2.495  0.1459 -0.0220  0.9265
10003SOL     OW40687   8.810   8.949   2.102 -0.1009  0.3892  0.1533
10003SOL    HW140688   8.825   8.905   2.191 -1.1168  0.0027  0.1484
10003SOL    HW240689   8.785   9.044   2.117  0.5427  0.5420  0.2464
10004SOL     OW40690   8.978   7.169   4.538  0.0041  0.0345 -0.2706
10004SOL    HW140691   8.889   7.124   4.540 -0.5752  1.0863 -1.7499
10004SOL    HW240692   9.001   7.193   4.444  1.7694 -0.0418  0.1210
10005SOL     OW40693   7.307   9.401   3.336 -0.1171 -0.2274 -0.3617
10005SOL    HW140694   7.332   9.305   3.320 -0.3062 -0.1649 -1.0455
10005SOL    HW240695   7.297   9.416   3.434  2.5722 -0.2308 -0.0408
10006SOL     OW40696   3.920   0.317   3.199  0.2940 -0.2190  0.6086
10006SOL    HW140697   3.881   0.408   3.180  1.5355 -0.1312 -1.7570
10006SOL    HW240698   3.901   0.257   3.122  1.1089 -1.4384  1.3544
10007SOL     OW40699   0.632   0.035   3.338 -0.2246 -0.1535 -0.4483
10007SOL    HW140700   0.661   0.111   3.280 -0.3022  0.6684  0.5832
10007SOL    HW240701   0.678  -0.049   3.308  1.4101  0.6754 -0.3248
10008SOL     OW40702   7.952   9.268   1.837  0.0739  0.1137  0.6898
10008SOL    HW140703   7.855   9.267   1.861  0.0232 -1.1357  0.4695
10008SOL    HW240704   7.964   9.314   1.748 -0.4022 -0.3766  0.3694
10009SOL     OW40705   4.450   8.292   2.372  0.4528  0.0874 -0.4063
10009SOL    HW140706   4.506   8.370   2.344 -1.1934  1.5466  0.3321
10009SOL    HW240707   4.400   8.257   2.293 -0.5393  1.2031 -0.2725
10010SOL     OW40708   4.148   9.299   1.953 -0.5541 -0.0324 -0.5010
10010SOL    HW140709   4.179   9.243   2.029 -1.5271  0.1019 -0.0020
10010SOL    HW240710   4.186   9.263   1.867  1.2690  0.3658  0.1305
10011SOL     OW40711   5.598   8.046   1.645  0.0979  0.1021  0.3078
10011SOL    HW140712   5.669   7.977   1.636 -0.2465 -0.1290 -0.6520
10011SOL    HW240713   5.511   8.002   1.669  0.2774  0.3903  1.5522
10012SOL     OW40714   3.066   7.415   2.912 -0.4765 -0.0199  0.0899
10012SOL    HW140715   2.998   7.370   2.970 -0.5625 -0.1320 -0.0996
10012SOL    HW240716   3.100   7.497   2.959 -1.1651  0.3554 -0.0634
10013SOL     OW40717   1.395   5.363   1.007 -0.1488 -0.0388  0.4978
10013SOL    HW140718   1.322   5.306   0.968 -1.3270  0.9550  1.2105
10013SOL    HW240719   1.444   5.410   0.933 -0.2961 -0.6260  0.0233
10014SOL     OW40720   2.875   4.881   4.255 -0.5646 -0.4263  0.8365
10014SOL    HW140721   2.837   4.939   4.327 -0.1924  0.9247 -0.0365
10014SOL    HW240722   2.803   4.860   4.188 -0.1120  1.1662 -0.1958
10015SOL     OW40723   3.799   1.533   4.767  0.1757  0.6840  0.0551
10015SOL    HW140724   3.741   1.487   4.700 -1.0756 -0.8656  2.1254
10015SOL    HW240725   3.892   1.497   4.761  0.0889  0.5950 -0.8715
10016SOL     OW40726   2.584   2.716   1.972 -0.4507  0.3506  0.1311
10016SOL    HW140727   2.484   2.717   1.968 -0.5888 -1.5977  2.1644
10016SOL    HW240728   2.613   2.737   2.066  0.9104 -2.3741  0.3735
10017SOL     OW40729   6.204   9.188   3.690 -0.6709  0.3692 -1.0790
10017SOL    HW140730   6.127   9.238   3.651 -1.2546 -0.2559 -0.7455
10017SOL    HW240731   6.186   9.090   3.684 -1.7064  0.2655  2.5873
10018SOL     OW40732   4.141   4.627   1.310 -0.6556 -0.3219  0.0056
10018SOL    HW140733   4.061   4.574   1.285 -0.3604 -0.6188 -0.3200
10018SOL    HW240734   4.154   4.623   1.410 -0.1658 -1.5486 -0.0976
10019SOL     OW40735   8.870   6.015   2.534  0.1771 -0.5493 -0.0455
10019SOL    HW140736   8.947   6.011   2.597  1.0126 -1.0439 -1.0739
10019SOL    HW240737   8.814   5.933   2.545 -0.8224  0.3162  1.4570
10020SOL     OW40738   1.008   7.286   1.955 -0.5383  0.5568 -0.1420
10020SOL    HW140739   1.081   7.335   2.002 -0.9106 -0.3279  1.3983
10020SOL    HW240740   1.046   7.225   1.887  0.1475  0.1508  0.6086
10021SOL     OW40741   9.368   3.509   2.877  0.7236 -0.3829  0.5314
10021SOL    HW140742   9.271   3.493   2.861  0.8928 -0.8801  0.0133
10021SOL    HW240743   9.385   3.514   2.976  0.4186 -1.7741  0.6571
10022SOL     OW40744   9.871   9.205   1.808  0.5824 -0.0746  1.0659
10022SOL    HW140745   9.939   9.132   1.811  1.6893  0.8636 -0.5384
10022SOL    HW240746   9.791   9.178   1.862  1.3417 -2.0734  1.2336
10023SOL     OW40747   1.990   7.480   3.038  0.2858 -0.3457 -0.2358
10023SOL    HW140748   1.935   7.531   2.973 -0.2847 -0.1242  0.4220
10023SOL    HW240749   2.086   7.480   3.008  0.4836  2.0242  0.3156
10024SOL     OW40750   9.896   4.638   1.174 -0.0126  0.3678 -0.5890
10024SOL    HW140751   9.919   4.567   1.240  0.2860  2.8125  2.0357
10024SOL    HW240752   9.797   4.642   1.162 -0.0526 -0.2205 -0.4685
10025SOL     OW40753   2.494   5.608   1.347  0.6623  0.5783  0.3740
10025SOL    HW140754   2.533   5.592   1.438  2.7237  0.6318 -0.4522
10025SOL    HW240755   2.500   5.524   1.293  0.5606  0.8604 -0.0834
10026SOL     OW40756   7.286   9.091   0.068  0.5178 -0.2172  0.0431
10026SOL    HW140757   7.384   9.081   0.086  0.5097 -1.8981 -0.7244
10026SOL    HW240758   7.266   9.060  -0.025 -0.5091  1.6439 -0.3819
10027SOL     OW40759   2.513   9.250   1.805 -0.7521  0.5294 -0.0546
10027SOL    HW140760   2.610   9.229   1.793 -0.8539 -0.0278  0.1000
10027SOL    HW240761   2.504   9.336   1.856 -0.3227  2.1907 -2.6665
10028SOL     OW40762   2.667   1.167   1.514  0.7396  0.2511  0.6465
10028SOL    HW140763   2.743   1.137   1.457  0.5712 -1.0118  1.0745
10028SOL    HW240764   2.687   1.257   1.552  1.4252  0.5210 -0.3410
10029SOL     OW40765   2.091   9.580   4.100  0.0058 -0.2960 -0.8190
10029SOL    HW140766   2.141   9.624   4.174 -0.8881  0.8270 -0.8669
10029SOL    HW240767   2.155   9.543   4.033  0.8200 -1.3279  0.5146
10030SOL     OW40768   9.189   6.756   4.668  0.3720  0.0365  0.6334
10030SOL    HW140769   9.202   6.772   4.766  0.7199  0.7957  0.4657
10030SOL    HW240770   9.269   6.790   4.618 -0.6167  1.3861 -0.0764
10031SOL     OW40771   7.891   5.249   3.056 -0.4944  0.8464  0.3050
10031SOL    HW140772   7.850   5.286   2.973 -0.8416 -1.5803 -0.6618
10031SOL    HW240773   7.982   5.213   3.035 -0.5947  0.1988  0.9511
10032SOL     OW40774   2.611   9.042   0.087  0.4751 -0.2707  0.2611
10032SOL    HW140775   2.568   8.995   0.010 -0.0427 -1.4578  1.2652
10032SOL    HW240776   2.600   9.141   0.077  0.4878 -0.4164 -1.2263
10033SOL     OW40777   8.559   8.328   0.935 -0.0826  0.4349  0.2886
10033SOL    HW140778   8.611   8.311   1.019  0.5595 -1.9682 -0.5597
10033SOL    HW240779   8.528   8.241   0.897 -1.0379  1.5573 -1.5479
10034SOL     OW40780   3.364   1.903   2.299 -0.0051  0.2695 -0.5729
10034SOL    HW140781   3.266   1.906   2.321  0.8214  1.0855  3.3999
10034SOL    HW240782   3.388   1.813   2.262 -2.2619  0.1528 -1.8481
10035SOL     OW40783   9.149   8.837   2.721 -0.1962  0.2764 -0.1892
10035SOL    HW140784   9.210   8.798   2.653 -0.2128  1.1348 -0.6970
10035SOL    HW240785   9.191   8.918   2.762 -0.9822  0.8832 -0.5570
10036SOL     OW40786   0.026   8.166   0.291  0.2280 -0.0412  0.0564
10036SOL    HW140787  -0.001   8.072   0.271  0.1635 -0.1282  0.5613
10036SOL    HW240788   0.118   8.167   0.331  0.0464  0.0753  0.4697
10037SOL     OW40789   2.693   2.334   0.412  0.8786 -0.2699 -0.2451
10037SOL    HW140790   2.748   2.260   0.373 -0.1252 -1.5286  0.6985
10037SOL    HW240791   2.715   2.420   0.365  0.9903 -1.4115 -2.3340
10038SOL     OW40792   1.948   7.795   2.081 -0.4768  0.3473 -0.4404
10038SOL    HW140793   1.857   7.791   2.123 -1.2439  0.4318 -2.0605
10038SOL    HW240794   1.995   7.877   2.112 -0.5019 -0.2822  1.3000
10039SOL     OW40795   0.589   2.852   3.737 -0.4846 -0.1336  0.0052
10039SOL    HW140796   0.627   2.888   3.652 -0.6751 -0.0678 -0.0521
10039SOL    HW240797   0.577   2.926   3.803  1.2652 -0.4544  0.6964
10040SOL     OW40798   9.112   7.042   0.236  0.3146 -0.2763 -0.2873
10040SOL    HW140799   9.141   7.136   0.218  0.9235 -0.8428 -2.3825
10040SOL    HW240800   9.021   7.027   0.199 -0.3803 -0.1172  1.3191
10041SOL     OW40801   2.689   4.135   2.178 -0.1909  0.4668 -0.2735
10041SOL    HW140802   2.739   4.061   2.135 -1.1431  0.6312 -1.7170
10041SOL    HW240803   2.672   4.113   2.274  1.0392 -0.3896 -0.2417
10042SOL     OW40804   9.673   9.471   2.282 -0.0721  0.3647 -0.0934
10042SOL    HW140805   9.582   9.511   2.286 -0.5135 -0.6731  0.2676
10042SOL    HW240806   9.727   9.519   2.213 -0.9247  0.9087 -0.3897
10043SOL     OW40807   0.356   7.586   1.851 -0.1642  0.1468  0.1464
10043SOL    HW140808   0.322   7.555   1.763 -1.8170  1.5456  0.2633
10043SOL    HW240809   0.446   7.545   1.869  1.1167  1.3706 -3.0995
10044SOL     OW40810   9.479   1.745   0.072 -0.4074  0.5837  0.4985
10044SOL    HW140811   9.549   1.674   0.077 -0.7933  0.2216  0.8408
10044SOL    HW240812   9.508   1.824   0.126 -0.1539  0.5344  0.4359
10045SOL     OW40813   9.176   2.875   2.179  0.1764  0.2825  0.2539
10045SOL    HW140814   9.156   2.854   2.274  0.6037 -0.6338  0.1386
10045SOL    HW240815   9.273   2.898   2.169 -0.1255  1.6418  0.2551
10046SOL     OW40816   7.228   8.941   3.943 -0.0890 -0.2247  0.0165
10046SOL    HW140817   7.144   8.996   3.952 -0.3586 -0.6796  0.2855
10046SOL    HW240818   7.305   9.001   3.924 -0.3159  0.2886  0.7068
10047SOL     OW40819   8.181   5.974   0.281 -0.0444 -0.3970 -0.2219
10047SOL    HW140820   8.136   6.025   0.354 -0.8703 -0.8188 -0.4390
10047SOL    HW240821   8.266   6.022   0.255 -0.3754  0.4101  0.1610
10048SOL     OW40822   8.871   6.301   3.033  0.2170  0.0913 -0.0285
10048SOL    HW140823   8.778   6.325   3.063 -0.3602 -1.4101 -0.5898
10048SOL    HW240824   8.892   6.350   2.949 -0.9234 -1.2346 -1.1222
10049SOL     OW40825   7.112   9.876   2.474 -0.0932  0.4567 -0.7142
10049SOL    HW140826   7.136   9.783   2.447 -0.2213 -0.4091  1.9681
10049SOL    HW240827   7.013   9.890   2.462 -0.4859 -0.5758  1.0337
10050SOL     OW40828   9.794   0.841   1.358  0.1740 -0.3672 -0.1980
10050SOL    HW140829   9.851   0.922   1.370  0.2624 -0.0152 -2.7023
10050SOL    HW240830   9.698   0.867   1.365  0.2246 -0.5386  1.5674
10051SOL     OW40831   3.862   0.710   0.100  0.0108 -0.2702  0.0545
10051SOL    HW140832   3.788   0.643   0.111 -0.3021  0.0407 -0.1587
10051SOL    HW240833   3.950   0.664   0.112 -0.2818  0.1155  4.5252
10052SOL     OW40834   1.838   5.314   3.923  0.4992  0.2130  0.3933
10052SOL    HW140835   1.801   5.305   3.831  1.1349  0.9547  0.0631
10052SOL    HW240836   1.895   5.396   3.929 -0.6955  0.9718  1.8438
10053SOL     OW40837   9.477   6.620   2.313  0.0553  0.0118 -0.3011
10053SOL    HW140838   9.406   6.674   2.267 -0.5435 -1.1116 -0.6996
10053SOL    HW240839   9.566   6.662   2.296 -0.5778  1.9458  0.9255
10054SOL     OW40840   9.408   0.034   2.287 -0.2236  0.4202 -0.4058
10054SOL    HW140841   9.336  -0.020   2.330  0.9603  0.6809  2.0005
10054SOL    HW240842   9.494  -0.018   2.288  0.6447  1.8235  0.8473
10055SOL     OW40843   4.235   3.755   1.991  0.1469  0.1734 -0.6898
10055SOL    HW140844   4.319   3.701   1.980  0.0881  0.2574 -1.5975
10055SOL    HW240845   4.216   3.804   1.905 -0.3577  0.8325 -0.2030
10056SOL     OW40846   0.458   7.836   3.096 -0.0813 -0.6515 -0.7116
10056SOL    HW140847   0.454   7.799   3.188 -0.4844 -1.6744 -1.1307
10056SOL    HW240848   0.369   7.827   3.052 -0.0759  0.4673 -0.9588
10057SOL     OW40849   3.842   1.030   2.529  0.5895 -0.2771 -0.1282
10057SOL    HW140850   3.857   0.933   2.548  0.0798 -0.5735 -1.1533
10057SOL    HW240851   3.796   1.073   2.607  2.7283 -0.3551  1.2023
10058SOL     OW40852   1.984   3.290   2.870  0.1874 -0.2967 -0.7722
10058SOL    HW140853   1.976   3.235   2.954  2.0406  0.4883 -0.0614
10058SOL    HW240854   2.033   3.237   2.801  3.5357  1.0408  0.4952
10059SOL     OW40855   2.452   2.428   4.213  0.1827 -0.1518 -0.5083
10059SOL    HW140856   2.450   2.525   4.238 -1.3446 -0.2360 -0.2544
10059SOL    HW240857   2.472   2.373   4.295  1.5275 -0.0352 -0.7445
10060SOL     OW40858   3.397   2.676   1.278  0.1080 -0.1489  0.4363
10060SOL    HW140859   3.350   2.759   1.309 -0.7483  0.4636 -2.3883
10060SOL    HW240860   3.495   2.692   1.275  0.0700  0.2824  1.3043
10061SOL     OW40861   3.684   7.091   0.693  0.3068  0.4780  0.1311
10061SOL    HW140862   3.758   7.157   0.697 -0.6350  1.5756 -0.2344
10061SOL    HW240863   3.715   7.008   0.647  1.2336  1.0245 -0.2294
10062SOL     OW40864   0.915   3.076   3.834  0.2764 -0.1375 -0.2789
10062SOL    HW140865   0.939   3.039   3.924 -2.0614  1.8310  1.2551
10062SOL    HW240866   0.961   3.164   3.821  0.7523 -0.5069 -1.0775
10063SOL     OW40867   5.626   6.724   2.918  0.5147  0.1870 -0.0846
10063SOL    HW140868   5.567   6.787   2.868  1.1336  1.9585  1.3361
10063SOL    HW240869   5.590   6.631   2.912  1.0207  0.1635 -4.5010
10064SOL     OW40870   3.242   7.283   3.893  0.7186 -0.8585 -0.2768
10064SOL    HW140871   3.190   7.365   3.867 -0.0007 -1.3022 -0.2505
10064SOL    HW240872   3.302   7.256   3.818  2.2253  0.6802  0.3375
10065SOL     OW40873   0.025   7.011   1.815 -0.4695 -0.1417 -0.3139
10065SOL    HW140874   0.041   7.082   1.746  2.1758 -0.5111 -0.1393
10065SOL    HW240875  -0.045   7.042   1.879 -0.1550  1.8381 -0.8846
10066SOL     OW40876   2.637   5.119   1.619  0.5206  0.3135  0.1254
10066SOL    HW140877   2.553   5.162   1.585  0.9484  1.9247  1.0272
10066SOL    HW240878   2.615   5.050   1.687 -0.0745  0.5360  0.1544
10067SOL     OW40879   3.942   1.274   4.573 -0.0153 -0.0330  0.3081
10067SOL    HW140880   3.979   1.340   4.639 -0.6657  0.2921  0.3488
10067SOL    HW240881   3.855   1.239   4.607 -0.5769  0.4770 -0.5950
10068SOL     OW40882   9.795   4.074   1.861  0.1001  0.6433 -0.3118
10068SOL    HW140883   9.799   4.067   1.961  1.0629  1.8283 -0.2601
10068SOL    HW240884   9.700   4.064   1.831 -0.3129  1.1704  0.7890
10069SOL     OW40885   1.148   8.624   1.690  0.0419 -0.2438  0.1495
10069SOL    HW140886   1.086   8.693   1.728  0.1797  0.7571 -1.3954
10069SOL    HW240887   1.147   8.630   1.590  2.9827  0.1147  0.0842
10070SOL     OW40888   3.890   2.536   4.355 -0.5799  0.7830 -0.3770
10070SOL    HW140889   3.876   2.555   4.452  0.5381  1.2252 -0.2941
10070SOL    HW240890   3.801   2.527   4.309 -1.1089  1.2640  0.5480
10071SOL     OW40891   2.933   8.477   4.294 -0.1360  0.2480  0.4176
10071SOL    HW140892   2.958   8.381   4.308 -1.0465  0.1591  1.5844
10071SOL    HW240893   2.843   8.482   4.251  0.0994  0.5759 -0.0387
10072SOL     OW40894   9.825   4.456   0.594  0.1814  0.6199  0.0136
10072SOL    HW140895   9.772   4.475   0.677  1.4834  1.7981  0.6081
10072SOL    HW240896   9.917   4.424   0.620 -0.2817 -1.5994 -1.0017
10073SOL     OW40897   7.410   0.267   3.030 -0.4566 -0.2731  0.6822
10073SOL    HW140898   7.342   0.194   3.046  0.3148 -1.0703  0.3789
10073SOL    HW240899   7.408   0.294   2.934 -0.2127 -0.4409  0.6281
10074SOL     OW40900   8.325   0.967   0.572  0.5244  0.8957 -0.2437
10074SOL    HW140901   8.270   0.932   0.648  0.1241  0.5572 -0.6855
10074SOL    HW240902   8.381   0.894   0.534 -1.6811  0.2249 -2.3567
10075SOL     OW40903   1.746   2.504   4.433 -0.7270 -0.1405  0.2124
10075SOL    HW140904   1.763   2.407   4.451 -1.5119 -0.2662  0.3022
10075SOL    HW240905   1.668   2.535   4.487 -1.5302  0.1090 -1.0409
10076SOL     OW40906   9.288   8.489   2.875  0.0393 -0.0159 -0.2569
10076SOL    HW140907   9.346   8.473   2.795 -1.5539  0.8823 -1.6219
10076SOL    HW240908   9.202   8.440   2.864 -0.1599  0.0535  0.9511
10077SOL     OW40909   6.225   8.080   2.888  0.1064  0.2788  0.1352
10077SOL    HW140910   6.132   8.117   2.885  0.2358  0.6661  0.8814
10077SOL    HW240911   6.290   8.147   2.852  0.3310  0.7684  1.4195
10078SOL     OW40912   0.964   4.064   4.704 -0.5301  0.6902 -0.4905
10078SOL    HW140913   0.930   4.097   4.616 -1.6148 -0.2837 -0.4468
10078SOL    HW240914   0.914   4.109   4.778 -1.2972 -0.2764 -0.4158
10079SOL     OW40915   8.706   3.023   1.339 -0.3760  0.7814 -0.6886
10079SOL    HW140916   8.624   2.972   1.363 -0.8586  1.8988  0.1002
10079SOL    HW240917   8.771   3.018   1.415 -0.8251  2.1355 -0.2022
10080SOL     OW40918   8.948   3.026   2.112 -0.8886 -0.1894 -0.1985
10080SOL    HW140919   8.876   3.037   2.180  0.4297  0.2891  1.1385
10080SOL    HW240920   9.011   2.954   2.140 -1.2569 -1.1240 -1.7330
10081SOL     OW40921   3.982   7.721   3.542 -0.1756 -0.0666 -0.1771
10081SOL    HW140922   4.052   7.649   3.541  2.1536  2.0190  3.1904
10081SOL    HW240923   3.923   7.709   3.622  1.2798  2.6646  1.3482
10082SOL     OW40924   0.333   6.060   1.990 -0.3285  0.2043 -0.2456
10082SOL    HW140925   0.277   6.136   2.022  0.1515 -0.3821  2.0999
10082SOL    HW240926   0.284   5.974   2.005  0.5491 -0.1938  0.4103
10083SOL     OW40927   8.032   1.568   0.218  0.1101 -0.1383  0.4391
10083SOL    HW140928   7.961   1.638   0.216  0.3736  0.2010  1.9575
10083SOL    HW240929   8.049   1.540   0.313  0.9621 -1.2802 -0.0299
10084SOL     OW40930   8.311   6.007   1.995 -0.3734 -0.1772  0.3186
10084SOL    HW140931   8.331   5.915   2.027 -2.2519 -0.4298  0.8066
10084SOL    HW240932   8.302   6.069   2.073  1.4763  0.5806 -0.0239
10085SOL     OW40933   2.263   2.135   4.171 -0.5088 -0.2083  0.3412
10085SOL    HW140934   2.209   2.082   4.106 -0.5138  0.4693 -0.2084
10085SOL    HW240935   2.205   2.204   4.215  0.1164  1.2219 -1.0126
10086SOL     OW40936   1.080   8.339   0.483  0.2752 -0.0283  0.0907
10086SOL    HW140937   1.085   8.411   0.413 -1.4432 -0.1304 -0.1515
10086SOL    HW240938   1.025   8.263   0.449  0.9524 -0.8800  0.8701
10087SOL     OW40939   8.072   5.896   4.465  0.2664 -0.2451 -0.0910
10087SOL    HW140940   8.159   5.904   4.514  0.2224 -0.4223  0.0129
10087SOL    HW240941   8.022   5.817   4.498  1.1916 -1.6368 -1.8795
10088SOL     OW40942   0.452   2.319   4.140  0.0368  0.1129 -0.3989
10088SOL    HW140943   0.366   2.282   4.173  0.2079  0.6395  0.6917
10088SOL    HW240944   0.466   2.411   4.179  1.0599  0.0509 -0.5932
10089SOL     OW40945   4.359   3.027   1.761 -0.0905 -0.4562  0.2914
10089SOL    HW140946   4.359   3.081   1.846 -2.4492 -0.8953  0.6128
10089SOL    HW240947   4.397   2.936   1.779  0.5644 -0.1341  0.5727
10090SOL     OW40948   6.144   0.071   0.802  0.0826  0.3438 -0.2319
10090SOL    HW140949   6.045   0.076   0.792  0.3429  0.5107 -2.9977
10090SOL    HW240950   6.167   0.047   0.897 -2.5693  0.4493  0.4692
10091SOL     OW40951   4.773   1.009   1.445 -0.1489 -0.9780  0.2198
10091SOL    HW140952   4.858   1.025   1.494 -0.0881  0.2982 -0.2906
10091SOL    HW240953   4.696   1.014   1.510 -0.0083 -0.0422  0.3144
10092SOL     OW40954   3.188   8.060   3.389 -0.2558  0.6026  0.2987
10092SOL    HW140955   3.287   8.069   3.375 -0.0641 -0.0802  1.1936
10092SOL    HW240956   3.166   7.966   3.415 -1.1120  0.8213  0.3859
10093SOL     OW40957   3.653   7.961   0.886  0.1024 -0.2928  0.0068
10093SOL    HW140958   3.749   7.974   0.909  0.1697 -2.0836  0.8356
10093SOL    HW240959   3.642   7.959   0.787  0.8240  0.6175 -0.0901
10094SOL     OW40960   9.607   7.486   4.702  0.0495 -0.1229 -0.8587
10094SOL    HW140961   9.633   7.554   4.771 -0.7157 -0.3670 -0.3272
10094SOL    HW240962   9.690   7.444   4.665  0.4418 -0.7343  0.6563
10095SOL     OW40963   2.414   3.768   3.040  0.0420 -0.1905 -0.3875
10095SOL    HW140964   2.508   3.741   3.019  0.1473 -0.0307 -0.1299
10095SOL    HW240965   2.357   3.755   2.960  0.3219 -0.1303 -0.5983
10096SOL     OW40966   2.381   1.643   2.686 -0.4107 -0.6555  0.0842
10096SOL    HW140967   2.442   1.563   2.685  1.0643  0.4537 -1.9766
10096SOL    HW240968   2.316   1.634   2.762  1.3026 -2.6210  1.3798
10097SOL     OW40969   0.352   3.094   1.771 -0.4450  0.1573 -0.3675
10097SOL    HW140970   0.292   3.119   1.695  1.0189  0.0129 -1.5965
10097SOL    HW240971   0.372   3.175   1.826 -1.6411  0.2309 -0.0238
10098SOL     OW40972   5.017   7.615   0.713 -0.0274 -0.5078 -0.5411
10098SOL    HW140973   4.979   7.682   0.649 -1.1457  0.8225  1.4508
10098SOL    HW240974   5.100   7.651   0.754 -0.5108 -0.4329  0.3772
10099SOL     OW40975   0.370   3.352   4.425 -0.1579  0.1184 -0.0724
10099SOL    HW140976   0.325   3.349   4.336 -0.0428  2.0755 -0.2261
10099SOL    HW240977   0.308   3.394   4.492  0.3610  0.1579  0.3875
10100SOL     OW40978   5.435   6.706   2.088 -0.2021  0.1442  0.0585
10100SOL    HW140979   5.398   6.617   2.061  0.0512 -0.4548  1.6556
10100SOL    HW240980   5.471   6.701   2.181  1.7309  1.3598 -0.5838
10101SOL     OW40981   1.565   7.849   3.832 -0.3257 -0.5366  0.0365
10101SOL    HW140982   1.656   7.880   3.803 -0.4935 -0.8254 -0.8099
10101SOL    HW240983   1.496   7.892   3.775 -0.8407  0.9537  1.7198
10102SOL     OW40984   3.552   6.442   3.777 -0.1717  1.0236  0.1701
10102SOL    HW140985   3.601   6.449   3.690 -0.6349 -0.2910 -0.2191
10102SOL    HW240986   3.576   6.356   3.822 -0.7398  1.2071  0.8349
10103SOL     OW40987   5.664   6.808   2.488  0.2782  0.4889  0.1668
10103SOL    HW140988   5.600   6.784   2.560 -0.8548  0.5157 -0.8200
10103SOL    HW240989   5.657   6.742   2.413  0.3156  1.3601 -0.6103
10104SOL     OW40990   9.773   2.604   2.211  0.1081 -0.2669 -0.2384
10104SOL    HW140991   9.839   2.589   2.285  0.3259  1.0195 -0.1665
10104SOL    HW240992   9.822   2.628   2.127  0.0169 -3.9289 -1.4198
10105SOL     OW40993   8.171   0.354   3.344  0.3870 -0.5929  0.7462
10105SOL    HW140994   8.128   0.268   3.373 -2.5913  1.0308  1.3056
10105SOL    HW240995   8.161   0.422   3.416  0.8548  0.8481 -0.5428
10106SOL     OW40996   1.478   5.995   2.441  0.6523  0.2692  0.3124
10106SOL    HW140997   1.479   6.061   2.366  0.8727 -0.1425 -0.0489
10106SOL    HW240998   1.556   5.933   2.432  0.6256  0.1600  0.8290
10107SOL     OW40999   0.366   8.135   2.338  0.1675  0.3254  0.6224
10107SOL    HW141000   0.349   8.196   2.260 -0.6665 -0.1018  0.4598
10107SOL    HW241001   0.445   8.168   2.390  0.6364  0.6977 -0.3166
10108SOL     OW41002   8.120   6.994   4.507 -0.5103  0.0272 -0.4135
10108SOL    HW141003   8.180   7.060   4.462  1.4578 -0.4461  1.4481
10108SOL    HW241004   8.148   6.901   4.482  0.2006 -0.2211  1.2707
10109SOL     OW41005   3.741   1.716   0.484  0.1406  0.1569  0.8116
10109SOL    HW141006   3.779   1.702   0.393 -0.5477 -1.3568  0.7388
10109SOL    HW241007   3.809   1.761   0.542  1.6628 -1.5200  0.3673
10110SOL     OW41008   1.041   8.786   3.358 -0.6839 -0.0938 -0.0352
10110SOL    HW141009   1.096   8.749   3.283 -0.0087 -1.2976  1.0488
10110SOL    HW241010   0.975   8.851   3.321 -1.1168 -1.5051 -1.8384
10111SOL     OW41011   9.938   6.929   2.637 -0.0512 -0.0438 -0.0425
10111SOL    HW141012   9.892   6.847   2.672 -0.0061  0.6542  1.7051
10111SOL    HW241013   9.928   7.004   2.702  0.4400  1.1836 -1.3343
10112SOL     OW41014   1.374   2.725   2.878  0.0278 -0.2396  0.0199
10112SOL    HW141015   1.454   2.712   2.818  0.7676  0.6669  0.7970
10112SOL    HW241016   1.390   2.677   2.964 -0.0624  0.3403  0.3586
10113SOL     OW41017   0.743   3.914   1.290  0.1609 -0.4410 -0.2678
10113SOL    HW141018   0.764   4.012   1.281  0.1989 -0.3422  0.8584
10113SOL    HW241019   0.794   3.876   1.366 -0.8343 -1.0565  0.0951
10114SOL     OW41020   4.089   3.587   0.646  0.2131  0.2435 -0.1756
10114SOL    HW141021   4.175   3.542   0.621  0.1570 -0.6454  1.1692
10114SOL    HW241022   4.076   3.580   0.745 -0.8841  1.3135 -0.2395
10115SOL     OW41023   3.372   8.057   0.911  0.5666  0.5238 -0.0733
10115SOL    HW141024   3.455   8.008   0.881 -0.6492 -1.2708 -0.5781
10115SOL    HW241025   3.349   8.030   1.004 -0.0091  0.2529 -0.2906
10116SOL     OW41026   0.190   1.668   3.285  0.7834  0.6544 -0.3908
10116SOL    HW141027   0.217   1.725   3.208  0.0248 -0.2961 -1.3727
10116SOL    HW241028   0.270   1.623   3.324  1.4496  2.6799  0.6479
10117SOL     OW41029   8.916   1.498   0.053  0.3531  0.0577 -0.0957
10117SOL    HW141030   8.985   1.570   0.045 -1.0480  1.6459  1.6150
10117SOL    HW241031   8.956   1.419   0.100  1.0632  0.8986  0.7269
10118SOL     OW41032   2.616   1.676   3.428  0.9042 -0.1627 -0.1254
10118SOL    HW141033   2.622   1.770   3.396  2.2819 -0.0918  0.2882
10118SOL    HW241034   2.534   1.633   3.392  1.4464  0.4864 -2.1974
10119SOL     OW41035   9.654   1.484   4.766  0.1224  0.2277  0.0788
10119SOL    HW141036   9.696   1.479   4.675  2.2824  0.6661  1.0169
10119SOL    HW241037   9.725   1.476   4.836 -1.5991 -0.8245  1.7475
10120SOL     OW41038   2.198   4.976   2.447 -0.0072 -0.6139  0.2690
10120SOL    HW141039   2.249   4.890   2.443 -0.5271 -1.1112  3.1006
10120SOL    HW241040   2.246   5.046   2.394  3.1504 -1.3052  2.1054
10121SOL     OW41041   3.911   0.569   3.493  0.5692  0.1592  0.7951
10121SOL    HW141042   3.917   0.668   3.484  0.2685  0.1975  1.0120
10121SOL    HW241043   3.990   0.534   3.543  1.9869  0.0090 -1.4981
10122SOL     OW41044   2.977   4.293   4.420 -0.6880  0.0318  0.2212
10122SOL    HW141045   2.996   4.269   4.515 -0.7849  0.3604  0.3239
10122SOL    HW241046   3.062   4.314   4.373 -0.4557 -1.7749 -0.2207
10123SOL     OW41047   4.167   3.554   2.453  0.1046 -0.2331 -0.2823
10123SOL    HW141048   4.144   3.522   2.361 -0.9578 -0.0213 -0.0897
10123SOL    HW241049   4.253   3.605   2.450 -1.6425  2.7649 -1.7624
10124SOL     OW41050   2.312   1.079   3.275  0.2486  0.4075 -0.1391
10124SOL    HW141051   2.328   0.988   3.236  0.1438 -0.0702  0.9171
10124SOL    HW241052   2.215   1.092   3.292  0.4423  0.0157  1.3650
10125SOL     OW41053   8.130   6.342   1.969 -0.1703  0.4575 -0.1025
10125SOL    HW141054   8.219   6.325   1.928 -1.0427 -1.5020 -1.2406
10125SOL    HW241055   8.141   6.362   2.067  1.4448 -0.4819 -0.0817
10126SOL     OW41056   6.164   9.784   2.775 -0.0340  0.1402  0.1895
10126SOL    HW141057   6.065   9.771   2.767  0.0570 -0.1104 -0.6283
10126SOL    HW241058   6.184   9.882   2.776 -0.1341  0.2051 -2.0312
10127SOL     OW41059   8.252   4.908   0.268 -0.3541 -0.5594 -0.3696
10127SOL    HW141060   8.281   4.940   0.358  1.8507 -0.8649 -0.9316
10127SOL    HW241061   8.199   4.979   0.222 -0.3620  0.1013  0.6470
10128SOL     OW41062   2.637   7.329   1.803  0.9536  0.4914 -0.1756
10128SOL    HW141063   2.648   7.282   1.715  0.7679 -0.3167  0.2302
10128SOL    HW241064   2.562   7.394   1.796  0.6854  0.1528 -0.5087
10129SOL     OW41065   3.093   9.561   1.194 -0.2914 -0.3375  0.4365
10129SOL    HW141066   3.036   9.481   1.211 -0.2602 -0.4624 -0.0324
10129SOL    HW241067   3.034   9.640   1.176 -0.3221 -0.4766 -0.0909
10130SOL     OW41068   0.667   5.432   0.709 -0.4364  0.5062  0.1906
10130SOL    HW141069   0.691   5.424   0.612  2.0470  2.6334  0.5639
10130SOL    HW241070   0.568   5.426   0.720 -0.6239 -1.5149 -2.2653
10131SOL     OW41071   5.929   8.133   1.992  0.1386  0.0065  0.0771
10131SOL    HW141072   5.881   8.189   1.924  1.7993 -0.1581 -1.2719
10131SOL    HW241073   6.024   8.165   2.000  0.3898 -0.9765  1.1853
10132SOL     OW41074   0.679   5.091   0.475  0.4094  0.8446  0.4036
10132SOL    HW141075   0.658   5.020   0.542  0.2410 -1.8577 -2.4402
10132SOL    HW241076   0.778   5.098   0.464  0.3823  0.2065 -0.2187
10133SOL     OW41077   1.625   3.594   4.235 -0.0736  0.0141 -0.5090
10133SOL    HW141078   1.627   3.502   4.274  0.9270  0.6372  0.9000
10133SOL    HW241079   1.711   3.641   4.254 -0.0791  0.7990 -2.3307
10134SOL     OW41080   0.613   7.346   4.481  0.1276  0.0731 -0.3379
10134SOL    HW141081   0.625   7.440   4.514  0.8204  0.4834 -1.7144
10134SOL    HW241082   0.530   7.341   4.424  0.2933 -0.0625 -0.5685
10135SOL     OW41083   3.397   6.087   3.102 -0.4620 -0.5157  0.5237
10135SOL    HW141084   3.446   6.046   3.024 -2.2560  0.7589 -1.3177
10135SOL    HW241085   3.463   6.118   3.170  1.1566 -1.3415 -0.6374
10136SOL     OW41086   1.655   7.370   0.958 -0.1303 -0.0762  0.1757
10136SOL    HW141087   1.589   7.295   0.959 -0.0700 -0.1213  0.6473
10136SOL    HW241088   1.668   7.404   1.051 -1.2379  1.4461 -0.1968
10137SOL     OW41089   0.702   5.478   0.086  0.2267 -0.1181 -0.3650
10137SOL    HW141090   0.802   5.478   0.078  0.4400 -0.8282  1.8526
10137SOL    HW241091   0.671   5.385   0.105 -0.8017  0.2114 -0.4401
10138SOL     OW41092   4.293   8.892   3.277 -0.2856  0.0983  0.0243
10138SOL    HW141093   4.254   8.972   3.232 -1.8427 -1.4924 -1.4910
10138SOL    HW241094   4.336   8.833   3.208  0.1928 -0.7458  1.0373
10139SOL     OW41095   0.598   9.508   3.188 -0.0964 -0.4709 -0.0485
10139SOL    HW141096   0.539   9.526   3.268  0.1722  1.3096 -0.2236
10139SOL    HW241097   0.690   9.487   3.219  0.5961  2.5372  0.0942
10140SOL     OW41098   2.742   3.045   0.513  0.2464  0.4134  0.3609
10140SOL    HW141099   2.697   2.957   0.497  3.8369 -1.4584 -0.1369
10140SOL    HW241100   2.721   3.108   0.438  1.4260 -1.6879 -1.8151
10141SOL     OW41101   0.971   2.986   1.508 -0.0873 -0.1430  0.1018
10141SOL    HW141102   1.038   3.017   1.440 -1.0860  0.0611 -0.8004
10141SOL    HW241103   1.014   2.920   1.569  0.5218 -1.1749 -1.4105
10142SOL     OW41104   9.858   1.498   0.177  0.0652 -0.1973 -0.2661
10142SOL    HW141105   9.899   1.475   0.265 -1.0007 -1.3086 -0.0509
10142SOL    HW241106   9.883   1.591   0.152  2.3092 -0.6871  0.0890
10143SOL     OW41107   3.777   4.892   2.478  0.5195 -0.4313 -0.3860
10143SOL    HW141108   3.824   4.847   2.403  0.2004 -2.2699  0.4927
10143SOL    HW241109   3.710   4.829   2.518  0.9640  0.3728  1.6843
10144SOL     OW41110   8.721   4.691   3.456 -0.1899 -0.1187  0.6912
10144SOL    HW141111   8.782   4.672   3.379 -0.3506 -0.0777  0.5523
10144SOL    HW241112   8.666   4.772   3.434  0.0902  0.1665  1.0413
10145SOL     OW41113   4.546   0.952   3.580 -0.0781 -0.3490 -0.4572
10145SOL    HW141114   4.561   0.895   3.499  1.0844 -0.6894 -0.0109
10145SOL    HW241115   4.539   0.894   3.661  1.8064  0.1822  0.0894
10146SOL     OW41116   4.209   7.822   0.173 -0.5662 -0.5042  0.4010
10146SOL    HW141117   4.282   7.890   0.174 -0.6455 -0.4335  1.3325
10146SOL    HW241118   4.147   7.837   0.250 -0.6762 -1.5276  0.5260
10147SOL     OW41119   7.873   0.702   3.427 -0.1433  0.4353 -0.3801
10147SOL    HW141120   7.911   0.711   3.520 -0.8369 -2.2724  0.2093
10147SOL    HW241121   7.778   0.673   3.433 -0.3300  0.6900 -1.9688
10148SOL     OW41122   6.106   9.628   1.370 -0.0380  0.1416 -0.4461
10148SOL    HW141123   6.168   9.633   1.292  1.5400  1.1557  0.8563
10148SOL    HW241124   6.024   9.683   1.351  0.7056  1.0401 -1.0463
10149SOL     OW41125   9.478   6.184   4.586 -0.0402 -0.3605 -0.2448
10149SOL    HW141126   9.549   6.164   4.518 -1.4462 -2.5707 -1.1377
10149SOL    HW241127   9.521   6.206   4.674  1.7830  1.3966 -1.5229
10150SOL     OW41128   3.975   1.470   2.804 -0.2038 -0.3479 -0.0911
10150SOL    HW141129   3.954   1.527   2.725  0.2704 -0.0670 -0.0204
10150SOL    HW241130   3.891   1.432   2.843 -0.6660  1.5503  0.8043
10151SOL     OW41131   9.461   6.029   3.902  0.0619  0.3073  0.1687
10151SOL    HW141132   9.445   5.978   3.817  1.3028  1.1956 -0.6083
10151SOL    HW241133   9.470   5.966   3.978 -1.7921 -0.4708 -0.2374
10152SOL     OW41134   8.886   2.783   1.083 -0.4621  0.2483 -0.1646
10152SOL    HW141135   8.808   2.782   1.145  0.2704  0.3770  0.7766
10152SOL    HW241136   8.854   2.794   0.989 -1.5937 -0.0814  0.1736
10153SOL     OW41137   2.587   1.074   0.690 -0.0978 -0.3920 -0.1172
10153SOL    HW141138   2.537   1.159   0.708 -0.0319 -0.9184  2.8350
10153SOL    HW241139   2.529   1.010   0.640 -0.7698  0.7050 -0.7554
10154SOL     OW41140   4.330   0.834   4.118 -0.0694 -0.2530 -0.1546
10154SOL    HW141141   4.248   0.853   4.171 -0.4549 -1.4835 -0.3093
10154SOL    HW241142   4.393   0.779   4.173 -0.0004 -0.5989 -0.5794
10155SOL     OW41143   4.661   7.448   2.168 -0.0175 -0.4028 -0.4600
10155SOL    HW141144   4.715   7.515   2.119 -0.3568  1.3836  1.5184
10155SOL    HW241145   4.577   7.428   2.117  0.4720  0.0619 -1.4444
10156SOL     OW41146   4.175   3.738   3.342  0.3222  0.2999  0.1103
10156SOL    HW141147   4.158   3.814   3.279  0.8200  0.1649 -0.1939
10156SOL    HW241148   4.153   3.767   3.435  0.8555  0.9471  0.0480
10157SOL     OW41149   5.606   0.042   0.901 -0.3811  0.3865 -0.2383
10157SOL    HW141150   5.515   0.078   0.920 -0.3316 -0.2260  1.2852
10157SOL    HW241151   5.676   0.105   0.936 -0.2455  0.3760 -0.4915
10158SOL     OW41152   3.276   1.162   1.749 -0.1654 -0.3369  0.2141
10158SOL    HW141153   3.324   1.102   1.813 -0.2036 -0.4361  0.1504
10158SOL    HW241154   3.236   1.107   1.676  0.6319 -0.1333 -0.3785
10159SOL     OW41155   2.332   3.474   4.597 -0.3576 -0.3968  0.4722
10159SOL    HW141156   2.254   3.536   4.585 -0.3469 -0.1963  1.4220
10159SOL    HW241157   2.329   3.403   4.527 -0.4709  0.5672 -0.5283
10160SOL     OW41158   9.798   7.348   2.087  0.4329  0.3448  0.7051
10160SOL    HW141159   9.789   7.418   2.158  0.4518  0.1004  0.9491
10160SOL    HW241160   9.879   7.291   2.105  1.4715  1.3952 -0.4874
10161SOL     OW41161   2.487   3.757   4.320 -0.1487  0.6723  0.6467
10161SOL    HW141162   2.495   3.831   4.254 -1.0400 -0.3939 -0.6935
10161SOL    HW241163   2.519   3.672   4.278  3.7129  0.7889  3.1192
10162SOL     OW41164   3.380   5.376   3.295  0.2155  0.2560  0.6063
10162SOL    HW141165   3.468   5.399   3.336  0.6846  0.3920 -0.4479
10162SOL    HW241166   3.323   5.457   3.290  0.8822  0.6694 -0.7271
10163SOL     OW41167   1.007   0.094   4.532  0.4824 -0.6818  0.2130
10163SOL    HW141168   0.964   0.005   4.519 -0.6031 -0.0543 -0.6320
10163SOL    HW241169   1.082   0.104   4.467 -0.6194 -0.2388 -1.0230
10164SOL     OW41170   1.789   2.066   2.436  0.0624  0.3271  0.1432
10164SOL    HW141171   1.814   2.125   2.359  1.0644  1.8217  1.5646
10164SOL    HW241172   1.699   2.093   2.471  0.6324  1.2388  0.9575
10165SOL     OW41173   1.406   1.058   3.408 -0.5025  0.1337 -0.2381
10165SOL    HW141174   1.338   1.040   3.337  0.5945 -0.7604 -1.0621
10165SOL    HW241175   1.385   1.002   3.488  0.8780 -2.2694 -1.5191
10166SOL     OW41176   2.444   5.917   0.084 -0.0027  0.2361  0.5563
10166SOL    HW141177   2.485   5.946  -0.003  0.6387  1.6863  1.3334
10166SOL    HW241178   2.515   5.912   0.154 -0.2532 -2.3745  0.6785
10167SOL     OW41179   2.034   1.162   0.707 -0.2431  0.2142  0.2116
10167SOL    HW141180   2.022   1.254   0.671  0.2070  0.7119  1.3257
10167SOL    HW241181   2.016   1.096   0.634 -1.8972  1.1287 -0.2405
10168SOL     OW41182   7.886   4.553   4.205 -0.3540  0.5280  0.0269
10168SOL    HW141183   7.881   4.653   4.200  1.6824  0.6655  0.1647
10168SOL    HW241184   7.949   4.520   4.135 -0.6524 -0.6288  0.3047
10169SOL     OW41185   4.831   0.068   4.510 -0.0243  0.0985  0.2142
10169SOL    HW141186   4.856   0.154   4.555 -1.5782  1.4061 -1.3751
10169SOL    HW241187   4.895   0.051   4.435  1.4408 -1.1313  1.7207
10170SOL     OW41188   1.717   7.770   0.433  0.1659  0.0965  0.4229
10170SOL    HW141189   1.624   7.745   0.462  0.1392 -0.2591  0.0405
10170SOL    HW241190   1.712   7.849   0.371  0.0538 -0.3335 -0.1281
10171SOL     OW41191   3.942   1.382   1.656  0.1056  0.2426  0.2349
10171SOL    HW141192   3.990   1.311   1.604  1.6441 -0.0718  2.0266
10171SOL    HW241193   3.927   1.462   1.597  1.1363 -0.3967 -0.9143
10172SOL     OW41194   6.946   6.854   3.262  0.4437  0.4149  0.0643
10172SOL    HW141195   7.034   6.885   3.297  0.1809  1.0009  0.2122
10172SOL    HW241196   6.909   6.922   3.199  0.9797 -0.6964 -1.4860
10173SOL     OW41197   4.780   8.957   1.332 -0.0162  0.4080 -0.1960
10173SOL    HW141198   4.750   9.039   1.284  0.5594  0.6802 -0.0907
10173SOL    HW241199   4.798   8.979   1.428 -0.6394 -0.0165  0.0260
10174SOL     OW41200   8.152   5.590   3.227  0.2686 -0.0548 -0.4002
10174SOL    HW141201   8.188   5.663   3.285  0.7388  0.7731 -1.7171
10174SOL    HW241202   8.206   5.507   3.240  1.0415  0.4379 -0.4455
10175SOL     OW41203   9.426   9.180   0.128 -0.4150 -0.8614  0.1498
10175SOL    HW141204   9.433   9.265   0.076  1.1315  0.2404  2.1015
10175SOL    HW241205   9.341   9.133   0.104 -2.5132  2.4464  0.8467
10176SOL     OW41206   5.250   0.816   1.682  0.2929 -0.0454  0.1903
10176SOL    HW141207   5.195   0.773   1.611  2.0965  0.4194 -1.5364
10176SOL    HW241208   5.190   0.869   1.743 -1.2833 -0.4243 -0.9957
10177SOL     OW41209   3.218   8.648   0.531  0.7921 -0.2849  0.4409
10177SOL    HW141210   3.295   8.639   0.594  0.6858 -0.9703  0.4743
10177SOL    HW241211   3.156   8.570   0.542 -0.2667  0.6197  0.9016
10178SOL     OW41212   1.123   6.181   2.954  0.0730 -0.4213 -0.0412
10178SOL    HW141213   1.183   6.226   2.888  1.2310 -0.9140  0.6728
10178SOL    HW241214   1.132   6.226   3.043 -0.2564 -0.8104  0.1876
10179SOL     OW41215   9.041   8.376   2.849  0.1681  0.0797  0.2419
10179SOL    HW141216   9.066   8.319   2.927 -0.8437  1.2812  1.4665
10179SOL    HW241217   8.969   8.330   2.796  0.0358 -0.2147  0.6743
10180SOL     OW41218   8.686   2.887   0.516 -0.7878  0.2206 -0.3112
10180SOL    HW141219   8.695   2.788   0.504 -2.0688 -0.0072  0.5291
10180SOL    HW241220   8.766   2.922   0.564 -0.9512 -0.6195  0.5846
10181SOL     OW41221   8.193   3.518   0.045  0.0781  0.0827  0.2901
10181SOL    HW141222   8.260   3.470  -0.012  0.7673 -0.5679  1.6008
10181SOL    HW241223   8.139   3.580  -0.011  0.8696 -0.3919 -1.0241
10182SOL     OW41224   0.041   3.726   0.218  0.3713  0.0788  0.3497
10182SOL    HW141225   0.132   3.706   0.253  0.9167  2.5270  0.4609
10182SOL    HW241226  -0.028   3.680   0.275  1.4648 -0.0952  1.5466
10183SOL     OW41227   3.533   5.259   0.332 -0.0374 -0.1735  0.2795
10183SOL    HW141228   3.580   5.181   0.290  0.4086  0.4012 -0.3068
10183SOL    HW241229   3.440   5.231   0.358  0.1916 -0.9600  0.2867
10184SOL     OW41230   9.850   5.889   2.418 -0.0190  0.2383 -0.3677
10184SOL    HW141231   9.866   5.868   2.321 -0.5471  0.8194 -0.5839
10184SOL    HW241232   9.762   5.936   2.427  1.6542  3.4178 -0.0166
10185SOL     OW41233   2.054   7.782   4.422  0.7881  0.4408 -0.1960
10185SOL    HW141234   2.132   7.729   4.390  0.2865 -1.1788  1.2084
10185SOL    HW241235   2.084   7.874   4.448  2.3652 -0.4034  1.0337
10186SOL     OW41236   6.421   7.139   2.158 -0.1981 -0.5151  0.5011
10186SOL    HW141237   6.400   7.161   2.063  0.4452  1.5734  0.8135
10186SOL    HW241238   6.509   7.179   2.183  0.1254 -1.9313  1.6779
10187SOL     OW41239   8.870   6.888   0.578  0.0489  0.1030  0.5655
10187SOL    HW141240   8.807   6.925   0.647  1.0735  2.0465  0.4853
10187SOL    HW241241   8.922   6.963   0.537 -1.3445 -0.9064 -3.1595
10188SOL     OW41242   0.162   7.754   2.719  0.3669 -0.3823  0.2000
10188SOL    HW141243   0.164   7.809   2.802  0.0054 -0.2699  0.1360
10188SOL    HW241244   0.070   7.715   2.707  0.5890 -0.9189  0.1957
10189SOL     OW41245   1.400   6.514   4.759  0.3736 -0.9517 -0.0396
10189SOL    HW141246   1.456   6.596   4.751 -0.5522 -0.4290 -1.2363
10189SOL    HW241247   1.459   6.433   4.754  1.5382 -0.3938  3.0939
10190SOL     OW41248   9.384   7.345   2.712  0.8352 -0.0507  0.2343
10190SOL    HW141249   9.386   7.370   2.809 -0.4406 -3.1218  1.0867
10190SOL    HW241250   9.297   7.302   2.690  0.4614  2.0056 -2.6949
10191SOL     OW41251   3.687   7.040   0.098  0.1633 -0.5005 -0.2888
10191SOL    HW141252   3.615   6.971   0.093 -0.6090  0.3326 -0.9688
10191SOL    HW241253   3.716   7.064   0.005  0.3690  0.1312 -0.0664
10192SOL     OW41254   1.730   1.436   2.572  0.1050 -0.6134 -0.3421
10192SOL    HW141255   1.695   1.506   2.510  0.3169 -1.5517 -1.5353
10192SOL    HW241256   1.665   1.360   2.578 -0.0056 -0.4419  0.7403
10193SOL     OW41257   1.168   5.870   1.850 -0.0277 -0.1521 -0.2455
10193SOL    HW141258   1.234   5.796   1.836  0.2438 -0.2211  1.3286
10193SOL    HW241259   1.186   5.943   1.785 -0.4727 -1.5738 -2.0128
10194SOL     OW41260   3.151   7.582   3.477 -0.0187  0.5255 -0.0522
10194SOL    HW141261   3.092   7.663   3.481 -1.4169 -0.5779  2.9727
10194SOL    HW241262   3.113   7.517   3.411  0.0743  1.4706 -1.0733
10195SOL     OW41263   2.024   3.863   4.748  0.1141 -0.2480  0.3559
10195SOL    HW141264   1.938   3.877   4.797  0.1022 -1.8679  0.8107
10195SOL    HW241265   2.064   3.775   4.775 -0.3679 -1.6431 -3.1970
10196SOL     OW41266   5.511   0.827   3.550 -0.4049 -1.0422 -0.1199
10196SOL    HW141267   5.604   0.792   3.552  0.3248  0.7278 -1.3611
10196SOL    HW241268   5.500   0.887   3.470 -2.4910 -0.9344  0.2261
10197SOL     OW41269   1.949   2.453   0.736  0.3010  0.2187  0.2820
10197SOL    HW141270   1.913   2.360   0.737  2.7745 -0.7828 -0.0721
10197SOL    HW241271   1.967   2.483   0.830 -0.4430  0.3326  0.3924
10198SOL     OW41272   9.403   2.011   3.106 -0.0374 -0.6596 -0.0637
10198SOL    HW141273   9.490   2.016   3.058  0.1865 -3.3118  0.0477
10198SOL    HW241274   9.418   2.019   3.204  0.0822 -1.2512 -0.0364
10199SOL     OW41275   3.189   7.593   3.090  0.5771 -0.1561  0.8039
10199SOL    HW141276   3.211   7.685   3.057 -2.0856  0.0400 -0.5491
10199SOL    HW241277   3.132   7.600   3.172 -0.1023 -0.5781  0.3736
10200SOL     OW41278   1.679   1.553   1.945  0.2969 -0.3594 -0.0721
10200SOL    HW141279   1.687   1.465   1.993 -1.4476  0.0390  1.0004
10200SOL    HW241280   1.731   1.549   1.860 -0.0993 -2.5813 -0.2430
10201SOL     OW41281   4.971   9.244   4.186 -0.1825  0.2759  0.0584
10201SOL    HW141282   4.904   9.288   4.245 -0.8375  0.3048 -0.6979
10201SOL    HW241283   4.970   9.145   4.202  0.4870  0.4022  0.9397
10202SOL     OW41284   1.607   5.113   1.806  0.2061 -0.5632 -0.2223
10202SOL    HW141285   1.617   5.016   1.782 -0.0152 -0.8568  0.8433
10202SOL    HW241286   1.601   5.167   1.723  2.4149 -1.2483 -0.8490
10203SOL     OW41287   8.523   2.091   0.525  0.1844 -0.4733  0.3430
10203SOL    HW141288   8.578   2.115   0.445  1.7876  1.6108  2.0060
10203SOL    HW241289   8.493   1.996   0.518  0.5447 -0.4109 -2.5637
10204SOL     OW41290   1.561   0.267   3.810 -0.0931  0.1137  0.1963
10204SOL    HW141291   1.644   0.215   3.788 -0.3981 -0.0837 -0.5000
10204SOL    HW241292   1.513   0.290   3.725  0.3070  1.9863  0.4497
10205SOL     OW41293   0.278   4.306   4.618  0.2170  0.1051 -0.1270
10205SOL    HW141294   0.230   4.244   4.680  0.2288  0.1367 -0.0869
10205SOL    HW241295   0.241   4.398   4.629  1.7429  0.5400  1.4334
10206SOL     OW41296   1.979   0.380   3.405 -0.3118 -0.4023 -0.4290
10206SOL    HW141297   2.021   0.305   3.354 -1.1000 -0.4040 -1.1024
10206SOL    HW241298   1.889   0.400   3.366 -0.6529  0.0391  0.5645
10207SOL     OW41299   0.827   0.241   0.545  0.2207 -0.5710  0.3152
10207SOL    HW141300   0.793   0.334   0.560  2.1488  0.0935  0.7876
10207SOL    HW241301   0.865   0.234   0.452 -0.4909 -1.0693  0.0618
10208SOL     OW41302   2.323   8.331   1.456 -0.0067  0.0296 -0.0083
10208SOL    HW141303   2.294   8.307   1.548 -2.0027  0.2757 -0.5540
10208SOL    HW241304   2.359   8.250   1.410  1.6138  0.0495  1.1897
10209SOL     OW41305   9.334   7.710   0.265  0.1782 -0.1468  0.3382
10209SOL    HW141306   9.282   7.755   0.193  0.2759  2.3956  1.7920
10209SOL    HW241307   9.272   7.659   0.324 -0.3681  0.8561  0.6376
10210SOL     OW41308   8.323   7.235   0.714 -0.0767  0.4976  0.0099
10210SOL    HW141309   8.391   7.221   0.786 -0.6487  0.7809  0.6111
10210SOL    HW241310   8.350   7.184   0.632 -0.1127 -0.9308  0.8685
10211SOL     OW41311   9.318   3.230   4.596  0.1951  0.1589  0.0470
10211SOL    HW141312   9.377   3.154   4.570 -0.2167 -0.1578  0.0180
10211SOL    HW241313   9.301   3.227   4.695  0.2699  0.2765  0.0635
10212SOL     OW41314   4.680   2.824   1.307  0.0030 -0.2367  0.0971
10212SOL    HW141315   4.583   2.808   1.328 -0.2228  0.3156 -0.5082
10212SOL    HW241316   4.728   2.852   1.390  0.2954 -3.4465  1.0848
10213SOL     OW41317   6.382   9.960   2.636 -0.5499  0.2177 -0.4407
10213SOL    HW141318   6.340  10.033   2.689  1.2518 -0.0613  1.4043
10213SOL    HW241319   6.437   9.902   2.696  0.0479 -1.2055 -2.3078
10214SOL     OW41320   2.244   4.100   2.913 -0.2635  0.1549  0.1172
10214SOL    HW141321   2.242   4.194   2.945 -0.1006 -0.3564  1.6834
10214SOL    HW241322   2.326   4.085   2.857  0.3585  0.6129  0.8979
10215SOL     OW41323   3.733   8.350   4.624  0.0007 -0.1001  0.4967
10215SOL    HW141324   3.687   8.338   4.536 -0.9142 -1.1288  1.0969
10215SOL    HW241325   3.707   8.439   4.663 -0.8267 -0.3186  0.4519
10216SOL     OW41326   8.926   6.246   2.361 -0.2923  0.2607  0.0593
10216SOL    HW141327   8.926   6.156   2.405  0.5821 -0.5185 -1.5050
10216SOL    HW241328   8.832   6.278   2.350 -0.6063 -0.4814  0.5589
10217SOL     OW41329   4.883   9.287   3.404  0.5358 -0.0819  0.2629
10217SOL    HW141330   4.832   9.202   3.395 -0.2408  0.2756  1.1683
10217SOL    HW241331   4.947   9.280   3.480 -0.7751  0.7335  1.4727
10218SOL     OW41332   9.906   0.118   1.606  0.8218 -0.5419  0.1315
10218SOL    HW141333   9.814   0.147   1.635  0.8519 -1.2062  0.9243
10218SOL    HW241334   9.969   0.128   1.683  1.7433  1.3189 -0.8285
10219SOL     OW41335   0.978   1.087   1.106 -1.0981 -0.2158  0.2523
10219SOL    HW141336   0.970   1.037   1.192 -1.8711  0.4756  0.5851
10219SOL    HW241337   0.918   1.045   1.037 -0.9753 -0.3628  0.2330
10220SOL     OW41338   8.729   9.603   2.393  0.4038  0.1088 -0.0239
10220SOL    HW141339   8.797   9.530   2.395 -0.6465 -0.8783  1.1046
10220SOL    HW241340   8.650   9.576   2.448  0.0584  2.1630  0.5540
10221SOL     OW41341   9.062   9.312   4.272 -0.2702  0.1279  0.3477
10221SOL    HW141342   9.010   9.321   4.358  0.4570  1.8903  0.6348
10221SOL    HW241343   9.103   9.400   4.249  1.1733 -0.8149 -0.7907
10222SOL     OW41344   8.714   2.425   3.198  0.2003 -0.9328 -0.1787
10222SOL    HW141345   8.791   2.389   3.144  1.6561 -0.2692  1.4006
10222SOL    HW241346   8.703   2.523   3.179 -0.0412 -0.9611 -0.1772
10223SOL     OW41347   1.335   0.192   3.984  0.5479 -0.2764  0.2528
10223SOL    HW141348   1.260   0.173   3.920  0.1326  1.5124  0.1798
10223SOL    HW241349   1.411   0.235   3.934  0.2226  1.1355  0.9370
10224SOL     OW41350   1.682   6.989   0.638 -0.7533  0.1911  0.0299
10224SOL    HW141351   1.636   7.075   0.615  0.9342  0.8949 -0.7841
10224SOL    HW241352   1.729   7.000   0.726 -1.2711 -0.1936  0.3575
10225SOL     OW41353   9.499   7.516   3.357  0.0142 -0.5635 -0.0422
10225SOL    HW141354   9.410   7.554   3.384 -0.3425 -0.3524 -1.4721
10225SOL    HW241355   9.526   7.445   3.423 -0.9400 -0.2351  0.7247
10226SOL     OW41356   1.032   9.757   3.127 -0.3507  0.4261  0.0925
10226SOL    HW141357   1.072   9.848   3.124 -0.9351  0.8168  2.3859
10226SOL    HW241358   0.933   9.764   3.144 -0.2768 -0.6335  1.0699
10227SOL     OW41359   9.003   6.286   0.268 -0.2963 -0.1008 -0.0803
10227SOL    HW141360   9.078   6.310   0.206 -0.1390  0.1126  0.1873
10227SOL    HW241361   9.014   6.192   0.298  0.3696  0.1986  0.6516
10228SOL     OW41362   9.106   8.080   3.536 -0.4149  0.2466 -0.1124
10228SOL    HW141363   9.050   8.054   3.614 -0.0226  1.7682  0.7000
10228SOL    HW241364   9.202   8.087   3.565 -0.0012 -0.9315 -1.1531
10229SOL     OW41365   4.606   3.141   0.808 -0.1576 -0.1828 -0.8625
10229SOL    HW141366   4.683   3.130   0.870  0.2956 -0.9236 -1.5444
10229SOL    HW241367   4.620   3.223   0.752 -0.8115  0.7693  0.3435
10230SOL     OW41368   8.142   7.413   3.845  0.1179 -0.2408  0.0190
10230SOL    HW141369   8.214   7.479   3.864  0.1344 -0.4696  0.7757
10230SOL    HW241370   8.055   7.461   3.834  0.1291 -0.0891  0.5673
10231SOL     OW41371   3.366   3.089   2.019  0.1816 -0.1409 -0.0778
10231SOL    HW141372   3.284   3.144   2.033 -0.0597 -0.5875  0.2544
10231SOL    HW241373   3.352   2.996   2.055  1.0971 -0.0052  0.6605
10232SOL     OW41374   3.509   2.026   1.033 -0.1543  0.1828 -0.4185
10232SOL    HW141375   3.418   2.001   1.066 -0.2296  0.4406 -0.4363
10232SOL    HW241376   3.579   1.988   1.094 -0.2821  0.2964 -0.2027
10233SOL     OW41377   0.355   5.184   2.772 -0.1154 -0.0051  0.5002
10233SOL    HW141378   0.305   5.261   2.813 -0.2101 -0.0191  0.4112
10233SOL    HW241379   0.396   5.129   2.845 -2.3447 -1.4492  0.7199
10234SOL     OW41380   9.513   2.985   1.030  0.3810 -0.1203  0.6580
10234SOL    HW141381   9.557   3.054   0.972  0.6684  0.5680  1.6955
10234SOL    HW241382   9.457   3.030   1.099 -1.1421 -0.9777  0.0106
10235SOL     OW41383   1.606   4.652   3.351  0.0800 -0.5228 -0.4224
10235SOL    HW141384   1.619   4.631   3.254 -1.6392 -0.4257 -0.6803
10235SOL    HW241385   1.571   4.745   3.361  0.7509 -0.3420  0.3335
10236SOL     OW41386   0.153   8.319   2.685  0.0184  0.3360  0.4151
10236SOL    HW141387   0.187   8.346   2.595  2.6967  1.7473  1.7854
10236SOL    HW241388   0.186   8.228   2.708 -0.6768 -0.0297 -0.0284
10237SOL     OW41389   9.323   5.385   3.569  0.0433  0.5845 -0.3999
10237SOL    HW141390   9.235   5.420   3.601  0.5234  1.6778 -0.2417
10237SOL    HW241391   9.309   5.328   3.488 -1.3058 -3.1678  2.3667
10238SOL     OW41392   8.951   5.098   3.076  0.3196  0.0226 -0.0319
10238SOL    HW141393   9.027   5.149   3.036  1.3228 -0.5241  1.1439
10238SOL    HW241394   8.935   5.130   3.169  1.8066 -2.6681  1.1994
10239SOL     OW41395   2.861   6.655   4.449  0.0568  0.0144  0.1092
10239SOL    HW141396   2.823   6.636   4.540  1.4760  0.5641  0.8307
10239SOL    HW241397   2.888   6.570   4.405  0.9128 -0.1295  0.8997
10240SOL     OW41398   4.814   0.840   3.805  0.3388 -0.4830 -0.3733
10240SOL    HW141399   4.818   0.832   3.705  1.6107 -2.5826 -0.1793
10240SOL    HW241400   4.722   0.817   3.836 -0.2622  0.8532 -1.0946
10241SOL     OW41401   1.731   3.258   2.036  0.8731  0.4076  0.2783
10241SOL    HW141402   1.747   3.175   2.088  2.4968 -0.4742 -1.5565
10241SOL    HW241403   1.632   3.270   2.022  0.6463 -1.7014 -0.1625
10242SOL     OW41404   0.402   6.697   2.092  0.4361  0.6251 -0.3205
10242SOL    HW141405   0.494   6.671   2.062  0.6198  1.0651 -0.1404
10242SOL    HW241406   0.366   6.627   2.154  0.8872  0.7552  0.0895
10243SOL     OW41407   1.595   4.163   0.759 -0.1540  0.1092 -0.0496
10243SOL    HW141408   1.681   4.163   0.709 -1.0929 -0.0946 -1.7187
10243SOL    HW241409   1.556   4.071   0.757 -0.3886  0.1895  0.7347
10244SOL     OW41410   9.852   4.886   4.742  1.0856 -0.9166  0.4676
10244SOL    HW141411   9.903   4.898   4.827  0.4067 -3.0720  1.2228
10244SOL    HW241412   9.761   4.850   4.762  0.3970 -0.1127 -1.0837
10245SOL     OW41413   1.462   1.605   0.432 -0.1744 -0.3326 -0.2934
10245SOL    HW141414   1.474   1.700   0.460 -0.0103 -0.9613  1.9048
10245SOL    HW241415   1.456   1.547   0.514 -0.9633 -2.1232 -1.5915
10246SOL     OW41416   8.271   6.934   3.998  0.3152  0.0611 -0.1487
10246SOL    HW141417   8.227   6.884   4.073  0.6856 -0.4126 -0.2451
10246SOL    HW241418   8.207   7.002   3.962 -0.0080  0.0202  0.3289
10247SOL     OW41419   1.143   2.636   4.653  0.1987  0.2811 -0.1950
10247SOL    HW141420   1.046   2.657   4.659  0.8769  2.8090  3.8498
10247SOL    HW241421   1.190   2.672   4.733  4.4310 -1.3406 -1.7913
10248SOL     OW41422   7.946   8.464   2.789  0.5202 -0.0482 -0.7418
10248SOL    HW141423   7.900   8.481   2.702 -1.9685  0.7971  0.6903
10248SOL    HW241424   8.002   8.543   2.813  1.1957 -0.2736 -1.5607
10249SOL     OW41425   4.498   8.227   1.971 -0.6694 -0.1207  0.0758
10249SOL    HW141426   4.459   8.258   1.884  2.3424 -0.1258 -1.3496
10249SOL    HW241427   4.593   8.201   1.957  0.8776  2.8273  3.9972
10250SOL     OW41428   0.779   4.606   0.258  0.2593 -0.3688  0.3459
10250SOL    HW141429   0.737   4.522   0.293 -0.3485 -0.1458  0.1513
10250SOL    HW241430   0.713   4.657   0.204  1.1221 -0.5949 -0.9567
10251SOL     OW41431   2.358   4.164   1.683  0.0025  0.2438 -0.1764
10251SOL    HW141432   2.436   4.206   1.636  0.2490 -0.9646 -0.8578
10251SOL    HW241433   2.392   4.103   1.755 -0.3742  2.3153  1.8221
10252SOL     OW41434   1.206   2.377   2.146 -0.1979  0.0423  0.1920
10252SOL    HW141435   1.181   2.341   2.056  1.1436 -1.6695  0.4680
10252SOL    HW241436   1.233   2.301   2.205  3.4321  1.5747  0.6017
10253SOL     OW41437   3.216   5.103   4.454 -0.3180  0.0351 -0.4684
10253SOL    HW141438   3.253   5.012   4.472 -3.1231 -1.0225  0.2345
10253SOL    HW241439   3.263   5.170   4.511  0.4834 -1.2601  0.4287
10254SOL     OW41440   4.665   9.683   3.033 -0.3666  0.0392  0.1720
10254SOL    HW141441   4.717   9.601   3.010  2.0929  1.7990 -0.8720
10254SOL    HW241442   4.687   9.712   3.126 -1.4595 -0.6427  0.6459
10255SOL     OW41443   9.691   9.174   0.750  0.2723 -0.0609  0.5373
10255SOL    HW141444   9.704   9.223   0.663  1.0875  1.1775  1.3524
10255SOL    HW241445   9.779   9.146   0.786 -0.1129 -1.1489  0.6630
10256SOL     OW41446   3.361   2.876   2.191 -0.0484  0.1866  0.0779
10256SOL    HW141447   3.311   2.792   2.212 -0.0431  0.1359 -0.1080
10256SOL    HW241448   3.457   2.866   2.219  0.1348 -0.1605 -0.6468
10257SOL     OW41449   9.121   5.021   4.639 -0.2207 -0.3198  0.4797
10257SOL    HW141450   9.060   5.082   4.688  0.6389  0.1106  1.0264
10257SOL    HW241451   9.208   5.013   4.688  1.2943  1.4250 -1.7744
10258SOL     OW41452   0.035   4.905   2.239  0.0072 -0.1876  0.4773
10258SOL    HW141453   0.037   4.865   2.148  0.1043  1.1331 -0.1220
10258SOL    HW241454  -0.058   4.934   2.261  0.2581  0.8658  0.1731
10259SOL     OW41455   4.745   8.892   2.670 -0.5481 -0.3056 -0.2841
10259SOL    HW141456   4.798   8.821   2.624 -1.1843 -0.2449 -1.1190
10259SOL    HW241457   4.654   8.897   2.629 -1.0612 -0.1320  0.8709
10260SOL     OW41458   0.758   7.658   1.312 -0.0525  0.0110 -0.2110
10260SOL    HW141459   0.744   7.593   1.386 -1.8938  0.1585 -0.4251
10260SOL    HW241460   0.829   7.724   1.338 -0.3519 -0.2242  1.2042
10261SOL     OW41461   2.509   6.959   1.320 -0.0008 -0.0287 -0.0985
10261SOL    HW141462   2.574   7.020   1.274  1.3756  0.5012  2.4460
10261SOL    HW241463   2.559   6.898   1.381 -1.8350 -0.1145  1.3430
10262SOL     OW41464   3.332   3.977   1.317 -0.0392  0.1569  0.4062
10262SOL    HW141465   3.423   3.942   1.293 -0.4046 -0.3906 -0.2212
10262SOL    HW241466   3.339   4.071   1.350  0.5857  0.6430 -1.0801
10263SOL     OW41467   4.108   8.712   3.388  0.3085  0.5481  0.0260
10263SOL    HW141468   4.151   8.652   3.321  0.6171 -1.1812  1.7322
10263SOL    HW241469   4.139   8.806   3.373  1.9291 -0.1275 -0.9725
10264SOL     OW41470   1.459   4.334   0.923 -0.3719  0.1536  0.3474
10264SOL    HW141471   1.502   4.285   0.848 -0.8053  0.9067 -0.4028
10264SOL    HW241472   1.486   4.293   1.010  2.0596  0.7685 -0.0857
10265SOL     OW41473   1.640   7.965   3.133  0.5161 -0.2442 -0.5462
10265SOL    HW141474   1.676   7.927   3.218 -0.4751  1.5315  0.6964
10265SOL    HW241475   1.694   8.045   3.106 -0.4995  0.4907 -0.4166
10266SOL     OW41476   7.497   1.970   3.141  0.2216  0.7364 -0.2272
10266SOL    HW141477   7.483   2.062   3.178  2.0040  0.9724 -0.1267
10266SOL    HW241478   7.487   1.903   3.215 -2.2360  0.7357 -0.5230
10267SOL     OW41479   0.172   0.319   1.030  0.1189  0.2743  0.1313
10267SOL    HW141480   0.150   0.381   0.955  0.4792  0.9059  0.5502
10267SOL    HW241481   0.087   0.290   1.074 -0.0585  0.3770 -0.1431
10268SOL     OW41482   3.166   3.386   2.881 -0.1535 -0.1716  0.3238
10268SOL    HW141483   3.169   3.439   2.796 -0.4203  0.0111  0.4282
10268SOL    HW241484   3.139   3.446   2.956 -0.8406 -0.5347  0.3764
10269SOL     OW41485   9.727   1.043   3.900  0.2419 -0.6711 -0.7305
10269SOL    HW141486   9.801   1.091   3.948  0.8123 -1.0795 -1.2022
10269SOL    HW241487   9.716   0.951   3.938 -1.8381  0.2899  1.1881
10270SOL     OW41488   4.639   0.248   3.961  0.3812  0.0817  0.2498
10270SOL    HW141489   4.612   0.245   4.057  0.0765  1.2606  0.2121
10270SOL    HW241490   4.558   0.258   3.903  0.7063  1.4376  0.0048
10271SOL     OW41491   4.079   3.602   1.338  0.3184  1.0557 -0.4355
10271SOL    HW141492   4.070   3.539   1.415  1.3198  3.0904  1.4075
10271SOL    HW241493   4.001   3.664   1.336  0.9043  1.8041 -0.2935
10272SOL     OW41494   1.343   8.782   2.876  0.1545 -0.5850 -0.4849
10272SOL    HW141495   1.332   8.819   2.784 -0.4438 -0.2828 -0.2932
10272SOL    HW241496   1.343   8.682   2.872  0.1863 -0.5723 -0.8161
10273SOL     OW41497   9.280   9.099   3.720 -0.3913 -0.1324  0.1246
10273SOL    HW141498   9.364   9.144   3.749  1.5925 -3.5988  0.0178
10273SOL    HW241499   9.267   9.114   3.621  0.6631 -0.4470 -0.0678
10274SOL     OW41500   3.155   4.215   3.959  0.4006 -0.0887  0.1878
10274SOL    HW141501   3.180   4.147   4.027 -1.9195 -0.2567  0.9156
10274SOL    HW241502   3.139   4.303   4.005 -1.1407 -0.1971 -0.1434
10275SOL     OW41503   0.794   5.913   2.148 -0.1843  0.0876  0.2540
10275SOL    HW141504   0.775   6.004   2.112 -0.7731 -0.1002  0.0847
10275SOL    HW241505   0.710   5.872   2.182 -0.0205 -0.5985 -0.1431
10276SOL     OW41506   2.536   2.776   3.572  0.1834 -0.0014 -0.2050
10276SOL    HW141507   2.511   2.863   3.615  1.6984  0.0255  0.6805
10276SOL    HW241508   2.460   2.743   3.516 -0.8272  1.3222  0.3530
10277SOL     OW41509   8.227   2.603   2.958  0.2330  0.2791  0.2751
10277SOL    HW141510   8.257   2.695   2.934 -0.5455  0.4987  0.1477
10277SOL    HW241511   8.200   2.554   2.875 -1.2241  0.5995  0.5579
10278SOL     OW41512   4.763   0.977   0.542  0.2192 -0.0089 -0.7743
10278SOL    HW141513   4.726   1.069   0.547  0.4715  0.1094 -1.0768
10278SOL    HW241514   4.722   0.920   0.614 -0.7141  0.0508 -1.2623
10279SOL     OW41515   1.526   5.605   1.533 -0.3107 -0.0913 -0.6167
10279SOL    HW141516   1.440   5.652   1.510  0.1953  0.2932 -1.7877
10279SOL    HW241517   1.519   5.508   1.509 -0.8202 -0.2978  0.3651
10280SOL     OW41518   4.947   0.670   2.420 -0.2512 -0.7105 -0.4583
10280SOL    HW141519   4.907   0.759   2.397 -1.6368 -0.6766  1.9142
10280SOL    HW241520   4.937   0.608   2.343 -1.1835  0.5421 -1.3720
10281SOL     OW41521   2.415   5.561   4.094 -0.0819 -0.0453 -0.5675
10281SOL    HW141522   2.391   5.616   4.174  1.9930 -0.1592  0.1582
10281SOL    HW241523   2.371   5.472   4.100  0.2582 -0.1383  0.5678
10282SOL     OW41524   5.742   8.206   3.283  0.7722 -0.4581  0.1035
10282SOL    HW141525   5.688   8.130   3.250  0.5424 -0.1842 -0.1558
10282SOL    HW241526   5.759   8.270   3.207 -0.3450  0.5238  0.6741
10283SOL     OW41527   4.097   0.063   4.763 -0.2871  0.2118  0.1308
10283SOL    HW141528   4.172   0.010   4.724 -0.1994 -0.9422  1.8234
10283SOL    HW241529   4.016   0.005   4.771 -1.4228  1.4701 -1.7483
10284SOL     OW41530   3.497   8.336   1.963  0.2428  0.6002 -0.6930
10284SOL    HW141531   3.530   8.262   2.022 -1.0165  0.3577 -0.2736
10284SOL    HW241532   3.564   8.409   1.960  1.7694 -0.8077 -1.5746
10285SOL     OW41533   6.729   9.178   3.131 -0.0347 -0.6648 -0.1129
10285SOL    HW141534   6.759   9.259   3.181  1.0906 -2.2277  1.8265
10285SOL    HW241535   6.629   9.174   3.129 -0.0911  0.9062 -0.4687
10286SOL     OW41536   8.088   1.028   2.213  0.6939  0.2061  0.3832
10286SOL    HW141537   8.002   0.994   2.172  0.3869 -0.0773  1.2567
10286SOL    HW241538   8.071   1.054   2.308  1.6789 -0.2296  0.6751
10287SOL     OW41539   0.453   7.023   2.673  0.5796 -0.2929  0.6617
10287SOL    HW141540   0.500   7.098   2.626  0.5157 -0.1193  0.8773
10287SOL    HW241541   0.518   6.949   2.689  0.4351 -0.6518 -0.3481
10288SOL     OW41542   2.411   8.113   1.627  0.0452 -0.1433  0.5427
10288SOL    HW141543   2.508   8.091   1.643  0.0066  0.3285  1.4359
10288SOL    HW241544   2.384   8.080   1.536  1.0298 -0.3320  0.3131
10289SOL     OW41545   8.375   0.508   0.895 -0.0141  0.7641  0.3528
10289SOL    HW141546   8.456   0.562   0.918  1.7052 -1.6691  0.2416
10289SOL    HW241547   8.368   0.429   0.956 -1.4668  0.1246 -0.5995
10290SOL     OW41548   0.553   9.956   2.989  0.1579  0.2632  0.1923
10290SOL    HW141549   0.525   9.905   3.071  1.3660 -1.7175 -0.5985
10290SOL    HW241550   0.540   9.899   2.908  2.9943  0.5892 -0.5565
10291SOL     OW41551   9.389   5.292   4.295 -0.6059  0.1674  0.1369
10291SOL    HW141552   9.309   5.253   4.250 -0.6634  1.2769 -0.7470
10291SOL    HW241553   9.372   5.389   4.316  0.3564  0.3114  0.2951
10292SOL     OW41554   3.985   2.002   3.018 -0.5692  0.3241  0.0614
10292SOL    HW141555   3.932   1.921   3.043  0.4734  0.3383  2.4272
10292SOL    HW241556   4.066   1.974   2.966 -0.8161 -0.0573 -0.1182
10293SOL     OW41557   3.053   1.595   2.844 -0.2706 -0.2537 -0.1081
10293SOL    HW141558   3.004   1.530   2.901  0.1288  0.2471  0.8370
10293SOL    HW241559   3.152   1.577   2.851 -0.1416  0.5934  0.3591
10294SOL     OW41560   5.126   7.905   3.139 -0.5396  0.3726  0.4062
10294SOL    HW141561   5.142   7.807   3.138 -2.3230  0.0733  0.3776
10294SOL    HW241562   5.188   7.949   3.204  1.6364 -0.5106 -1.0302
10295SOL     OW41563   8.425   6.724   0.186 -0.3748  0.0452 -0.0886
10295SOL    HW141564   8.454   6.813   0.150 -2.0221  0.2217 -1.0760
10295SOL    HW241565   8.409   6.662   0.109  0.1649 -0.9136  0.5726
10296SOL     OW41566   2.072   8.053   0.403  0.8095  0.0298 -0.0238
10296SOL    HW141567   2.151   8.103   0.440  1.5419 -0.4996 -0.8737
10296SOL    HW241568   2.085   7.955   0.418 -0.9105  0.1104  2.1827
10297SOL     OW41569   4.620   9.261   1.641 -0.2259 -0.1921 -0.0697
10297SOL    HW141570   4.665   9.313   1.714  0.9669 -1.0697 -0.1540
10297SOL    HW241571   4.600   9.169   1.674  0.5879 -0.6891 -0.9296
10298SOL     OW41572   9.099   4.484   3.356 -0.0724 -0.2178 -0.6093
10298SOL    HW141573   9.162   4.485   3.279  2.1960  0.3074  1.1924
10298SOL    HW241574   9.147   4.453   3.438 -2.3117 -0.3138  0.7113
10299SOL     OW41575   4.992   9.441   1.506 -0.1040 -0.0453  0.5447
10299SOL    HW141576   4.957   9.508   1.440 -2.1464 -0.6016  1.0230
10299SOL    HW241577   5.071   9.394   1.467  0.5830  1.7461 -0.2940
10300SOL     OW41578   3.724   8.639   4.177  0.4745 -0.2490  0.7638
10300SOL    HW141579   3.765   8.553   4.147  0.7605  0.0037  0.4274
10300SOL    HW241580   3.751   8.657   4.272 -0.4333 -1.0478  1.1737
10301SOL     OW41581   3.775   8.454   0.456  0.1239 -0.3424 -0.0851
10301SOL    HW141582   3.741   8.508   0.532  1.1386  0.5585 -0.2586
10301SOL    HW241583   3.750   8.358   0.469  0.3905 -0.2126  1.4354
10302SOL     OW41584   5.797   9.417   2.721  0.2373 -0.1996 -0.3228
10302SOL    HW141585   5.847   9.394   2.638 -1.3162 -1.1956 -1.0122
10302SOL    HW241586   5.701   9.393   2.709 -0.3022  1.1461  1.1779
10303SOL     OW41587   1.836   1.952   0.880 -0.2648  0.0608 -0.0677
10303SOL    HW141588   1.864   2.047   0.892 -0.6281  0.1004  0.5080
10303SOL    HW241589   1.899   1.893   0.930 -0.0586 -0.0008 -0.3981
10304SOL     OW41590   8.733   4.247   0.389 -0.0386  0.4426 -0.2909
10304SOL    HW141591   8.727   4.248   0.289 -1.8267 -2.1946 -0.2321
10304SOL    HW241592   8.829   4.253   0.416  0.5232  0.3218 -2.1776
10305SOL     OW41593   2.480   3.271   2.297 -0.0593  0.6048  0.1711
10305SOL    HW141594   2.529   3.184   2.297 -2.7232 -0.9870  2.1829
10305SOL    HW241595   2.533   3.339   2.247  1.1178 -2.6829 -3.2721
10306SOL     OW41596   1.537   2.982   0.256 -0.0213 -0.3193  0.5804
10306SOL    HW141597   1.543   2.971   0.355  2.2358 -2.5236  0.2476
10306SOL    HW241598   1.607   3.046   0.225 -1.5344  1.3453  0.5048
10307SOL     OW41599   5.313   1.241   3.310 -0.1815 -0.5649  0.1433
10307SOL    HW141600   5.319   1.340   3.323  1.3718 -0.1643 -3.0771
10307SOL    HW241601   5.299   1.222   3.213 -0.6387 -3.5211  0.7638
10308SOL     OW41602   4.721   8.287   1.271 -0.2420 -0.1103  0.2965
10308SOL    HW141603   4.793   8.336   1.320  0.2909  0.3632 -0.9164
10308SOL    HW241604   4.631   8.317   1.304  0.1110 -1.0185  2.1103
10309SOL     OW41605   2.161   2.902   2.145  0.1994 -0.0784 -0.0299
10309SOL    HW141606   2.065   2.927   2.132  0.3139  0.3404 -0.0555
10309SOL    HW241607   2.197   2.951   2.225  0.5593  0.2128 -0.3719
10310SOL     OW41608   1.055   4.484   3.120 -0.2067 -0.5396 -0.1122
10310SOL    HW141609   1.016   4.469   3.211 -1.3487  0.3160 -0.4568
10310SOL    HW241610   1.153   4.462   3.123 -0.3839 -1.2429  1.1289
10311SOL     OW41611   2.668   1.860   0.645  0.1231  0.0831 -0.2305
10311SOL    HW141612   2.641   1.904   0.559 -0.4060  2.9811  1.3702
10311SOL    HW241613   2.605   1.784   0.664 -0.6756  0.3687 -1.6480
10312SOL     OW41614   7.350   8.596   2.454  0.1493  0.1418  0.2480
10312SOL    HW141615   7.300   8.611   2.540  1.4130 -1.2255  1.2486
10312SOL    HW241616   7.308   8.520   2.404 -1.1420  1.5113 -0.8233
10313SOL     OW41617   0.007   1.234   2.268 -0.5867  0.2117  0.4037
10313SOL    HW141618  -0.044   1.246   2.353 -2.9558 -2.0218 -0.6531
10313SOL    HW241619  -0.020   1.304   2.202 -1.6738 -0.4412  0.1486
10314SOL     OW41620   2.917   9.800   0.849  0.6858  0.2703  0.4579
10314SOL    HW141621   2.833   9.819   0.799  1.2623  1.8168  0.0454
10314SOL    HW241622   2.975   9.737   0.796 -0.5658 -1.5193  1.1444
10315SOL     OW41623   0.345   0.383   2.865 -0.5094  0.2385  0.2980
10315SOL    HW141624   0.431   0.357   2.909  0.2745 -0.3855 -1.5470
10315SOL    HW241625   0.283   0.305   2.863 -0.1768 -0.0060 -0.5509
10316SOL     OW41626   0.115   5.426   0.943  0.7034 -0.1217 -0.5784
10316SOL    HW141627   0.090   5.399   1.036  1.8841 -0.4155 -0.3372
10316SOL    HW241628   0.166   5.512   0.947  0.2670  0.1552 -1.0050
10317SOL     OW41629   4.745   7.078   3.376  0.1781  0.1346  0.6106
10317SOL    HW141630   4.792   7.024   3.306 -1.1887  1.1068 -1.0924
10317SOL    HW241631   4.810   7.141   3.419  1.0351 -0.4897  0.2412
10318SOL     OW41632   7.116   9.409   1.475  0.1910  0.5000  0.1338
10318SOL    HW141633   7.213   9.431   1.464  0.3016  0.0497  0.2056
10318SOL    HW241634   7.062   9.493   1.469  0.4715  0.6037 -1.2013
10319SOL     OW41635   1.153   8.511   2.944 -0.2849  0.5287  0.3456
10319SOL    HW141636   1.209   8.490   3.024 -0.6034 -0.9348  0.2068
10319SOL    HW241637   1.209   8.504   2.861 -0.4557 -0.0913  0.2771
10320SOL     OW41638   0.184   6.661   1.132 -0.4272 -0.0575 -0.4724
10320SOL    HW141639   0.093   6.684   1.166  0.0074  1.5724 -0.3491
10320SOL    HW241640   0.252   6.715   1.181  0.5645 -0.8733 -0.9351
10321SOL     OW41641   9.234   2.088   0.817  0.5626  0.7692 -0.5007
10321SOL    HW141642   9.271   1.997   0.840  0.4886  0.5310 -1.3154
10321SOL    HW241643   9.161   2.111   0.881  1.8551  1.0753  0.8877
10322SOL     OW41644   0.105   9.340   0.048 -0.3020 -0.0053  0.3625
10322SOL    HW141645   0.159   9.365   0.129  0.2517  4.2240 -1.1858
10322SOL    HW241646   0.018   9.389   0.050 -0.8526 -0.9129 -0.9306
10323SOL     OW41647   1.861   4.833   3.895 -0.4755  0.1408 -0.3694
10323SOL    HW141648   1.764   4.836   3.919  0.5232 -0.2981  4.1368
10323SOL    HW241649   1.899   4.925   3.899  0.3420 -0.2910  2.8882
10324SOL     OW41650   4.602   2.276   0.615  0.1592  0.2616  0.3773
10324SOL    HW141651   4.616   2.271   0.714 -2.7165 -0.1428  0.8078
10324SOL    HW241652   4.597   2.372   0.587 -0.7957  0.3892  0.9406
10325SOL     OW41653   2.025   7.985   1.285 -0.2690 -0.2080  0.4584
10325SOL    HW141654   2.042   7.933   1.201  1.3469  2.5686 -1.0189
10325SOL    HW241655   1.997   7.923   1.358  3.0017 -3.3303 -0.8149
10326SOL     OW41656   8.097   6.441   3.559  0.0844  0.5175 -0.0989
10326SOL    HW141657   8.110   6.448   3.460 -0.7026 -0.7505 -0.3032
10326SOL    HW241658   8.185   6.431   3.604  0.5335  2.1812 -0.5669
10327SOL     OW41659   1.282   1.530   4.100 -0.0783  0.6703  0.1147
10327SOL    HW141660   1.223   1.608   4.120  0.1720  0.7681  0.4772
10327SOL    HW241661   1.378   1.556   4.113 -0.0832 -0.2239  2.0483
10328SOL     OW41662   2.967   3.643   2.375  0.0989  0.2377  0.1022
10328SOL    HW141663   3.001   3.640   2.281  1.6792 -0.3694  0.6769
10328SOL    HW241664   2.947   3.550   2.407  1.1233  0.2739  0.8969
10329SOL     OW41665   3.967   0.860   3.141  0.6716  0.3627 -0.2784
10329SOL    HW141666   4.022   0.916   3.202  0.2011  2.1206 -1.4270
10329SOL    HW241667   4.024   0.824   3.067  1.0349 -0.9524  0.6209
10330SOL     OW41668   7.186   9.470   0.322 -0.4877 -0.5226  0.3325
10330SOL    HW141669   7.272   9.519   0.305 -0.4653 -0.3586  0.8897
10330SOL    HW241670   7.178   9.393   0.259 -1.3935  1.2535 -1.7895
10331SOL     OW41671   0.064   9.940   2.060 -0.1245 -0.1054  0.4150
10331SOL    HW141672   0.109  10.009   2.116  0.9203  0.1534 -0.7370
10331SOL    HW241673  -0.028   9.972   2.037  0.3407  0.8877 -0.0831
10332SOL     OW41674   0.315   6.574   3.224  0.6097 -0.3332 -0.1209
10332SOL    HW141675   0.222   6.577   3.187  0.8576  2.0096 -0.6035
10332SOL    HW241676   0.313   6.529   3.314 -1.2318  0.9561  0.5198
10333SOL     OW41677   0.719   5.662   3.150  0.0478  0.0564 -0.1059
10333SOL    HW141678   0.627   5.650   3.188  0.3431  0.7134  0.8476
10333SOL    HW241679   0.717   5.644   3.052 -0.5086 -2.8594  0.3709
10334SOL     OW41680   7.251   4.868   0.559 -0.5142  0.1325  0.1553
10334SOL    HW141681   7.318   4.928   0.602  0.1238  0.6636 -1.5348
10334SOL    HW241682   7.194   4.921   0.496 -1.2770 -0.6553  0.1812
10335SOL     OW41683   2.037   3.450   3.293 -0.5022 -0.1560 -0.4730
10335SOL    HW141684   2.103   3.517   3.259 -1.7970  2.6435  2.1949
10335SOL    HW241685   1.968   3.432   3.223  0.0770  1.0188 -1.3666
10336SOL     OW41686   0.850   7.188   0.821 -0.8485  0.3823  0.1275
10336SOL    HW141687   0.751   7.175   0.825 -0.7126 -0.5460  0.6361
10336SOL    HW241688   0.889   7.124   0.755 -0.1074 -2.2807  3.0231
10337SOL     OW41689   7.486   5.467   3.035 -0.2191  0.5368 -0.3946
10337SOL    HW141690   7.462   5.527   3.112 -1.1908  0.6862 -0.8099
10337SOL    HW241691   7.404   5.445   2.983  0.1202 -1.2078 -0.2209
10338SOL     OW41692   1.408   8.107   1.954  0.3876  0.5733 -0.1570
10338SOL    HW141693   1.332   8.157   1.912 -0.4573  0.2438  0.9345
10338SOL    HW241694   1.379   8.013   1.972  0.9389  0.5446  0.5760
10339SOL     OW41695   2.766   3.565   4.140 -0.2647 -0.1827 -0.8333
10339SOL    HW141696   2.705   3.487   4.150 -0.2441 -0.2288 -1.0765
10339SOL    HW241697   2.727   3.631   4.076 -0.2709 -0.0026 -0.6458
10340SOL     OW41698   0.466   2.661   2.266 -0.4552  0.2081  0.1299
10340SOL    HW141699   0.562   2.680   2.286  0.1034 -2.2483 -0.0974
10340SOL    HW241700   0.417   2.748   2.252  1.7613  1.4779  0.0071
10341SOL     OW41701   4.522   1.267   2.549  0.2072 -0.1568 -0.1845
10341SOL    HW141702   4.518   1.296   2.645 -1.2534  0.7371 -0.5000
10341SOL    HW241703   4.617   1.252   2.523  0.8191  1.9962  0.7120
10342SOL     OW41704   3.153   9.641   3.940 -0.0599 -0.2931 -0.2719
10342SOL    HW141705   3.075   9.683   3.988 -0.0890 -2.2629  1.4859
10342SOL    HW241706   3.164   9.684   3.851 -2.7943  0.4473 -0.3088
10343SOL     OW41707   1.193   3.015   0.749  0.2486 -0.3037 -0.0329
10343SOL    HW141708   1.254   3.048   0.677  0.4816 -0.2335  0.1975
10343SOL    HW241709   1.192   2.915   0.750 -0.0615 -0.3060 -0.3948
10344SOL     OW41710   6.544   0.208   1.511 -0.3233  0.3071  0.1172
10344SOL    HW141711   6.549   0.218   1.611 -0.3475 -0.7759  0.2350
10344SOL    HW241712   6.629   0.167   1.477 -0.3501  0.5948 -0.2994
10345SOL     OW41713   8.813   5.886   1.860  0.1179 -0.4176  0.0849
10345SOL    HW141714   8.764   5.945   1.796  0.2568 -1.4830 -1.0288
10345SOL    HW241715   8.846   5.940   1.938 -1.2366  0.6374 -0.0605
10346SOL     OW41716   7.938   5.988   3.249  0.1790 -0.1305  0.3608
10346SOL    HW141717   7.955   6.055   3.321 -2.2057  1.4084 -0.4614
10346SOL    HW241718   7.886   5.911   3.286  0.7109 -0.3173  0.7256
10347SOL     OW41719   2.481   6.747   0.619  0.1589  0.2628 -0.5792
10347SOL    HW141720   2.482   6.846   0.627  1.6508  0.2212  0.0173
10347SOL    HW241721   2.548   6.708   0.683 -0.0078 -1.0893 -1.2056
10348SOL     OW41722   8.464   0.150   2.124  0.2271 -0.0890 -0.5997
10348SOL    HW141723   8.417   0.129   2.039 -0.8317  0.2664 -0.1110
10348SOL    HW241724   8.472   0.067   2.180 -0.8447  0.0913 -0.1817
10349SOL     OW41725   3.861   2.264   1.604 -0.0931 -0.2544 -0.3900
10349SOL    HW141726   3.879   2.358   1.576 -1.8700  0.2300  0.0388
10349SOL    HW241727   3.869   2.255   1.703 -0.7900 -0.3466 -0.3374
10350SOL     OW41728   1.661   3.108   4.660  0.2889 -0.0812  0.1472
10350SOL    HW141729   1.599   3.030   4.660 -1.0948  0.9770 -1.8783
10350SOL    HW241730   1.706   3.115   4.571  1.0284  0.9433  0.5905
10351SOL     OW41731   8.964   4.552   0.611  0.1455 -0.2486  0.5396
10351SOL    HW141732   8.873   4.543   0.572  0.2125 -0.0199  0.3311
10351SOL    HW241733   8.963   4.621   0.684  0.5760  1.1532 -0.7691
10352SOL     OW41734   6.171   7.717   3.144 -0.1255  0.3532 -0.7902
10352SOL    HW141735   6.096   7.783   3.141 -0.6128 -0.0424  1.5179
10352SOL    HW241736   6.253   7.763   3.177  0.4920  0.6239 -2.6586
10353SOL     OW41737   7.463   1.299   2.269 -0.1795 -0.1618 -0.2401
10353SOL    HW141738   7.371   1.302   2.307 -0.8707  0.7724 -1.9085
10353SOL    HW241739   7.524   1.252   2.332 -1.3693  0.9298  1.7665
10354SOL     OW41740   0.480   8.393   3.032 -0.2550 -0.1822  0.0533
10354SOL    HW141741   0.439   8.481   3.056 -0.6821 -0.1585 -0.7439
10354SOL    HW241742   0.541   8.364   3.105  0.3327  1.0479  0.0678
10355SOL     OW41743   7.199   7.025   2.508  0.2768 -0.5791 -0.2624
10355SOL    HW141744   7.261   6.988   2.439 -0.7298 -2.4265 -0.1911
10355SOL    HW241745   7.116   7.059   2.463  0.1575 -0.6319 -0.0797
10356SOL     OW41746   0.706   1.384   1.352  1.2249  1.0041 -0.4847
10356SOL    HW141747   0.792   1.433   1.365  1.9262  0.0829 -1.5281
10356SOL    HW241748   0.723   1.286   1.352 -0.1143  0.7534  1.1843
10357SOL     OW41749   3.348   7.104   2.899  0.2400  0.4086  0.5343
10357SOL    HW141750   3.286   7.111   2.977  1.6473 -0.4020  1.7732
10357SOL    HW241751   3.441   7.085   2.933  1.0555  1.0516 -1.2939
10358SOL     OW41752   9.003   6.907   1.355  0.3785  0.1083 -0.2951
10358SOL    HW141753   9.020   6.915   1.454 -0.2913 -1.4281 -0.0429
10358SOL    HW241754   8.978   6.813   1.333  1.5086  0.1984 -2.0957
10359SOL     OW41755   8.027   1.353   3.065  0.1205  0.1869 -0.3187
10359SOL    HW141756   7.980   1.425   3.117 -1.1842 -0.7773 -0.1297
10359SOL    HW241757   8.126   1.362   3.079 -0.1828  0.0349  2.2652
10360SOL     OW41758   7.353   8.471   3.681  0.8526 -0.0988 -0.0534
10360SOL    HW141759   7.265   8.473   3.727  0.4934 -4.0903 -0.4061
10360SOL    HW241760   7.420   8.521   3.736 -1.2511  1.7376  0.9266
10361SOL     OW41761   0.538   7.180   2.276  0.7188 -0.2376 -0.3198
10361SOL    HW141762   0.546   7.101   2.214  0.8474 -1.2108  0.9079
10361SOL    HW241763   0.451   7.226   2.260  0.6915 -0.5563 -1.1268
10362SOL     OW41764   9.055   1.233   4.147  0.2410  0.4053 -0.0463
10362SOL    HW141765   9.057   1.333   4.150 -0.5504  0.4008  0.9421
10362SOL    HW241766   9.145   1.198   4.175  0.8796  0.8456 -1.4977
10363SOL     OW41767   9.119   4.799   3.179 -0.2978 -0.0581  0.0733
10363SOL    HW141768   9.139   4.896   3.188 -0.9272  0.3092 -2.1009
10363SOL    HW241769   9.165   4.763   3.098 -2.0423 -0.9963 -0.5376
10364SOL     OW41770   2.405   4.687   2.837  0.1951 -0.0705 -0.0485
10364SOL    HW141771   2.434   4.695   2.933  1.8987 -2.4369 -0.3168
10364SOL    HW241772   2.471   4.631   2.787 -1.2855  0.1876 -2.3537
10365SOL     OW41773   9.431   3.797   0.508 -0.0981 -0.6644  0.0789
10365SOL    HW141774   9.491   3.818   0.585 -0.3377  0.6003 -0.0710
10365SOL    HW241775   9.373   3.719   0.532 -0.3052 -0.1624  1.2600
10366SOL     OW41776   2.605   0.098   1.807 -0.3972  0.2851 -0.1953
10366SOL    HW141777   2.588   0.102   1.905 -0.8442  1.4394 -0.3055
10366SOL    HW241778   2.699   0.127   1.788  0.8238 -3.2015  0.1569
10367SOL     OW41779   1.778   6.113   3.353  0.1742  0.0461 -0.0289
10367SOL    HW141780   1.763   6.015   3.363 -2.6545  0.3983 -0.2735
10367SOL    HW241781   1.799   6.134   3.257  1.1829 -0.3517  0.1012
10368SOL     OW41782   1.536   7.518   3.458  0.0740 -0.1494  0.3733
10368SOL    HW141783   1.489   7.435   3.487 -0.0830 -0.6527 -1.2356
10368SOL    HW241784   1.483   7.598   3.483 -0.8930 -0.6457 -0.0779
10369SOL     OW41785   1.838   2.983   4.035  0.5156 -0.0769  0.2159
10369SOL    HW141786   1.932   2.959   4.058  0.7176  1.0226  0.5651
10369SOL    HW241787   1.776   2.942   4.101  0.7489 -0.8616 -0.0551
10370SOL     OW41788   8.454   7.712   2.639  0.5023  0.0501  0.4316
10370SOL    HW141789   8.398   7.725   2.557 -0.0067  0.9241  0.9011
10370SOL    HW241790   8.394   7.699   2.719  0.9451  1.1537  0.9636
10371SOL     OW41791   4.889   7.348   4.601 -0.2706 -0.0127  0.0998
10371SOL    HW141792   4.830   7.321   4.526 -0.2878 -0.7629  0.3780
10371SOL    HW241793   4.843   7.329   4.688  0.2794 -0.3769  0.3124
10372SOL     OW41794   3.442   4.827   1.161 -0.4893 -0.5239 -0.2153
10372SOL    HW141795   3.502   4.803   1.237 -1.0322 -2.9914 -0.5453
10372SOL    HW241796   3.446   4.926   1.145  0.8486 -0.2129  1.9692
10373SOL     OW41797   5.328   1.202   2.674  0.0909 -0.3367  0.4905
10373SOL    HW141798   5.264   1.157   2.613 -0.8272  0.9262  0.5153
10373SOL    HW241799   5.385   1.133   2.719 -1.5797 -1.5041  0.8554
10374SOL     OW41800   1.381   6.649   3.305  0.2527 -0.2952 -0.2555
10374SOL    HW141801   1.376   6.704   3.388 -0.5686  0.9765 -1.1197
10374SOL    HW241802   1.476   6.627   3.284  0.4118 -1.2299  1.4007
10375SOL     OW41803   2.663   8.872   0.317 -0.3667 -0.6000 -0.1392
10375SOL    HW141804   2.615   8.910   0.238 -0.2927  0.8096  0.4821
10375SOL    HW241805   2.599   8.823   0.376 -0.5982 -0.8111 -0.5712
10376SOL     OW41806   3.689   4.567   0.617 -0.1463 -0.0168 -0.3480
10376SOL    HW141807   3.743   4.534   0.539 -0.7889  1.1296 -1.3081
10376SOL    HW241808   3.710   4.663   0.635 -0.8481  0.0546  0.1401
10377SOL     OW41809   0.227   3.191   2.821  0.0173 -0.1162 -0.2057
10377SOL    HW141810   0.300   3.257   2.803 -0.1549  0.2599  0.4537
10377SOL    HW241811   0.139   3.235   2.806 -0.0855 -0.4317 -0.5342
10378SOL     OW41812   1.700   7.432   3.800  0.0899  0.0941  0.9689
10378SOL    HW141813   1.789   7.424   3.845 -0.5277  0.6948  2.3186
10378SOL    HW241814   1.660   7.341   3.791  0.7771 -0.1661  0.4811
10379SOL     OW41815   8.243   3.340   1.547  0.3108 -0.4117 -0.0055
10379SOL    HW141816   8.307   3.265   1.565  0.8778  0.1579  0.3661
10379SOL    HW241817   8.222   3.344   1.450  1.8781  0.2313 -0.3303
10380SOL     OW41818   1.800   9.536   3.909 -0.4002 -0.1745  0.3310
10380SOL    HW141819   1.766   9.503   3.997  0.1485  0.7804  0.9167
10380SOL    HW241820   1.823   9.458   3.850 -1.0610 -0.8147  0.9205
10381SOL     OW41821   0.858   6.076   0.176 -0.4596  0.5169  0.0247
10381SOL    HW141822   0.829   6.154   0.121 -0.0147  1.2823  0.8639
10381SOL    HW241823   0.940   6.035   0.136 -2.3413 -1.3073 -2.0387
10382SOL     OW41824   2.197   4.006   1.501  0.3829  0.1402 -0.3642
10382SOL    HW141825   2.271   4.043   1.556  0.7551  0.0914 -0.8237
10382SOL    HW241826   2.155   4.079   1.448 -0.6630  0.3710  0.7634
10383SOL     OW41827   1.320   9.038   1.502  0.8140  0.0370 -0.2095
10383SOL    HW141828   1.337   9.134   1.527 -0.8095  0.9319 -2.3545
10383SOL    HW241829   1.306   8.984   1.584  0.2706  1.9619  0.9971
10384SOL     OW41830   9.798   2.570   4.238 -0.3691  0.4502 -0.0390
10384SOL    HW141831   9.769   2.665   4.233  0.1797  0.5886 -0.5075
10384SOL    HW241832   9.890   2.560   4.202 -1.1727 -0.5861 -1.9345
10385SOL     OW41833   4.103   8.487   4.086 -0.2733 -0.4166 -0.1448
10385SOL    HW141834   4.167   8.417   4.055  0.0742 -0.6506  1.0619
10385SOL    HW241835   4.123   8.574   4.042  0.2423 -0.7282 -0.5217
10386SOL     OW41836   9.469   0.286   3.425  0.1121  0.1036 -0.0560
10386SOL    HW141837   9.491   0.383   3.413 -1.9692  0.5359 -0.6299
10386SOL    HW241838   9.443   0.269   3.520  0.1564  0.1747 -0.0307
10387SOL     OW41839   9.051   5.576   2.647 -0.2472  0.5067  0.1037
10387SOL    HW141840   9.023   5.623   2.731 -1.1886 -0.7512  0.5197
10387SOL    HW241841   8.974   5.522   2.612  0.6593 -0.3549 -0.5982
10388SOL     OW41842   9.245   7.532   4.313 -0.2208  0.5345  0.1002
10388SOL    HW141843   9.248   7.632   4.304  0.5562  0.3848 -1.5181
10388SOL    HW241844   9.315   7.502   4.377 -0.8245  1.0668  1.0229
10389SOL     OW41845   5.226   7.187   2.636 -0.5455  0.0724 -0.6406
10389SOL    HW141846   5.131   7.201   2.609 -1.1458 -0.1942  1.2168
10389SOL    HW241847   5.255   7.260   2.698 -0.2090 -0.9476  0.4312
10390SOL     OW41848   3.395   7.238   3.675  0.6205 -0.6866  0.8332
10390SOL    HW141849   3.438   7.313   3.625 -1.3297  0.4127  0.7477
10390SOL    HW241850   3.409   7.152   3.626 -0.8675  0.2968 -1.4060
10391SOL     OW41851   9.606   7.571   1.710 -0.5371 -0.5563 -0.0078
10391SOL    HW141852   9.526   7.546   1.655  0.0125 -2.8838  0.1965
10391SOL    HW241853   9.629   7.495   1.771 -1.7877  2.3357  4.2606
10392SOL     OW41854   8.027   9.041   2.655  0.0446  0.0478  0.3800
10392SOL    HW141855   7.952   9.020   2.719  1.8109 -1.1307  2.1049
10392SOL    HW241856   8.004   9.006   2.565 -1.2205 -0.8469  1.0289
10393SOL     OW41857   0.330   3.026   4.123  0.0656  0.4117 -0.0027
10393SOL    HW141858   0.243   3.009   4.170  0.3313  2.3714  1.2853
10393SOL    HW241859   0.396   2.955   4.147  0.0718  1.1762  2.3150
10394SOL     OW41860   8.852   7.296   2.420 -0.3723 -0.7151  1.1777
10394SOL    HW141861   8.813   7.376   2.466  0.9215 -1.3317  3.4222
10394SOL    HW241862   8.828   7.214   2.470 -0.0377 -1.5580 -0.0165
10395SOL     OW41863   9.246   9.046   4.440 -0.1655 -0.4420  0.0219
10395SOL    HW141864   9.209   9.139   4.438 -0.5566 -0.5943 -2.6521
10395SOL    HW241865   9.328   9.042   4.382 -0.7902 -1.9892 -0.7899
10396SOL     OW41866   1.106   7.630   4.241  0.4026 -0.2078  0.0627
10396SOL    HW141867   1.125   7.574   4.160 -0.4241  1.8156 -1.5545
10396SOL    HW241868   1.169   7.707   4.244 -0.4142  0.4391  0.6613
10397SOL     OW41869   0.046   3.937   2.993  0.4259  0.1138 -0.1123
10397SOL    HW141870  -0.026   3.972   3.053  0.3436  0.6072 -0.4972
10397SOL    HW241871   0.062   3.840   3.014 -0.3594 -0.0031 -0.0284
10398SOL     OW41872   3.872   0.131   1.077  0.4980 -0.3178  0.3790
10398SOL    HW141873   3.777   0.157   1.059  0.6915 -0.7277 -1.3047
10398SOL    HW241874   3.881   0.100   1.171 -0.5663  1.8929  1.2348
10399SOL     OW41875   3.223   9.068   1.638 -0.2474 -0.3516 -0.2342
10399SOL    HW141876   3.162   9.026   1.705 -0.4477  0.3497  0.0236
10399SOL    HW241877   3.225   9.012   1.555 -0.0661 -1.1761  0.3209
10400SOL     OW41878   5.297   3.536   0.319 -0.0350  0.0578 -0.0113
10400SOL    HW141879   5.243   3.586   0.252  0.2667 -1.0301 -1.0911
10400SOL    HW241880   5.237   3.483   0.379 -0.2123 -0.7294 -0.8693
10401SOL     OW41881   9.487   9.787   0.085  0.5267  0.5485  0.3702
10401SOL    HW141882   9.525   9.847   0.155  0.2267 -0.7536  1.6741
10401SOL    HW241883   9.511   9.821  -0.005  0.2534  2.6915  1.0921
10402SOL     OW41884   3.433   1.086   1.236 -0.1576 -0.1552 -0.1211
10402SOL    HW141885   3.527   1.119   1.223 -0.2125 -0.1163 -0.4267
10402SOL    HW241886   3.431   0.987   1.226  0.1957 -0.3892  1.8691
10403SOL     OW41887   8.350   1.281   0.014  0.0173  0.0619 -0.3843
10403SOL    HW141888   8.442   1.268  -0.024  0.2319 -0.8897  0.4558
10403SOL    HW241889   8.341   1.375   0.046  1.0450 -0.1134  0.4499
10404SOL     OW41890   0.191   5.992   3.991  0.2758 -0.0203  0.1151
10404SOL    HW141891   0.179   5.959   3.898  0.5658  1.0558 -0.3103
10404SOL    HW241892   0.176   6.091   3.993  1.6057  0.1704  0.9663
10405SOL     OW41893   6.526   8.536   1.421 -0.3075 -0.1092 -0.4187
10405SOL    HW141894   6.494   8.630   1.434  1.4223  0.5257 -0.5550
10405SOL    HW241895   6.615   8.538   1.375  0.3105 -1.7631  0.6724
10406SOL     OW41896   4.686   4.391   1.388 -0.8449  0.6107 -0.0122
10406SOL    HW141897   4.644   4.481   1.380 -2.2252 -0.0448 -0.2922
10406SOL    HW241898   4.681   4.344   1.300 -1.1704 -0.1903  0.4287
10407SOL     OW41899   0.199   7.006   3.743  0.1515  0.1887  0.0235
10407SOL    HW141900   0.257   7.070   3.793 -0.0102  0.2756  0.0999
10407SOL    HW241901   0.246   6.918   3.733 -0.0189  0.0103  0.7617
10408SOL     OW41902   2.471   8.578   4.707 -0.9461 -0.7294  0.0849
10408SOL    HW141903   2.401   8.628   4.759 -0.4458  0.0659  0.0058
10408SOL    HW241904   2.469   8.607   4.612  0.0504 -0.0808  0.2546
10409SOL     OW41905   8.961   2.520   1.943  0.3005 -0.3890  0.5940
10409SOL    HW141906   9.042   2.580   1.952  0.0889  0.1768 -1.1431
10409SOL    HW241907   8.987   2.436   1.896  0.0912 -0.6595  0.9604
10410SOL     OW41908   3.481   0.689   0.761 -0.6527  0.4331 -0.3208
10410SOL    HW141909   3.467   0.771   0.817  0.2193  0.7431 -0.5513
10410SOL    HW241910   3.579   0.679   0.741 -0.6539 -1.1364  0.4218
10411SOL     OW41911   3.847   3.455   1.149  1.1409  0.1911 -0.1695
10411SOL    HW141912   3.932   3.409   1.175  0.2432 -0.9932  0.7170
10411SOL    HW241913   3.805   3.496   1.230  0.1219 -0.5013 -0.3317
10412SOL     OW41914   1.016   9.161   1.664 -0.1325  0.0250  0.0788
10412SOL    HW141915   0.958   9.228   1.712  1.1105  0.7892  0.5375
10412SOL    HW241916   1.006   9.071   1.707 -1.2640  0.0644 -0.0860
10413SOL     OW41917   0.563   9.460   2.210  0.0457 -0.1731 -0.4277
10413SOL    HW141918   0.488   9.527   2.210  0.7952  0.6710 -0.7983
10413SOL    HW241919   0.526   9.369   2.230 -0.8916  0.4428  0.7388
10414SOL     OW41920   8.975   9.268   2.009 -0.5094 -0.4745  0.8062
10414SOL    HW141921   8.958   9.246   2.105 -1.4714 -0.3269  0.6732
10414SOL    HW241922   8.992   9.366   1.999  1.1320 -0.7105  1.0266
10415SOL     OW41923   2.430   5.966   3.008  0.3901 -0.1279  0.6992
10415SOL    HW141924   2.400   6.044   3.064 -0.6690  0.0861 -0.1629
10415SOL    HW241925   2.351   5.923   2.966  1.0149 -1.4744  0.8939
10416SOL     OW41926   2.367   9.777   2.260 -0.2904 -0.4562 -0.1375
10416SOL    HW141927   2.387   9.875   2.269 -0.9038 -0.4624  1.3870
10416SOL    HW241928   2.280   9.765   2.213  0.5260 -0.3144 -1.7235
10417SOL     OW41929   3.339   3.004   4.340  0.0209  0.5421 -0.5010
10417SOL    HW141930   3.309   3.055   4.260  1.5046  1.5116 -0.4533
10417SOL    HW241931   3.307   3.050   4.423  2.7629  2.3872 -0.4017
10418SOL     OW41932   9.879   2.168   0.810 -0.0553  0.0329 -0.1244
10418SOL    HW141933   9.820   2.246   0.832  0.3592  0.1812  0.4634
10418SOL    HW241934   9.916   2.178   0.718  0.3650  0.7582  0.1228
10419SOL     OW41935   2.248   3.885   2.202 -0.9958 -0.6055  1.0676
10419SOL    HW141936   2.246   3.785   2.198  0.9488 -0.6843  1.7127
10419SOL    HW241937   2.302   3.914   2.281  0.2126  0.9588 -0.3026
10420SOL     OW41938   3.258   1.785   3.267 -0.3298  0.5917  0.6954
10420SOL    HW141939   3.190   1.768   3.339 -1.8034  1.3582 -0.4835
10420SOL    HW241940   3.213   1.825   3.187  1.0977 -1.1329 -1.0356
10421SOL     OW41941   8.325   0.773   0.137  0.4172 -0.4979  0.1983
10421SOL    HW141942   8.282   0.720   0.064 -0.9852 -0.1803  0.7609
10421SOL    HW241943   8.306   0.871   0.123  0.5036 -0.4003  0.7541
10422SOL     OW41944   8.209   7.365   2.807  0.1614 -0.3209  0.8563
10422SOL    HW141945   8.127   7.400   2.762  0.3563  2.8553  2.8322
10422SOL    HW241946   8.183   7.292   2.870 -1.3915  1.4724  2.3780
10423SOL     OW41947   6.351   7.258   1.924 -0.3778 -0.1839 -0.1762
10423SOL    HW141948   6.258   7.281   1.953 -0.5562 -1.9742  0.7059
10423SOL    HW241949   6.388   7.333   1.868 -1.8094  1.1823  0.6634
10424SOL     OW41950   3.859   1.405   1.909  0.6390  0.0123 -0.2209
10424SOL    HW141951   3.907   1.436   1.827  1.1338 -0.8543 -0.2551
10424SOL    HW241952   3.878   1.309   1.926 -1.9061 -0.6397 -0.8228
10425SOL     OW41953   4.843   2.558   0.424 -0.4702  0.5462 -0.2497
10425SOL    HW141954   4.892   2.630   0.375 -1.2172  0.4542 -1.1531
10425SOL    HW241955   4.866   2.469   0.384 -0.6168  0.4158 -0.0433
10426SOL     OW41956   9.711   5.425   1.243  0.4051  0.0372  0.4265
10426SOL    HW141957   9.715   5.360   1.168  0.0287  0.8438 -0.2964
10426SOL    HW241958   9.768   5.504   1.222  0.3340  0.2449  1.0070
10427SOL     OW41959   9.572   6.841   0.726  0.5046 -0.2064  0.0687
10427SOL    HW141960   9.480   6.813   0.751  0.9388  0.0202  2.0319
10427SOL    HW241961   9.626   6.761   0.701 -0.0218 -0.4233 -0.3685
10428SOL     OW41962   5.132   0.363   4.221  0.3559 -0.1523 -0.4748
10428SOL    HW141963   5.114   0.266   4.207 -0.6264 -0.2485  1.3525
10428SOL    HW241964   5.047   0.414   4.209  0.2622  0.1584  1.3228
10429SOL     OW41965   3.867   7.417   2.809  0.0642  0.2850 -0.0077
10429SOL    HW141966   3.924   7.408   2.891 -0.5869  1.2569  0.5720
10429SOL    HW241967   3.788   7.357   2.816  0.6083 -0.4858 -0.4547
10430SOL     OW41968   2.857   6.200   4.497 -0.0052  0.1159 -0.0785
10430SOL    HW141969   2.810   6.254   4.427  0.1615 -1.5488 -1.4960
10430SOL    HW241970   2.847   6.102   4.476  2.0097 -0.3282  0.9688
10431SOL     OW41971   7.737   0.051   2.422 -0.2075 -0.4958 -0.1715
10431SOL    HW141972   7.658   0.093   2.465  0.7274 -0.9191  2.0280
10431SOL    HW241973   7.784  -0.007   2.488  1.6830 -0.6083 -1.5683
10432SOL     OW41974   8.899   1.231   3.882 -0.1602 -0.3493  0.4488
10432SOL    HW141975   8.911   1.277   3.971 -0.1765 -0.1018  0.3242
10432SOL    HW241976   8.965   1.269   3.817  0.2795 -0.9778  0.5257
10433SOL     OW41977   7.923   5.209   3.910 -0.1567  0.2615  0.3605
10433SOL    HW141978   7.906   5.193   4.008 -0.3287  0.1265  0.3087
10433SOL    HW241979   8.003   5.267   3.900  2.4179 -3.0826  0.4804
10434SOL     OW41980   1.669   7.465   0.711 -0.5564  0.8037  0.3045
10434SOL    HW141981   1.691   7.452   0.808 -1.7143 -1.5039  0.2927
10434SOL    HW241982   1.725   7.539   0.674  3.0841 -1.1642  1.6083
10435SOL     OW41983   8.458   5.225   1.100  0.8394  0.4058  0.3477
10435SOL    HW141984   8.555   5.203   1.101  0.4518 -1.4571 -0.5040
10435SOL    HW241985   8.412   5.177   1.174  0.4433  0.6102  0.2350
10436SOL     OW41986   8.085   5.103   0.501  0.3825 -0.0689 -0.2422
10436SOL    HW141987   8.002   5.155   0.481  0.4722 -0.0119 -0.4758
10436SOL    HW241988   8.165   5.152   0.465  0.6712  0.6040  1.2770
10437SOL     OW41989   3.508   1.977   0.344  0.3830  0.1606 -0.2724
10437SOL    HW141990   3.561   1.915   0.286  3.0802  1.0695  1.1051
10437SOL    HW241991   3.465   1.925   0.418  1.2735 -0.2988 -0.0697
10438SOL     OW41992   8.373   6.304   2.849  0.4901  0.1446 -0.1075
10438SOL    HW141993   8.453   6.262   2.806  0.7977 -2.0291  2.4744
10438SOL    HW241994   8.290   6.258   2.817  0.7624 -1.8901  2.0038
10439SOL     OW41995   3.862   2.832   4.513 -0.3524  0.2528  0.4025
10439SOL    HW141996   3.846   2.822   4.415 -0.6572 -0.8382  0.5641
10439SOL    HW241997   3.961   2.837   4.530 -0.3108  0.8261  0.0112
10440SOL     OW41998   6.269   1.128   2.193 -0.0992  0.3279 -0.1259
10440SOL    HW141999   6.283   1.149   2.096 -0.7675 -0.1000 -0.3203
10440SOL    HW242000   6.316   1.042   2.215  1.0259  1.0177  0.2125
10441SOL     OW42001   8.308   9.569   0.283 -0.5873  0.0289  0.7166
10441SOL    HW142002   8.225   9.513   0.283  0.8695 -2.1996  0.3377
10441SOL    HW242003   8.308   9.627   0.365 -3.0177  0.8767  0.1630
10442SOL     OW42004   7.767   1.345   3.388 -0.2361  0.3155 -0.0340
10442SOL    HW142005   7.734   1.328   3.295  1.2321  4.1345 -1.3215
10442SOL    HW242006   7.857   1.302   3.400 -0.8892 -1.0689  0.0023
10443SOL     OW42007   9.787   1.964   1.552 -0.6010  0.6339  0.0887
10443SOL    HW142008   9.771   2.040   1.615 -0.3179  1.0894 -0.3815
10443SOL    HW242009   9.881   1.969   1.517 -0.4130 -0.2219  0.4431
10444SOL     OW42010   2.387   8.735   1.555 -0.0796 -0.1654  0.1163
10444SOL    HW142011   2.353   8.818   1.510 -0.0852 -0.6232 -0.7245
10444SOL    HW242012   2.418   8.670   1.486 -0.6984 -1.1421  0.7425
10445SOL     OW42013   3.522   1.291   4.467 -0.1501 -0.5442  0.0001
10445SOL    HW142014   3.592   1.229   4.431 -0.6123 -1.3945  0.5625
10445SOL    HW242015   3.442   1.290   4.407 -0.6914 -1.5239  0.7246
10446SOL     OW42016   0.428   5.022   3.959 -0.1565 -0.1885 -0.3381
10446SOL    HW142017   0.526   5.040   3.973  0.4026 -3.2893  0.1145
10446SOL    HW242018   0.417   4.941   3.901 -2.4697 -0.4603  0.4459
10447SOL     OW42019   8.047   1.902   2.996  0.1779  0.1758  0.0401
10447SOL    HW142020   8.092   1.893   3.085 -1.7503  0.6801  1.0838
10447SOL    HW242021   8.082   1.983   2.949  1.5807 -0.3809  0.1016
10448SOL     OW42022   4.103   7.572   0.343 -0.0616 -0.4754  0.7378
10448SOL    HW142023   4.121   7.480   0.308  0.2279  0.0489 -0.4742
10448SOL    HW242024   4.121   7.640   0.273  0.2855  0.5672  1.8131
10449SOL     OW42025   3.036   2.535   3.275 -0.6815 -0.0315  0.1845
10449SOL    HW142026   3.038   2.496   3.183  1.9238  1.3195 -0.3743
10449SOL    HW242027   3.095   2.615   3.279 -0.7122 -0.0930  3.0569
10450SOL     OW42028   2.223   3.640   3.590 -0.0643  0.3718  0.6765
10450SOL    HW142029   2.134   3.675   3.621 -0.4713 -1.7661  2.0511
10450SOL    HW242030   2.232   3.545   3.618  1.8160 -0.0519 -1.2747
10451SOL     OW42031   2.348   2.967   2.854  0.3676  0.6877  0.1153
10451SOL    HW142032   2.319   2.880   2.813 -0.3327  0.2597  1.4804
10451SOL    HW242033   2.447   2.968   2.864  0.2218 -0.9583  2.2038
10452SOL     OW42034   7.589   6.492   2.481  0.0767 -0.0622  0.1174
10452SOL    HW142035   7.505   6.508   2.533 -0.4315  1.0824 -1.0365
10452SOL    HW242036   7.596   6.395   2.458 -0.8302 -0.1921  0.3902
10453SOL     OW42037   0.568   0.495   2.597  0.0389 -0.3547  0.1201
10453SOL    HW142038   0.483   0.528   2.638 -1.2249 -3.0305 -0.2545
10453SOL    HW242039   0.634   0.475   2.669 -0.9796 -1.7961  0.6794
10454SOL     OW42040   4.306   8.537   3.720  0.3567  0.1519 -0.5285
10454SOL    HW142041   4.317   8.484   3.804  1.8487  0.9826 -0.1771
10454SOL    HW242042   4.305   8.475   3.641  1.2877 -0.4527 -0.0675
10455SOL     OW42043   5.961   8.405   2.834  0.1831 -0.0778  0.0211
10455SOL    HW142044   5.899   8.442   2.765  0.5740 -1.2578 -0.9906
10455SOL    HW242045   5.999   8.479   2.888 -0.3517  0.8463 -0.8516
10456SOL     OW42046   9.479   1.714   2.794  0.1415  0.3758 -1.0947
10456SOL    HW142047   9.551   1.678   2.853  0.6150 -1.5884 -2.8319
10456SOL    HW242048   9.398   1.735   2.850  0.1793 -2.5272  0.1291
10457SOL     OW42049   7.196   7.275   3.400 -0.0186  0.9288 -0.0360
10457SOL    HW142050   7.110   7.230   3.374  0.3947  0.3394 -0.4007
10457SOL    HW242051   7.236   7.227   3.478 -0.9700  2.3556  1.3515
10458SOL     OW42052   1.645   2.700   2.027 -0.3382  0.2254  0.4032
10458SOL    HW142053   1.730   2.650   2.041 -1.0728 -0.7306  1.5035
10458SOL    HW242054   1.567   2.639   2.041 -1.2074  0.6476 -2.3065
10459SOL     OW42055   9.628   8.002   0.669  0.0654 -0.2494 -0.2668
10459SOL    HW142056   9.712   8.040   0.708  0.6879 -0.8594 -1.0064
10459SOL    HW242057   9.555   8.070   0.675  0.2736 -0.1818  1.5365
10460SOL     OW42058   7.859   6.744   3.250  0.9020  0.2187 -0.5102
10460SOL    HW142059   7.826   6.823   3.199 -0.6496 -0.3649 -0.4423
10460SOL    HW242060   7.907   6.774   3.331  1.4731  1.1181 -1.1736
10461SOL     OW42061   7.280   1.070   3.278  0.5044 -0.8351  0.7371
10461SOL    HW142062   7.295   1.138   3.350  1.5488 -1.8465  1.4859
10461SOL    HW242063   7.367   1.045   3.236 -0.0657 -0.4450 -0.7315
10462SOL     OW42064   9.654   5.643   2.948 -0.0896  0.9812 -1.0375
10462SOL    HW142065   9.651   5.544   2.940 -1.4932  0.7106  2.2360
10462SOL    HW242066   9.746   5.672   2.973 -0.4969  0.1431  1.5966
10463SOL     OW42067   7.757   0.500   0.604  0.3571 -0.5168  0.3720
10463SOL    HW142068   7.778   0.554   0.522 -0.2206 -1.2069 -0.2381
10463SOL    HW242069   7.758   0.559   0.685 -0.8010  0.5178 -0.3579
10464SOL     OW42070   2.662   1.458   4.376  0.5139  0.3337 -0.0843
10464SOL    HW142071   2.655   1.513   4.293 -1.0084 -0.3326 -0.4089
10464SOL    HW242072   2.679   1.517   4.454  1.5468  1.0063 -0.7933
10465SOL     OW42073   9.028   9.852   0.780 -0.0051 -0.0088 -0.0586
10465SOL    HW142074   8.942   9.822   0.740  0.7072 -0.3795 -1.3278
10465SOL    HW242075   9.059   9.936   0.734 -0.4246  0.9683  1.3928
10466SOL     OW42076   8.397   4.393   2.693  0.1200  0.0753 -0.1696
10466SOL    HW142077   8.419   4.302   2.728  0.4189  0.2048 -0.0220
10466SOL    HW242078   8.360   4.385   2.601 -0.7913 -0.2819  0.2160
10467SOL     OW42079   4.478   7.905   2.731 -0.3522 -0.1720 -0.8952
10467SOL    HW142080   4.499   7.940   2.639 -1.9968 -1.7893 -1.9276
10467SOL    HW242081   4.385   7.931   2.756 -0.1510 -0.3223  0.0323
10468SOL     OW42082   5.713   0.717   2.272 -0.8822 -0.1307 -0.6394
10468SOL    HW142083   5.701   0.776   2.192  0.3819  0.2321 -0.5804
10468SOL    HW242084   5.689   0.624   2.248  2.4782 -0.6427 -2.4297
10469SOL     OW42085   8.432   2.538   3.696 -0.2343  0.0443 -0.1444
10469SOL    HW142086   8.456   2.471   3.767 -0.2601 -0.3414 -0.4948
10469SOL    HW242087   8.472   2.627   3.719  4.2629 -1.2672 -2.2707
10470SOL     OW42088   0.788   7.342   3.181 -0.5473 -0.1524 -0.4414
10470SOL    HW142089   0.702   7.385   3.210 -1.7944 -3.0525  0.3730
10470SOL    HW242090   0.784   7.322   3.083 -0.0751  1.2761 -0.7644
10471SOL     OW42091   5.088   9.185   3.050  0.7159  0.1559 -0.2870
10471SOL    HW142092   5.091   9.250   3.126  2.2562 -1.1407  0.8138
10471SOL    HW242093   5.069   9.093   3.086 -0.1275 -0.2236 -1.6614
10472SOL     OW42094   9.452   8.909   1.902 -0.0581 -0.0035  0.1594
10472SOL    HW142095   9.536   8.866   1.869 -0.3286 -0.4709  0.0776
10472SOL    HW242096   9.385   8.911   1.829  0.3107  1.5235 -0.1581
10473SOL     OW42097   4.525   6.536   2.073 -0.1722  0.7191 -0.0640
10473SOL    HW142098   4.493   6.488   2.154  1.0778  1.4890  0.9041
10473SOL    HW242099   4.446   6.567   2.019 -0.9924 -1.2508 -0.0284
10474SOL     OW42100   3.299   3.661   2.873  0.0235  0.1118 -0.2827
10474SOL    HW142101   3.210   3.629   2.842  0.5912 -1.7192 -0.0683
10474SOL    HW242102   3.332   3.732   2.811 -0.8392 -0.3623 -1.2960
10475SOL     OW42103   8.343   4.774   4.011  0.0244  0.6161 -0.3153
10475SOL    HW142104   8.416   4.841   4.002  2.3220 -1.7914 -0.2567
10475SOL    HW242105   8.303   4.755   3.921  3.6176 -2.4369 -1.4063
10476SOL     OW42106   8.702   2.356   2.193 -0.2391  0.0327  0.0300
10476SOL    HW142107   8.763   2.278   2.176 -2.5988 -1.6342 -1.0529
10476SOL    HW242108   8.678   2.358   2.290  1.2321  0.4895  0.3954
10477SOL     OW42109   3.503   9.459   1.720 -0.4175  0.4305  0.0085
10477SOL    HW142110   3.432   9.425   1.659 -1.1005 -0.0368  1.0536
10477SOL    HW242111   3.588   9.407   1.706 -0.5179  0.4440 -0.6591
10478SOL     OW42112   2.963   8.125   0.353  0.2314 -0.2640 -0.0534
10478SOL    HW142113   2.920   8.174   0.277 -0.6200  0.4404  0.8663
10478SOL    HW242114   2.903   8.128   0.433  2.6908  2.2823  1.8327
10479SOL     OW42115   3.025   6.285   3.115  0.3348  0.3761 -0.0207
10479SOL    HW142116   3.025   6.384   3.129  1.1234  0.2661  0.8101
10479SOL    HW242117   3.116   6.255   3.087 -0.0115 -0.0599 -0.7070
10480SOL     OW42118   9.504   3.102   2.034  0.1588 -0.2614  0.2062
10480SOL    HW142119   9.481   3.198   2.048 -0.5355 -0.4934  0.6908
10480SOL    HW242120   9.490   3.052   2.120 -0.1976 -0.9363 -0.2460
10481SOL     OW42121   9.516   4.307   3.520 -0.7998  0.0880 -0.5927
10481SOL    HW142122   9.501   4.370   3.444  0.2564 -1.1802 -1.8753
10481SOL    HW242123   9.553   4.220   3.486 -1.6515 -1.0216  1.2092
10482SOL     OW42124   3.184   5.959   3.716 -0.1546  0.4533 -0.2576
10482SOL    HW142125   3.245   5.892   3.760  1.8560  3.1936  1.3214
10482SOL    HW242126   3.226   5.992   3.632  0.1080  1.6251  0.3226
10483SOL     OW42127   1.367   6.007   3.754 -0.1748 -0.4275  0.4894
10483SOL    HW142128   1.456   5.991   3.796 -0.4699 -1.0903  0.8718
10483SOL    HW242129   1.295   5.998   3.824 -0.5816 -0.4539  0.0725
10484SOL     OW42130   2.364   9.462   3.570 -0.7330 -0.1539  0.2752
10484SOL    HW142131   2.448   9.500   3.608 -0.6091 -0.0401 -0.1062
10484SOL    HW242132   2.356   9.366   3.596  0.9475 -0.9567 -1.9950
10485SOL     OW42133   8.629   0.423   2.408  0.3839 -0.2512 -0.6366
10485SOL    HW142134   8.614   0.522   2.411 -1.5744 -0.5645  1.9626
10485SOL    HW242135   8.551   0.378   2.364 -1.0144 -0.9467  2.3707
10486SOL     OW42136   4.324   2.373   0.707 -0.2858  0.2011  0.0871
10486SOL    HW142137   4.247   2.343   0.764 -0.1259 -0.5553 -0.0816
10486SOL    HW242138   4.410   2.352   0.754 -0.1792  0.8053  0.1593
10487SOL     OW42139   8.177   1.070   1.512  0.1010 -0.5406  0.6870
10487SOL    HW142140   8.183   0.979   1.554  0.1747 -0.5070  0.7490
10487SOL    HW242141   8.261   1.087   1.459  0.5413 -0.0854  1.5176
10488SOL     OW42142   1.433   2.498   4.087 -0.1175 -0.0043 -0.4481
10488SOL    HW142143   1.520   2.546   4.084 -0.2380  0.3678  1.3823
10488SOL    HW242144   1.433   2.425   4.019  1.1068  0.8345 -1.3723
10489SOL     OW42145   8.502   4.233   0.133 -0.4031 -0.1203  0.0188
10489SOL    HW142146   8.451   4.154   0.167  0.2462 -1.0270 -1.0894
10489SOL    HW242147   8.487   4.311   0.194 -0.8834 -1.1503  1.2323
10490SOL     OW42148   7.375   8.774   4.098 -0.0252  0.7984  0.6825
10490SOL    HW142149   7.305   8.830   4.053  0.6974  1.8923  0.8783
10490SOL    HW242150   7.405   8.702   4.036 -0.0189  1.4562 -0.0959
10491SOL     OW42151   0.544   1.863   3.068 -0.1242  0.5229  0.1577
10491SOL    HW142152   0.560   1.898   2.976  0.5846  0.3102  0.1970
10491SOL    HW242153   0.535   1.939   3.132  0.3282  0.6511  0.0676
10492SOL     OW42154   9.498   5.655   0.391 -0.6640  0.0257 -0.0150
10492SOL    HW142155   9.477   5.745   0.429  0.2657  0.2779 -0.0619
10492SOL    HW242156   9.531   5.666   0.297 -1.7479 -0.4784 -0.4590
10493SOL     OW42157   2.524   0.697   4.769  0.0485 -0.2477 -0.4343
10493SOL    HW142158   2.502   0.600   4.760 -0.8948 -0.2971  1.9170
10493SOL    HW242159   2.608   0.707   4.823 -0.5747  0.2704  0.4543
10494SOL     OW42160   5.280   9.605   4.286 -0.2246 -0.0442 -0.2714
10494SOL    HW142161   5.217   9.528   4.295 -0.7483  0.3386 -0.6351
10494SOL    HW242162   5.362   9.575   4.237 -0.2100 -0.4958  0.0271
10495SOL     OW42163   2.122   6.754   1.120  0.6159  0.4188 -0.1231
10495SOL    HW142164   2.185   6.781   1.048  1.1367  0.5698  0.3820
10495SOL    HW242165   2.068   6.676   1.090 -0.0487  1.2647 -1.1409
10496SOL     OW42166   8.005   4.212   0.424 -0.0924  0.4153 -0.2491
10496SOL    HW142167   8.023   4.281   0.354  0.6161  0.1742 -0.3095
10496SOL    HW242168   7.907   4.198   0.433 -0.2732  1.9575  0.2733
10497SOL     OW42169   3.778   0.343   1.494  0.2863 -0.0341  0.5075
10497SOL    HW142170   3.747   0.385   1.408  0.8380 -0.2357  0.2065
10497SOL    HW242171   3.717   0.370   1.568 -0.7426 -0.6275 -0.1220
10498SOL     OW42172   0.511   2.108   3.939  0.2436  0.5034  0.4102
10498SOL    HW142173   0.506   2.199   3.980  0.5591  0.5917  0.2555
10498SOL    HW242174   0.510   2.116   3.839  2.7583  0.4981  0.3549
10499SOL     OW42175   4.119   3.060   2.889  0.4010 -0.5317 -0.2637
10499SOL    HW142176   4.105   3.053   2.988  1.8605 -0.7650 -0.0624
10499SOL    HW242177   4.071   3.141   2.855 -0.3951 -0.6338  0.5686
10500SOL     OW42178   2.389   9.579   2.900  0.1246  0.0821  0.0989
10500SOL    HW142179   2.383   9.483   2.926  2.0270 -0.5617 -1.6891
10500SOL    HW242180   2.298   9.616   2.884 -0.7200 -0.9821  2.2856
10501SOL     OW42181   2.808   9.190   1.797  0.3370 -0.6937 -0.3906
10501SOL    HW142182   2.778   9.109   1.745  0.0526 -1.0067  0.2466
10501SOL    HW242183   2.862   9.160   1.876 -0.5498 -0.3194  0.3656
10502SOL     OW42184   8.239   5.849   2.362  0.0768 -0.1908 -0.2240
10502SOL    HW142185   8.230   5.867   2.460 -0.9933 -2.4553  0.1401
10502SOL    HW242186   8.329   5.810   2.342 -0.7541 -2.5249  0.3747
10503SOL     OW42187   3.194   8.037   2.059 -0.2980 -0.4478  0.1951
10503SOL    HW142188   3.235   8.069   1.974  1.2297 -0.6428  0.8394
10503SOL    HW242189   3.135   8.109   2.096 -0.9327 -0.3416 -0.9897
10504SOL     OW42190   7.790   5.327   2.551 -0.0974  0.2862  0.4406
10504SOL    HW142191   7.724   5.347   2.624  1.7068  0.4494  2.0792
10504SOL    HW242192   7.794   5.404   2.488 -1.1264  0.4680  0.5915
10505SOL     OW42193   9.557   8.503   2.395  0.4413  0.4092  0.2220
10505SOL    HW142194   9.653   8.476   2.397  1.3149  2.6736 -5.0113
10505SOL    HW242195   9.550   8.602   2.400 -1.6719  0.2812  0.4560
10506SOL     OW42196   1.111   6.265   1.573  0.4444 -0.1390 -0.0263
10506SOL    HW142197   1.145   6.172   1.555 -0.3816 -0.3633 -0.4494
10506SOL    HW242198   1.073   6.268   1.665  0.4179 -0.2366 -0.0332
10507SOL     OW42199   9.911   0.325   2.960  0.2755 -0.5656 -0.5258
10507SOL    HW142200   9.968   0.249   2.991 -0.7233 -1.8004 -1.6442
10507SOL    HW242201   9.814   0.299   2.969 -0.2402  2.3299  3.5131
10508SOL     OW42202   9.192   6.718   4.249 -0.1477  0.0980 -0.3301
10508SOL    HW142203   9.174   6.782   4.324 -0.1803 -0.5009  0.1745
10508SOL    HW242204   9.276   6.667   4.268  0.1464  0.3455 -0.9713
10509SOL     OW42205   9.276   4.403   3.134 -0.6802  0.0423  0.8892
10509SOL    HW142206   9.285   4.309   3.167 -0.4120  0.1116  1.0127
10509SOL    HW242207   9.254   4.402   3.037 -0.3428 -0.1433  0.8126
10510SOL     OW42208   8.729   5.386   2.961 -0.5405 -0.5587  0.0029
10510SOL    HW142209   8.658   5.382   3.031 -0.7510  2.3292  0.0011
10510SOL    HW242210   8.819   5.378   3.006 -0.5920  3.0559  0.8840
10511SOL     OW42211   4.334   3.533   4.523 -0.6417 -0.0129 -0.3925
10511SOL    HW142212   4.279   3.572   4.449 -1.2914 -1.3092 -0.5959
10511SOL    HW242213   4.280   3.465   4.573  0.2782 -0.2022  0.3554
10512SOL     OW42214   2.238   5.147   0.838  0.2777 -0.1498  0.1605
10512SOL    HW142215   2.233   5.100   0.927 -2.1106  0.5085  0.4084
10512SOL    HW242216   2.324   5.124   0.793  2.1347  0.4972  3.2049
10513SOL     OW42217   1.466   1.762   0.925  0.5765  0.2400 -0.0620
10513SOL    HW142218   1.407   1.801   0.854  0.6751 -1.2465 -0.9760
10513SOL    HW242219   1.465   1.821   1.005 -4.1131 -0.9618  0.9020
10514SOL     OW42220   9.209   0.278   3.207 -0.4387  0.2168  0.1088
10514SOL    HW142221   9.171   0.319   3.290  0.7727  3.7362 -0.9824
10514SOL    HW242222   9.190   0.336   3.129 -0.8083 -2.6274 -1.9970
10515SOL     OW42223   9.548   4.320   1.879  0.1669 -0.0185 -0.5896
10515SOL    HW142224   9.560   4.248   1.811  1.0839 -0.5169  0.0850
10515SOL    HW242225   9.638   4.355   1.907 -0.1284 -0.7339  1.3187
10516SOL     OW42226   0.635   6.634   2.288  0.3519  0.4346  0.0400
10516SOL    HW142227   0.693   6.627   2.207 -0.0691 -1.1562 -0.1398
10516SOL    HW242228   0.617   6.543   2.324 -0.6632  1.0327  1.0768
10517SOL     OW42229   9.374   0.065   4.472 -0.6730 -0.4408 -0.0732
10517SOL    HW142230   9.321   0.038   4.391  0.8857  0.4453 -1.4446
10517SOL    HW242231   9.342   0.154   4.504 -0.3895 -0.1452 -0.5887
10518SOL     OW42232   2.096   1.321   1.784  0.2641 -0.2008 -0.5021
10518SOL    HW142233   2.050   1.369   1.858 -1.3553 -0.8366 -1.0912
10518SOL    HW242234   2.173   1.377   1.751 -0.0233  0.8196  0.5360
10519SOL     OW42235   7.883   1.341   4.567  0.0735 -0.2341 -0.1651
10519SOL    HW142236   7.844   1.265   4.620 -1.8860  2.0219  1.7553
10519SOL    HW242237   7.953   1.387   4.622  2.6332 -1.7649 -2.0579
10520SOL     OW42238   3.712   9.138   0.701  0.3774  0.2183 -0.0134
10520SOL    HW142239   3.724   9.060   0.639 -0.9485  1.4397 -1.8477
10520SOL    HW242240   3.687   9.219   0.648 -2.2381  0.9593  2.2662
10521SOL     OW42241   5.345   8.891   2.948 -0.2033  0.0902 -0.0668
10521SOL    HW142242   5.341   8.896   2.848  0.3811  0.5456 -0.0728
10521SOL    HW242243   5.299   8.809   2.980 -1.5452  0.6138 -0.6367
10522SOL     OW42244   4.128   1.016   2.468  0.3313 -0.3609 -0.4892
10522SOL    HW142245   4.067   0.973   2.402 -0.5383  0.5349 -0.2870
10522SOL    HW242246   4.161   1.104   2.431 -1.2899  0.8265  0.8240
10523SOL     OW42247   2.036   3.864   3.606 -0.2612  0.6057 -0.0273
10523SOL    HW142248   1.997   3.851   3.515  0.1076  0.4475 -0.1655
10523SOL    HW242249   1.967   3.903   3.667  0.0531  2.5508 -0.8832
10524SOL     OW42250   9.978   0.405   4.633  0.1523 -0.4257  0.6352
10524SOL    HW142251   9.953   0.502   4.628 -0.3907 -0.5223  1.3439
10524SOL    HW242252  10.071   0.393   4.597  0.1302  0.3175  0.3133
10525SOL     OW42253   3.582   5.216   0.649 -0.0060  0.0772 -0.2947
10525SOL    HW142254   3.549   5.236   0.557  2.3513  1.3872 -0.8897
10525SOL    HW242255   3.550   5.287   0.712  0.6553  0.6979 -0.6481
10526SOL     OW42256   0.918   2.952   3.588 -0.0387 -0.2362 -0.5358
10526SOL    HW142257   0.835   2.929   3.536 -0.5265 -0.7782  0.4692
10526SOL    HW242258   0.894   3.016   3.662  0.6129  0.3623 -0.8364
10527SOL     OW42259   2.052   4.818   0.425  0.2838  0.2430  0.1968
10527SOL    HW142260   2.134   4.859   0.466 -0.4152 -0.3383  2.1839
10527SOL    HW242261   2.063   4.719   0.419 -0.9047 -0.0094  1.9396
10528SOL     OW42262   1.635   7.605   4.272  0.5408  0.1607  0.0367
10528SOL    HW142263   1.666   7.669   4.202  0.0699 -0.7786 -1.0493
10528SOL    HW242264   1.541   7.627   4.298 -0.0592 -0.8138 -1.2331
10529SOL     OW42265   4.111   9.807   2.720  0.3991  0.4021 -0.1055
10529SOL    HW142266   4.147   9.713   2.725 -0.3898 -0.1231 -2.8807
10529SOL    HW242267   4.156   9.855   2.644 -0.2737  1.7692  0.3539
10530SOL     OW42268   6.634   9.527   1.483  0.1633 -0.3325 -0.0365
10530SOL    HW142269   6.685   9.539   1.568  1.0457  1.8214 -0.8297
10530SOL    HW242270   6.536   9.538   1.501  0.2517 -1.0850  0.9067
10531SOL     OW42271   8.988   1.913   1.556  0.3962  0.2182 -0.2257
10531SOL    HW142272   9.006   1.859   1.474 -0.7766  0.7374 -0.8523
10531SOL    HW242273   9.003   1.858   1.637 -0.9455 -1.1161 -0.8570
10532SOL     OW42274   1.698   4.952   0.174 -0.2590  0.1961  0.2608
10532SOL    HW142275   1.629   4.897   0.220 -1.4295  0.9686 -0.5711
10532SOL    HW242276   1.739   4.898   0.100 -0.4638 -0.0155  0.3021
10533SOL     OW42277   0.858   1.833   3.561 -0.6944 -0.3259 -0.1761
10533SOL    HW142278   0.790   1.824   3.633 -0.9992 -1.7243 -0.6150
10533SOL    HW242279   0.910   1.747   3.553  0.8601  0.5829 -0.0991
10534SOL     OW42280   0.413   5.000   3.020  0.0863  0.0515 -0.8431
10534SOL    HW142281   0.322   5.010   3.059  0.5343  1.2199 -0.0965
10534SOL    HW242282   0.446   4.907   3.037 -0.5821 -0.0898 -0.3039
10535SOL     OW42283   5.275   9.733   1.627 -0.6542 -0.3591 -0.1398
10535SOL    HW142284   5.183   9.767   1.612 -1.1647 -1.3077  0.7561
10535SOL    HW242285   5.292   9.725   1.726  0.3787 -0.2015 -0.2970
10536SOL     OW42286   0.841   1.710   3.195  0.1458 -0.1773  0.0883
10536SOL    HW142287   0.795   1.793   3.226  0.6841  0.8016 -1.6731
10536SOL    HW242288   0.934   1.732   3.167  0.4720 -1.4824  0.1160
10537SOL     OW42289   1.854   9.182   3.209 -0.4610 -0.5080 -0.7570
10537SOL    HW142290   1.914   9.228   3.274 -0.3774 -0.6890 -0.7069
10537SOL    HW242291   1.903   9.166   3.123 -0.5824 -0.2367 -0.8782
10538SOL     OW42292   3.163   1.476   4.095  0.3825  0.3356 -0.0325
10538SOL    HW142293   3.145   1.558   4.041 -0.2810  0.2816  0.1046
10538SOL    HW242294   3.077   1.438   4.129  0.9062  1.4361  2.6240
10539SOL     OW42295   5.392   2.671   1.511  0.1617  0.2180 -0.0084
10539SOL    HW142296   5.426   2.763   1.495  0.0622  0.3286  0.3992
10539SOL    HW242297   5.341   2.639   1.431  0.0113  0.5968 -0.0654
10540SOL     OW42298   0.079   4.900   4.132 -0.1335 -0.3949 -0.2649
10540SOL    HW142299   0.061   4.801   4.136  0.5241 -0.5022 -0.0075
10540SOL    HW242300  -0.006   4.949   4.153 -0.0763 -0.9212  1.2948
10541SOL     OW42301   7.949   8.809   2.090 -0.5361  0.3426  0.4160
10541SOL    HW142302   8.014   8.857   2.030 -0.4286  0.0370  0.2895
10541SOL    HW242303   7.866   8.789   2.039 -0.0281 -0.8823  0.0494
10542SOL     OW42304   9.176   9.538   0.300 -0.0400 -0.5304 -0.5542
10542SOL    HW142305   9.273   9.560   0.290 -0.1730  0.8124  0.9191
10542SOL    HW242306   9.121   9.615   0.268 -0.5941 -0.7214 -0.0728
10543SOL     OW42307   8.125   4.690   2.642  0.3334 -0.2807 -0.1067
10543SOL    HW142308   8.089   4.779   2.613  0.1380  0.0594  1.1511
10543SOL    HW242309   8.134   4.631   2.562 -0.6201  0.4848 -0.8042
10544SOL     OW42310   8.383   0.051   0.784 -0.1934 -0.0263  0.0912
10544SOL    HW142311   8.397  -0.024   0.720 -1.3410 -0.3914  0.2569
10544SOL    HW242312   8.297   0.037   0.834  0.5521  0.3875  1.5147
10545SOL     OW42313   0.371   2.019   4.167 -0.3100  0.1890  0.4734
10545SOL    HW142314   0.391   2.075   4.087 -2.0959  0.0134 -0.1189
10545SOL    HW242315   0.424   1.934   4.162  0.6600  0.7993  0.2092
10546SOL     OW42316   9.887   8.362   0.119  0.1241  0.0520 -0.1524
10546SOL    HW142317   9.976   8.317   0.127 -0.7492 -1.7326 -0.2598
10546SOL    HW242318   9.829   8.335   0.196 -0.6507  0.4996 -0.5735
10547SOL     OW42319   9.824   6.198   3.957  0.0402  0.0881 -0.0335
10547SOL    HW142320   9.874   6.183   3.872  0.3559 -1.7909  0.4704
10547SOL    HW242321   9.840   6.292   3.989  2.1172 -0.0424 -0.6187
10548SOL     OW42322   2.949   2.095   2.089 -0.0874  0.1322  0.2092
10548SOL    HW142323   2.904   2.098   2.179  2.3917 -0.1639  1.4916
10548SOL    HW242324   3.002   2.010   2.081 -0.2665  0.1712 -1.5389
10549SOL     OW42325   2.935   4.703   1.918  0.4251  0.7344  0.1100
10549SOL    HW142326   2.930   4.650   1.834  1.2698 -0.4362  0.7898
10549SOL    HW242327   2.847   4.698   1.966  0.0935  1.0247 -0.4498
10550SOL     OW42328   9.447   5.261   2.326  0.0956  0.4768  0.4738
10550SOL    HW142329   9.526   5.261   2.265 -1.0260  0.1508 -1.0140
10550SOL    HW242330   9.372   5.311   2.283 -0.9499 -0.4100  1.2523
10551SOL     OW42331   0.267   3.604   4.739 -0.1132  0.5853  0.2907
10551SOL    HW142332   0.359   3.631   4.709  1.1655  0.7724  4.0815
10551SOL    HW242333   0.228   3.539   4.673  2.1984  1.4484 -2.0246
10552SOL     OW42334   3.315   0.856   0.354 -0.5259 -0.4770  0.3269
10552SOL    HW142335   3.381   0.870   0.281 -1.0225  0.3140  0.0213
10552SOL    HW242336   3.259   0.775   0.333 -0.2932 -0.5827  0.1124
10553SOL     OW42337   5.116   9.833   2.968  0.1435  0.0895 -0.1213
10553SOL    HW142338   5.143   9.746   3.008 -0.5009 -1.1083 -2.2077
10553SOL    HW242339   5.198   9.885   2.943  0.5407  0.5662  2.0658
10554SOL     OW42340   1.644   9.181   4.626  0.4893  0.3220  0.3612
10554SOL    HW142341   1.715   9.247   4.654  0.7833 -0.5083  1.6333
10554SOL    HW242342   1.653   9.098   4.682 -0.7503 -0.2499 -0.2882
10555SOL     OW42343   4.830   6.958   2.508  0.8611 -0.1498 -0.0054
10555SOL    HW142344   4.923   6.936   2.479  0.4551  1.4651 -2.6913
10555SOL    HW242345   4.764   6.915   2.446 -0.0744  2.1948 -0.6975
10556SOL     OW42346   1.900   5.346   3.456 -0.2274  0.2863 -0.0071
10556SOL    HW142347   1.942   5.264   3.495 -0.4008  0.0157 -0.3804
10556SOL    HW242348   1.817   5.320   3.407 -2.2096  1.1136  2.7905
10557SOL     OW42349   8.643   8.867   3.077  0.2064 -0.1898 -0.4385
10557SOL    HW142350   8.728   8.916   3.096  0.2605 -1.2050  2.1630
10557SOL    HW242351   8.566   8.931   3.087  0.6078  0.6994 -2.6803
10558SOL     OW42352   9.330   8.068   0.604 -0.2774  0.2052  0.5160
10558SOL    HW142353   9.369   8.000   0.543 -1.7613  1.0295 -1.4066
10558SOL    HW242354   9.303   8.024   0.690  1.4819 -1.0362  0.4578
10559SOL     OW42355   0.928   8.309   2.349  0.3979  0.1755 -0.2782
10559SOL    HW142356   0.897   8.329   2.442 -1.4519  0.0928 -0.8607
10559SOL    HW242357   0.923   8.211   2.333  1.4359  0.1059 -0.2325
10560SOL     OW42358   4.635   1.895   2.193  0.0633  0.0616  0.0619
10560SOL    HW142359   4.696   1.851   2.127  1.0400  1.0043  0.3227
10560SOL    HW242360   4.620   1.833   2.271  0.6480 -0.2003 -0.0312
10561SOL     OW42361   0.999   3.807   0.005  0.4275 -0.4865  0.7299
10561SOL    HW142362   1.057   3.750  -0.054  0.1445  0.5322 -0.5486
10561SOL    HW242363   1.000   3.901  -0.028 -2.7550 -0.6311  0.1064
10562SOL     OW42364   8.615   0.392   3.753  0.1344  0.0443  0.0622
10562SOL    HW142365   8.519   0.405   3.732  0.6867  3.3057 -0.7698
10562SOL    HW242366   8.626   0.379   3.852 -1.0433  1.1146  0.3502
10563SOL     OW42367   3.439   1.474   3.257  0.0282  0.2354  0.6578
10563SOL    HW142368   3.485   1.388   3.278  1.7667  0.7714 -0.8428
10563SOL    HW242369   3.459   1.540   3.330 -0.1101 -0.1732  1.0709
10564SOL     OW42370   0.184   6.899   4.037 -0.6046 -0.0828  0.1584
10564SOL    HW142371   0.270   6.868   4.077 -1.2741 -0.0998  1.6335
10564SOL    HW242372   0.188   6.998   4.022 -0.4211 -0.0356  0.5071
10565SOL     OW42373   0.066   3.050   3.008 -0.2473 -0.4509  0.4672
10565SOL    HW142374   0.123   2.976   3.044  0.0676 -0.2153  0.4520
10565SOL    HW242375   0.110   3.091   2.929  1.2788  2.0603  2.5452
10566SOL     OW42376   9.849   4.888   3.332  0.0415  0.1708  0.1978
10566SOL    HW142377   9.841   4.847   3.423 -0.9993 -1.7648 -0.7396
10566SOL    HW242378   9.845   4.987   3.340 -1.3886 -0.0162  2.1372
10567SOL     OW42379   3.822   7.952   4.740 -0.2449  0.4210 -0.7291
10567SOL    HW142380   3.873   7.933   4.824  1.1553  1.2127 -1.3623
10567SOL    HW242381   3.750   8.018   4.759  0.2407  0.8038 -0.1854
10568SOL     OW42382   2.789   5.002   0.076  0.0070  0.0411  0.1048
10568SOL    HW142383   2.831   4.920   0.039  0.2811 -0.2424  1.0228
10568SOL    HW242384   2.692   5.002   0.056 -0.5825 -2.0062  2.6788
10569SOL     OW42385   9.856   2.462   3.796 -0.1329  0.4323 -0.3763
10569SOL    HW142386   9.877   2.513   3.713 -0.7163 -1.6217 -1.8324
10569SOL    HW242387   9.791   2.514   3.852  0.0683  1.7183 -1.3093
10570SOL     OW42388   1.393   3.734   4.163 -0.0551 -0.2969  0.1283
10570SOL    HW142389   1.467   3.678   4.200 -0.0885 -0.1049  0.4912
10570SOL    HW242390   1.424   3.779   4.079  0.6432  0.6991  0.8993
10571SOL     OW42391   2.211   2.513   2.986  0.2445  0.1586 -0.1695
10571SOL    HW142392   2.141   2.577   2.954 -0.1487  0.5262  1.3912
10571SOL    HW242393   2.188   2.421   2.955 -1.0765  0.2368  0.5576
10572SOL     OW42394   9.930   3.423   2.704  0.1724 -0.1914  0.5260
10572SOL    HW142395   9.849   3.470   2.670 -0.4777 -0.9037  1.0788
10572SOL    HW242396  10.005   3.436   2.639 -1.1229 -1.7419 -1.3392
10573SOL     OW42397   4.391   9.854   0.313  0.1430 -0.1527  0.0032
10573SOL    HW142398   4.439   9.856   0.225  1.2733 -0.1261  0.6010
10573SOL    HW242399   4.293   9.869   0.298  0.0487 -1.9989 -1.4286
10574SOL     OW42400   5.613   9.457   3.145 -0.2192 -0.0210 -0.1374
10574SOL    HW142401   5.579   9.538   3.193  0.8679  0.0274  0.5502
10574SOL    HW242402   5.691   9.482   3.088 -1.4148 -0.1045 -1.8394
10575SOL     OW42403   3.030   7.116   2.625 -0.6870 -0.2827 -0.2009
10575SOL    HW142404   2.953   7.103   2.688 -1.4741  1.1823 -0.8296
10575SOL    HW242405   3.079   7.200   2.649  0.3929 -0.9191 -0.1474
10576SOL     OW42406   8.528   7.004   3.944 -0.9139 -0.0995  0.2352
10576SOL    HW142407   8.577   7.044   4.021 -2.3918  0.2448  1.0260
10576SOL    HW242408   8.437   6.975   3.974 -1.6911  0.4820 -1.4888
10577SOL     OW42409   7.121   9.758   3.790 -0.6710  0.2030 -0.6269
10577SOL    HW142410   7.160   9.846   3.818 -0.6759 -0.3132  1.0175
10577SOL    HW242411   7.103   9.760   3.692 -0.2227  1.8711 -0.6905
10578SOL     OW42412   5.119   9.102   1.873 -0.2070  0.4669  0.2378
10578SOL    HW142413   5.035   9.083   1.822  0.4913  0.4442 -0.9227
10578SOL    HW242414   5.114   9.195   1.911  0.2923  1.4501 -1.9976
10579SOL     OW42415   4.434   0.771   1.345  0.7493  0.0544 -0.0516
10579SOL    HW142416   4.485   0.776   1.259 -0.2480  0.9367 -0.5963
10579SOL    HW242417   4.346   0.819   1.336  0.5376 -0.0154  1.3917
10580SOL     OW42418   0.353   8.962   0.293 -0.3892 -0.1259  0.5577
10580SOL    HW142419   0.408   9.045   0.283 -0.2218 -0.3630 -0.5251
10580SOL    HW242420   0.404   8.895   0.347  0.6830 -0.5872 -0.9882
10581SOL     OW42421   1.620   6.327   0.040 -0.1880 -0.3015  0.0464
10581SOL    HW142422   1.719   6.335   0.053  0.0210 -0.0891 -1.5142
10581SOL    HW242423   1.575   6.320   0.128  1.2470 -0.6360  0.7701
10582SOL     OW42424   8.654   9.748   3.286 -0.1126  0.2098  0.1171
10582SOL    HW142425   8.745   9.725   3.321 -0.9704  0.5046  2.6028
10582SOL    HW242426   8.663   9.812   3.209  1.7466  0.7110  0.7212
10583SOL     OW42427   1.679   8.339   0.999 -0.3060 -0.0582  0.1966
10583SOL    HW142428   1.591   8.335   1.046 -0.3206  2.5583  0.4849
10583SOL    HW242429   1.752   8.352   1.066  0.0903 -0.1774 -0.2095
10584SOL     OW42430   9.500   4.073   0.729  0.4599  0.0041 -0.6442
10584SOL    HW142431   9.507   4.126   0.645 -3.2374 -0.2103 -1.1680
10584SOL    HW242432   9.447   3.990   0.711 -1.0958  0.3598  2.0554
10585SOL     OW42433   1.714   2.051   1.451  0.1665  0.6023  0.2423
10585SOL    HW142434   1.697   1.972   1.393  2.0408 -0.0613  0.5692
10585SOL    HW242435   1.689   2.030   1.545  1.5709  0.0480  0.5030
10586SOL     OW42436   2.516   9.386   0.948  0.3899 -0.5866  0.0507
10586SOL    HW142437   2.530   9.308   0.887 -0.0213 -0.5713 -0.0601
10586SOL    HW242438   2.420   9.413   0.947  0.3715 -0.6248  0.7512
10587SOL     OW42439   8.803   2.499   3.466  0.2821 -0.1419  0.4054
10587SOL    HW142440   8.794   2.501   3.367  1.1346  0.1953  0.3374
10587SOL    HW242441   8.735   2.436   3.504 -0.5724  0.3205 -0.3265
10588SOL     OW42442   9.468   3.866   1.395  0.0568 -0.0439  0.0485
10588SOL    HW142443   9.452   3.894   1.300  1.1569  1.8284  0.3851
10588SOL    HW242444   9.427   3.934   1.456  1.1767 -0.1261  0.8952
10589SOL     OW42445   9.645   5.792   4.525 -0.1157 -0.4234  0.0162
10589SOL    HW142446   9.707   5.797   4.604  1.1370 -1.3947 -0.8901
10589SOL    HW242447   9.551   5.784   4.558  0.3653 -0.5275  1.4245
10590SOL     OW42448   7.416   9.828   3.504 -0.3442 -0.2033 -0.0413
10590SOL    HW142449   7.324   9.789   3.512  0.4831 -2.1734  0.0185
10590SOL    HW242450   7.478   9.761   3.464  1.4337  0.5552  1.3533
10591SOL     OW42451   9.699   8.289   0.320  0.3890  0.1823 -0.3298
10591SOL    HW142452   9.663   8.319   0.409 -0.8340  1.8170 -1.3399
10591SOL    HW242453   9.698   8.189   0.315  0.3860  0.0797  1.4542
10592SOL     OW42454   9.300   7.292   0.511  0.1679 -0.0571 -0.1671
10592SOL    HW142455   9.370   7.265   0.577  0.4598 -1.1488 -0.9215
10592SOL    HW242456   9.343   7.346   0.438 -0.4060  2.5399  1.3278
10593SOL     OW42457   8.558   8.694   3.321 -1.0243  0.2120  0.0017
10593SOL    HW142458   8.618   8.615   3.328 -0.1728  0.8833  0.3201
10593SOL    HW242459   8.593   8.757   3.252 -1.4353  0.5374  0.0858
10594SOL     OW42460   0.598   4.876   3.348 -0.6606 -1.3702  0.4460
10594SOL    HW142461   0.509   4.893   3.390 -0.4735 -1.2004  0.7749
10594SOL    HW242462   0.647   4.806   3.399 -0.3206 -0.9680  0.6789
10595SOL     OW42463   9.675   3.434   3.162  0.7917 -0.0337 -0.3393
10595SOL    HW142464   9.716   3.445   3.071 -2.6652  0.7424 -1.8835
10595SOL    HW242465   9.606   3.361   3.158  0.2564  0.3582  1.5607
10596SOL     OW42466   3.985   8.673   1.025 -0.0344 -0.2754 -0.2207
10596SOL    HW142467   3.920   8.660   1.100  0.6607 -0.3222  0.3848
10596SOL    HW242468   4.058   8.735   1.055 -0.3032  0.5248 -1.2050
10597SOL     OW42469   0.353   4.923   0.733  0.1250  0.5650 -0.2729
10597SOL    HW142470   0.353   5.013   0.777 -0.5590  0.2464  0.3781
10597SOL    HW242471   0.349   4.851   0.802  0.9638  0.0226 -0.7826
10598SOL     OW42472   1.990   5.263   0.468 -0.0884 -0.4582 -0.5048
10598SOL    HW142473   2.027   5.202   0.398 -2.6483 -2.0216 -0.5703
10598SOL    HW242474   1.975   5.212   0.553 -0.2939  0.5744  0.0961
10599SOL     OW42475   0.462   1.667   1.997  0.4603  0.0770  0.0591
10599SOL    HW142476   0.435   1.703   2.086 -0.5147  0.9572 -0.5756
10599SOL    HW242477   0.552   1.703   1.972  0.4177  0.3973  0.3651
10600SOL     OW42478   4.208   8.749   1.774  0.2264  0.0572  0.2776
10600SOL    HW142479   4.151   8.808   1.832 -0.1153 -0.2062  0.2145
10600SOL    HW242480   4.238   8.800   1.694 -1.7593 -0.4307 -0.8235
10601SOL     OW42481   8.734   7.075   4.577  0.2185 -0.0802 -0.3170
10601SOL    HW142482   8.696   7.143   4.513  1.1855  0.7034 -0.0743
10601SOL    HW242483   8.703   7.096   4.669 -0.6526 -0.8311 -0.4308
10602SOL     OW42484   9.004   5.644   3.540 -0.0656 -0.3523  0.1447
10602SOL    HW142485   8.958   5.727   3.508 -1.1306 -1.6056 -1.6523
10602SOL    HW242486   8.955   5.564   3.507  1.6225 -1.7143  0.8840
10603SOL     OW42487   2.294   9.444   1.098 -0.3511  1.1001 -0.5477
10603SOL    HW142488   2.385   9.409   1.119 -0.2979  0.0409 -2.4528
10603SOL    HW242489   2.245   9.464   1.184  0.0413 -2.5253  0.6132
10604SOL     OW42490   1.036   6.833   4.662  0.0513  0.1444 -0.0576
10604SOL    HW142491   1.104   6.781   4.713  0.5242  1.7058  0.9074
10604SOL    HW242492   1.080   6.881   4.587  0.1678  1.8581  1.0953
10605SOL     OW42493   4.323   8.740   0.660  0.2549 -0.2502  0.1988
10605SOL    HW142494   4.408   8.790   0.649  0.3123 -0.7151 -1.6389
10605SOL    HW242495   4.323   8.693   0.748  0.9133  1.5763  1.2131
10606SOL     OW42496   2.278   8.079   1.380 -0.3051  0.1623 -0.0590
10606SOL    HW142497   2.178   8.070   1.386 -0.2286 -0.3506  0.5368
10606SOL    HW242498   2.315   8.001   1.329 -0.0334 -0.7286  1.4455
10607SOL     OW42499   4.101   3.035   3.163 -0.9635  0.3467  0.1822
10607SOL    HW142500   4.009   3.043   3.203 -1.0179  2.2252 -0.2823
10607SOL    HW242501   4.158   2.979   3.223 -1.8051  0.9210  1.5516
10608SOL     OW42502   2.554   6.863   3.363  0.1587  0.3623  0.3511
10608SOL    HW142503   2.594   6.940   3.413  3.1679 -0.0271 -1.2815
10608SOL    HW242504   2.544   6.888   3.267 -1.9043 -0.2122  0.3976
10609SOL     OW42505   1.705   0.812   3.233  0.8584 -0.1612  0.6642
10609SOL    HW142506   1.690   0.910   3.245 -0.4713 -0.4495  1.5149
10609SOL    HW242507   1.653   0.779   3.154  0.2418 -0.4171  1.1718
10610SOL     OW42508   5.362   9.142   4.077  0.4239 -0.8451 -0.4087
10610SOL    HW142509   5.457   9.172   4.080  0.1167  0.0910  0.4330
10610SOL    HW242510   5.315   9.187   4.001  0.5808 -1.0639 -0.6333
10611SOL     OW42511   8.810   7.992   0.280 -0.5539  0.0877 -0.0972
10611SOL    HW142512   8.732   7.990   0.343  0.7179  0.4471  1.5243
10611SOL    HW242513   8.880   8.054   0.316  1.5913 -2.1743 -0.2014
10612SOL     OW42514   6.242   7.983   2.071  0.3350  0.0985 -0.0714
10612SOL    HW142515   6.233   7.884   2.083 -1.1912  0.1464 -0.7615
10612SOL    HW242516   6.230   8.028   2.160  0.8973 -0.3249  0.2215
10613SOL     OW42517   8.536   0.437   1.397  0.0308 -1.0633 -0.0784
10613SOL    HW142518   8.607   0.462   1.332 -1.2863  4.8386  0.4513
10613SOL    HW242519   8.578   0.418   1.486  1.1717 -1.1488 -0.6209
10614SOL     OW42520   2.493   3.568   3.566  0.2960  0.0720  0.2176
10614SOL    HW142521   2.412   3.616   3.601  0.9134  1.1896  0.1259
10614SOL    HW242522   2.464   3.500   3.499 -0.3835  2.4170 -1.9426
10615SOL     OW42523   7.081   8.822   3.594  0.2063 -0.5570  0.1472
10615SOL    HW142524   7.032   8.761   3.532  0.6801 -0.5470 -0.2336
10615SOL    HW242525   7.017   8.857   3.664 -0.2301 -0.8852 -0.0884
10616SOL     OW42526   6.132   7.270   3.279 -0.2442 -0.1010  0.0023
10616SOL    HW142527   6.214   7.276   3.222  0.8647 -2.3588  1.3168
10616SOL    HW242528   6.056   7.316   3.233  0.8019 -1.2611 -2.9483
10617SOL     OW42529   8.535   8.863   2.388 -0.0038 -0.2487 -0.3608
10617SOL    HW142530   8.519   8.888   2.483  1.7008  0.0550 -0.1383
10617SOL    HW242531   8.485   8.926   2.328 -0.4652  0.0262  0.3155
10618SOL     OW42532   1.256   1.842   2.009  0.2975  0.2170 -0.0752
10618SOL    HW142533   1.340   1.817   1.962  0.6603  0.2759  0.5414
10618SOL    HW242534   1.201   1.761   2.025 -1.2035  0.5333 -3.2156
10619SOL     OW42535   0.662   4.113   3.686 -0.2016 -0.6027  0.2005
10619SOL    HW142536   0.682   4.015   3.687 -1.5274 -0.8974 -0.6228
10619SOL    HW242537   0.571   4.128   3.647 -0.7690  0.8140  1.9816
10620SOL     OW42538   1.045   8.069   4.041  0.5072  0.2456 -0.5754
10620SOL    HW142539   1.082   8.076   3.948 -0.2253  1.6859 -0.7633
10620SOL    HW242540   1.077   8.147   4.095 -0.7429  0.5018 -0.2040
10621SOL     OW42541   1.947   6.098   1.901 -0.3739  0.1215 -0.2444
10621SOL    HW142542   1.964   6.168   1.969 -2.3416 -0.1734  0.5895
10621SOL    HW242543   1.885   6.133   1.831 -0.0894 -0.2822 -0.7121
10622SOL     OW42544   9.469   0.397   3.848  0.4285 -0.1311 -0.0120
10622SOL    HW142545   9.438   0.306   3.823 -1.8219  0.0502  1.9480
10622SOL    HW242546   9.400   0.464   3.822  2.5824  1.2144 -2.5479
10623SOL     OW42547   2.453   9.520   0.107  0.3549  0.4048  0.1219
10623SOL    HW142548   2.399   9.568   0.176 -2.3686  0.5135 -2.0229
10623SOL    HW242549   2.470   9.426   0.137 -1.3783  0.2434  0.6400
10624SOL     OW42550   3.673   9.767   3.560 -0.2390  0.6645 -0.4187
10624SOL    HW142551   3.761   9.723   3.546  0.2582  1.3396  0.5482
10624SOL    HW242552   3.606   9.728   3.496  1.0120  0.9251 -1.9174
10625SOL     OW42553   0.666   4.203   3.045 -0.6455  0.2477  0.1649
10625SOL    HW142554   0.755   4.246   3.036 -0.3784 -0.6587 -1.7479
10625SOL    HW242555   0.594   4.271   3.030 -0.2885  0.9829  1.7351
10626SOL     OW42556   4.722   7.738   2.285 -0.5564 -0.4300  0.8737
10626SOL    HW142557   4.646   7.696   2.335 -2.9018  0.9469 -1.4285
10626SOL    HW242558   4.689   7.775   2.198  2.1416  2.8868  1.1449
10627SOL     OW42559   1.490   3.893   0.768 -0.4298 -0.0842  0.5647
10627SOL    HW142560   1.426   3.843   0.709  0.2648 -1.0385  0.6016
10627SOL    HW242561   1.466   3.879   0.864  0.3224 -1.1118  0.6033
10628SOL     OW42562   2.354   1.615   3.276  0.3139 -0.0166  0.1365
10628SOL    HW142563   2.305   1.624   3.362 -0.3140  0.1433 -0.2348
10628SOL    HW242564   2.299   1.653   3.202  1.7302  1.7462 -0.0348
10629SOL     OW42565   8.003   4.297   4.772 -0.0684 -0.3457  0.3689
10629SOL    HW142566   8.065   4.344   4.710 -2.2067 -0.2393 -1.7250
10629SOL    HW242567   8.028   4.200   4.776 -0.0445 -0.3952 -0.8209
10630SOL     OW42568   4.890   0.802   2.843 -0.4309  0.2651 -0.5946
10630SOL    HW142569   4.841   0.729   2.796 -1.2651  0.8834 -0.6900
10630SOL    HW242570   4.920   0.769   2.933  0.0947 -0.5180 -1.0483
10631SOL     OW42571   8.325   0.366   4.612 -0.0040 -0.2752 -0.1307
10631SOL    HW142572   8.241   0.367   4.559 -0.4341 -0.0144  0.5475
10631SOL    HW242573   8.404   0.376   4.551 -0.3854 -1.9478 -0.9074
10632SOL     OW42574   9.708   2.344   0.028  0.8684 -0.4128 -0.5404
10632SOL    HW142575   9.637   2.408   0.000  0.0114 -1.3612 -0.5703
10632SOL    HW242576   9.782   2.344  -0.040  1.7934  1.9429  0.4358
10633SOL     OW42577   5.400   9.891   2.142  0.5616 -0.0733  0.1654
10633SOL    HW142578   5.326   9.834   2.177 -0.0029 -1.0130 -2.4497
10633SOL    HW242579   5.487   9.855   2.176 -0.0691  0.1662  2.0852
10634SOL     OW42580   0.589   8.319   2.322 -0.3800  0.3221  0.0573
10634SOL    HW142581   0.598   8.285   2.416  0.6661 -0.2859 -0.2542
10634SOL    HW242582   0.639   8.259   2.260 -2.6977 -0.4127 -1.1636
10635SOL     OW42583   0.394   4.900   0.251  0.7741  0.1409  0.5698
10635SOL    HW142584   0.340   4.984   0.258  1.1972  0.3307  1.6490
10635SOL    HW242585   0.420   4.869   0.343  0.5023 -1.2507  0.1985
10636SOL     OW42586   1.587   5.833   3.840 -0.5602  0.3014 -0.2247
10636SOL    HW142587   1.666   5.893   3.852 -1.1658  1.0984 -0.1432
10636SOL    HW242588   1.576   5.775   3.921 -0.1382  0.2806 -0.1831
10637SOL     OW42589   3.748   2.015   0.559 -0.4414  0.0765  0.8200
10637SOL    HW142590   3.683   1.964   0.502 -0.9183 -1.1036  2.3846
10637SOL    HW242591   3.720   2.112   0.562 -0.5981  0.0873 -0.6549
10638SOL     OW42592   1.037   0.162   2.921 -0.1869 -0.1164  0.1470
10638SOL    HW142593   1.053   0.236   2.856 -1.1204  0.3238  0.4170
10638SOL    HW242594   1.088   0.081   2.892  1.7874  0.9881  0.5077
10639SOL     OW42595   9.473   5.740   2.736  0.2775 -0.4817 -0.6553
10639SOL    HW142596   9.542   5.703   2.799  0.9693  0.8795 -0.6004
10639SOL    HW242597   9.386   5.692   2.750  0.4472 -0.2416  1.2831
10640SOL     OW42598   3.693   7.897   3.336  0.2051 -0.6106  0.1872
10640SOL    HW142599   3.630   7.831   3.377 -0.8291 -1.1093 -2.1316
10640SOL    HW242600   3.760   7.926   3.405 -1.8862 -0.8653  2.4167
10641SOL     OW42601   7.951   1.991   3.991 -0.1957  0.3892 -0.6417
10641SOL    HW142602   8.020   1.953   3.929  0.2282 -2.5790  1.5335
10641SOL    HW242603   7.981   2.081   4.022  2.2578 -0.4440 -0.4866
10642SOL     OW42604   2.133   0.722   4.603  0.5288 -0.0378 -0.4857
10642SOL    HW142605   2.130   0.658   4.680 -0.6366  0.5086 -0.0697
10642SOL    HW242606   2.198   0.795   4.622  0.4003 -0.0202 -0.1115
10643SOL     OW42607   1.772   1.583   4.150  0.0762  0.2374  0.3722
10643SOL    HW142608   1.793   1.538   4.237 -1.3582 -2.3746 -0.5739
10643SOL    HW242609   1.852   1.579   4.090 -0.1321 -1.4058  0.1766
10644SOL     OW42610   5.097   8.369   4.096  0.4266 -0.4126 -0.3453
10644SOL    HW142611   5.168   8.424   4.050  0.5628 -0.1880  0.1236
10644SOL    HW242612   5.078   8.409   4.186 -0.0706 -0.6593 -0.3405
10645SOL     OW42613   9.976   8.801   0.363  0.0379 -0.0694 -0.1882
10645SOL    HW142614   9.904   8.774   0.427 -0.0831  1.6198  0.3973
10645SOL    HW242615  10.019   8.886   0.395  1.2589 -0.2447 -1.3422
10646SOL     OW42616   4.376   7.289   1.587  0.0703 -0.4833  0.1314
10646SOL    HW142617   4.362   7.293   1.686 -2.0946  1.8895 -0.2191
10646SOL    HW242618   4.389   7.382   1.552  2.6355 -1.4382 -1.5947
10647SOL     OW42619   3.585   7.038   3.033  0.1239  1.0358 -0.2239
10647SOL    HW142620   3.634   6.972   3.092 -0.4738 -0.6943 -1.6160
10647SOL    HW242621   3.642   7.060   2.954 -0.6814  0.2657 -1.0245
10648SOL     OW42622   2.617   5.319   4.304  0.1708 -0.1909 -0.2479
10648SOL    HW142623   2.668   5.374   4.370  1.1930  0.0128 -1.1933
10648SOL    HW242624   2.559   5.254   4.352  1.9134 -0.9705  0.8202
10649SOL     OW42625   4.036   9.868   3.277  0.2350 -0.3397 -0.2602
10649SOL    HW142626   4.122   9.841   3.235  1.0583  3.1070 -0.9375
10649SOL    HW242627   3.968   9.885   3.205  0.0102  0.2638  0.0928
10650SOL     OW42628   9.417   2.328   4.332 -0.1761  0.6508  0.0250
10650SOL    HW142629   9.325   2.367   4.323 -1.5530 -2.0648  1.3920
10650SOL    HW242630   9.409   2.229   4.349  3.0011  0.4553  0.7003
10651SOL     OW42631   3.089   3.851   1.708 -0.5123 -0.1676  0.3305
10651SOL    HW142632   3.112   3.839   1.611  1.7753  0.3221  0.7650
10651SOL    HW242633   2.998   3.815   1.725 -2.3480  2.7217 -2.6704
10652SOL     OW42634   1.437   7.028   1.735 -0.0830  0.7231  0.0381
10652SOL    HW142635   1.355   6.972   1.731 -0.1706  0.8697 -0.1867
10652SOL    HW242636   1.510   6.976   1.780 -0.2584  0.5476  0.1218
10653SOL     OW42637   9.317   8.573   4.271  0.2885  0.0475 -0.1622
10653SOL    HW142638   9.273   8.508   4.333  1.2270 -0.0911  0.3741
10653SOL    HW242639   9.263   8.582   4.188 -0.6653 -0.2282  0.4276
10654SOL     OW42640   0.541   3.137   4.464 -0.1366  0.3158 -0.0831
10654SOL    HW142641   0.501   3.224   4.435 -1.3053 -0.4537 -0.8144
10654SOL    HW242642   0.475   3.087   4.520 -0.2272 -0.9778 -1.3106
10655SOL     OW42643   8.114   5.259   1.699 -0.1576 -0.8005 -0.0819
10655SOL    HW142644   8.048   5.292   1.632  0.3372  0.1111 -0.1296
10655SOL    HW242645   8.203   5.248   1.656 -0.1793 -1.6399  0.0766
10656SOL     OW42646   7.494   7.562   2.548 -0.1116 -0.1307  0.5417
10656SOL    HW142647   7.448   7.505   2.479 -0.5324  0.5023  0.2889
10656SOL    HW242648   7.434   7.572   2.628 -0.0541 -0.0167  0.5713
10657SOL     OW42649   3.211   2.936   2.812 -0.7369 -0.5646  0.6882
10657SOL    HW142650   3.181   2.912   2.720  1.3103  1.0695 -0.4417
10657SOL    HW242651   3.256   2.857   2.854  1.1655 -0.3949 -0.9467
10658SOL     OW42652   6.919   9.252   0.978 -0.0007 -0.0119 -0.1700
10658SOL    HW142653   6.826   9.219   0.997  0.3808  0.2208  2.2419
10658SOL    HW242654   6.920   9.299   0.890 -2.6166  1.6730  0.6429
10659SOL     OW42655   7.847   0.948   4.462  0.2568  0.0238  0.0596
10659SOL    HW142656   7.913   0.940   4.537  0.8674  1.4485 -0.3055
10659SOL    HW242657   7.762   0.904   4.489  0.1635  1.3023  1.9661
10660SOL     OW42658   2.078   2.154   0.008 -0.0535  0.6616 -0.3704
10660SOL    HW142659   2.033   2.243   0.009 -0.0541  0.6901 -2.1542
10660SOL    HW242660   2.023   2.088   0.059 -0.2531  1.5662  0.6104
10661SOL     OW42661   5.491   3.172   0.598 -0.5121  0.1608  0.2734
10661SOL    HW142662   5.499   3.256   0.545  0.9685  0.5162  1.0367
10661SOL    HW242663   5.504   3.093   0.538 -0.4174  0.5154 -0.1748
10662SOL     OW42664   0.414   8.099   2.984  0.0596 -0.3503 -0.1592
10662SOL    HW142665   0.449   8.014   3.023  0.1377  0.2513  1.1223
10662SOL    HW242666   0.430   8.174   3.048  0.2872  0.6959 -1.4137
10663SOL     OW42667   7.815   8.873   0.122 -0.6838 -0.1585 -0.0712
10663SOL    HW142668   7.818   8.966   0.085 -0.3065  0.0790  0.5490
10663SOL    HW242669   7.781   8.810   0.052  0.8002  0.1526 -1.0971
10664SOL     OW42670   2.299   2.813   3.374  0.1265 -0.4273 -0.2570
10664SOL    HW142671   2.241   2.736   3.345  1.7882 -2.6992  2.1886
10664SOL    HW242672   2.366   2.832   3.302 -0.1600 -1.4076 -0.7983
10665SOL     OW42673   3.134   7.076   3.149  0.3566 -0.3130 -0.1257
10665SOL    HW142674   3.187   7.131   3.213  0.6788 -0.8430  0.0698
10665SOL    HW242675   3.164   6.981   3.154 -1.0528 -0.7490  0.4692
10666SOL     OW42676   0.337   9.069   1.422 -0.4447 -0.3391 -0.1378
10666SOL    HW142677   0.349   8.983   1.471 -1.9873 -0.9816 -0.8813
10666SOL    HW242678   0.370   9.145   1.479 -2.2693 -1.0549  1.9292
10667SOL     OW42679   8.077   3.848   4.424 -0.1205  0.2775  0.0758
10667SOL    HW142680   7.991   3.829   4.378 -1.1091  1.2139  1.5209
10667SOL    HW242681   8.117   3.932   4.387  0.0953 -0.0538 -0.4580
10668SOL     OW42682   7.967   3.440   4.533  0.1172 -0.1007 -0.1557
10668SOL    HW142683   8.043   3.476   4.478  0.7654 -0.1018  0.7223
10668SOL    HW242684   7.997   3.358   4.582 -0.0341  0.6558  1.2368
10669SOL     OW42685   3.021   8.609   1.976 -0.1455  0.0949 -0.3296
10669SOL    HW142686   2.977   8.593   2.065  1.0522 -0.3263  0.2060
10669SOL    HW242687   2.982   8.690   1.934 -1.0771  0.0186  0.3523
10670SOL     OW42688   9.575   6.756   4.296  0.3760  0.2894 -0.4394
10670SOL    HW142689   9.549   6.660   4.283  1.7841  0.0476 -1.6832
10670SOL    HW242690   9.632   6.785   4.219  0.0816  2.0877  0.0015
10671SOL     OW42691   8.684   3.420   0.178 -0.3411 -0.1335  0.5243
10671SOL    HW142692   8.642   3.337   0.215  1.2753 -2.2256 -2.1777
10671SOL    HW242693   8.612   3.480   0.143 -1.5723 -0.0874  3.0579
10672SOL     OW42694   9.773   1.460   0.745 -0.0819  0.2834  0.0572
10672SOL    HW142695   9.838   1.515   0.798  0.9101 -0.2737 -0.5487
10672SOL    HW242696   9.722   1.400   0.807  1.6749 -0.9910  0.3409
10673SOL     OW42697   0.031   6.503   2.722  0.6013  0.0436  0.1499
10673SOL    HW142698   0.112   6.562   2.725  0.3356  0.4669 -0.7251
10673SOL    HW242699   0.058   6.409   2.741  1.2260  0.2632  0.3619
10674SOL     OW42700   4.862   9.045   1.592 -0.5416  0.3537  0.3358
10674SOL    HW142701   4.961   9.062   1.587 -0.3167 -0.9334  0.2319
10674SOL    HW242702   4.825   9.089   1.673  0.0602  1.1061  0.2104
10675SOL     OW42703   8.088   2.967   0.479 -0.0150 -0.3503 -0.0775
10675SOL    HW142704   8.182   2.934   0.481  0.8287  1.7860 -2.1089
10675SOL    HW242705   8.028   2.897   0.441  1.1337 -0.8739 -0.9325
10676SOL     OW42706   9.126   9.795   3.697 -0.1440  0.3190  0.1039
10676SOL    HW142707   9.182   9.755   3.624  0.0037  1.4898 -0.4276
10676SOL    HW242708   9.149   9.751   3.784  1.3463  0.5408 -0.1644
10677SOL     OW42709   7.272   7.937   2.108  0.4093 -0.3743  0.4333
10677SOL    HW142710   7.273   7.979   2.017 -0.5326  0.5608  0.8384
10677SOL    HW242711   7.342   7.980   2.165  0.4429 -0.3848  0.4001
10678SOL     OW42712   4.644   8.600   3.892 -0.2939 -0.0528 -0.1179
10678SOL    HW142713   4.597   8.688   3.900  0.1329  0.1284  0.4466
10678SOL    HW242714   4.741   8.616   3.873  0.2140 -0.3323  2.0529
10679SOL     OW42715   0.725   5.398   0.448  0.1584  0.1303  0.4462
10679SOL    HW142716   0.674   5.321   0.410  0.2883 -0.0719  0.6707
10679SOL    HW242717   0.797   5.425   0.384  0.4059 -0.2382  0.5682
10680SOL     OW42718   0.159   9.264   3.918 -0.0972 -0.5543 -0.0358
10680SOL    HW142719   0.065   9.232   3.912 -1.1814  2.5389 -0.5516
10680SOL    HW242720   0.212   9.227   3.841 -1.6115 -0.0754 -1.3311
10681SOL     OW42721   4.380   0.154   2.524 -0.1836  0.4685 -0.3981
10681SOL    HW142722   4.304   0.146   2.460  1.3958  2.0525 -2.5391
10681SOL    HW242723   4.356   0.108   2.610 -1.4032 -3.9272 -2.9255
10682SOL     OW42724   8.705   3.963   2.280 -0.0937  0.3905 -0.8860
10682SOL    HW142725   8.672   3.869   2.268 -0.4997  0.4652 -0.3705
10682SOL    HW242726   8.689   4.015   2.195 -0.4520  0.1704 -0.9528
10683SOL     OW42727   9.030   1.155   0.876 -0.1287  0.3106  0.0107
10683SOL    HW142728   9.069   1.246   0.889 -0.7439  0.8813 -2.0186
10683SOL    HW242729   8.930   1.160   0.884 -0.0934 -0.3914  0.9892
10684SOL     OW42730   3.276   8.233   2.325  0.6173  0.0035 -0.1751
10684SOL    HW142731   3.188   8.277   2.344  0.9971  1.7676 -2.3544
10684SOL    HW242732   3.273   8.138   2.358 -2.0505  0.0687 -0.0963
10685SOL     OW42733   3.370   6.087   2.785  0.3519  0.5017 -0.2770
10685SOL    HW142734   3.436   6.099   2.711 -0.4096 -0.7430 -1.1656
10685SOL    HW242735   3.277   6.095   2.749 -0.0303 -0.5442  0.4546
10686SOL     OW42736   4.130   2.827   4.547 -0.4540  0.2549 -0.2489
10686SOL    HW142737   4.198   2.892   4.581 -0.8398  0.1109  0.8338
10686SOL    HW242738   4.140   2.740   4.596 -1.3310  0.1958 -0.1534
10687SOL     OW42739   3.179   6.748   2.019 -0.7821 -0.0581  0.2501
10687SOL    HW142740   3.146   6.774   1.928  2.1448 -0.7761 -1.1010
10687SOL    HW242741   3.197   6.830   2.073  0.5890  0.5184 -1.0380
10688SOL     OW42742   9.989   9.844   0.239  0.2468  0.1412  0.3175
10688SOL    HW142743  10.006   9.746   0.227  0.4806  0.3570 -1.1695
10688SOL    HW242744  10.071   9.895   0.216 -0.0557  0.7314  0.5314
10689SOL     OW42745   2.819   0.287   3.872 -0.1329 -0.2293  0.3421
10689SOL    HW142746   2.743   0.245   3.822 -0.5219 -0.0982  0.8200
10689SOL    HW242747   2.877   0.215   3.911  0.8211 -0.3507 -1.2469
10690SOL     OW42748   0.170   4.979   3.108 -0.5792 -0.2256  0.1296
10690SOL    HW142749   0.155   4.880   3.104  0.8142 -0.4404 -0.1654
10690SOL    HW242750   0.148   5.013   3.199  0.9062 -1.1648  0.8616
10691SOL     OW42751   2.846   0.983   2.768 -0.3251 -0.2074  0.1515
10691SOL    HW142752   2.900   1.064   2.790 -0.1131 -0.2721 -0.1467
10691SOL    HW242753   2.885   0.935   2.690 -1.1863  0.1109 -0.4893
10692SOL     OW42754   0.187   9.991   2.422  0.5665  0.5980 -0.7435
10692SOL    HW142755   0.251   9.966   2.494 -1.4594  2.0857  1.6873
10692SOL    HW242756   0.121   9.917   2.408 -0.1561  1.0443  0.2622
10693SOL     OW42757   8.517   6.929   3.684  0.5972  0.3406  0.1720
10693SOL    HW142758   8.572   6.973   3.613  0.6379 -2.6229 -1.7042
10693SOL    HW242759   8.564   6.937   3.772  1.6111  2.1321 -0.4994
10694SOL     OW42760   0.285   5.593   1.978 -0.1404  0.3081 -0.0369
10694SOL    HW142761   0.258   5.688   1.994 -2.5484  0.0963 -2.4320
10694SOL    HW242762   0.220   5.550   1.916  2.0344 -2.3414 -0.5895
10695SOL     OW42763   1.286   0.626   1.148  0.4477 -0.3305 -0.0407
10695SOL    HW142764   1.359   0.568   1.113  0.5557  1.3932 -2.8361
10695SOL    HW242765   1.225   0.572   1.206  2.3833 -2.4278  0.0999
10696SOL     OW42766   2.465   1.498   3.850 -0.1844  0.6770  0.4469
10696SOL    HW142767   2.462   1.451   3.762  0.0593  1.1033  0.2076
10696SOL    HW242768   2.527   1.450   3.912  0.5839  1.0633 -0.0201
10697SOL     OW42769   4.323   0.734   3.018 -0.7724  0.2772  0.1272
10697SOL    HW142770   4.235   0.757   2.975  0.3882  0.5962 -2.1494
10697SOL    HW242771   4.342   0.637   3.003 -0.9998  0.0610  1.1650
10698SOL     OW42772   5.391   0.267   2.612 -0.0400  0.1413 -0.2263
10698SOL    HW142773   5.376   0.365   2.602  0.8630  0.6737  3.0710
10698SOL    HW242774   5.311   0.225   2.657  0.4371 -0.2613  0.2568
10699SOL     OW42775   2.329   4.464   2.102  0.2863 -0.5213 -0.4467
10699SOL    HW142776   2.422   4.428   2.097  0.8741  0.8645  0.2945
10699SOL    HW242777   2.274   4.405   2.161  0.9088 -0.9049 -0.2445
10700SOL     OW42778   1.593   8.103   2.347  0.2140 -0.1960  0.2510
10700SOL    HW142779   1.506   8.150   2.360  0.9654  0.8175  1.7331
10700SOL    HW242780   1.643   8.144   2.270  0.7934  1.3576  1.4357
10701SOL     OW42781   7.961   9.656   2.783 -0.1820  0.1435  0.2721
10701SOL    HW142782   7.935   9.608   2.867  1.0232 -1.7168 -0.3756
10701SOL    HW242783   8.037   9.608   2.739  0.7541  2.4077 -0.6761
10702SOL     OW42784   2.096   9.993   4.463 -0.2394  0.2010 -0.1026
10702SOL    HW142785   2.139  10.082   4.475 -0.2024  0.4983 -2.2917
10702SOL    HW242786   2.001   9.998   4.496  0.5144  0.3214  2.1130
10703SOL     OW42787   4.688   6.831   2.341  0.3840 -0.2540  0.9377
10703SOL    HW142788   4.744   6.779   2.276 -0.4041  0.7110 -0.5442
10703SOL    HW242789   4.622   6.887   2.291 -0.1657  0.6067  2.5790
10704SOL     OW42790   9.978   8.067   2.732  0.1691  0.3219  0.5798
10704SOL    HW142791   9.948   8.143   2.791  0.3140  1.0694 -0.2929
10704SOL    HW242792  10.078   8.060   2.736  0.0934 -0.3721  1.3175
10705SOL     OW42793   3.758   4.800   1.022  0.3851  0.5509  0.0882
10705SOL    HW142794   3.681   4.739   1.041  0.6622 -0.3919 -1.7356
10705SOL    HW242795   3.777   4.800   0.924  1.7475  1.9462  0.3413
10706SOL     OW42796   3.234   9.918   4.271 -0.0560  0.0542 -0.3450
10706SOL    HW142797   3.160   9.850   4.276  0.2883 -0.3595 -0.8262
10706SOL    HW242798   3.213   9.994   4.332 -0.1454 -0.7776  0.6751
10707SOL     OW42799   3.540   8.991   0.455 -0.0816 -0.0520  0.0876
10707SOL    HW142800   3.579   9.047   0.382 -1.4011  0.0158 -0.5607
10707SOL    HW242801   3.488   8.915   0.415 -1.4869  0.4436  0.9477
10708SOL     OW42802   1.581   4.265   3.069  0.5343  0.8009  0.2765
10708SOL    HW142803   1.584   4.345   3.010 -1.0349  0.3881 -0.3771
10708SOL    HW242804   1.487   4.247   3.098  0.9701 -0.3408  1.0600
10709SOL     OW42805   3.915   5.094   4.526  0.4853 -0.4292 -0.3584
10709SOL    HW142806   3.892   5.177   4.475  1.6509  0.9434  1.2874
10709SOL    HW242807   3.977   5.038   4.471  0.3580  0.1882 -1.1567
10710SOL     OW42808   2.549   9.796   2.933  0.3233 -0.0924 -0.2026
10710SOL    HW142809   2.490   9.716   2.919  0.9784 -0.7986  0.9502
10710SOL    HW242810   2.502   9.862   2.992 -0.2231  0.3934 -1.1650
10711SOL     OW42811   4.136   1.498   1.246 -0.1890  0.2146  0.1967
10711SOL    HW142812   4.041   1.479   1.221  0.5645  0.3316 -2.9865
10711SOL    HW242813   4.180   1.414   1.277 -0.7551 -0.3032 -0.3840
10712SOL     OW42814   8.324   3.975   1.625  0.6256  0.0883 -0.0470
10712SOL    HW142815   8.341   3.878   1.643 -0.2738  0.0364  0.5080
10712SOL    HW242816   8.258   4.011   1.690 -0.0856  0.7396 -1.0996
10713SOL     OW42817   1.628   0.732   2.985  0.1208  0.3157  0.2724
10713SOL    HW142818   1.575   0.686   2.913  0.3546 -0.8495  0.8332
10713SOL    HW242819   1.697   0.791   2.942  0.7006 -0.8779 -0.4862
10714SOL     OW42820   0.835   2.831   4.271  0.3575 -0.3957  0.2037
10714SOL    HW142821   0.887   2.801   4.350  0.3386  0.1772  0.4328
10714SOL    HW242822   0.819   2.753   4.210  1.1110 -0.6553  0.3369
10715SOL     OW42823   2.300   4.221   4.476 -0.6804 -0.4480 -0.1745
10715SOL    HW142824   2.369   4.161   4.517  0.1667  0.8559  0.3238
10715SOL    HW242825   2.316   4.228   4.377  0.6155  0.7500  0.0997
10716SOL     OW42826   1.187   8.911   1.109  0.1468 -0.4711 -0.0090
10716SOL    HW142827   1.237   8.979   1.055  1.9337 -1.5153  0.2905
10716SOL    HW242828   1.199   8.820   1.068  2.0278 -1.3794  2.4352
10717SOL     OW42829   0.607   8.104   4.443 -0.1603  0.2166  0.6990
10717SOL    HW142830   0.705   8.093   4.432 -0.1902 -0.9478  1.5416
10717SOL    HW242831   0.563   8.105   4.353  0.3009 -2.5296  0.3972
10718SOL     OW42832   3.496   5.007   3.499 -0.4000 -0.2694 -0.0660
10718SOL    HW142833   3.450   4.973   3.417 -0.5328  0.7712 -0.4276
10718SOL    HW242834   3.593   5.020   3.481 -0.6090  0.9046 -0.3541
10719SOL     OW42835   0.261   0.232   3.932 -0.3595  0.0620  0.0181
10719SOL    HW142836   0.234   0.211   3.838 -0.3556 -1.6361  0.3744
10719SOL    HW242837   0.184   0.215   3.994 -0.2796  0.9094  0.3598
10720SOL     OW42838   5.341   3.194   0.269  0.3703  0.5571  0.8697
10720SOL    HW142839   5.409   3.123   0.254 -0.0721 -0.2544  2.5289
10720SOL    HW242840   5.322   3.242   0.184  2.0029 -0.1158  0.1126
10721SOL     OW42841   4.338   9.892   0.007  0.1942 -0.0605  0.0094
10721SOL    HW142842   4.415   9.956   0.008 -0.2972  0.5674 -0.9851
10721SOL    HW242843   4.362   9.812  -0.048 -0.1998  0.5719 -1.0919
10722SOL     OW42844   7.914   6.306   1.696  0.2949 -0.1688  0.4708
10722SOL    HW142845   7.914   6.385   1.757  3.5973 -1.0941  1.7620
10722SOL    HW242846   7.902   6.223   1.749  3.8242 -1.0424  0.0504
10723SOL     OW42847   2.991   8.661   3.597 -0.2862 -0.2188  0.5547
10723SOL    HW142848   3.028   8.579   3.640  0.0804  1.4986  3.6685
10723SOL    HW242849   2.997   8.653   3.498  3.7043 -2.1617  0.8740
10724SOL     OW42850   7.693   5.788   2.493 -0.9692 -0.1413 -0.2652
10724SOL    HW142851   7.752   5.859   2.455 -1.5221  0.5320  0.1084
10724SOL    HW242852   7.699   5.705   2.437  0.8565 -0.3316  0.1751
10725SOL     OW42853   8.721   2.517   2.893  0.1458 -0.2536  0.0035
10725SOL    HW142854   8.640   2.569   2.866  0.7215  0.6156 -0.0531
10725SOL    HW242855   8.779   2.573   2.952  0.7747 -0.8270 -0.0593
10726SOL     OW42856   3.745   7.837   3.634 -0.3838 -0.5782  0.2662
10726SOL    HW142857   3.786   7.799   3.718  2.9774 -1.6298 -1.7556
10726SOL    HW242858   3.700   7.763   3.584 -0.5492 -0.3622  0.1003
10727SOL     OW42859   4.389   2.710   2.142 -0.2655  0.2722 -0.2160
10727SOL    HW142860   4.318   2.644   2.168  0.6194 -0.1700  1.1411
10727SOL    HW242861   4.360   2.802   2.166 -1.2993  0.3348 -1.6635
10728SOL     OW42862   3.337   6.254   3.671  0.0967  0.9936  0.4104
10728SOL    HW142863   3.382   6.319   3.732 -2.5268  2.3352  0.9663
10728SOL    HW242864   3.314   6.300   3.585  0.2671  0.1676 -0.0797
10729SOL     OW42865   8.153   8.842   0.407  0.0177 -0.3683  0.6615
10729SOL    HW142866   8.095   8.763   0.425  1.0225 -1.1386  0.5478
10729SOL    HW242867   8.165   8.894   0.491 -1.3344  0.1501  0.5545
10730SOL     OW42868   9.191   5.054   3.902  0.0797  0.5617  0.3735
10730SOL    HW142869   9.257   5.125   3.926 -0.3687  0.6605  1.3307
10730SOL    HW242870   9.192   4.982   3.972 -0.2725  0.1725 -0.0130
10731SOL     OW42871   0.376   2.270   1.116 -0.3580 -0.0633  0.0464
10731SOL    HW142872   0.414   2.362   1.127 -0.4875  0.0119 -0.1433
10731SOL    HW242873   0.327   2.264   1.030  1.0364 -0.7892 -0.7223
10732SOL     OW42874   2.222   9.512   1.366 -0.3203  0.2201 -0.4692
10732SOL    HW142875   2.144   9.508   1.428 -0.5385  0.1145 -0.7499
10732SOL    HW242876   2.307   9.513   1.419 -0.4216 -2.3158 -0.2178
10733SOL     OW42877   3.433   1.544   2.317  0.1136  0.1726  0.0722
10733SOL    HW142878   3.395   1.535   2.225 -0.2134  1.7605  0.0468
10733SOL    HW242879   3.524   1.585   2.313  0.5156 -0.6723  0.3882
10734SOL     OW42880   1.878   3.219   4.160  0.1172 -0.4833  0.2988
10734SOL    HW142881   1.966   3.182   4.191 -0.1550 -1.6458 -0.2946
10734SOL    HW242882   1.843   3.163   4.084  0.1299  1.5342 -1.2307
10735SOL     OW42883   4.095   2.000   2.115  0.2403  0.0145 -0.5709
10735SOL    HW142884   4.115   1.949   2.199  0.0762  0.8748  0.0018
10735SOL    HW242885   4.007   1.972   2.078 -1.0663  1.6851  1.1599
10736SOL     OW42886   3.610   7.891   3.972  0.4119  0.7370 -0.3198
10736SOL    HW142887   3.549   7.823   3.931  1.0925  1.3318 -2.3776
10736SOL    HW242888   3.686   7.844   4.018 -1.0244  0.0247  1.3866
10737SOL     OW42889   9.452   7.393   2.992  0.6389 -0.3624  0.3954
10737SOL    HW142890   9.514   7.315   2.983 -1.3583 -1.8626 -0.7979
10737SOL    HW242891   9.371   7.365   3.044 -0.5473  0.6181 -0.8772
10738SOL     OW42892   8.956   0.105   3.333  0.1366  0.0360  0.6178
10738SOL    HW142893   8.937   0.038   3.405  1.1681  2.4402  3.1682
10738SOL    HW242894   9.055   0.113   3.320 -0.0411 -0.4996 -1.2158
10739SOL     OW42895   0.595   1.597   3.071  0.0935 -0.5412 -0.4275
10739SOL    HW142896   0.556   1.688   3.078  0.8289 -0.2936  0.7768
10739SOL    HW242897   0.553   1.547   2.996 -1.7484  0.0811  0.1723
10740SOL     OW42898   3.975   4.432   2.421 -0.1395  0.2484 -0.2913
10740SOL    HW142899   3.990   4.334   2.437 -1.3776  0.3143  1.3638
10740SOL    HW242900   3.892   4.443   2.366 -0.4504  0.4138  0.2154
10741SOL     OW42901   4.706   3.445   0.414  0.5059 -0.3360 -0.2337
10741SOL    HW142902   4.703   3.426   0.316  0.7182  2.0368 -0.7154
10741SOL    HW242903   4.689   3.542   0.430 -1.5769 -1.0664  2.2331
10742SOL     OW42904   0.196   2.634   2.032  0.0664 -0.0468  0.0388
10742SOL    HW142905   0.266   2.655   1.965 -1.6330 -1.9221 -2.4399
10742SOL    HW242906   0.157   2.544   2.012 -1.9320  0.2547  2.3012
10743SOL     OW42907   4.328   8.837   4.648 -0.2896  0.1845 -0.2378
10743SOL    HW142908   4.292   8.926   4.618 -0.2131  0.3440  0.1403
10743SOL    HW242909   4.424   8.847   4.675 -0.2609 -0.0278 -0.2617
10744SOL     OW42910   3.848   0.127   3.040  0.1047  0.1316 -0.2193
10744SOL    HW142911   3.776   0.149   2.975  0.4175  0.0841 -0.5855
10744SOL    HW242912   3.888   0.038   3.018  1.7085  1.0971 -1.3185
10745SOL     OW42913   3.713   4.425   1.736 -1.0324 -0.0984 -0.5039
10745SOL    HW142914   3.770   4.345   1.752 -0.5714  0.3963  0.4036
10745SOL    HW242915   3.657   4.443   1.818 -1.1653  0.4736 -0.7158
10746SOL     OW42916   1.926   1.386   3.490 -0.2054  0.1906 -0.0759
10746SOL    HW142917   2.002   1.426   3.542  1.4906 -1.3498 -1.2873
10746SOL    HW242918   1.927   1.287   3.501 -1.2740  0.0567 -1.1103
10747SOL     OW42919   9.072   8.803   1.364 -0.0188  0.1935  0.1475
10747SOL    HW142920   9.025   8.833   1.280  0.8856  0.3200 -0.3124
10747SOL    HW242921   9.003   8.779   1.433 -0.7870 -0.6566 -0.8932
10748SOL     OW42922   8.357   8.162   4.650 -0.2307 -0.1732  0.1806
10748SOL    HW142923   8.285   8.226   4.677  0.3206  0.0732  1.0837
10748SOL    HW242924   8.407   8.132   4.732  0.5537 -0.5116 -0.4180
10749SOL     OW42925   2.018   6.751   1.845 -0.1913 -0.3433  0.3864
10749SOL    HW142926   2.063   6.823   1.899 -0.0139 -1.4022  1.6591
10749SOL    HW242927   2.085   6.682   1.819 -0.4243 -0.2056 -0.5860
10750SOL     OW42928   7.889   2.287   3.238 -0.4169  0.0827 -0.3639
10750SOL    HW142929   7.828   2.325   3.308  0.5910  2.1603 -0.5727
10750SOL    HW242930   7.861   2.320   3.148  0.5307  0.3852 -0.5450
10751SOL     OW42931   2.543   8.017   2.683  0.5188 -0.6710 -0.1036
10751SOL    HW142932   2.468   8.002   2.618 -0.2897 -0.9716  0.8869
10751SOL    HW242933   2.630   7.996   2.638  0.0469  0.0376 -1.3836
10752SOL     OW42934   7.405   4.223   0.020  0.0362  0.4798  0.4971
10752SOL    HW142935   7.436   4.318   0.022  1.2654  0.0892  0.5361
10752SOL    HW242936   7.330   4.211   0.086  0.4061  1.2390  1.0690
10753SOL     OW42937   3.082   8.360   1.848  0.2740  0.3864 -0.0722
10753SOL    HW142938   3.060   8.444   1.898 -0.3165 -0.6524  1.4656
10753SOL    HW242939   3.172   8.368   1.807 -0.7523  2.6855 -1.9857
10754SOL     OW42940   3.169   5.943   3.029  1.0205 -0.4676 -0.6313
10754SOL    HW142941   3.242   6.011   3.019  0.5414  0.2272  0.4886
10754SOL    HW242942   3.137   5.943   3.124  0.3374 -1.5651 -0.8594
10755SOL     OW42943   8.466   8.864   4.703 -0.7392  0.6783 -0.1640
10755SOL    HW142944   8.547   8.806   4.689 -1.9812 -0.5790 -2.4034
10755SOL    HW242945   8.491   8.960   4.691  0.3139  0.2535 -1.5138
10756SOL     OW42946   0.023   5.799   0.961  0.3873  0.0289 -0.2914
10756SOL    HW142947   0.116   5.767   0.945  0.0880  0.3602 -2.9328
10756SOL    HW242948  -0.041   5.742   0.909 -0.8345  0.1464  1.0668
10757SOL     OW42949   7.496   4.702   0.173  0.1534 -0.0447  0.0773
10757SOL    HW142950   7.432   4.767   0.130  0.0854 -1.0767 -1.4377
10757SOL    HW242951   7.545   4.748   0.247  1.0857  2.1486 -1.8304
10758SOL     OW42952   8.255   3.717   0.995  0.1197  0.0981 -0.2129
10758SOL    HW142953   8.306   3.635   0.970 -1.2856 -0.2908 -1.9026
10758SOL    HW242954   8.164   3.691   1.028  0.5006  0.8553  1.4839
10759SOL     OW42955   8.513   3.450   1.065  0.4719 -0.0645  0.1094
10759SOL    HW142956   8.572   3.530   1.073  0.8828 -0.3104 -0.3853
10759SOL    HW242957   8.528   3.389   1.142 -0.4100  0.7044  0.8945
10760SOL     OW42958   8.535   0.039   3.605  0.1914 -0.0527 -0.5562
10760SOL    HW142959   8.465  -0.031   3.595  0.5090 -0.1911 -1.9807
10760SOL    HW242960   8.622  -0.003   3.630 -0.1613  0.0892  0.9241
10761SOL     OW42961   7.645   0.806   4.269  0.2870  0.0930  0.9486
10761SOL    HW142962   7.644   0.784   4.367  1.7502  0.2158  1.0114
10761SOL    HW242963   7.684   0.897   4.256 -1.4893  0.7817  0.3615
10762SOL     OW42964   9.306   2.667   2.458  0.5236 -0.2956  0.3150
10762SOL    HW142965   9.210   2.643   2.446  0.5855 -0.8556  0.9048
10762SOL    HW242966   9.347   2.689   2.369 -0.0518 -0.4083  0.0210
10763SOL     OW42967   0.059   0.382   3.318  0.0035  0.1506 -0.2334
10763SOL    HW142968   0.039   0.285   3.300  1.4006  0.1327 -1.9019
10763SOL    HW242969   0.020   0.438   3.245 -0.2575  0.7887  0.3898
10764SOL     OW42970   9.801   7.218   4.152  0.3374  0.5642  0.0910
10764SOL    HW142971   9.723   7.205   4.213 -0.4352 -1.2146 -1.2394
10764SOL    HW242972   9.781   7.290   4.086  1.0790  2.3241  1.7619
10765SOL     OW42973   3.382   3.301   0.425 -0.1453  0.2165  0.0587
10765SOL    HW142974   3.327   3.271   0.347  0.8534  0.0142 -0.5786
10765SOL    HW242975   3.355   3.393   0.452  0.1844  0.6799 -1.1682
10766SOL     OW42976   8.218   0.872   0.799  0.0260  0.1946  0.4968
10766SOL    HW142977   8.163   0.945   0.840 -0.4221  0.9071 -1.3391
10766SOL    HW242978   8.307   0.868   0.845  0.1771  2.1051  0.4122
10767SOL     OW42979   9.350   4.122   2.961 -0.1005 -0.0090  0.1999
10767SOL    HW142980   9.366   4.068   2.878 -0.6873  0.1912 -0.0446
10767SOL    HW242981   9.299   4.205   2.937 -0.8542 -0.2743  0.8599
10768SOL     OW42982   8.836   4.923   1.132  0.3175 -0.0659 -0.1305
10768SOL    HW142983   8.752   4.898   1.084  0.1804 -1.0707  0.6120
10768SOL    HW242984   8.858   4.852   1.200  1.2985  0.6072  0.2660
10769SOL     OW42985   9.485   9.848   3.971  0.7174 -0.0590 -0.1617
10769SOL    HW142986   9.472   9.759   3.929 -2.8234 -0.5412  1.7391
10769SOL    HW242987   9.576   9.853   4.013  1.5384 -2.1697 -1.6211
10770SOL     OW42988   9.657   2.061   2.125 -0.3584  0.3971  0.1034
10770SOL    HW142989   9.660   1.972   2.170 -0.7494  0.2241 -0.2083
10770SOL    HW242990   9.709   2.127   2.179  1.3542 -0.4072 -0.5373
10771SOL     OW42991   9.893   1.417   2.104  0.1183 -0.3874  0.3373
10771SOL    HW142992   9.799   1.438   2.131  0.2340  1.5819 -0.6696
10771SOL    HW242993   9.892   1.358   2.023 -0.2304 -1.1171  0.8657
10772SOL     OW42994   0.713   2.376   2.643 -0.1709  0.7130  0.1352
10772SOL    HW142995   0.707   2.399   2.546 -0.1931  0.2038  0.0177
10772SOL    HW242996   0.759   2.288   2.654  0.6036  1.1793  0.6360
10773SOL     OW42997   0.769   3.390   4.162  0.6418 -0.2203 -0.3362
10773SOL    HW142998   0.672   3.411   4.177  0.6826  0.1527 -0.5936
10773SOL    HW242999   0.784   3.292   4.175  0.8238  0.1913  2.8390
10774SOL     OW43000   1.227   0.420   4.115  0.0494 -0.0577 -0.2516
10774SOL    HW143001   1.196   0.469   4.034  2.7006  0.4670 -1.0149
10774SOL    HW243002   1.266   0.331   4.088 -1.8191 -1.2200  0.7847
10775SOL     OW43003   7.462   7.235   3.257 -0.3233 -0.4694  0.2152
10775SOL    HW143004   7.369   7.266   3.235  0.2640  0.0870 -1.5334
10775SOL    HW243005   7.489   7.163   3.193 -0.0753 -1.6430  1.6194
10776SOL     OW43006   6.398   6.619   2.583 -0.4594 -0.0234 -0.1908
10776SOL    HW143007   6.457   6.579   2.514  1.5387  0.0591  1.4139
10776SOL    HW243008   6.399   6.719   2.576 -0.9914 -0.0457 -0.6191
10777SOL     OW43009   0.358   9.279   0.704  0.2981 -0.2612  0.1600
10777SOL    HW143010   0.381   9.304   0.610  1.6933  1.3175  0.9080
10777SOL    HW243011   0.349   9.179   0.711 -0.0743 -0.3752 -1.6840
10778SOL     OW43012   9.844   3.831   4.294 -0.3337  0.5025  0.3035
10778SOL    HW143013   9.892   3.751   4.258 -0.6181  0.4264  0.0799
10778SOL    HW243014   9.777   3.802   4.362  0.6988  0.7225  1.4111
10779SOL     OW43015   4.720   0.615   2.730 -0.0955  0.1012 -0.2658
10779SOL    HW143016   4.633   0.661   2.710 -0.0342  0.1992 -0.3091
10779SOL    HW243017   4.716   0.521   2.696 -0.6377 -0.2852  0.8468
10780SOL     OW43018   1.327   4.267   2.889 -0.1785 -0.1998  0.4522
10780SOL    HW143019   1.378   4.301   2.810  0.5904  0.8931  1.4022
10780SOL    HW243020   1.234   4.304   2.886 -0.7147 -1.6357 -0.9107
10781SOL     OW43021   8.928   4.153   1.587  0.1535  0.2232  0.0401
10781SOL    HW143022   8.851   4.091   1.600  0.9678 -1.6647 -3.5758
10781SOL    HW243023   9.006   4.121   1.641 -0.4315 -0.0182  0.7452
10782SOL     OW43024   4.022   3.010   2.325 -0.0326 -0.3668 -1.0108
10782SOL    HW143025   4.004   3.019   2.423 -0.8476  0.2392 -1.2164
10782SOL    HW243026   3.936   3.012   2.274  0.4704  0.5577 -1.8449
10783SOL     OW43027   3.223   5.406   1.613 -0.3721  0.2733 -0.5478
10783SOL    HW143028   3.157   5.368   1.678  0.3209  0.3657  0.2236
10783SOL    HW243029   3.226   5.349   1.531  1.0056 -1.6443  0.7943
10784SOL     OW43030   5.210   8.423   2.532 -0.2447 -0.5671  0.0446
10784SOL    HW143031   5.303   8.406   2.566 -0.3376 -1.3199 -0.0717
10784SOL    HW243032   5.145   8.415   2.607 -0.1501  0.5971  0.2536
10785SOL     OW43033   4.124   7.945   3.480  0.4194  0.6617  0.6281
10785SOL    HW143034   4.098   8.028   3.529 -1.3835  1.7202 -2.0191
10785SOL    HW243035   4.062   7.870   3.507  1.2092  0.4918  2.0242
10786SOL     OW43036   7.679   8.954   2.229  0.3344  0.0317 -0.3741
10786SOL    HW143037   7.681   8.878   2.163 -0.2591 -1.6889  1.5202
10786SOL    HW243038   7.599   8.944   2.288  0.2221  2.1959 -0.1485
10787SOL     OW43039   6.858   0.289   4.699 -0.0666  0.3537 -0.4862
10787SOL    HW143040   6.792   0.243   4.759  0.3603  1.0125  0.5085
10787SOL    HW243041   6.832   0.276   4.604 -0.9196 -0.4690 -0.1456
10788SOL     OW43042   3.962   3.877   3.957  0.0285 -0.5137  0.5130
10788SOL    HW143043   3.973   3.785   3.921 -0.9477 -1.4053  2.4331
10788SOL    HW243044   3.870   3.911   3.935 -0.4574 -0.9375  1.8472
10789SOL     OW43045   4.572   0.363   2.175  0.2563 -0.4134  0.1932
10789SOL    HW143046   4.545   0.367   2.272 -0.4101 -6.9338  0.4987
10789SOL    HW243047   4.491   0.354   2.118  0.8865 -1.1598 -0.5941
10790SOL     OW43048   2.352   2.058   0.299 -0.0436 -0.1440 -0.1686
10790SOL    HW143049   2.354   2.085   0.202 -2.6614  0.1078 -0.1856
10790SOL    HW243050   2.289   1.981   0.310  1.4118 -1.1729  1.1202
10791SOL     OW43051   6.813   8.934   3.594 -0.0231  0.4893  0.7950
10791SOL    HW143052   6.722   8.954   3.632  0.2089  0.0391  1.5980
10791SOL    HW243053   6.813   8.841   3.558 -0.1689  0.8304 -0.0988
10792SOL     OW43054   2.354   4.083   2.073 -0.2864  0.2050 -0.1006
10792SOL    HW143055   2.414   4.046   2.002  0.5876 -1.6223  1.5514
10792SOL    HW243056   2.285   4.015   2.097 -1.0248  1.0853  0.3182
10793SOL     OW43057   8.919   2.517   2.226 -0.6364  0.1945  0.4876
10793SOL    HW143058   8.934   2.518   2.127  0.1839  0.1159  0.6116
10793SOL    HW243059   8.826   2.485   2.245 -0.6638 -0.1678 -0.2436
10794SOL     OW43060   9.114   0.176   0.292  0.1861  0.6564 -0.3189
10794SOL    HW143061   9.163   0.102   0.246 -0.9969  0.1640 -0.8097
10794SOL    HW243062   9.169   0.210   0.369 -0.5711 -2.8623  1.8846
10795SOL     OW43063   8.173   6.455   2.225 -0.0552  0.1456  0.1360
10795SOL    HW143064   8.233   6.435   2.303 -0.5175 -0.3710  0.3654
10795SOL    HW243065   8.165   6.554   2.214 -0.4622  0.2324  1.1202
10796SOL     OW43066   0.229   7.477   4.023  0.3915 -0.1501 -0.2561
10796SOL    HW143067   0.320   7.508   4.053  2.2300 -2.8256 -2.7932
10796SOL    HW243068   0.218   7.497   3.926 -0.4623 -2.6732 -0.7097
10797SOL     OW43069   1.771   7.053   2.520 -0.1729 -0.3607 -0.4420
10797SOL    HW143070   1.672   7.051   2.533 -0.3105 -1.2832 -1.5902
10797SOL    HW243071   1.810   6.963   2.539  0.3240 -0.2455 -0.8759
10798SOL     OW43072   4.994   7.644   2.434 -0.1934  0.2984 -0.2547
10798SOL    HW143073   4.938   7.700   2.372  0.1360  0.9665  0.0384
10798SOL    HW243074   4.940   7.567   2.466 -0.5619  0.2768 -0.9061
10799SOL     OW43075   8.732   5.181   1.138  0.1991  0.1016 -0.2408
10799SOL    HW143076   8.732   5.081   1.137 -2.1229  0.0638  1.3584
10799SOL    HW243077   8.778   5.214   1.220  0.5602  0.3702 -0.5433
10800SOL     OW43078   7.075   0.741   3.440 -0.2918  0.0765  0.8434
10800SOL    HW143079   7.053   0.720   3.345 -2.1317  0.2416  1.2160
10800SOL    HW243080   7.166   0.783   3.445  0.0982 -0.5478 -0.7545
10801SOL     OW43081   4.037   2.680   2.342 -0.6896 -0.4946 -0.4113
10801SOL    HW143082   4.001   2.711   2.254 -3.5512 -0.3212  0.7634
10801SOL    HW243083   4.065   2.759   2.396  0.6893 -0.5763 -0.9926
10802SOL     OW43084   7.188   0.042   3.571 -0.3905  0.0641  0.5924
10802SOL    HW143085   7.259   0.021   3.639  1.2558  1.4881 -0.6251
10802SOL    HW243086   7.190   0.140   3.550 -0.3142 -0.4743 -2.0711
10803SOL     OW43087   0.944   5.752   4.601  0.5654  0.0885 -0.3603
10803SOL    HW143088   0.939   5.808   4.684 -1.2321 -3.1560  1.8185
10803SOL    HW243089   0.981   5.662   4.623 -1.0118 -1.2413 -2.8691
10804SOL     OW43090   8.432   9.139   0.911 -0.1939 -0.4356  0.2235
10804SOL    HW143091   8.374   9.196   0.853 -0.9313 -0.6956  0.6990
10804SOL    HW243092   8.522   9.182   0.921  0.0691 -0.5693 -1.4101
10805SOL     OW43093   7.667   0.603   2.854  0.6133  0.4222 -0.0506
10805SOL    HW143094   7.752   0.636   2.813  0.9814 -1.2249 -0.6376
10805SOL    HW243095   7.665   0.504   2.850 -0.7695  0.3935  1.1218
10806SOL     OW43096   1.896   9.754   4.027  0.4051  0.1736 -0.5195
10806SOL    HW143097   1.841   9.700   3.963  0.0569 -1.6413  1.2764
10806SOL    HW243098   1.977   9.702   4.053  0.3726  0.7687  0.7786
10807SOL     OW43099   2.682   7.402   4.644 -0.3409 -0.2838 -0.0276
10807SOL    HW143100   2.752   7.419   4.575  1.0092 -1.3088  1.0412
10807SOL    HW243101   2.686   7.473   4.714  1.6431 -1.8922  1.5702
10808SOL     OW43102   6.841   0.875   2.932  0.2093 -0.6479  0.1334
10808SOL    HW143103   6.906   0.904   3.003  0.2404 -0.3887 -0.0024
10808SOL    HW243104   6.824   0.777   2.942  1.0521 -0.8345 -0.1751
10809SOL     OW43105   8.265   2.756   0.286  0.0875 -0.1285  0.2503
10809SOL    HW143106   8.233   2.687   0.220 -3.7971  0.8051  1.0470
10809SOL    HW243107   8.275   2.713   0.376 -1.4086  0.1056  0.5397
10810SOL     OW43108   2.638   9.758   3.423  0.3866  0.1616  0.4513
10810SOL    HW143109   2.658   9.680   3.482 -1.3964 -0.8565 -0.2534
10810SOL    HW243110   2.723   9.790   3.381  1.1073 -1.5969  0.5125
10811SOL     OW43111   8.100   0.371   2.098 -0.0903 -0.0707 -0.2167
10811SOL    HW143112   8.029   0.328   2.154 -0.3717 -0.3304 -0.7674
10811SOL    HW243113   8.109   0.467   2.123  0.5982 -0.4563  1.0824
10812SOL     OW43114   1.839   1.961   0.107  0.2732  0.7539 -0.0626
10812SOL    HW143115   1.829   1.987   0.011  0.2294  0.0636 -0.2495
10812SOL    HW243116   1.842   2.043   0.164  0.1119  1.1593 -0.6360
10813SOL     OW43117   3.119   8.128   3.006 -0.0809  0.1703  0.4126
10813SOL    HW143118   3.192   8.195   3.018 -2.1328  2.3761  0.9394
10813SOL    HW243119   3.056   8.133   3.083 -1.2269 -1.1433 -0.4113
10814SOL     OW43120   8.503   8.410   1.212 -0.0431  0.2807  0.7033
10814SOL    HW143121   8.546   8.500   1.220  2.3976 -0.8874  1.3140
10814SOL    HW243122   8.437   8.398   1.287  0.8802  0.9130  1.6362
10815SOL     OW43123   9.093   7.285   4.290 -0.1208  0.3673 -0.2328
10815SOL    HW143124   9.015   7.282   4.228  0.0369  0.9678 -0.4658
10815SOL    HW243125   9.145   7.369   4.274 -0.2248  0.6577  0.8911
10816SOL     OW43126   3.358   6.891   3.732 -0.2297 -1.0012 -0.3636
10816SOL    HW143127   3.388   6.873   3.826 -0.3135  0.8189  0.0267
10816SOL    HW243128   3.283   6.828   3.709  0.2836 -1.9577  0.5124
10817SOL     OW43129   3.679   3.217   4.561 -0.2254  0.0095 -0.2592
10817SOL    HW143130   3.609   3.285   4.541  0.1068  0.4093 -0.0531
10817SOL    HW243131   3.767   3.248   4.525  0.9391  1.9374  3.9933
10818SOL     OW43132   4.820   2.061   0.855 -0.2389 -0.2639  0.1285
10818SOL    HW143133   4.748   2.007   0.898 -1.0259  1.1508  0.6309
10818SOL    HW243134   4.783   2.150   0.827  1.4700  0.7329  0.9460
10819SOL     OW43135   8.759   6.709   0.367  0.9176 -0.2083  0.1005
10819SOL    HW143136   8.793   6.631   0.420 -2.4669  0.6202  3.7863
10819SOL    HW243137   8.797   6.794   0.405 -0.8453  0.3384  0.6974
10820SOL     OW43138   2.258   0.723   1.344 -1.1215  0.4764 -0.0572
10820SOL    HW143139   2.162   0.703   1.325 -0.8971  0.4996 -1.2542
10820SOL    HW243140   2.280   0.816   1.314 -0.4948  0.1426 -0.6411
10821SOL     OW43141   5.566   0.973   2.882 -0.4725 -0.1203  0.5031
10821SOL    HW143142   5.483   0.937   2.840 -0.9080  0.7845  0.5747
10821SOL    HW243143   5.646   0.927   2.844 -1.0905 -2.3214  1.7495
10822SOL     OW43144   0.014   9.191   2.321 -0.4110 -0.5025  0.2131
10822SOL    HW143145  -0.025   9.239   2.242 -0.8540 -1.1069  0.0619
10822SOL    HW243146   0.004   9.248   2.402  1.3834  0.7649 -0.4194
10823SOL     OW43147   4.034   4.396   4.325 -0.0604 -0.0849  0.6195
10823SOL    HW143148   4.020   4.463   4.398  0.5151  0.7248  0.0144
10823SOL    HW243149   3.949   4.384   4.274 -0.3261 -0.2608  1.1149
10824SOL     OW43150   1.547   7.349   4.318 -0.7279  0.2304 -0.2758
10824SOL    HW143151   1.505   7.374   4.230  1.3771  2.2238 -0.7506
10824SOL    HW243152   1.625   7.409   4.336 -0.1403 -1.2222  2.2026
10825SOL     OW43153   4.532   0.261   0.397 -0.3045 -0.0697 -0.1026
10825SOL    HW143154   4.459   0.321   0.364 -0.3674 -0.1213 -0.0574
10825SOL    HW243155   4.493   0.171   0.420 -0.8465  0.9474  3.2321
10826SOL     OW43156   1.571   3.620   2.486 -0.1504  0.1968  0.5264
10826SOL    HW143157   1.616   3.539   2.447 -0.2481  0.8322 -0.9190
10826SOL    HW243158   1.640   3.688   2.511 -0.2585  1.1598 -1.6645
10827SOL     OW43159   2.729   4.565   2.941  0.4961 -0.2638  0.3340
10827SOL    HW143160   2.673   4.602   3.015  0.3208  0.0246  0.0557
10827SOL    HW243161   2.769   4.640   2.888  0.3767 -0.4696 -0.0478
10828SOL     OW43162   5.438   8.826   3.454 -0.0719 -0.0968 -0.1639
10828SOL    HW143163   5.395   8.802   3.541  0.6092 -1.3954 -0.1701
10828SOL    HW243164   5.416   8.757   3.385  0.2814  0.3476 -0.7326
10829SOL     OW43165   0.018   4.172   1.726  0.1027  0.0043 -0.0499
10829SOL    HW143166   0.075   4.119   1.789  0.5131 -0.9203 -1.1545
10829SOL    HW243167  -0.078   4.147   1.738  0.3058 -1.1338 -0.6549
10830SOL     OW43168   1.878   8.075   4.375  0.3869 -0.9197  0.4700
10830SOL    HW143169   1.952   8.133   4.341 -1.4132  1.4240  0.4578
10830SOL    HW243170   1.851   8.011   4.303  0.1541  0.4624 -0.6883
10831SOL     OW43171   3.747   8.733   3.913  0.1077  0.0813 -0.0073
10831SOL    HW143172   3.720   8.673   3.838  2.0839 -0.2074 -0.5346
10831SOL    HW243173   3.717   8.694   4.000 -0.4741 -0.5852 -0.5054
10832SOL     OW43174   1.023   7.757   3.523  0.2253 -0.3579 -0.1912
10832SOL    HW143175   1.015   7.694   3.446 -1.0706  0.9958 -1.1834
10832SOL    HW243176   1.003   7.709   3.609 -1.8488 -1.0267 -1.0351
10833SOL     OW43177   2.607   8.791   1.751 -0.7714 -0.0821  0.0786
10833SOL    HW143178   2.562   8.708   1.720 -1.0272 -0.3008  1.0106
10833SOL    HW243179   2.543   8.868   1.747 -0.1319  0.3809 -2.1141
10834SOL     OW43180   3.452   4.132   0.384 -0.4747  0.2793  0.7327
10834SOL    HW143181   3.372   4.177   0.345 -0.6613  0.0044  0.7908
10834SOL    HW243182   3.437   4.118   0.482  0.0925  1.1844  0.9420
10835SOL     OW43183   2.649   9.985   3.603  0.4987  0.5746 -0.0058
10835SOL    HW143184   2.746  10.005   3.588  0.7468 -0.4934  0.0886
10835SOL    HW243185   2.619   9.918   3.535 -0.3570  1.4402 -0.4793
10836SOL     OW43186   4.610   0.953   4.115 -0.2064 -0.0307 -0.3940
10836SOL    HW143187   4.603   0.863   4.073 -1.0518  0.1533 -0.6619
10836SOL    HW243188   4.589   1.024   4.048  2.4635  0.4982 -0.7268
10837SOL     OW43189   0.115   2.109   4.490  0.0818  0.4347 -0.1747
10837SOL    HW143190   0.033   2.067   4.450  0.3829 -1.6452  1.2998
10837SOL    HW243191   0.196   2.059   4.459  0.5915  1.0584  0.1637
10838SOL     OW43192   1.961   0.338   2.752 -0.0141  0.3338 -0.5680
10838SOL    HW143193   2.056   0.337   2.784  0.1076 -1.1643 -0.9505
10838SOL    HW243194   1.952   0.278   2.673 -1.2768  0.5210 -0.5692
10839SOL     OW43195   3.611   8.142   0.010  0.0028 -0.0527 -0.6102
10839SOL    HW143196   3.664   8.206  -0.046  0.0588 -1.8242 -2.6364
10839SOL    HW243197   3.539   8.101  -0.045 -0.4797 -1.2065  0.8458
10840SOL     OW43198   8.226   2.151   2.741  0.0416  0.2157 -0.6334
10840SOL    HW143199   8.270   2.100   2.815 -2.9350 -1.2554  0.2119
10840SOL    HW243200   8.249   2.109   2.653 -1.4885 -1.9971 -0.0207
10841SOL     OW43201   0.603   7.844   1.174 -0.0027  0.5692  0.2913
10841SOL    HW143202   0.635   7.938   1.174 -2.2675  1.3813  0.9838
10841SOL    HW243203   0.666   7.787   1.226  0.4188  2.0704  1.4595
10842SOL     OW43204   0.017   4.563   0.093  0.1609 -0.0321 -0.1427
10842SOL    HW143205  -0.009   4.500   0.167 -0.4732 -0.6234 -0.8692
10842SOL    HW243206   0.037   4.653   0.132  0.9467 -0.6374  0.8917
10843SOL     OW43207   5.496   6.596   2.331  0.5605 -0.5827  0.6956
10843SOL    HW143208   5.401   6.624   2.348  0.5809 -0.1985  0.1758
10843SOL    HW243209   5.505   6.498   2.350 -0.6043 -1.2520 -1.9896
10844SOL     OW43210   0.986   6.274   4.630  0.0243 -0.0814 -0.3647
10844SOL    HW143211   0.962   6.209   4.558  0.2532 -0.2608 -0.2816
10844SOL    HW243212   1.086   6.279   4.638 -0.0101 -1.4400  1.1850
10845SOL     OW43213   7.545   2.247   3.229  0.6137  0.4013 -0.6202
10845SOL    HW143214   7.592   2.303   3.297  1.0173  0.5926 -1.0564
10845SOL    HW243215   7.588   2.258   3.140  0.4697 -0.3199 -0.7883
10846SOL     OW43216   2.940   5.698   0.782 -0.4525  0.5350  0.8927
10846SOL    HW143217   2.911   5.678   0.875 -1.9279  0.3776  0.4051
10846SOL    HW243218   2.874   5.661   0.717 -0.5638  2.5044 -0.1546
10847SOL     OW43219   8.045   2.095   3.657  0.6054  0.0754 -0.1941
10847SOL    HW143220   7.962   2.151   3.663 -0.8082 -1.8500 -1.0951
10847SOL    HW243221   8.114   2.142   3.603 -0.0411  1.5274  0.2250
10848SOL     OW43222   6.799   9.606   0.944 -0.1607 -0.0450  0.8796
10848SOL    HW143223   6.887   9.557   0.947 -0.2778 -0.2365  1.2194
10848SOL    HW243224   6.761   9.611   1.036 -0.1339  0.7301  0.8511
10849SOL     OW43225   0.511   6.679   3.915  0.3547 -0.1859  0.0575
10849SOL    HW143226   0.469   6.747   3.975  2.9865  1.0563  0.5942
10849SOL    HW243227   0.571   6.620   3.968 -1.5272 -2.6812 -0.4915
10850SOL     OW43228   3.049   3.322   0.102 -0.5286  0.4503  0.0633
10850SOL    HW143229   3.054   3.420   0.117  1.3470  0.2242  1.0053
10850SOL    HW243230   3.135   3.279   0.129 -1.1472 -1.3971 -0.7861
10851SOL     OW43231   2.788   2.568   0.863 -0.7126 -0.6782 -0.0729
10851SOL    HW143232   2.832   2.527   0.943 -0.3025  0.3686  0.2466
10851SOL    HW243233   2.763   2.496   0.798  1.5610 -1.2710 -0.3058
10852SOL     OW43234   7.019   9.673   1.448  0.1839  0.6529 -0.0966
10852SOL    HW143235   6.960   9.735   1.396  1.3901  1.1109 -0.9279
10852SOL    HW243236   7.112   9.678   1.413  0.1854 -2.1015 -0.5947
10853SOL     OW43237   8.072   7.691   1.568 -0.5911 -0.7094 -0.3929
10853SOL    HW143238   8.095   7.595   1.558  0.6751 -0.5089  0.4687
10853SOL    HW243239   8.149   7.747   1.537 -0.7619 -0.0059  0.4245
10854SOL     OW43240   0.155   1.593   0.766  0.1777  0.5471 -0.6001
10854SOL    HW143241   0.138   1.667   0.701  0.4941  0.3851 -0.8699
10854SOL    HW243242   0.098   1.606   0.847  1.0059  1.6683 -0.1876
10855SOL     OW43243   3.867   6.158   1.932  0.0146 -0.0421  0.5941
10855SOL    HW143244   3.848   6.067   1.968 -0.6826 -0.0538  0.1906
10855SOL    HW243245   3.800   6.181   1.862  1.6001 -0.1662 -0.9845
10856SOL     OW43246   2.272   8.614   3.221  0.4137  0.6303 -0.4307
10856SOL    HW143247   2.251   8.681   3.150 -1.6616  0.1382 -0.3401
10856SOL    HW243248   2.211   8.629   3.299  0.6302 -0.7079  0.0063
10857SOL     OW43249   9.698   6.166   1.870  0.1842 -0.9357 -0.4055
10857SOL    HW143250   9.723   6.248   1.819  2.8070 -0.6531  1.2322
10857SOL    HW243251   9.613   6.181   1.919  0.8398  0.9750  0.1805
10858SOL     OW43252   0.657   8.822   0.491  0.4912 -0.3067  0.5532
10858SOL    HW143253   0.678   8.748   0.555  0.4155  0.0608  1.0031
10858SOL    HW243254   0.577   8.797   0.436 -0.9240  0.3998  2.2700
10859SOL     OW43255   2.466   3.686   1.565 -0.9770  0.7317 -0.0092
10859SOL    HW143256   2.510   3.631   1.494 -2.7783  1.2453 -1.5605
10859SOL    HW243257   2.477   3.783   1.544 -0.3743  0.9197  1.1370
10860SOL     OW43258   8.465   4.663   4.772 -0.2039  0.4084  0.6783
10860SOL    HW143259   8.469   4.686   4.869 -0.4549 -0.6260  0.9436
10860SOL    HW243260   8.370   4.670   4.739 -0.1466  0.5897  0.5488
10861SOL     OW43261   1.338   5.701   1.262  0.0602 -0.1009  0.0889
10861SOL    HW143262   1.296   5.720   1.351  1.8590 -0.1537  0.9891
10861SOL    HW243263   1.293   5.622   1.220 -0.4554 -0.4196  1.2224
10862SOL     OW43264   1.134   7.487   4.010  0.2780 -0.0798 -0.6874
10862SOL    HW143265   1.075   7.408   3.992 -0.2124  0.2094 -0.3755
10862SOL    HW243266   1.198   7.499   3.934  0.7084 -1.0898 -0.4908
10863SOL     OW43267   8.823   0.085   0.062 -0.1281  0.2596  0.1331
10863SOL    HW143268   8.815   0.090   0.162 -0.9502 -1.0255  0.1436
10863SOL    HW243269   8.870   0.166   0.028  1.3434  0.0769  1.6893
10864SOL     OW43270   2.174   7.269   3.986 -0.0983 -0.3113 -0.0247
10864SOL    HW143271   2.175   7.192   3.922 -2.7373 -0.5783  0.2020
10864SOL    HW243272   2.146   7.236   4.076 -1.4422  0.9414  0.0233
10865SOL     OW43273   0.571   3.309   3.843  0.0081 -0.2752  0.0935
10865SOL    HW143274   0.534   3.240   3.905 -0.3232  0.9289  1.2642
10865SOL    HW243275   0.664   3.334   3.873  0.7815 -1.4055 -1.3070
10866SOL     OW43276   3.898   2.557   4.632  0.0645  0.3222 -0.5347
10866SOL    HW143277   3.870   2.473   4.679 -0.8597  0.4366 -0.8732
10866SOL    HW243278   3.968   2.604   4.686  0.2453 -0.4245 -0.1162
10867SOL     OW43279   8.699   5.986   0.496 -0.2966  0.5531  0.1987
10867SOL    HW143280   8.606   6.008   0.523 -1.1529 -1.1756 -1.2373
10867SOL    HW243281   8.707   5.992   0.396  0.7796 -0.6104  0.2087
10868SOL     OW43282   7.946   4.459   0.769 -0.1533 -0.2371  0.3358
10868SOL    HW143283   7.960   4.421   0.860  0.0286 -0.8571  0.0520
10868SOL    HW243284   7.911   4.388   0.708 -0.8562  0.3312  0.0754
10869SOL     OW43285   0.122   2.361   1.513 -0.2153  0.3703  0.0340
10869SOL    HW143286   0.025   2.350   1.532 -0.3286  0.9381 -0.1979
10869SOL    HW243287   0.150   2.297   1.441 -0.9257  1.7394 -1.5065
10870SOL     OW43288   3.548   2.255   2.121 -0.1795  0.4133  0.1541
10870SOL    HW143289   3.537   2.335   2.180 -1.3574  0.2835  0.1077
10870SOL    HW243290   3.464   2.202   2.119 -0.4720  0.8799 -2.3366
10871SOL     OW43291   4.647   5.327   1.247 -0.1782  0.1873  0.2100
10871SOL    HW143292   4.656   5.293   1.341 -0.2296 -1.0386 -0.2143
10871SOL    HW243293   4.600   5.415   1.248 -1.3346 -0.4254  1.2433
10872SOL     OW43294   0.970   1.244   1.607 -0.1938  0.2857  0.0461
10872SOL    HW143295   0.917   1.239   1.522  0.4028  3.1830 -0.5361
10872SOL    HW243296   0.974   1.153   1.649 -3.0558 -0.5951 -1.4466
10873SOL     OW43297   0.935   5.719   2.496  0.2491 -0.2652 -0.2641
10873SOL    HW143298   0.934   5.777   2.578  0.1648 -1.4931  0.6102
10873SOL    HW243299   0.973   5.771   2.420  0.5707  0.8139  0.6143
10874SOL     OW43300   3.382   7.737   3.359  0.0701  0.0517 -0.2560
10874SOL    HW143301   3.361   7.821   3.309  0.1469  0.2789  0.0987
10874SOL    HW243302   3.399   7.663   3.293  0.0825  0.3297 -0.5669
10875SOL     OW43303   9.286   5.997   3.351 -0.4008  0.1629 -0.1292
10875SOL    HW143304   9.303   6.052   3.432 -0.1490 -0.3143  0.1421
10875SOL    HW243305   9.366   5.940   3.332 -0.0759  0.9757 -1.2723
10876SOL     OW43306   2.002   6.585   0.064  0.3509 -0.1883  0.6723
10876SOL    HW143307   2.060   6.592   0.145 -0.1984 -1.9999  1.2579
10876SOL    HW243308   2.057   6.553  -0.013  0.7129  0.8109  0.5055
10877SOL     OW43309   5.039   0.421   3.862  0.1942 -0.3140  0.7345
10877SOL    HW143310   5.021   0.416   3.960 -0.5526 -0.5222  0.5886
10877SOL    HW243311   5.047   0.517   3.835  1.6990 -0.2891  1.2242
10878SOL     OW43312   1.090   1.799   3.812 -0.1320 -0.0704  0.5286
10878SOL    HW143313   1.079   1.772   3.908 -1.4513 -2.5445 -0.2862
10878SOL    HW243314   1.171   1.753   3.774  1.2136  1.9871  0.7860
10879SOL     OW43315   1.039   2.861   3.342 -0.0076 -0.1598  0.1565
10879SOL    HW143316   0.998   2.852   3.432  1.1425 -0.4674  0.6612
10879SOL    HW243317   1.099   2.941   3.341  0.5262 -0.5599 -0.1195
10880SOL     OW43318   2.910   2.451   2.185 -0.3208 -0.2186  0.2986
10880SOL    HW143319   2.814   2.445   2.214 -0.9356  1.4658 -1.3204
10880SOL    HW243320   2.918   2.422   2.090  0.9304 -1.1615  0.6820
10881SOL     OW43321   3.744   2.986   1.510  0.0808 -0.5626 -0.1833
10881SOL    HW143322   3.762   2.949   1.601  1.7159 -0.3248 -0.3861
10881SOL    HW243323   3.665   2.939   1.470 -0.3359 -1.0181  1.1474
10882SOL     OW43324   3.953   1.742   0.833 -0.3310 -0.3449 -0.5859
10882SOL    HW143325   3.986   1.659   0.789 -2.1027 -1.0109 -0.7187
10882SOL    HW243326   3.863   1.725   0.874  0.2559  0.9050  1.2982
10883SOL     OW43327   5.033   1.642   1.144 -0.2763 -0.0395 -0.0872
10883SOL    HW143328   5.126   1.666   1.115 -0.3957 -0.2573 -0.6533
10883SOL    HW243329   4.984   1.725   1.169 -0.4191  0.2373 -1.2446
10884SOL     OW43330   9.835   4.842   3.638 -0.2183 -0.2618  0.5493
10884SOL    HW143331   9.931   4.868   3.635 -0.4667  0.5296 -2.2005
10884SOL    HW243332   9.780   4.921   3.667 -0.2901  0.1635 -0.7117
10885SOL     OW43333   1.294   0.313   0.025 -0.0123 -0.5544 -0.3568
10885SOL    HW143334   1.276   0.219  -0.002 -2.1894 -0.5219  0.8167
10885SOL    HW243335   1.228   0.373  -0.020 -0.0926  0.1371  0.6670
10886SOL     OW43336   3.153   9.500   3.145 -0.1527  0.7437  0.1093
10886SOL    HW143337   3.208   9.552   3.080  1.0709 -0.0489  0.4780
10886SOL    HW243338   3.178   9.403   3.140 -1.4695  0.3878  0.3438
10887SOL     OW43339   6.597   8.121   3.098  0.0531 -0.4087  0.0252
10887SOL    HW143340   6.660   8.113   3.020 -0.7175 -0.1186 -0.6300
10887SOL    HW243341   6.535   8.043   3.098  0.8319 -1.0456  1.0604
10888SOL     OW43342   3.531   7.535   0.076 -0.7760 -0.0369 -0.4128
10888SOL    HW143343   3.432   7.521   0.073 -0.8142 -0.2512  1.4397
10888SOL    HW243344   3.552   7.606   0.143  0.4235 -0.9651  0.1949
10889SOL     OW43345   0.874   0.973   0.328  0.8572  0.1183 -0.1304
10889SOL    HW143346   0.903   1.064   0.357 -2.0084  1.5601 -1.5977
10889SOL    HW243347   0.846   0.976   0.232  1.5088 -2.5220 -0.4530
10890SOL     OW43348   7.068   0.186   2.528 -0.8627 -0.0075  0.6331
10890SOL    HW143349   7.001   0.113   2.511 -1.5881  1.0322 -1.2289
10890SOL    HW243350   7.141   0.180   2.460  0.3067 -0.3844  1.9025
10891SOL     OW43351   6.414   9.856   4.445  0.1564 -0.0240 -0.0668
10891SOL    HW143352   6.401   9.951   4.415 -0.9221 -0.1532 -0.0327
10891SOL    HW243353   6.433   9.855   4.543  0.8282  0.2006 -0.1915
10892SOL     OW43354   1.241   7.521   3.722  0.1414 -0.4199  0.1488
10892SOL    HW143355   1.150   7.562   3.709 -0.2076 -0.6814  1.7157
10892SOL    HW243356   1.232   7.422   3.721  0.7947 -0.4986 -2.2400
10893SOL     OW43357   9.319   6.404   3.580  0.5577 -0.5187 -0.7618
10893SOL    HW143358   9.317   6.388   3.482  0.8119  0.5117 -0.9397
10893SOL    HW243359   9.373   6.486   3.600  0.5676 -0.7557  0.2419
10894SOL     OW43360   4.125   2.637   3.369 -0.0271  0.0741 -0.5943
10894SOL    HW143361   4.077   2.664   3.286 -3.6453  0.3921  1.5137
10894SOL    HW243362   4.154   2.542   3.361  1.3944  0.6341 -2.9072
10895SOL     OW43363   1.599   0.392   0.644  0.0730  0.0751 -0.1375
10895SOL    HW143364   1.619   0.426   0.552 -0.4072 -1.2848 -0.7611
10895SOL    HW243365   1.514   0.340   0.643 -1.2582  2.1517  1.5992
10896SOL     OW43366   1.785   0.134   3.707  0.0380 -0.7338  0.7343
10896SOL    HW143367   1.845   0.212   3.689 -1.7638  0.5743  0.3163
10896SOL    HW243368   1.837   0.050   3.696  1.4123  0.3210 -1.1840
10897SOL     OW43369   2.416   6.885   0.173  0.2546 -0.6134 -0.5120
10897SOL    HW143370   2.438   6.790   0.151  1.1736 -0.6452  0.4940
10897SOL    HW243371   2.329   6.888   0.222 -0.0876 -0.8710 -1.0976
10898SOL     OW43372   1.431   6.826   0.583 -0.0679  0.1205 -0.2770
10898SOL    HW143373   1.524   6.861   0.568 -0.4780  0.7877 -1.3785
10898SOL    HW243374   1.397   6.859   0.671  0.8035 -0.2748  0.2183
10899SOL     OW43375   2.986   6.576   3.131 -0.1643  0.3213  0.0855
10899SOL    HW143376   2.927   6.600   3.209 -0.1034  1.0237 -0.0808
10899SOL    HW243377   2.993   6.655   3.070 -0.9586 -0.5235 -1.1135
10900SOL     OW43378   7.599   0.094   4.383 -0.1581  0.7107  0.2071
10900SOL    HW143379   7.612   0.159   4.309  0.1260  0.6881  0.2373
10900SOL    HW243380   7.685   0.082   4.434  0.2879 -1.0390 -0.8988
10901SOL     OW43381   0.848   4.617   2.489  0.5657 -0.1714  0.0270
10901SOL    HW143382   0.807   4.632   2.399  1.9309  0.3264 -0.5264
10901SOL    HW243383   0.944   4.592   2.478  1.5187  2.7072  1.4520
10902SOL     OW43384   1.850   3.483   0.135 -0.1766 -0.8065  0.1472
10902SOL    HW143385   1.832   3.543   0.057 -0.6983 -0.2735  0.6773
10902SOL    HW243386   1.801   3.396   0.122  0.5730 -1.1191 -0.6136
10903SOL     OW43387   3.626   9.042   3.161 -0.1590  0.2791  0.1472
10903SOL    HW143388   3.651   8.974   3.229 -2.2245 -0.3727  0.2790
10903SOL    HW243389   3.568   9.112   3.203 -0.2164  0.6835 -0.5947
10904SOL     OW43390   9.098   7.957   0.458 -0.2488 -0.4282  0.3170
10904SOL    HW143391   9.157   8.028   0.494 -0.5148 -0.0112 -0.0665
10904SOL    HW243392   9.116   7.945   0.360 -1.9467  0.8634 -0.1815
10905SOL     OW43393   3.640   6.817   2.102  0.1885 -0.6308  0.8634
10905SOL    HW143394   3.636   6.908   2.142 -0.2150 -0.7870  1.1774
10905SOL    HW243395   3.574   6.810   2.028  0.8564 -0.3779  0.2423
10906SOL     OW43396   3.620   4.767   3.220 -0.1817  0.4245  0.3507
10906SOL    HW143397   3.602   4.864   3.202  1.8768  0.3355 -2.4609
10906SOL    HW243398   3.574   4.740   3.304  0.1114  4.1338  1.8074
10907SOL     OW43399   7.843   8.223   1.587  0.2072 -0.1330  0.6402
10907SOL    HW143400   7.816   8.217   1.491 -1.3528  0.9298  1.0016
10907SOL    HW243401   7.799   8.149   1.639 -0.7650  0.6454  0.9384
10908SOL     OW43402   3.881   8.081   1.329  0.3870  0.0637 -0.0175
10908SOL    HW143403   3.828   8.096   1.245  0.3101 -0.0927  0.0033
10908SOL    HW243404   3.825   8.103   1.408 -0.0474 -1.2674  0.0495
10909SOL     OW43405   0.858   8.571   3.468  0.3671 -0.0222  0.2427
10909SOL    HW143406   0.945   8.620   3.470  0.6299 -0.5116  3.0216
10909SOL    HW243407   0.789   8.622   3.520  0.1124 -1.5814  1.4799
10910SOL     OW43408   8.562   3.660   1.978  0.7910  0.0165 -0.3789
10910SOL    HW143409   8.645   3.714   1.969  1.2935 -0.8917 -1.2096
10910SOL    HW243410   8.573   3.572   1.932  0.2326 -1.0891  1.5269
10911SOL     OW43411   7.912   0.288   2.308 -0.5127 -0.5804  0.2840
10911SOL    HW143412   7.876   0.361   2.366  0.3807 -1.0823  1.4967
10911SOL    HW243413   7.886   0.199   2.347 -1.1542 -0.9174 -0.8930
10912SOL     OW43414   0.630   6.191   0.336 -0.0521 -0.4094  0.3453
10912SOL    HW143415   0.706   6.130   0.316  1.7079  1.6131  0.6383
10912SOL    HW243416   0.578   6.155   0.414  1.5554 -1.0068  1.1524
10913SOL     OW43417   2.075   5.538   4.684 -0.0183 -0.9049  0.0071
10913SOL    HW143418   2.146   5.485   4.637  0.4576 -0.0818 -0.2187
10913SOL    HW243419   2.097   5.544   4.781  0.1564 -0.7635 -0.0401
10914SOL     OW43420   9.691   3.923   1.534  0.8199 -0.0157  0.3250
10914SOL    HW143421   9.629   3.863   1.485  1.6459 -1.8494  1.4872
10914SOL    HW243422   9.781   3.879   1.542  1.3397  1.2277  1.4911
10915SOL     OW43423   7.494   7.793   4.082 -0.5863 -0.2201 -0.3923
10915SOL    HW143424   7.519   7.886   4.109  2.9672 -0.9956 -0.8203
10915SOL    HW243425   7.494   7.786   3.983  1.0830 -1.1566 -0.3338
10916SOL     OW43426   2.286   9.929   0.525  0.0225  0.8669  0.1375
10916SOL    HW143427   2.258   9.834   0.531  0.4061  0.6655 -1.0412
10916SOL    HW243428   2.274   9.974   0.614  0.7289 -0.5170  0.9487
10917SOL     OW43429   0.003   9.820   0.660  0.2017  0.3243  0.1454
10917SOL    HW143430   0.083   9.771   0.696  0.5846 -0.2881 -1.4906
10917SOL    HW243431  -0.053   9.757   0.606 -1.5834  0.6647  1.5520
10918SOL     OW43432   0.879   9.216   0.476 -0.1369  0.4326 -0.2920
10918SOL    HW143433   0.877   9.274   0.394 -2.6615  0.7622 -0.0352
10918SOL    HW243434   0.970   9.221   0.518  1.0474  0.6362 -2.7856
10919SOL     OW43435   0.299   9.534   2.145  0.2458 -0.2269 -0.5189
10919SOL    HW143436   0.302   9.436   2.130 -1.3679 -0.5078  0.8577
10919SOL    HW243437   0.214   9.571   2.108  0.9654  0.6970 -1.2711
10920SOL     OW43438   8.236   3.387   1.044 -0.1546 -0.5857 -0.2378
10920SOL    HW143439   8.328   3.364   1.011 -0.1208 -0.9963  0.1287
10920SOL    HW243440   8.175   3.402   0.966  0.6939  1.6716 -0.5057
10921SOL     OW43441   2.123   4.466   2.721 -0.3573  0.0354 -0.2973
10921SOL    HW143442   2.153   4.479   2.627 -3.6915  1.5436 -1.2444
10921SOL    HW243443   2.053   4.394   2.724 -0.9580  0.6374  0.8474
10922SOL     OW43444   5.374   0.614   2.053  0.0047  0.5581 -0.3714
10922SOL    HW143445   5.416   0.657   1.972 -1.0609  1.7914 -0.2848
10922SOL    HW243446   5.315   0.680   2.099  1.5357  0.2539  2.1419
10923SOL     OW43447   3.357   5.638   1.663  0.4013  0.7271  0.2773
10923SOL    HW143448   3.307   5.563   1.620  1.6695  0.3631 -0.6053
10923SOL    HW243449   3.391   5.700   1.592 -0.2709  1.9194  0.9738
10924SOL     OW43450   8.046   1.725   1.893  0.3736  0.2690 -0.5490
10924SOL    HW143451   8.129   1.673   1.913  0.9867  0.9525 -1.2833
10924SOL    HW243452   8.047   1.755   1.798 -0.2871  1.0500 -0.3153
10925SOL     OW43453   8.984   6.127   2.066  0.8755  0.2854  1.0458
10925SOL    HW143454   9.001   6.036   2.104  1.3647 -1.1035 -2.3501
10925SOL    HW243455   8.888   6.151   2.079 -0.0334 -2.1390 -0.8841
10926SOL     OW43456   8.093   6.138   1.152 -0.4809  0.2715  0.1517
10926SOL    HW143457   8.095   6.059   1.091 -0.6537 -0.2124  0.7677
10926SOL    HW243458   8.008   6.137   1.205  0.0050  0.2743  0.9404
10927SOL     OW43459   2.502   4.439   3.056 -0.3217 -0.0363 -0.5176
10927SOL    HW143460   2.552   4.390   3.128  0.4210 -0.7787 -1.5106
10927SOL    HW243461   2.483   4.532   3.085  1.0032  0.0196  0.1879
10928SOL     OW43462   8.569   9.404   1.262 -0.0908 -0.4096 -0.3507
10928SOL    HW143463   8.536   9.404   1.168  1.3397 -0.7024 -0.8656
10928SOL    HW243464   8.624   9.486   1.278 -0.2473 -0.4090  0.2026
10929SOL     OW43465   8.408   3.290   3.655  0.3073  0.1747 -0.2101
10929SOL    HW143466   8.479   3.228   3.689  0.6027  0.5855 -0.0703
10929SOL    HW243467   8.331   3.237   3.621  0.6776 -0.2764 -0.3504
10930SOL     OW43468   3.904   8.372   0.729  0.5573 -0.1636  0.2245
10930SOL    HW143469   3.953   8.344   0.812 -1.2622 -0.9313  1.0714
10930SOL    HW243470   3.947   8.330   0.649  0.9553 -1.2703  1.0039
10931SOL     OW43471   4.402   6.418   2.342  0.1196 -0.4752  0.0794
10931SOL    HW143472   4.430   6.505   2.383 -2.2958 -0.1574  1.1551
10931SOL    HW243473   4.387   6.350   2.414 -2.1227 -0.5236 -0.3704
10932SOL     OW43474   9.118   7.909   1.501  0.1677 -0.5860  0.0332
10932SOL    HW143475   9.180   7.926   1.578 -0.4014 -1.2617  0.6389
10932SOL    HW243476   9.109   7.993   1.447 -0.7604  0.3910  1.6747
10933SOL     OW43477   6.467   9.778   1.636 -0.2568  0.5507  0.0984
10933SOL    HW143478   6.497   9.820   1.551 -0.4362  1.5034  0.4913
10933SOL    HW243479   6.389   9.718   1.618  0.4912 -0.2267 -0.5881
10934SOL     OW43480   4.843   8.069   2.753  0.2636  0.0656  0.6926
10934SOL    HW143481   4.873   8.038   2.844 -1.3607 -1.4993  0.7212
10934SOL    HW243482   4.913   8.046   2.686  1.4297  1.1347  1.5240
10935SOL     OW43483   3.603   8.104   1.149 -0.4349  0.5002 -0.2093
10935SOL    HW143484   3.653   8.191   1.137  0.5824 -0.0139  0.2474
10935SOL    HW243485   3.604   8.054   1.063  0.8953 -0.0530  0.1142
10936SOL     OW43486   9.642   2.742   1.949  0.4498  0.3256 -0.6715
10936SOL    HW143487   9.639   2.727   2.048 -0.6491  0.8590 -0.6201
10936SOL    HW243488   9.683   2.831   1.930 -0.8537  0.9479 -0.6188
10937SOL     OW43489   3.011   6.832   4.132  0.0001 -0.3104  0.0713
10937SOL    HW143490   3.054   6.858   4.045  3.4277  0.8166  1.9896
10937SOL    HW243491   3.012   6.733   4.142  2.4911 -0.3141  0.1520
10938SOL     OW43492   8.602   0.375   0.126  0.2113  0.7111 -0.3223
10938SOL    HW143493   8.617   0.399   0.030 -1.7345  0.4384 -0.7245
10938SOL    HW243494   8.649   0.440   0.185 -0.3365  2.1713 -1.4592
10939SOL     OW43495   9.056   7.183   2.286  0.2959 -0.2153 -0.4886
10939SOL    HW143496   8.983   7.234   2.331  1.2873  1.0577 -0.2899
10939SOL    HW243497   9.021   7.095   2.254 -1.3222  0.3850 -0.4015
10940SOL     OW43498   2.211   1.365   2.117 -0.2242  0.1063 -0.2909
10940SOL    HW143499   2.173   1.275   2.093  1.4674 -0.2772 -1.6172
10940SOL    HW243500   2.300   1.353   2.160  0.7999  1.1831 -2.0252
10941SOL     OW43501   0.331   9.476   2.920  0.4366  0.2824  0.2319
10941SOL    HW143502   0.236   9.448   2.935  0.1367  1.3395  0.3853
10941SOL    HW243503   0.341   9.573   2.944  1.5366  0.1983  0.1324
10942SOL     OW43504   2.745   9.511   1.123  0.0144  0.7954 -0.5423
10942SOL    HW143505   2.811   9.452   1.169  0.7585 -0.1439 -2.8057
10942SOL    HW243506   2.670   9.457   1.086 -0.8605  1.6094 -0.0006
10943SOL     OW43507   1.461   2.555   1.796 -0.8456  0.5497 -0.2604
10943SOL    HW143508   1.421   2.501   1.722  0.2907  0.1268 -0.5826
10943SOL    HW243509   1.504   2.637   1.758 -0.5331  0.4896 -0.0434
10944SOL     OW43510   8.341   8.503   3.343 -0.4460  0.3661 -0.5305
10944SOL    HW143511   8.390   8.583   3.309  2.0381 -0.3572  1.1151
10944SOL    HW243512   8.357   8.495   3.442 -0.5072 -2.2120 -0.6971
10945SOL     OW43513   3.298   2.708   0.122  0.3337 -0.1266 -0.0833
10945SOL    HW143514   3.235   2.711   0.200  0.2065 -0.1674 -0.1843
10945SOL    HW243515   3.274   2.631   0.063 -0.5783  0.8570 -1.0236
10946SOL     OW43516   1.660   6.885   3.547 -0.4453  0.3085 -0.2921
10946SOL    HW143517   1.713   6.971   3.552 -1.2394  0.7564  0.4915
10946SOL    HW243518   1.661   6.851   3.453 -0.2077  1.2362 -0.6308
10947SOL     OW43519   7.323   6.683   3.262 -0.3173  0.3899 -0.2227
10947SOL    HW143520   7.409   6.712   3.305 -1.9732 -0.5025  3.8040
10947SOL    HW243521   7.340   6.665   3.165  3.4200  2.9124 -0.1356
10948SOL     OW43522   7.822   3.160   3.567 -0.5553 -0.0291  0.2074
10948SOL    HW143523   7.880   3.227   3.521 -0.4134 -0.8533 -0.8206
10948SOL    HW243524   7.830   3.071   3.522  0.0602 -1.0180  2.1824
10949SOL     OW43525   4.872   9.637   3.363 -0.0150  0.2801  0.6334
10949SOL    HW143526   4.955   9.672   3.319 -0.4075 -2.0589 -2.1586
10949SOL    HW243527   4.799   9.705   3.352 -0.2025 -0.3563 -2.8386
10950SOL     OW43528   8.831   0.220   4.362 -0.4746  0.9101  0.1855
10950SOL    HW143529   8.903   0.167   4.407 -0.4705  0.8285  0.0829
10950SOL    HW243530   8.754   0.161   4.340  0.2258  0.5795 -1.4575
10951SOL     OW43531   4.900   3.590   4.709 -0.3696 -0.8269  0.3600
10951SOL    HW143532   4.970   3.535   4.754  0.5891  0.2979  0.2790
10951SOL    HW243533   4.863   3.656   4.774 -0.7788 -0.8909  0.1894
10952SOL     OW43534   8.051   2.269   2.140 -0.9331 -0.1427  0.6445
10952SOL    HW143535   8.074   2.195   2.076 -0.4779  0.1987  0.4101
10952SOL    HW243536   8.077   2.241   2.233 -2.1438 -0.8764  0.7643
10953SOL     OW43537   3.406   0.484   3.046 -0.0346  0.2616  0.2457
10953SOL    HW143538   3.420   0.536   2.962  2.4665 -0.0063  0.4524
10953SOL    HW243539   3.326   0.425   3.036  0.8256 -0.5187 -2.3489
10954SOL     OW43540   3.147   8.320   4.015 -1.0981  0.1526 -0.2201
10954SOL    HW143541   3.100   8.278   3.937 -1.7684  0.6438 -0.0812
10954SOL    HW243542   3.172   8.414   3.992 -0.6077  0.0541 -0.1130
10955SOL     OW43543   0.957   2.231   1.997 -0.8166 -0.0597  0.4414
10955SOL    HW143544   0.960   2.132   2.011  0.8050  0.0948  1.2550
10955SOL    HW243545   0.924   2.276   2.080  2.8125  0.3902  1.7344
10956SOL     OW43546   7.571   3.084   0.290  0.3799  0.0381 -0.2010
10956SOL    HW143547   7.596   3.179   0.308  0.0761  0.1366 -0.3019
10956SOL    HW243548   7.641   3.040   0.233 -0.8731  1.0013 -2.5315
10957SOL     OW43549   1.423   4.657   4.069 -0.0965 -0.1999  0.1009
10957SOL    HW143550   1.324   4.672   4.065 -0.5411 -2.7145  0.9533
10957SOL    HW243551   1.445   4.603   4.150  2.0845  0.9116  0.2913
10958SOL     OW43552   8.027   1.828   3.535  0.0731  0.0880  0.3808
10958SOL    HW143553   7.944   1.776   3.558  0.7759 -0.1014  2.6524
10958SOL    HW243554   8.030   1.912   3.589  0.5137  0.9625 -0.9667
10959SOL     OW43555   8.250   6.632   4.756 -0.1361 -0.3386 -0.0460
10959SOL    HW143556   8.279   6.550   4.806  1.2077  0.6273  0.8265
10959SOL    HW243557   8.174   6.675   4.804  0.5853  0.1081  0.7202
10960SOL     OW43558   9.217   2.852   2.671 -0.0452 -0.0524 -0.3975
10960SOL    HW143559   9.278   2.860   2.750 -1.8842  1.6744  0.8939
10960SOL    HW243560   9.255   2.785   2.607  2.0439 -0.6768  1.4060
10961SOL     OW43561   0.538   8.946   4.388  0.1008  0.5789 -0.7030
10961SOL    HW143562   0.446   8.976   4.413 -0.5875 -1.8148 -0.3162
10961SOL    HW243563   0.603   8.975   4.459 -0.7953 -0.1763  0.4508
10962SOL     OW43564   2.030   3.123   4.699 -0.0365 -0.3802 -0.4716
10962SOL    HW143565   2.126   3.103   4.680 -0.5327 -1.3187 -2.0444
10962SOL    HW243566   2.024   3.207   4.753  1.5939  0.4758 -1.5870
10963SOL     OW43567   7.574   1.217   3.550 -0.3212  1.3206  1.1263
10963SOL    HW143568   7.629   1.272   3.486 -0.3594 -0.2722 -0.3116
10963SOL    HW243569   7.634   1.156   3.602 -0.7345 -1.2070 -1.2166
10964SOL     OW43570   0.470   0.087   4.028  0.1458 -0.1516 -0.0376
10964SOL    HW143571   0.396   0.151   4.011 -0.0644 -0.1452  0.8678
10964SOL    HW243572   0.528   0.122   4.102  0.5091 -0.6053 -0.1028
10965SOL     OW43573   1.813   2.222   0.211 -0.0044  0.5510  0.2041
10965SOL    HW143574   1.774   2.215   0.303  1.0885 -0.2254  0.6272
10965SOL    HW243575   1.740   2.219   0.143 -0.7205 -0.5060  0.9922
10966SOL     OW43576   1.710   5.546   4.312  0.0082 -1.0652 -0.4739
10966SOL    HW143577   1.690   5.577   4.219  1.9906  2.8783  0.2702
10966SOL    HW243578   1.667   5.609   4.377  0.3688 -2.5584  1.2346
10967SOL     OW43579   0.103   9.899   3.366 -0.2207  0.8997 -0.3305
10967SOL    HW143580   0.063   9.829   3.426 -1.5641  2.3349  0.4888
10967SOL    HW243581   0.201   9.906   3.385  0.0191 -1.0445 -0.7202
10968SOL     OW43582   0.055   6.569   0.691  0.3149  0.6191  0.3332
10968SOL    HW143583  -0.019   6.632   0.670 -0.6659 -0.2952  1.0130
10968SOL    HW243584   0.133   6.619   0.728 -0.0788  1.5351 -0.0765
10969SOL     OW43585   8.295   8.499   2.284  0.1778  0.2972 -0.6008
10969SOL    HW143586   8.220   8.558   2.255 -0.5928 -0.2748  0.2044
10969SOL    HW243587   8.318   8.519   2.379 -0.6010 -1.2167 -0.0760
10970SOL     OW43588   0.936   9.789   1.529  0.2312  0.1510 -0.2644
10970SOL    HW143589   0.855   9.831   1.571  2.0339  1.4336  2.0039
10970SOL    HW243590   0.932   9.690   1.541  0.2232  0.4137  2.1070
10971SOL     OW43591   1.932   6.640   0.978  0.4339 -0.3733  0.0271
10971SOL    HW143592   1.945   6.542   0.967  1.3618 -0.6267  2.8545
10971SOL    HW243593   1.849   6.668   0.930  1.1621 -2.1670 -2.3886
10972SOL     OW43594   1.383   9.371   3.975 -0.2563 -0.0220 -0.4016
10972SOL    HW143595   1.412   9.467   3.975 -0.5603  0.1088  2.9982
10972SOL    HW243596   1.350   9.346   4.066  0.3734 -3.5607 -1.0953
10973SOL     OW43597   4.565   1.214   3.708 -0.5863 -0.1910 -1.0419
10973SOL    HW143598   4.579   1.115   3.694 -1.3575 -0.6446  1.2822
10973SOL    HW243599   4.483   1.243   3.659 -0.5674 -0.7787 -1.4310
10974SOL     OW43600   3.268   8.763   4.557 -0.0834 -0.1734 -0.2367
10974SOL    HW143601   3.180   8.722   4.534  0.8136 -1.1555 -1.9859
10974SOL    HW243602   3.339   8.726   4.497  1.6924 -0.0813  1.7402
10975SOL     OW43603   7.694   0.277   1.228 -0.3624 -0.5805  0.2490
10975SOL    HW143604   7.679   0.178   1.219 -1.7962 -0.1905 -1.7997
10975SOL    HW243605   7.623   0.316   1.286 -1.3727 -0.3341 -1.1464
10976SOL     OW43606   4.108   1.253   2.958  0.1388  0.6344  0.1538
10976SOL    HW143607   4.027   1.221   3.007  0.4211 -0.5344 -0.1202
10976SOL    HW243608   4.080   1.315   2.885 -0.8354 -2.1911 -1.9796
10977SOL     OW43609   7.842   8.362   0.677 -0.2751 -0.0885 -0.2782
10977SOL    HW143610   7.791   8.288   0.720  0.3936  0.1843  1.0026
10977SOL    HW243611   7.781   8.416   0.620 -1.5738  0.6430  1.7574
10978SOL     OW43612   4.877   2.201   2.224 -0.6068 -0.2152 -0.2300
10978SOL    HW143613   4.961   2.236   2.183 -0.4162 -0.8010 -0.3502
10978SOL    HW243614   4.857   2.111   2.185  0.5217 -1.5800  2.2413
10979SOL     OW43615   2.543   6.431   2.522  0.0712  0.2914  0.0346
10979SOL    HW143616   2.474   6.370   2.484  1.1837 -0.9303 -0.0463
10979SOL    HW243617   2.564   6.503   2.456  0.8169 -0.8821 -1.0291
10980SOL     OW43618   0.050   5.081   3.667 -0.5341  0.0113 -0.3103
10980SOL    HW143619   0.063   5.008   3.734 -0.9970  0.3566  0.1618
10980SOL    HW243620  -0.002   5.155   3.709  1.2171  1.2710 -0.3245
10981SOL     OW43621   8.258   8.576   3.065  0.4983  0.4995  0.4336
10981SOL    HW143622   8.316   8.653   3.092  1.2506 -0.2323  0.9439
10981SOL    HW243623   8.309   8.490   3.078  0.3361  0.0223 -1.8116
10982SOL     OW43624   8.293   7.034   3.340  0.4695  0.3371  0.4119
10982SOL    HW143625   8.276   7.125   3.302  1.2704 -0.0498 -0.9044
10982SOL    HW243626   8.234   6.967   3.294 -0.1414  0.1887  1.3967
10983SOL     OW43627   9.533   0.885   0.109  1.2052  0.2543  0.1627
10983SOL    HW143628   9.629   0.903   0.128  1.3761  0.1181 -0.5693
10983SOL    HW243629   9.494   0.962   0.060  0.9087  0.3540  0.5478
10984SOL     OW43630   1.367   1.676   3.679 -0.6104 -0.2893 -0.0955
10984SOL    HW143631   1.448   1.702   3.732 -2.2790  2.8838  1.0104
10984SOL    HW243632   1.366   1.727   3.593 -0.7472 -1.3559 -0.7370
10985SOL     OW43633   9.265   5.507   1.879  0.1901 -0.1423  0.2742
10985SOL    HW143634   9.276   5.408   1.889  0.0197 -0.0919  0.9204
10985SOL    HW243635   9.290   5.533   1.785  0.4806 -0.7593  0.1759
10986SOL     OW43636   1.097   7.337   0.561 -0.3836  0.1545  0.1873
10986SOL    HW143637   1.133   7.387   0.483  0.9003  0.2136  0.7970
10986SOL    HW243638   1.085   7.241   0.537 -0.4069  0.2585 -0.2129
10987SOL     OW43639   0.571   8.328   3.634  0.5412 -0.1639  0.4505
10987SOL    HW143640   0.529   8.415   3.608  1.0772 -0.1667 -0.4549
10987SOL    HW243641   0.540   8.257   3.571  3.7665  0.2976 -1.8154
10988SOL     OW43642   0.446   5.348   3.174 -0.2248 -0.6911 -0.7052
10988SOL    HW143643   0.496   5.264   3.151  1.0284 -0.0710 -0.2849
10988SOL    HW243644   0.509   5.414   3.214 -1.1292  0.6069 -1.3936
10989SOL     OW43645   5.595   7.025   2.320  0.3020 -0.2980 -0.1817
10989SOL    HW143646   5.527   7.086   2.361  0.5790 -0.4257  0.4782
10989SOL    HW243647   5.605   6.943   2.377  0.0887 -0.8680 -0.9452
10990SOL     OW43648   8.835   9.738   1.731  0.0433 -0.2639  0.7644
10990SOL    HW143649   8.801   9.720   1.639  0.1291  2.5539  0.1444
10990SOL    HW243650   8.759   9.737   1.796 -0.0813 -1.8023  0.6131
10991SOL     OW43651   3.048   8.772   1.042  0.2032 -0.1520  0.1050
10991SOL    HW143652   2.994   8.729   1.114  0.6033 -1.5907 -0.4211
10991SOL    HW243653   3.129   8.815   1.082 -0.0535 -0.1389  0.6151
10992SOL     OW43654   2.457   1.401   0.696  0.1140 -0.2933  0.1258
10992SOL    HW143655   2.422   1.437   0.783 -0.5857  0.3291 -0.4100
10992SOL    HW243656   2.383   1.400   0.629  0.7598 -0.3857 -0.5829
10993SOL     OW43657   0.196   7.840   2.969  0.3512 -0.4873 -0.2813
10993SOL    HW143658   0.134   7.761   2.965  0.8055 -0.8837  0.3590
10993SOL    HW243659   0.154   7.911   3.026  0.1295 -0.4317 -0.5107
10994SOL     OW43660   4.173   9.010   3.947  0.0500  0.1445 -0.0372
10994SOL    HW143661   4.147   8.914   3.954 -0.9298  0.4432  0.5939
10994SOL    HW243662   4.095   9.067   3.972  0.1942  1.1327 -1.7762
10995SOL     OW43663   6.119   7.409   2.411  0.5751 -0.0529  0.8426
10995SOL    HW143664   6.118   7.322   2.362 -0.4601  1.2935 -1.6113
10995SOL    HW243665   6.092   7.395   2.506 -2.3475 -2.0201 -0.2266
10996SOL     OW43666   3.795   8.284   1.063  0.1818  0.2223  0.2176
10996SOL    HW143667   3.749   8.356   1.012 -0.9419  1.2715  2.6002
10996SOL    HW243668   3.893   8.301   1.065  0.1178  0.6923 -0.7578
10997SOL     OW43669   1.830   8.765   0.324  0.1735 -0.2471  0.0467
10997SOL    HW143670   1.791   8.845   0.277  0.3086  0.5564  1.2720
10997SOL    HW243671   1.925   8.785   0.348  1.3434 -2.1456 -2.8202
10998SOL     OW43672   0.127   4.030   0.360  0.2629  0.5004 -0.7373
10998SOL    HW143673   0.207   4.076   0.322  0.9710 -0.7434 -0.7990
10998SOL    HW243674   0.104   3.951   0.303  0.6566 -0.7415  0.7668
10999SOL     OW43675   9.013   5.100   0.961  0.8870 -0.9808 -0.0007
10999SOL    HW143676   8.999   5.078   0.864  1.2535 -0.5573 -0.1493
10999SOL    HW243677   8.954   5.041   1.017 -1.7127  0.9568 -0.6362
11000SOL     OW43678   8.171   6.018   1.768  0.1149  0.1955  0.4352
11000SOL    HW143679   8.229   6.003   1.848  0.3427 -0.7173  0.1066
11000SOL    HW243680   8.078   6.040   1.798  0.5935  1.5811  0.9610
11001SOL     OW43681   9.135   6.346   4.481 -0.0593 -0.3923  0.3066
11001SOL    HW143682   9.045   6.302   4.481 -0.1891 -0.1770 -1.8931
11001SOL    HW243683   9.203   6.283   4.444  0.8478 -0.7850  2.5613
11002SOL     OW43684   5.920   8.313   3.931  0.4405 -0.1712 -0.6941
11002SOL    HW143685   6.015   8.322   3.902  0.8546 -1.9016  0.0737
11002SOL    HW243686   5.885   8.224   3.903  0.3067 -1.1976  2.5313
11003SOL     OW43687   5.695   0.452   2.747  0.3551 -0.8556 -0.2151
11003SOL    HW143688   5.763   0.449   2.673  2.6422 -1.1164  1.8281
11003SOL    HW243689   5.696   0.543   2.788 -0.0286 -1.0903  0.3142
11004SOL     OW43690   3.521   8.960   1.316  0.1744  0.2038 -0.0127
11004SOL    HW143691   3.579   9.005   1.249  1.6127 -0.5376  0.7188
11004SOL    HW243692   3.492   9.025   1.386  0.7232  0.4087  0.0186
11005SOL     OW43693   9.405   2.087   1.134  0.1632  0.3552  0.2088
11005SOL    HW143694   9.313   2.057   1.161  0.9510 -0.2621  2.3215
11005SOL    HW243695   9.465   2.007   1.125  0.5260  0.7600 -1.0980
11006SOL     OW43696   0.594   3.044   3.939  0.3138  0.0333  0.3094
11006SOL    HW143697   0.579   3.052   4.037  0.9411  0.8924  0.3401
11006SOL    HW243698   0.691   3.032   3.921 -0.0097 -2.2017 -0.0864
11007SOL     OW43699   2.568   4.365   1.249 -0.8658  0.0812  0.5481
11007SOL    HW143700   2.650   4.308   1.260 -1.2318 -0.3627  0.9887
11007SOL    HW243701   2.533   4.356   1.156 -0.1652  0.6126  0.2229
11008SOL     OW43702   0.185   0.352   4.265  0.7519 -0.0812 -0.0836
11008SOL    HW143703   0.085   0.350   4.262  0.7242  1.0289 -0.3187
11008SOL    HW243704   0.216   0.447   4.276  1.7655 -0.4692  0.5107
11009SOL     OW43705   0.470   0.426   4.602 -0.6088 -0.4493 -0.2572
11009SOL    HW143706   0.523   0.345   4.628 -1.5371 -0.2843  2.3096
11009SOL    HW243707   0.463   0.487   4.680 -0.4999  1.8167 -1.9804
11010SOL     OW43708   9.806   6.493   4.143  0.2134 -0.1777  0.4357
11010SOL    HW143709   9.904   6.503   4.161  0.3174  0.3586 -0.4369
11010SOL    HW243710   9.767   6.582   4.120 -0.3735 -0.4933  0.2090
11011SOL     OW43711   4.264   0.446   4.537  0.0611 -0.4536 -0.0661
11011SOL    HW143712   4.257   0.391   4.620  0.2957  0.2900  0.4617
11011SOL    HW243713   4.231   0.539   4.556  0.5354 -0.1532 -0.6806
11012SOL     OW43714   3.378   5.349   4.042 -0.2082  0.0961 -0.2510
11012SOL    HW143715   3.420   5.299   4.118 -1.1224 -0.7151 -0.2888
11012SOL    HW243716   3.447   5.408   4.000  0.7155 -0.6657  0.1786
11013SOL     OW43717   7.050   9.191   1.608 -0.4579 -0.2839  0.1678
11013SOL    HW143718   7.076   9.278   1.565 -0.2142 -0.1393  0.6042
11013SOL    HW243719   7.080   9.115   1.550  2.8798 -0.1976  1.6604
11014SOL     OW43720   8.822   2.701   4.142 -1.1982  0.0695 -0.6463
11014SOL    HW143721   8.816   2.745   4.052 -0.2618  0.6179 -0.4457
11014SOL    HW243722   8.876   2.758   4.204  0.2289 -1.4562 -0.4390
11015SOL     OW43723   1.143   9.725   4.180  0.1451 -0.7154 -0.5726
11015SOL    HW143724   1.071   9.682   4.234  0.9464 -0.3748  0.7890
11015SOL    HW243725   1.158   9.672   4.097 -2.0831 -0.4684 -1.1822
11016SOL     OW43726   4.809   4.005   1.025 -0.6290  0.0194 -0.3255
11016SOL    HW143727   4.814   4.056   0.939 -0.1878 -1.5988 -1.2852
11016SOL    HW243728   4.726   3.950   1.026 -1.8338  1.8081  1.3275
11017SOL     OW43729   7.300   9.882   0.272 -0.4484 -0.0355 -0.1178
11017SOL    HW143730   7.257   9.942   0.204 -0.3867  0.4928  0.3087
11017SOL    HW243731   7.399   9.885   0.261 -0.3740  0.9966  0.7863
11018SOL     OW43732   8.777   1.924   0.797  0.1961 -0.3249 -0.4058
11018SOL    HW143733   8.751   1.987   0.869  2.2132  1.8800 -1.5773
11018SOL    HW243734   8.771   1.970   0.708 -0.5323 -2.4600 -1.5068
11019SOL     OW43735   0.360   5.821   0.150  0.1756 -0.0110 -0.2377
11019SOL    HW143736   0.452   5.783   0.160  0.3756  0.3033 -0.9205
11019SOL    HW243737   0.330   5.858   0.238  0.3978 -0.7971  0.1774
11020SOL     OW43738   9.005   9.525   1.731  0.0795  0.3830  0.1851
11020SOL    HW143739   9.081   9.548   1.792  0.3097  1.8049 -0.6098
11020SOL    HW243740   8.929   9.588   1.748 -0.2704  0.0752 -0.2342
11021SOL     OW43741   8.032   8.924   3.447  0.1955 -0.1072  0.2981
11021SOL    HW143742   7.939   8.955   3.433  0.0881 -0.4561  0.2248
11021SOL    HW243743   8.092   8.966   3.378 -0.0250 -0.4238 -0.0907
11022SOL     OW43744   4.470   4.172   0.429  0.3677 -0.6428 -0.1877
11022SOL    HW143745   4.448   4.267   0.447 -1.1676 -1.4478  2.3120
11022SOL    HW243746   4.486   4.159   0.331 -0.1315  2.0097 -0.6314
11023SOL     OW43747   2.240   6.612   1.768  0.1815 -0.1428 -0.4049
11023SOL    HW143748   2.332   6.578   1.785 -0.5280 -1.8888 -0.0032
11023SOL    HW243749   2.216   6.598   1.672 -0.4702 -1.6994 -0.0287
11024SOL     OW43750   8.103   2.115   1.897 -0.0442  0.3761  0.4518
11024SOL    HW143751   8.076   2.193   1.842 -0.0521  0.5021  0.6339
11024SOL    HW243752   8.202   2.102   1.891 -0.3172 -1.0121 -1.4429
11025SOL     OW43753   0.470   8.646   1.633 -0.2344 -0.2353  0.8845
11025SOL    HW143754   0.502   8.677   1.543 -1.3521 -1.1763  0.1546
11025SOL    HW243755   0.549   8.626   1.691  0.5167 -1.3774 -0.4930
11026SOL     OW43756   7.602   3.354   0.367  0.6764 -0.1639 -0.2566
11026SOL    HW143757   7.627   3.368   0.463  0.1502  0.0696 -0.1535
11026SOL    HW243758   7.664   3.407   0.309  1.2420 -0.6143 -0.0694
11027SOL     OW43759   9.294   6.202   4.269  0.3322 -0.3793 -0.5005
11027SOL    HW143760   9.362   6.130   4.282 -0.5244 -1.1635 -0.3273
11027SOL    HW243761   9.340   6.288   4.247  1.5215 -0.3541  1.8942
11028SOL     OW43762   4.782   7.436   2.451 -0.0108 -0.0623  0.1893
11028SOL    HW143763   4.839   7.354   2.450  2.2166  1.4654 -0.6719
11028SOL    HW243764   4.719   7.434   2.373 -1.8100 -2.1778  1.6442
11029SOL     OW43765   2.033   8.473   4.201 -0.2301  0.0315 -0.0961
11029SOL    HW143766   1.953   8.495   4.257 -0.4831 -0.4017 -0.2809
11029SOL    HW243767   2.005   8.465   4.105  0.0496 -0.0575 -0.1709
11030SOL     OW43768   4.050   6.558   3.333 -0.0391  0.3565  0.1524
11030SOL    HW143769   4.003   6.538   3.247  0.0800  0.3787  0.0815
11030SOL    HW243770   4.110   6.638   3.320  0.9502 -0.4132 -0.0955
11031SOL     OW43771   3.160   1.262   2.591 -0.1598 -0.0307  0.1398
11031SOL    HW143772   3.178   1.341   2.649  0.1277 -0.4432  0.6091
11031SOL    HW243773   3.241   1.242   2.536 -0.5207  0.5250 -0.6067
11032SOL     OW43774   1.284   3.785   1.569  0.2796  0.0235  0.2622
11032SOL    HW143775   1.235   3.756   1.486 -0.7604 -2.1646  1.5779
11032SOL    HW243776   1.367   3.731   1.579 -0.9994 -1.7173  2.0440
11033SOL     OW43777   3.034   8.658   3.318 -0.0683 -0.2225  0.5188
11033SOL    HW143778   3.033   8.565   3.283 -0.6710 -0.7344  1.8433
11033SOL    HW243779   2.977   8.716   3.260  1.1249 -0.4377 -0.8990
11034SOL     OW43780   3.534   4.231   4.572 -0.3544 -0.1059 -0.2431
11034SOL    HW143781   3.545   4.140   4.612  0.5139 -0.5055 -1.3665
11034SOL    HW243782   3.556   4.301   4.640  0.1767 -0.7645  0.2629
11035SOL     OW43783   2.102   4.075   4.292 -0.6980  0.2677 -0.1129
11035SOL    HW143784   2.187   4.037   4.326 -1.1896 -0.1115  0.7165
11035SOL    HW243785   2.025   4.019   4.324 -1.2460  0.5375 -0.9411
11036SOL     OW43786   8.273   4.335   2.459  0.0692 -0.0494  0.1707
11036SOL    HW143787   8.178   4.366   2.457 -0.1820 -0.2621  4.0104
11036SOL    HW243788   8.283   4.253   2.403 -1.7551  0.5745 -1.1094
11037SOL     OW43789   1.588   7.888   1.317 -0.2650  0.6309 -0.1268
11037SOL    HW143790   1.625   7.970   1.274  1.7492  0.0303  0.4155
11037SOL    HW243791   1.621   7.807   1.269 -0.4215  0.0583  0.7212
11038SOL     OW43792   9.845   8.309   0.587  0.1151  0.3581  0.3612
11038SOL    HW143793   9.825   8.258   0.671 -1.0503  1.6938  0.9161
11038SOL    HW243794   9.771   8.374   0.569  1.8981  2.3546  0.0470
11039SOL     OW43795   1.816   2.524   2.665 -0.4380 -0.2638  0.0688
11039SOL    HW143796   1.910   2.559   2.662 -0.2505 -0.8785 -1.2814
11039SOL    HW243797   1.818   2.424   2.665 -1.1363 -0.2921 -1.7150
11040SOL     OW43798   3.887   4.888   2.991  0.5657  0.3391 -0.6535
11040SOL    HW143799   3.793   4.912   2.966  1.0072  0.7373 -1.9554
11040SOL    HW243800   3.945   4.890   2.910  1.8092  0.6195  0.2217
11041SOL     OW43801   9.677   1.870   3.206 -0.2389  0.1425 -0.7888
11041SOL    HW143802   9.625   1.892   3.289 -0.1497  0.1730 -0.7417
11041SOL    HW243803   9.770   1.844   3.231  0.0888  1.1504 -0.9623
11042SOL     OW43804   5.482   7.078   3.338  0.2859 -0.9574 -0.2071
11042SOL    HW143805   5.457   7.007   3.272  0.3962 -0.1109 -1.1691
11042SOL    HW243806   5.581   7.086   3.341  0.3331 -1.9042  1.0428
11043SOL     OW43807   3.026   9.313   0.040 -0.1226  0.3425 -0.1394
11043SOL    HW143808   2.967   9.341  -0.036 -0.7957  0.2754  0.3518
11043SOL    HW243809   3.098   9.253   0.006 -0.2846  0.5014 -0.7632
11044SOL     OW43810   6.943   0.412   3.644  0.3991 -0.0807 -0.2960
11044SOL    HW143811   6.884   0.493   3.647 -1.2278 -1.2950  1.8192
11044SOL    HW243812   6.888   0.331   3.624  1.6902 -0.9420 -0.4223
11045SOL     OW43813   1.722   8.750   3.159 -0.2296  0.5638 -0.1800
11045SOL    HW143814   1.693   8.841   3.128 -1.2781 -0.1512 -1.3375
11045SOL    HW243815   1.749   8.755   3.255 -0.1856  2.1162 -0.2567
11046SOL     OW43816   8.424   9.572   2.482  0.0126 -0.6339  0.3652
11046SOL    HW143817   8.392   9.478   2.495 -2.0110  0.0318  0.4189
11046SOL    HW243818   8.472   9.603   2.564 -0.5929 -1.1512  0.9236
11047SOL     OW43819   3.757   6.008   3.458 -0.0690 -0.1002 -0.5914
11047SOL    HW143820   3.857   6.004   3.466  0.1186  1.4093 -1.8770
11047SOL    HW243821   3.715   5.982   3.545  1.4843  1.1337  0.5488
11048SOL     OW43822   9.272   7.077   4.421 -0.3680  0.1686 -0.2836
11048SOL    HW143823   9.283   7.095   4.518  1.3373  0.2522 -0.4867
11048SOL    HW243824   9.232   7.158   4.376  1.3214  1.1091 -0.1063
11049SOL     OW43825   4.488   0.692   4.323  0.1694 -0.4153 -0.1112
11049SOL    HW143826   4.403   0.724   4.367  0.2843 -1.3308  0.7889
11049SOL    HW243827   4.562   0.691   4.390  0.5139 -1.1744 -0.4967
11050SOL     OW43828   2.665   5.529   1.910  0.0910  0.5207 -0.2277
11050SOL    HW143829   2.696   5.456   1.848  1.1738 -1.2350  2.3059
11050SOL    HW243830   2.586   5.496   1.962 -1.7823  2.5307 -1.6803
11051SOL     OW43831   2.671   4.160   1.626  0.1589  0.2488 -0.4692
11051SOL    HW143832   2.697   4.152   1.722 -1.8078  0.4667  0.0966
11051SOL    HW243833   2.730   4.227   1.581  0.1591  1.2162  0.9464
11052SOL     OW43834   4.705   8.985   4.287  0.1052 -0.3203 -0.1261
11052SOL    HW143835   4.684   9.017   4.194  2.5966  0.2071 -0.5485
11052SOL    HW243836   4.625   8.939   4.325 -1.5176  0.9256 -1.8926
11053SOL     OW43837   0.179   5.674   1.742  0.3513  0.6243 -0.1822
11053SOL    HW143838   0.104   5.711   1.688 -0.5238 -0.8547  0.0122
11053SOL    HW243839   0.248   5.634   1.682 -1.0186 -1.7681 -0.1805
11054SOL     OW43840   7.877   4.828   4.152  0.2837 -0.0208 -0.1664
11054SOL    HW143841   7.976   4.847   4.149  0.4931 -1.0528 -0.1371
11054SOL    HW243842   7.835   4.861   4.068  1.0177 -1.4337 -1.1213
11055SOL     OW43843   7.679   6.958   3.764 -0.7033  0.5897 -0.5914
11055SOL    HW143844   7.736   6.978   3.844  0.4251  3.9427 -2.1390
11055SOL    HW243845   7.602   7.022   3.762 -0.3551  0.9865 -2.4934
11056SOL     OW43846   1.508   2.197   1.096  0.0009  0.1963  0.4782
11056SOL    HW143847   1.432   2.132   1.084  0.3380 -0.6075  2.5272
11056SOL    HW243848   1.508   2.230   1.190  0.9877  1.7552 -0.0600
11057SOL     OW43849   9.621   4.081   3.390  0.1940  0.5157  0.7925
11057SOL    HW143850   9.605   4.106   3.295  0.3378 -0.5014  0.5028
11057SOL    HW243851   9.718   4.060   3.404 -0.1218 -0.9689  0.7857
11058SOL     OW43852   4.270   6.985   2.068 -0.3030  0.4320 -0.2416
11058SOL    HW143853   4.365   6.983   2.039 -0.6981 -1.4081 -1.4781
11058SOL    HW243854   4.253   6.910   2.132 -1.5489 -0.8779 -2.0875
11059SOL     OW43855   0.997   7.762   1.335 -0.0270 -0.5050 -0.3629
11059SOL    HW143856   1.037   7.835   1.389  0.7215  1.3879 -3.3801
11059SOL    HW243857   1.063   7.688   1.324  0.3751 -0.1911 -0.0260
11060SOL     OW43858   3.420   6.813   2.952 -0.1647 -0.5481 -0.0248
11060SOL    HW143859   3.345   6.858   3.000  0.4969 -1.9539  2.3669
11060SOL    HW243860   3.502   6.869   2.957  0.1741 -1.1511  1.3986
11061SOL     OW43861   0.376   8.325   3.418  0.1964  0.4674  0.1462
11061SOL    HW143862   0.450   8.380   3.380  1.4096 -0.0551  1.7364
11061SOL    HW243863   0.301   8.319   3.351  2.3848 -0.6414 -2.2898
11062SOL     OW43864   6.753   7.855   2.476 -0.4930  0.2613 -0.7166
11062SOL    HW143865   6.812   7.773   2.479  1.2590  1.4920 -0.5612
11062SOL    HW243866   6.668   7.833   2.429 -1.0666 -2.2913  1.3725
11063SOL     OW43867   9.077   5.741   1.931 -0.5946 -0.0439  0.1150
11063SOL    HW143868   8.994   5.762   1.880 -1.2035  0.2805  1.2121
11063SOL    HW243869   9.105   5.647   1.913 -0.6781  0.1415 -0.9784
11064SOL     OW43870   9.545   2.196   0.454  0.2437 -0.3175  0.0601
11064SOL    HW143871   9.537   2.110   0.505  0.6049 -0.3567  0.0535
11064SOL    HW243872   9.500   2.186   0.365 -1.2198  0.0574  0.7431
11065SOL     OW43873   3.744   9.249   3.858  0.2403 -0.6700  0.3877
11065SOL    HW143874   3.729   9.332   3.911 -3.0033 -0.2217 -1.1262
11065SOL    HW243875   3.725   9.169   3.915  1.0908 -0.3442  1.1468
11066SOL     OW43876   3.017   5.280   1.795 -0.5707 -0.1525 -0.1357
11066SOL    HW143877   3.013   5.180   1.789 -0.2617 -0.2758  1.4210
11066SOL    HW243878   3.044   5.306   1.887 -0.5503  1.3781 -0.5656
11067SOL     OW43879   4.177   4.875   1.458  0.3421  0.2990  0.1683
11067SOL    HW143880   4.090   4.838   1.490  0.9618 -0.5532  0.8933
11067SOL    HW243881   4.207   4.824   1.377 -0.1449  1.0141 -0.4661
11068SOL     OW43882   1.558   5.358   3.485 -0.3645 -0.1769 -0.0347
11068SOL    HW143883   1.530   5.412   3.565  1.1398  1.3257 -0.5031
11068SOL    HW243884   1.545   5.412   3.402  1.6379 -0.3290 -0.4703
11069SOL     OW43885   0.733   7.092   4.170 -1.1066 -0.4105 -0.5043
11069SOL    HW143886   0.683   7.076   4.255  1.9739 -1.0370  1.2523
11069SOL    HW243887   0.683   7.051   4.094 -2.7441 -1.9121  1.3397
11070SOL     OW43888   5.879   0.517   1.928  0.4370 -0.1052 -0.1402
11070SOL    HW143889   5.808   0.525   1.859  1.0746 -0.5822 -0.8665
11070SOL    HW243890   5.845   0.466   2.007 -0.5313  1.1035  0.2244
11071SOL     OW43891   9.774   8.094   3.547 -0.3296  0.2729 -0.0117
11071SOL    HW143892   9.733   8.130   3.631  0.8380  2.0848 -0.1944
11071SOL    HW243893   9.791   7.996   3.558 -1.5793  0.1968  1.3061
11072SOL     OW43894   9.863   7.764   1.004  0.1734 -0.0319 -0.4835
11072SOL    HW143895   9.899   7.810   0.923  1.1854 -0.9512 -0.5664
11072SOL    HW243896   9.799   7.692   0.976  0.3693 -0.2154 -0.4648
11073SOL     OW43897   3.966   9.900   3.791  0.4802 -0.2554 -0.4071
11073SOL    HW143898   3.913   9.929   3.712  0.7040  0.0945 -0.4271
11073SOL    HW243899   4.010   9.979   3.833 -1.5648 -0.0510  1.4983
11074SOL     OW43900   4.451   1.199   1.565 -0.4314 -0.0767 -0.1081
11074SOL    HW143901   4.535   1.211   1.617 -0.0773  0.3617 -0.7752
11074SOL    HW243902   4.421   1.104   1.571  0.7077 -0.4816 -0.7575
11075SOL     OW43903   0.812   8.409   0.380  0.3933 -0.1294 -0.3427
11075SOL    HW143904   0.885   8.445   0.439  0.0109  1.1664 -0.6419
11075SOL    HW243905   0.793   8.475   0.307 -1.5007 -0.1634  0.0930
11076SOL     OW43906   9.104   8.726   4.778  0.3219 -0.2014  0.5468
11076SOL    HW143907   9.122   8.728   4.680 -0.1372  0.1779  0.4692
11076SOL    HW243908   9.148   8.646   4.818 -1.7553 -1.8755 -0.4127
11077SOL     OW43909   7.196   4.549   3.860 -0.0196 -0.0513  0.1850
11077SOL    HW143910   7.188   4.516   3.954 -1.5223  1.6223  0.6730
11077SOL    HW243911   7.118   4.608   3.839  1.7916  1.9322 -1.1379
11078SOL     OW43912   4.072   4.774   0.978 -0.0790  0.1379  0.3763
11078SOL    HW143913   4.034   4.692   1.019 -0.0248  0.5031  1.1540
11078SOL    HW243914   4.060   4.852   1.040  2.2836  0.1850  0.8059
11079SOL     OW43915   8.696   7.314   3.612  0.1730 -0.0714  0.0153
11079SOL    HW143916   8.648   7.263   3.540 -0.3567 -1.9639  1.6690
11079SOL    HW243917   8.791   7.285   3.616  0.1582 -0.1014  0.1785
11080SOL     OW43918   7.545   0.579   4.476  0.2740  0.3769  0.8281
11080SOL    HW143919   7.605   0.510   4.517  0.8233  0.6789  0.5461
11080SOL    HW243920   7.476   0.535   4.420  0.1705  0.0175  1.2388
11081SOL     OW43921   2.033   1.353   2.721 -0.4048 -0.3353  0.1786
11081SOL    HW143922   2.008   1.258   2.739 -2.0691  0.1783  0.6844
11081SOL    HW243923   2.048   1.365   2.623 -1.6051 -0.8103 -0.0751
11082SOL     OW43924   8.979   3.220   1.082  0.1663 -0.6932 -0.1776
11082SOL    HW143925   8.933   3.235   1.170 -2.6414  0.1818 -1.7631
11082SOL    HW243926   9.018   3.128   1.081 -1.7331 -1.5520  1.1349
11083SOL     OW43927   6.342   9.978   3.044 -0.2508 -0.1491  0.1910
11083SOL    HW143928   6.394  10.005   3.125 -0.3154 -0.1689  0.2394
11083SOL    HW243929   6.372   9.888   3.013 -0.1233 -0.0759  0.1048
11084SOL     OW43930   3.349   4.456   3.566  0.0615 -0.0755  0.2382
11084SOL    HW143931   3.317   4.549   3.585  2.2309  0.8773 -0.5282
11084SOL    HW243932   3.271   4.396   3.550 -1.3464  1.8033 -0.0809
11085SOL     OW43933   9.644   2.974   1.273  0.3123 -0.1462  0.4003
11085SOL    HW143934   9.640   3.074   1.267  2.1807 -0.0407  0.6918
11085SOL    HW243935   9.618   2.935   1.185  3.1133  0.7089 -0.8439
11086SOL     OW43936   0.898   4.102   2.688 -0.0008 -0.3901 -0.3818
11086SOL    HW143937   0.804   4.122   2.715  0.3376 -0.3418  0.8013
11086SOL    HW243938   0.912   4.129   2.593 -0.5995  1.5852  0.0609
11087SOL     OW43939   0.272   3.379   3.859 -0.0275 -0.3465 -0.0459
11087SOL    HW143940   0.195   3.374   3.795  0.2825 -0.2211 -0.4308
11087SOL    HW243941   0.349   3.327   3.823  0.2678  0.0128  0.0530
11088SOL     OW43942   3.281   1.803   1.304 -0.0614 -0.2332 -0.4510
11088SOL    HW143943   3.201   1.803   1.364  0.6789  0.9762  0.5825
11088SOL    HW243944   3.342   1.729   1.330  0.6144  0.7457  0.8158
11089SOL     OW43945   1.413   2.740   3.473 -0.4043  0.2721  0.4747
11089SOL    HW143946   1.438   2.741   3.570  0.1261 -1.6065  0.3611
11089SOL    HW243947   1.413   2.834   3.438 -1.0213  1.0079  2.3894
11090SOL     OW43948   1.267   1.065   2.643  0.5617  0.1784  0.3848
11090SOL    HW143949   1.270   0.987   2.581 -1.2321  0.4152 -0.0199
11090SOL    HW243950   1.214   1.139   2.602  1.0153  1.0713  1.3749
11091SOL     OW43951   8.864   2.144   3.297 -0.4373  0.0383 -0.3584
11091SOL    HW143952   8.831   2.189   3.214 -0.3588 -0.0573 -0.4415
11091SOL    HW243953   8.886   2.213   3.366  1.7614  0.2632 -1.2349
11092SOL     OW43954   0.387   2.894   3.351  0.4865 -0.0315  0.6614
11092SOL    HW143955   0.341   2.976   3.386  0.1667 -0.2419  0.7376
11092SOL    HW243956   0.355   2.876   3.258 -0.3087 -0.7249  1.0584
11093SOL     OW43957   5.084   8.978   4.194  0.2683 -0.6225  0.2613
11093SOL    HW143958   5.142   8.898   4.178  2.0151  0.4951  0.8186
11093SOL    HW243959   5.141   9.056   4.219 -1.5416  0.3348  1.5698
11094SOL     OW43960   2.898   7.501   2.720 -0.4601 -0.0851  0.0768
11094SOL    HW143961   2.847   7.584   2.746 -0.1736  0.3219 -0.6581
11094SOL    HW243962   2.936   7.459   2.803 -1.4669 -0.0512  0.5658
11095SOL     OW43963   3.481   2.685   0.640 -0.2642  0.0781  0.4856
11095SOL    HW143964   3.425   2.736   0.705 -0.9500  1.1671 -0.9159
11095SOL    HW243965   3.462   2.718   0.547  1.5069 -0.6753 -0.1628
11096SOL     OW43966   7.919   8.523   2.508 -0.4777 -0.1160 -0.2778
11096SOL    HW143967   7.924   8.423   2.508 -0.7777 -0.1346 -1.1640
11096SOL    HW243968   7.956   8.559   2.423 -0.5268  0.5203 -0.0347
11097SOL     OW43969   2.217   5.393   3.958  0.0450 -0.4550  0.1257
11097SOL    HW143970   2.155   5.445   3.900 -0.1484 -0.1145  0.6435
11097SOL    HW243971   2.311   5.410   3.930 -0.0557 -0.4248 -0.1983
11098SOL     OW43972   7.448   7.886   2.765 -0.1239 -0.0626  0.0297
11098SOL    HW143973   7.437   7.880   2.865 -2.4039 -1.0457 -0.2443
11098SOL    HW243974   7.527   7.833   2.737 -0.3800 -1.0715  1.1772
11099SOL     OW43975   1.745   5.975   4.052 -0.0935  0.3197  0.2796
11099SOL    HW143976   1.714   5.957   4.146  0.1341 -0.9620  0.1154
11099SOL    HW243977   1.694   6.052   4.014 -0.7585  0.3240  1.1705
11100SOL     OW43978   3.988   3.835   1.060 -0.4932 -0.6680 -0.0709
11100SOL    HW143979   4.088   3.839   1.066 -0.5497  0.6108  0.0156
11100SOL    HW243980   3.949   3.833   1.152 -0.6357  1.2143 -0.0764
11101SOL     OW43981   8.028   7.990   2.818 -0.3034  0.0991 -0.2792
11101SOL    HW143982   7.956   8.059   2.827  0.6118  0.7567  2.8361
11101SOL    HW243983   8.096   8.021   2.752  0.8333  2.9337  2.1245
11102SOL     OW43984   2.888   8.855   3.745  0.0511  0.4060  0.2288
11102SOL    HW143985   2.953   8.930   3.741 -1.9504  2.1188 -2.6446
11102SOL    HW243986   2.916   8.783   3.681 -0.4425  0.8034 -0.4437
11103SOL     OW43987   2.476   0.961   1.440 -0.0534  0.4037 -0.3746
11103SOL    HW143988   2.411   1.003   1.377 -1.8628 -1.0958  0.4669
11103SOL    HW243989   2.528   1.034   1.486  0.4134  1.5416 -2.6227
11104SOL     OW43990   4.693   3.321   3.326  0.4997  0.4614 -0.3367
11104SOL    HW143991   4.730   3.342   3.236 -1.9540  0.9236 -1.2656
11104SOL    HW243992   4.594   3.334   3.326  0.4623  0.5818  2.4630
11105SOL     OW43993   0.895   1.825   0.544 -0.6760  0.2210 -0.1405
11105SOL    HW143994   0.903   1.734   0.504 -0.6752  0.1067  0.1133
11105SOL    HW243995   0.801   1.840   0.575 -0.3517 -0.2393  1.0873
11106SOL     OW43996   0.299   5.208   3.784  0.4528 -0.0132 -0.4813
11106SOL    HW143997   0.248   5.144   3.726 -0.5034  0.6214 -0.3542
11106SOL    HW243998   0.326   5.163   3.869 -0.7910 -0.0574 -0.1057
11107SOL     OW43999   1.176   1.732   4.655 -0.3888  0.1382  0.1769
11107SOL    HW144000   1.234   1.759   4.732  0.4550  1.0385 -0.7580
11107SOL    HW244001   1.135   1.642   4.674  0.7396 -0.1818  1.1493
11108SOL     OW44002   9.744   5.603   3.377  0.4646  0.6461  0.5119
11108SOL    HW144003   9.793   5.667   3.435 -1.3338  0.6914  2.0489
11108SOL    HW244004   9.779   5.607   3.284  0.5423  3.6685  0.6414
11109SOL     OW44005   4.265   7.777   1.026 -0.1512  0.2224 -0.3405
11109SOL    HW144006   4.239   7.680   1.031 -0.5153  0.2242 -2.1794
11109SOL    HW244007   4.187   7.834   1.049  0.6885  0.0800  3.2042
11110SOL     OW44008   9.669   9.927   2.310 -0.0397 -0.4203  0.2324
11110SOL    HW144009   9.715  10.015   2.298 -2.1631  0.5754 -0.8479
11110SOL    HW244010   9.731   9.853   2.283  1.0596  0.8573 -0.7985
11111SOL     OW44011   2.363   0.427   2.689  0.2953 -0.4652  0.0838
11111SOL    HW144012   2.298   0.406   2.762 -0.7350  1.2407 -0.2915
11111SOL    HW244013   2.343   0.370   2.609 -2.2000  1.5193 -0.7881
11112SOL     OW44014   9.929   8.527   3.000 -0.3096  0.0245 -0.1413
11112SOL    HW144015   9.896   8.469   3.074 -1.4112  0.5582 -0.1999
11112SOL    HW244016   9.904   8.622   3.018 -0.0208  0.2498 -0.8808
11113SOL     OW44017   2.217   4.721   3.400 -0.9236  0.8202 -0.0410
11113SOL    HW144018   2.171   4.641   3.361  0.1955  1.0098 -1.7836
11113SOL    HW244019   2.298   4.692   3.450 -2.1006  0.6221  1.7990
11114SOL     OW44020   7.372   7.029   2.304  0.1835 -0.0132  0.6086
11114SOL    HW144021   7.457   7.028   2.250 -0.9394 -0.1582 -1.1736
11114SOL    HW244022   7.306   7.090   2.261 -1.0620 -0.8674  1.2807
11115SOL     OW44023   2.831   1.639   3.585  0.2827  0.1554 -0.5348
11115SOL    HW144024   2.817   1.723   3.638 -0.5263  0.3836 -1.1127
11115SOL    HW244025   2.758   1.629   3.518  0.4266 -0.9704 -0.5296
11116SOL     OW44026   3.494   8.744   3.493  0.3196  0.1063 -0.0230
11116SOL    HW144027   3.480   8.647   3.472  0.5202  0.1423 -0.3269
11116SOL    HW244028   3.590   8.768   3.478  0.1091  0.5380 -0.7105
11117SOL     OW44029   2.948   3.787   3.857 -0.0171 -0.3553 -0.1645
11117SOL    HW144030   2.865   3.807   3.909 -1.2662 -1.8752 -1.5091
11117SOL    HW244031   2.992   3.706   3.895  0.7461  0.3327  0.4233
11118SOL     OW44032   8.268   9.093   3.502 -0.1061  0.4154  0.7324
11118SOL    HW144033   8.293   8.997   3.517 -1.5831 -0.1395 -0.1981
11118SOL    HW244034   8.231   9.103   3.410 -2.1315  1.4219  1.6345
11119SOL     OW44035   8.584   1.874   0.075  0.1923  0.0539  0.2654
11119SOL    HW144036   8.560   1.888   0.171  1.1324 -0.7539  0.6315
11119SOL    HW244037   8.602   1.776   0.059 -1.8861 -0.1343 -1.1828
11120SOL     OW44038   3.650   9.370   1.405  0.4329  0.6286  0.1670
11120SOL    HW144039   3.602   9.347   1.321 -1.7318  2.8206  0.7399
11120SOL    HW244040   3.615   9.313   1.480 -1.4662  2.3411  0.6188
11121SOL     OW44041   2.832   7.690   1.946 -0.1451 -0.3070 -0.1934
11121SOL    HW144042   2.834   7.614   1.881 -1.1571  1.1325 -1.9565
11121SOL    HW244043   2.926   7.723   1.961  0.2254 -1.4540  0.0612
11122SOL     OW44044   5.281   0.671   3.174  0.0953  0.2218  0.1474
11122SOL    HW144045   5.310   0.617   3.252 -1.1723  1.2205  1.3385
11122SOL    HW244046   5.309   0.766   3.187 -2.0801  0.8320  0.4583
11123SOL     OW44047   2.512   6.814   3.936  0.4268 -0.5401 -0.2795
11123SOL    HW144048   2.567   6.874   3.995  2.2499 -1.2967 -1.1580
11123SOL    HW244049   2.415   6.829   3.955  0.9086  0.9591  1.1996
11124SOL     OW44050   0.252   0.743   1.085  0.1209 -0.3978  0.7084
11124SOL    HW144051   0.206   0.660   1.115  0.8803 -0.1338  2.6740
11124SOL    HW244052   0.351   0.730   1.091  0.2627  0.0934 -0.5138
11125SOL     OW44053   9.978   6.448   3.548  0.3328 -0.2646  0.3578
11125SOL    HW144054   9.988   6.423   3.644  1.1973 -1.1662  0.0536
11125SOL    HW244055  10.002   6.544   3.535 -1.3070  0.2877  1.2776
11126SOL     OW44056   7.107   7.817   2.800  0.0749 -0.0171 -0.0987
11126SOL    HW144057   7.078   7.723   2.817  0.4055  0.1600  1.4736
11126SOL    HW244058   7.159   7.851   2.878 -0.2528  1.5619 -0.5485
11127SOL     OW44059   6.692   0.252   2.400 -0.2172  0.3767  0.1812
11127SOL    HW144060   6.666   0.278   2.493 -0.9718 -0.1084  0.1094
11127SOL    HW244061   6.614   0.265   2.339 -0.3076 -1.1089 -0.0339
11128SOL     OW44062   3.705   6.624   1.645  0.1660  0.3965  0.5450
11128SOL    HW144063   3.659   6.584   1.725  0.3077  1.9554  1.4313
11128SOL    HW244064   3.637   6.644   1.574 -0.1167  0.0199  0.7081
11129SOL     OW44065   6.970   8.295   3.506  0.1533  0.1241 -0.6605
11129SOL    HW144066   6.912   8.372   3.534  1.2738  0.8851 -0.3511
11129SOL    HW244067   6.915   8.213   3.496 -0.3953 -0.0970  3.4105
11130SOL     OW44068   9.395   6.691   3.623  0.5981 -0.5707  0.1329
11130SOL    HW144069   9.383   6.781   3.580  1.1872 -0.9309 -0.8118
11130SOL    HW244070   9.488   6.658   3.605  0.8031 -0.8001  1.5825
11131SOL     OW44071   1.436   2.045   4.702  0.3434 -0.5669 -0.3354
11131SOL    HW144072   1.341   2.077   4.711  0.6653  0.0371  1.0479
11131SOL    HW244073   1.441   1.949   4.727 -0.0705 -0.8633 -1.3683
11132SOL     OW44074   6.600   9.854   2.721  0.1254 -0.0314 -0.3250
11132SOL    HW144075   6.678   9.917   2.721  0.7736 -0.8130 -0.4014
11132SOL    HW244076   6.601   9.801   2.636 -0.2507 -0.3345 -0.1403
11133SOL     OW44077   0.736   6.379   3.784  0.6583  0.2395  0.4729
11133SOL    HW144078   0.697   6.420   3.701  0.4695 -0.3825  0.2556
11133SOL    HW244079   0.786   6.449   3.835  1.4324  0.4507 -0.5605
11134SOL     OW44080   2.729   6.243   2.603  0.1110  0.1726 -0.4108
11134SOL    HW144081   2.695   6.222   2.695  0.5164 -0.6173 -0.4404
11134SOL    HW244082   2.662   6.301   2.556 -0.2425  0.3256  0.2676
11135SOL     OW44083   0.870   9.473   3.255  0.1229  0.3509 -0.1297
11135SOL    HW144084   0.928   9.399   3.288  1.9459  1.2823 -1.1530
11135SOL    HW244085   0.896   9.558   3.302 -0.8345  0.6654 -0.1626
11136SOL     OW44086   2.660   0.132   2.075  0.8143  0.5236  0.6411
11136SOL    HW144087   2.670   0.034   2.096 -1.4229  0.2353  0.4398
11136SOL    HW244088   2.704   0.186   2.147 -0.3733 -0.6046  2.2622
11137SOL     OW44089   2.346   9.332   4.687  0.1031  0.1755  0.2682
11137SOL    HW144090   2.397   9.294   4.610  1.0568 -0.8673  1.3781
11137SOL    HW244091   2.383   9.421   4.712  1.4185 -0.5675  1.0552
11138SOL     OW44092   2.820   7.746   2.869 -0.3828 -0.5048 -0.5561
11138SOL    HW144093   2.791   7.696   2.950  0.5194  0.9717  0.7169
11138SOL    HW244094   2.888   7.815   2.895  1.0720 -1.0272 -2.8052
11139SOL     OW44095   5.354   9.447   2.082 -0.0687 -0.2571 -0.3145
11139SOL    HW144096   5.338   9.540   2.048 -0.2481  0.0789  0.6601
11139SOL    HW244097   5.287   9.425   2.153 -0.6312 -1.4979 -1.2062
11140SOL     OW44098   4.138   1.978   3.264 -0.1005  0.3504  0.1453
11140SOL    HW144099   4.216   2.037   3.244  0.8293 -0.9044 -0.0151
11140SOL    HW244100   4.082   1.968   3.182  0.6084 -0.2366 -0.2853
11141SOL     OW44101   8.997   3.917   1.335 -0.1787  0.2750 -0.3370
11141SOL    HW144102   9.047   3.968   1.265  1.5602 -0.3194  0.4365
11141SOL    HW244103   8.946   3.980   1.392  3.5933  1.4667  1.9127
11142SOL     OW44104   0.110   0.002   4.287  0.1601 -0.0750  0.3154
11142SOL    HW144105   0.192   0.059   4.291  0.6762 -0.8671  1.1157
11142SOL    HW244106   0.082  -0.023   4.380  0.3475 -1.7072 -0.0602
11143SOL     OW44107   0.511   7.597   4.026 -0.1367 -0.0729 -0.1899
11143SOL    HW144108   0.566   7.677   4.049  1.4127 -0.6451 -1.7525
11143SOL    HW244109   0.542   7.519   4.080 -0.7959  0.0776  0.4120
11144SOL     OW44110   7.899   0.907   3.102  0.0331  0.2018  0.2539
11144SOL    HW144111   7.970   0.852   3.147 -1.4888 -1.2957  0.8631
11144SOL    HW244112   7.943   0.971   3.039  2.1559  1.5843  2.9811
11145SOL     OW44113   5.207   8.670   3.039  0.0871  0.7718  0.0898
11145SOL    HW144114   5.123   8.717   3.013 -1.0654 -1.4392 -0.2989
11145SOL    HW244115   5.225   8.596   2.974  0.7712 -0.5939  1.7915
11146SOL     OW44116   2.449   4.629   0.175 -0.0195  0.5905  0.2385
11146SOL    HW144117   2.384   4.629   0.251  0.4548 -0.2644  0.6608
11146SOL    HW244118   2.400   4.635   0.089 -0.7072 -0.6926  0.5262
11147SOL     OW44119   8.285   3.959   0.682  0.0063  0.6235  0.2011
11147SOL    HW144120   8.239   3.871   0.692 -0.4416  0.8259 -0.0449
11147SOL    HW244121   8.375   3.955   0.726  1.0462 -0.7522 -1.9742
11148SOL     OW44122   2.629   7.252   4.369 -0.3221 -0.2985 -0.6605
11148SOL    HW144123   2.599   7.185   4.301 -0.6750 -1.7697  0.9266
11148SOL    HW244124   2.562   7.257   4.442 -0.0876  1.5029 -0.5548
11149SOL     OW44125   0.613   7.479   2.818 -0.2336  0.0354  0.2724
11149SOL    HW144126   0.600   7.550   2.886  0.1600  0.4295 -0.0641
11149SOL    HW244127   0.642   7.520   2.731  0.4445 -0.5703  0.2078
11150SOL     OW44128   5.943   1.105   2.671 -0.3684 -0.2217 -0.6304
11150SOL    HW144129   5.920   1.013   2.703 -2.7828  0.5405 -0.0958
11150SOL    HW244130   6.001   1.098   2.589  1.1142 -2.1913  0.5351
11151SOL     OW44131   2.087   9.373   0.918  0.7832  0.1071  0.0221
11151SOL    HW144132   2.165   9.415   0.965  2.1454 -0.7083 -1.4839
11151SOL    HW244133   2.109   9.360   0.822 -1.2831 -0.0117 -0.4469
11152SOL     OW44134   9.489   7.261   3.995  0.0473  0.0509  0.0689
11152SOL    HW144135   9.435   7.265   3.911  0.8333  0.0295 -0.4424
11152SOL    HW244136   9.441   7.205   4.063 -0.3011 -0.4441 -0.5768
11153SOL     OW44137   4.151   6.031   2.629 -0.1139 -0.0085 -0.5326
11153SOL    HW144138   4.115   5.943   2.600 -0.8130  0.6212 -1.6235
11153SOL    HW244139   4.123   6.102   2.564 -0.8850  1.2899  1.1646
11154SOL     OW44140   7.626   9.826   4.150  0.2608  0.4987 -0.0287
11154SOL    HW144141   7.636   9.787   4.242 -0.5775 -1.6972 -0.8373
11154SOL    HW244142   7.529   9.843   4.132  0.0478 -2.2906 -1.7495
11155SOL     OW44143   4.082   8.654   4.325  0.7821 -0.2309 -0.4235
11155SOL    HW144144   4.153   8.653   4.395 -0.3134  0.7569  0.7187
11155SOL    HW244145   4.098   8.580   4.260  3.1330  0.2911 -0.4594
11156SOL     OW44146   2.915   9.313   1.230  0.5743  0.7632  0.4833
11156SOL    HW144147   2.819   9.289   1.247  0.7487  0.0294  0.4821
11156SOL    HW244148   2.973   9.257   1.289  0.9281  2.6067  1.9430
11157SOL     OW44149   1.924   2.591   4.733 -0.5396  0.5736  0.4970
11157SOL    HW144150   1.836   2.573   4.689 -0.0163  0.7626 -0.6653
11157SOL    HW244151   1.959   2.680   4.702  0.7191 -0.1417 -0.1840
11158SOL     OW44152   4.086   9.736   0.903 -0.0767  0.0622  0.0787
11158SOL    HW144153   4.181   9.749   0.931  0.3102  1.4148 -1.7704
11158SOL    HW244154   4.061   9.639   0.909  1.3025 -0.2401  0.9131
11159SOL     OW44155   1.154   2.553   2.378  0.4521 -0.9887  0.3305
11159SOL    HW144156   1.114   2.515   2.462  1.3103 -0.7757  0.8523
11159SOL    HW244157   1.146   2.486   2.304 -2.1781 -0.3726  0.0097
11160SOL     OW44158   2.257   9.776   1.153  0.9953 -0.2533 -0.3756
11160SOL    HW144159   2.299   9.737   1.072  1.9468  1.3082 -0.6574
11160SOL    HW244160   2.308   9.857   1.182 -1.0946  0.9864 -0.0079
11161SOL     OW44161   3.409   7.028   4.163  0.1729  0.4877  0.3764
11161SOL    HW144162   3.400   7.121   4.127  0.3892  0.0475 -0.8502
11161SOL    HW244163   3.323   7.001   4.206  0.0192  1.1506  0.5004
11162SOL     OW44164   1.283   3.950   4.292  0.3300  0.1572 -0.3373
11162SOL    HW144165   1.334   3.867   4.269 -2.3261 -1.9650  1.0165
11162SOL    HW244166   1.230   3.979   4.212 -0.2357 -0.6144 -0.2494
11163SOL     OW44167   9.367   0.412   0.008  0.4418 -0.3847  0.3215
11163SOL    HW144168   9.304   0.400   0.084  0.7395 -0.8227  0.4995
11163SOL    HW244169   9.385   0.509  -0.006 -0.9071 -0.1982 -0.2478
11164SOL     OW44170   9.219   7.600   0.501  0.3374 -0.3348 -0.6884
11164SOL    HW144171   9.245   7.676   0.561  0.3240  0.2640 -1.4283
11164SOL    HW244172   9.238   7.514   0.547 -1.0167  0.1107  0.7486
11165SOL     OW44173   9.572   6.036   2.947  0.0390  0.3760  0.2468
11165SOL    HW144174   9.488   6.051   2.999  0.5288 -1.0779  1.5179
11165SOL    HW244175   9.639   5.990   3.005  0.4539 -1.7230 -1.7938
11166SOL     OW44176   9.856   9.584   0.213 -0.1042  0.3973  0.3201
11166SOL    HW144177   9.815   9.500   0.178  0.1674  0.3261  0.1728
11166SOL    HW244178   9.844   9.658   0.147 -0.3987  0.4899  0.4770
11167SOL     OW44179   6.002   9.518   2.459  0.3842 -0.1838  0.0787
11167SOL    HW144180   6.016   9.490   2.364 -2.6067 -1.2253 -0.1047
11167SOL    HW244181   6.006   9.618   2.465  1.5936 -0.1582 -0.9542
11168SOL     OW44182   0.116   2.666   4.369  0.0571 -0.3259  0.0942
11168SOL    HW144183   0.081   2.657   4.462 -0.2684  1.1237  0.1315
11168SOL    HW244184   0.216   2.661   4.371  0.0352 -0.6615  0.4740
11169SOL     OW44185   7.091   9.978   3.994  0.3581 -0.2980 -0.5140
11169SOL    HW144186   6.999  10.016   3.990  1.1550  1.8765  0.5638
11169SOL    HW244187   7.115   9.960   4.090  0.8465 -1.3716 -0.8351
11170SOL     OW44188   3.189   0.812   2.538  0.1100  0.1301  0.1493
11170SOL    HW144189   3.271   0.867   2.554 -1.1798  2.1332  0.0246
11170SOL    HW244190   3.202   0.756   2.456  2.0514 -0.9975  1.1967
11171SOL     OW44191   1.289   4.267   4.109  0.5054 -0.1827  0.6334
11171SOL    HW144192   1.351   4.321   4.166 -0.4030  1.1004  0.4213
11171SOL    HW244193   1.204   4.251   4.158  0.1717 -0.0720  0.0929
11172SOL     OW44194   2.677   9.235   2.787 -0.6008 -0.2868 -0.2803
11172SOL    HW144195   2.625   9.315   2.755 -0.3461  0.1290  0.3259
11172SOL    HW244196   2.621   9.182   2.851 -0.2249  0.2489  0.4981
11173SOL     OW44197   4.055   9.457   0.957 -0.1708  0.1406  0.5886
11173SOL    HW144198   4.041   9.490   1.050  0.6358 -0.2027  0.8307
11173SOL    HW244199   3.980   9.397   0.932 -0.9993  1.1501  0.5936
11174SOL     OW44200   9.142   3.157   2.523 -0.0274 -0.1526  0.0154
11174SOL    HW144201   9.171   3.222   2.453  0.0618 -1.1998 -0.9112
11174SOL    HW244202   9.067   3.198   2.576  1.2055  1.4210  0.6127
11175SOL     OW44203   4.360   7.376   3.306  0.1213  0.1909  0.2391
11175SOL    HW144204   4.266   7.343   3.313 -0.2842  1.5554  1.2763
11175SOL    HW244205   4.418   7.301   3.274 -1.1319 -0.9492  0.5603
11176SOL     OW44206   2.775   4.650   2.483  0.3151  0.3072  0.8031
11176SOL    HW144207   2.788   4.746   2.459  2.0538 -0.7558 -2.7914
11176SOL    HW244208   2.678   4.630   2.494 -0.1135  2.1854  0.4522
11177SOL     OW44209   3.879   0.120   1.619  0.9684 -0.0567 -0.3875
11177SOL    HW144210   3.829   0.196   1.578 -0.7135 -2.2622 -2.5503
11177SOL    HW244211   3.814   0.053   1.655  2.4126 -1.4410 -0.3179
11178SOL     OW44212   3.017   3.273   3.635 -0.2630 -0.2733 -0.0628
11178SOL    HW144213   3.105   3.268   3.683 -0.4355 -1.8692  0.1119
11178SOL    HW244214   2.963   3.191   3.656 -2.1616  1.1072  0.5533
11179SOL     OW44215   9.145   0.425   3.438 -0.2946  0.4061 -0.2252
11179SOL    HW144216   9.066   0.484   3.420  0.9977  2.7481  1.4789
11179SOL    HW244217   9.229   0.475   3.417  0.8093 -1.5361 -0.5778
11180SOL     OW44218   1.059   1.481   4.722 -0.2906  0.0129 -0.0337
11180SOL    HW144219   0.986   1.478   4.655 -2.2499 -0.6983  2.0587
11180SOL    HW244220   1.031   1.431   4.804  2.0586  0.7616  1.2800
11181SOL     OW44221   9.617   8.407   4.453  0.2552  0.2219  0.2683
11181SOL    HW144222   9.658   8.348   4.383  0.2307  0.0783  0.3738
11181SOL    HW244223   9.582   8.350   4.528 -0.6872  0.3034 -0.1073
11182SOL     OW44224   9.589   2.794   0.665  0.4688  0.3227  0.1947
11182SOL    HW144225   9.510   2.751   0.620  0.9669  0.1747 -0.5548
11182SOL    HW244226   9.594   2.890   0.636 -0.2630  0.7102  1.3524
11183SOL     OW44227   3.319   6.347   1.706  0.2113 -0.1587  0.4214
11183SOL    HW144228   3.335   6.249   1.701 -2.8700 -0.6605 -0.2670
11183SOL    HW244229   3.237   6.365   1.759  0.1315  1.9979 -0.3804
11184SOL     OW44230   2.540   2.935   0.226 -0.2842 -0.6724  0.1657
11184SOL    HW144231   2.574   2.902   0.314 -0.3986 -0.5580  0.2541
11184SOL    HW244232   2.500   2.859   0.175 -1.8957 -0.4089  0.9962
11185SOL     OW44233   9.215   0.006   3.132 -0.0520  0.4363  0.1157
11185SOL    HW144234   9.215   0.106   3.139 -0.6000  0.4949 -0.6313
11185SOL    HW244235   9.285  -0.032   3.192 -1.3648  1.1313  2.1542
11186SOL     OW44236   8.615   2.196   1.781 -0.3282 -0.4650 -0.1837
11186SOL    HW144237   8.667   2.263   1.728 -1.3813  0.3149 -0.2557
11186SOL    HW244238   8.560   2.243   1.850 -1.8948 -1.1498 -0.9370
11187SOL     OW44239   9.315   9.729   3.504  0.7094 -0.3058 -0.0905
11187SOL    HW144240   9.324   9.768   3.413 -0.0840 -0.8608 -0.4140
11187SOL    HW244241   9.396   9.751   3.558  2.6168 -2.5880 -1.9156
11188SOL     OW44242   0.122   8.237   1.087 -0.1810 -0.0846 -0.0314
11188SOL    HW144243   0.082   8.156   1.043 -0.1650  0.0542 -0.2994
11188SOL    HW244244   0.220   8.238   1.072 -0.0537 -0.4931  0.7398
11189SOL     OW44245   3.403   9.068   3.967 -0.1489  0.4953 -0.3106
11189SOL    HW144246   3.349   9.119   4.034 -0.6336  0.3499 -0.5845
11189SOL    HW244247   3.359   9.074   3.877 -0.0487 -0.1597 -0.4047
11190SOL     OW44248   3.063   0.517   3.651  0.3782 -0.1055  0.5184
11190SOL    HW144249   3.085   0.544   3.745 -1.5916 -1.0818  1.2908
11190SOL    HW244250   2.979   0.563   3.623  1.6829  1.2403 -1.2809
11191SOL     OW44251   8.778   3.169   3.187  0.0162 -0.1754  0.1962
11191SOL    HW144252   8.821   3.176   3.098 -0.0175  0.4365  0.2270
11191SOL    HW244253   8.781   3.258   3.233 -0.2100 -0.4193  0.6888
11192SOL     OW44254   7.437   5.699   3.205  0.6766 -0.1485 -0.4577
11192SOL    HW144255   7.521   5.715   3.152  0.9684  0.7180  0.2663
11192SOL    HW244256   7.461   5.669   3.297  0.1825  0.2905 -0.1886
11193SOL     OW44257   3.048   3.663   2.123 -0.0782 -0.3005  0.2869
11193SOL    HW144258   3.066   3.751   2.166  0.9674 -1.6076  2.6454
11193SOL    HW244259   3.131   3.629   2.080 -0.2982 -0.4439 -0.0275
11194SOL     OW44260   8.219   3.688   3.376  0.0949  0.2747 -0.0370
11194SOL    HW144261   8.216   3.744   3.293 -2.5824 -1.4009 -1.1649
11194SOL    HW244262   8.136   3.704   3.429  1.6853  1.1565  2.2585
11195SOL     OW44263   1.245   5.417   1.705 -0.3160  0.2477 -0.1751
11195SOL    HW144264   1.294   5.404   1.619  1.7804 -1.5192  1.2414
11195SOL    HW244265   1.191   5.336   1.726 -0.9235  0.7209  0.1215
11196SOL     OW44266   7.938   2.777   3.723 -0.1468  0.1163 -0.0915
11196SOL    HW144267   8.032   2.747   3.708 -0.3169 -0.2696 -0.3802
11196SOL    HW244268   7.924   2.793   3.821 -0.4918 -2.2012  0.2638
11197SOL     OW44269   3.480   6.843   3.988  0.3262  0.2056  0.7739
11197SOL    HW144270   3.560   6.878   3.940  0.9410 -0.4235  1.3391
11197SOL    HW244271   3.450   6.910   4.056  0.5944  0.2890  0.8125
11198SOL     OW44272   1.453   5.046   3.812  0.1875  0.3929 -0.0050
11198SOL    HW144273   1.395   5.061   3.732 -1.0100  0.1208  0.7937
11198SOL    HW244274   1.531   5.108   3.810  1.1495 -0.8318 -2.3019
11199SOL     OW44275   0.199   5.397   2.998 -0.6010 -0.2927 -0.2251
11199SOL    HW144276   0.130   5.331   3.027 -1.2991  1.5281  2.5081
11199SOL    HW244277   0.285   5.379   3.045  0.2548 -1.3816 -2.1654
11200SOL     OW44278   5.135   3.124   1.380 -0.2050  0.2179 -0.1981
11200SOL    HW144279   5.041   3.104   1.353  0.0804 -0.7409 -0.4940
11200SOL    HW244280   5.136   3.151   1.476 -0.4597 -2.5805  0.6474
11201SOL     OW44281   9.348   8.823   0.220  0.2342  0.4611 -0.2843
11201SOL    HW144282   9.289   8.901   0.199 -1.8557 -0.7965  0.7902
11201SOL    HW244283   9.358   8.815   0.319  2.1127  0.5423 -0.4397
11202SOL     OW44284   8.598   2.214   3.041  0.0357  0.0668  0.2339
11202SOL    HW144285   8.643   2.203   2.952 -0.7970 -0.3153 -0.1440
11202SOL    HW244286   8.625   2.302   3.081 -2.1334  1.8012 -1.9184
11203SOL     OW44287   2.018   8.970   4.686 -0.3850  0.4450  0.4213
11203SOL    HW144288   2.105   8.968   4.736  0.4121 -0.0092 -0.9641
11203SOL    HW244289   1.976   8.880   4.688 -1.0773  0.7776  1.4971
11204SOL     OW44290   6.321   9.410   4.002  0.6472 -0.6574 -0.0622
11204SOL    HW144291   6.264   9.353   3.942  1.0219 -1.0402 -0.0540
11204SOL    HW244292   6.413   9.418   3.963 -0.0151  1.8270 -1.2518
11205SOL     OW44293   0.741   1.938   4.000  0.2337  0.3692 -0.6496
11205SOL    HW144294   0.669   2.006   3.988 -0.5495 -0.3595 -0.1062
11205SOL    HW244295   0.820   1.980   4.044 -0.7631  0.6114  0.9534
11206SOL     OW44296   8.578   9.967   1.481  0.0630  0.4693  0.2601
11206SOL    HW144297   8.579   9.930   1.388 -1.9573  0.1144  0.3485
11206SOL    HW244298   8.667  10.006   1.502  0.5672  0.5252 -1.8112
11207SOL     OW44299   8.835   6.537   4.227  0.0616  0.0483  0.3844
11207SOL    HW144300   8.932   6.514   4.217 -0.1621 -0.5221 -0.6025
11207SOL    HW244301   8.781   6.453   4.224 -0.7792  0.6100 -3.3222
11208SOL     OW44302   3.428   9.592   3.704 -0.0647  0.0915 -0.8401
11208SOL    HW144303   3.374   9.535   3.766  0.8619 -0.1926 -0.2813
11208SOL    HW244304   3.502   9.538   3.664  0.7647  0.8642 -0.3769
11209SOL     OW44305   0.534   6.172   3.963  0.0648 -0.3648 -0.2398
11209SOL    HW144306   0.563   6.160   4.058 -0.4359 -0.4335 -0.0948
11209SOL    HW244307   0.603   6.225   3.913 -0.1312  0.5031  0.4062
11210SOL     OW44308   3.444   4.388   1.655 -0.1456 -0.1028  0.0502
11210SOL    HW144309   3.407   4.431   1.738  1.3914  2.0136 -0.3270
11210SOL    HW244310   3.542   4.405   1.650  0.0481 -1.5939 -1.4006
11211SOL     OW44311   1.587   1.569   1.329  0.2876  0.2310 -0.2220
11211SOL    HW144312   1.545   1.529   1.410  0.9148 -0.4170 -0.2165
11211SOL    HW244313   1.640   1.499   1.281 -0.9858  0.3365 -1.7940
11212SOL     OW44314   2.479   2.912   3.190  0.3214  0.1667  0.6271
11212SOL    HW144315   2.431   2.878   3.110 -0.0815 -0.1204  0.9867
11212SOL    HW244316   2.567   2.864   3.198  0.1369 -0.1707  0.6441
11213SOL     OW44317   8.611   5.759   4.311 -0.2714 -0.0765  0.2616
11213SOL    HW144318   8.516   5.762   4.342  0.2702 -0.3783  1.9546
11213SOL    HW244319   8.672   5.782   4.386  1.0947 -1.6325 -0.3437
11214SOL     OW44320   2.092   8.149   2.244 -0.0862  0.3000 -0.1245
11214SOL    HW144321   2.181   8.105   2.256  0.3993  1.3135  0.0666
11214SOL    HW244322   2.079   8.217   2.316  0.1444  2.0400 -1.6891
11215SOL     OW44323   8.748   6.216   1.351  0.0648 -0.5831 -0.3048
11215SOL    HW144324   8.841   6.222   1.388 -0.7302 -1.3246  1.8690
11215SOL    HW244325   8.684   6.258   1.414 -1.0534  0.2559 -1.9739
11216SOL     OW44326   3.313   0.541   1.146 -0.2626  0.1585 -0.1399
11216SOL    HW144327   3.297   0.448   1.115 -1.8397  0.5472 -0.5168
11216SOL    HW244328   3.397   0.544   1.200  0.2644 -1.3072 -0.8578
11217SOL     OW44329   0.136   0.958   4.126 -0.2775 -0.4197  0.4175
11217SOL    HW144330   0.180   0.927   4.042  1.4314 -0.0569  1.1569
11217SOL    HW244331   0.060   0.897   4.150  0.8059 -1.9517 -0.0383
11218SOL     OW44332   3.076   8.501   0.970  0.0902 -0.4087  0.4624
11218SOL    HW144333   3.092   8.597   0.992 -0.5609 -0.8192  2.8427
11218SOL    HW244334   2.988   8.491   0.923 -0.3245  0.0376  1.1422
11219SOL     OW44335   4.381   7.715   3.689 -0.0788 -0.7452 -0.1274
11219SOL    HW144336   4.386   7.649   3.614 -1.8047 -0.0442 -0.8928
11219SOL    HW244337   4.421   7.801   3.659 -1.0747 -0.3606 -0.3828
11220SOL     OW44338   2.073   3.026   4.286  0.1886 -0.2635  0.1929
11220SOL    HW144339   2.160   3.076   4.275  0.0836  0.0760  0.9193
11220SOL    HW244340   2.063   2.961   4.211  0.2663  0.8979 -0.8431
11221SOL     OW44341   1.160   1.652   2.499  0.4173 -0.4690 -0.1288
11221SOL    HW144342   1.188   1.581   2.563  1.7096 -1.5569 -1.8323
11221SOL    HW244343   1.232   1.721   2.491 -0.9156  1.1696  1.6675
11222SOL     OW44344   2.506   4.082   2.827 -0.1383 -0.0093  0.0893
11222SOL    HW144345   2.569   4.045   2.759  0.0248 -2.4793  1.5154
11222SOL    HW244346   2.557   4.106   2.910 -0.5994  1.2600  0.0212
11223SOL     OW44347   2.447   7.609   0.552 -0.6421  0.5175 -0.0833
11223SOL    HW144348   2.367   7.558   0.582 -0.6287  0.6172  0.1225
11223SOL    HW244349   2.527   7.549   0.550 -0.7292  0.4093 -0.3234
11224SOL     OW44350   2.327   7.648   3.142 -0.0650  0.4203  0.2385
11224SOL    HW144351   2.408   7.704   3.127  0.5896 -0.6950 -0.4111
11224SOL    HW244352   2.333   7.564   3.088 -0.4849 -0.8370  2.1144
11225SOL     OW44353   2.514   5.105   2.360  0.0003  0.0680 -0.0892
11225SOL    HW144354   2.440   5.143   2.305  0.4818  2.4562  0.8554
11225SOL    HW244355   2.576   5.178   2.389  0.6546 -1.3570  2.2602
11226SOL     OW44356   7.955   5.562   0.311 -0.1628  0.5644  0.1814
11226SOL    HW144357   7.866   5.580   0.352  0.5811  1.0078  1.6602
11226SOL    HW244358   8.009   5.504   0.372 -0.7988 -2.8968 -2.4350
11227SOL     OW44359   3.499   8.659   1.088 -0.1377 -0.4331 -0.0366
11227SOL    HW144360   3.548   8.686   1.171 -0.8437  2.0455 -0.4060
11227SOL    HW244361   3.556   8.596   1.035  0.8711 -0.9587  1.6390
11228SOL     OW44362   1.951   2.184   0.519 -0.2423  0.3199 -0.7302
11228SOL    HW144363   2.010   2.214   0.444 -0.5532 -1.1595 -1.5919
11228SOL    HW244364   1.859   2.220   0.505 -1.1994 -2.8086 -3.0024
11229SOL     OW44365   8.304   3.986   4.597 -0.4193  0.0075 -0.3595
11229SOL    HW144366   8.338   3.928   4.523 -1.1305 -0.9892  0.0889
11229SOL    HW244367   8.326   4.082   4.577  0.6152 -0.3940 -1.1785
11230SOL     OW44368   1.357   7.542   0.685 -0.3107 -0.4957 -0.5695
11230SOL    HW144369   1.308   7.467   0.728  0.2066 -0.6743 -0.2922
11230SOL    HW244370   1.452   7.542   0.716 -0.2743  0.1832 -0.6804
11231SOL     OW44371   6.563   9.430   3.872 -0.3185  0.5435  0.1030
11231SOL    HW144372   6.661   9.439   3.856 -0.9501  4.3896 -2.0425
11231SOL    HW244373   6.522   9.370   3.803  0.2759  0.1751  0.0733
11232SOL     OW44374   4.021   3.156   1.466  0.4383  0.3982 -0.0778
11232SOL    HW144375   4.109   3.109   1.466 -0.4116 -1.2439 -0.7028
11232SOL    HW244376   3.947   3.088   1.462 -0.8726  1.7230  1.0439
11233SOL     OW44377   0.256   5.864   2.608  0.5172  0.1693 -0.4451
11233SOL    HW144378   0.214   5.949   2.575  2.4705  0.4173 -2.4227
11233SOL    HW244379   0.312   5.884   2.689  1.0402  0.7994 -0.9539
11234SOL     OW44380   8.220   4.478   4.050 -0.0353 -0.0014  0.5049
11234SOL    HW144381   8.297   4.525   4.094  1.6027 -1.0148 -1.1974
11234SOL    HW244382   8.254   4.396   4.004 -1.9649  0.1987 -1.3023
11235SOL     OW44383   3.703   3.696   2.250 -0.6241  0.1119 -0.0473
11235SOL    HW144384   3.782   3.735   2.296 -0.1876 -1.0913  0.2412
11235SOL    HW244385   3.670   3.760   2.180  0.1043  0.9582  0.3769
11236SOL     OW44386   2.437   5.863   1.229 -0.2108  0.4332  0.2259
11236SOL    HW144387   2.446   5.787   1.294  2.0426 -0.1573 -0.7313
11236SOL    HW244388   2.443   5.950   1.278  0.3742 -0.0116  0.9481
11237SOL     OW44389   2.080   8.984   0.608  0.1302 -0.0012 -0.6475
11237SOL    HW144390   2.044   8.954   0.696 -0.9880  1.0601 -0.7323
11237SOL    HW244391   2.161   9.041   0.623 -0.5155  0.8269 -0.2586
11238SOL     OW44392   2.549   3.764   2.005  0.1814 -0.2339  0.1574
11238SOL    HW144393   2.484   3.715   1.947  1.6917 -0.6524 -1.2150
11238SOL    HW244394   2.633   3.710   2.015  1.1667  1.2477  0.1084
11239SOL     OW44395   1.457   5.519   3.700  0.0499 -0.3043  0.1897
11239SOL    HW144396   1.367   5.521   3.658 -0.7057 -2.0692  1.6275
11239SOL    HW244397   1.453   5.563   3.790  0.9181  0.6555 -0.2235
11240SOL     OW44398   9.861   8.703   3.345 -0.3316  0.3386  0.4034
11240SOL    HW144399   9.792   8.670   3.281 -0.1459  0.3792  0.1826
11240SOL    HW244400   9.827   8.692   3.438 -0.9659  1.0867  0.2719
11241SOL     OW44401   9.166   7.917   0.150  0.3439  0.1130  0.4960
11241SOL    HW144402   9.178   8.007   0.107 -0.3839  1.4132  2.9138
11241SOL    HW244403   9.077   7.879   0.124  0.7112  0.0177 -0.6422
11242SOL     OW44404   1.037   4.318   1.656  0.1363 -0.1090  0.2360
11242SOL    HW144405   1.062   4.301   1.561  0.0449 -0.7210  0.3165
11242SOL    HW244406   1.112   4.289   1.716  0.0221 -0.1236  0.3723
11243SOL     OW44407   2.738   7.753   1.593  0.2770 -0.3650 -0.2888
11243SOL    HW144408   2.663   7.689   1.609  0.0292  0.2987  1.2717
11243SOL    HW244409   2.823   7.702   1.580 -0.3086 -1.0872 -1.3964
11244SOL     OW44410   2.620   8.772   0.931  0.3362  0.7028 -0.0309
11244SOL    HW144411   2.615   8.672   0.932 -0.3117  0.7363  0.3039
11244SOL    HW244412   2.531   8.810   0.909  0.5737  1.2105 -0.1247
11245SOL     OW44413   5.755   9.935   3.391  0.0844  0.6456 -0.0195
11245SOL    HW144414   5.656   9.925   3.405 -0.2373  1.6679 -1.4115
11245SOL    HW244415   5.797   9.968   3.476 -0.7914  0.3751  0.5339
11246SOL     OW44416   0.170   4.544   0.731  0.0679 -0.2342  0.0812
11246SOL    HW144417   0.239   4.594   0.784  0.7225 -2.7684  1.7278
11246SOL    HW244418   0.095   4.606   0.707  1.2787  1.7406  1.2403
11247SOL     OW44419   2.372   8.334   2.191 -0.5406  0.5109  0.1269
11247SOL    HW144420   2.409   8.326   2.099 -1.2585  0.4419 -0.1600
11247SOL    HW244421   2.334   8.246   2.219 -1.4835  0.8675 -0.0167
11248SOL     OW44422   0.744   5.015   1.356 -0.0191 -0.3982  0.0988
11248SOL    HW144423   0.792   4.929   1.373 -0.8560 -1.0165 -0.6105
11248SOL    HW244424   0.688   5.006   1.274  0.3332  1.0165 -0.3113
11249SOL     OW44425   0.567   5.632   3.904 -0.4742 -0.4652  0.2622
11249SOL    HW144426   0.548   5.730   3.894  1.2849  0.3354  3.9210
11249SOL    HW244427   0.525   5.599   3.988 -0.3649 -2.7214 -0.5378
11250SOL     OW44428   1.168   6.112   0.069 -0.5737  0.1806 -0.9690
11250SOL    HW144429   1.160   6.134  -0.028 -0.2217  1.5130 -0.7146
11250SOL    HW244430   1.246   6.162   0.108 -0.4950 -0.6178 -0.0856
11251SOL     OW44431   7.660   1.711   0.466 -0.2750 -0.3965 -0.2314
11251SOL    HW144432   7.588   1.771   0.432  1.6772  1.9106 -0.4101
11251SOL    HW244433   7.661   1.713   0.566 -1.5819 -1.8294 -0.1723
11252SOL     OW44434   4.562   3.373   0.671  0.0575  0.0228 -0.5789
11252SOL    HW144435   4.607   3.407   0.588  1.4061  1.6182  0.7688
11252SOL    HW244436   4.584   3.434   0.748 -1.4463 -1.2415  0.8795
11253SOL     OW44437   5.165   8.462   1.843 -0.2091  0.4739 -0.8082
11253SOL    HW144438   5.147   8.488   1.748  0.8915 -0.0089 -1.1544
11253SOL    HW244439   5.158   8.543   1.901 -1.1539  0.7218 -1.2592
11254SOL     OW44440   0.876   0.656   0.048 -0.0099  0.8671  0.2982
11254SOL    HW144441   0.949   0.683   0.111 -0.7244  0.7880  1.1586
11254SOL    HW244442   0.908   0.667  -0.046  1.6955 -0.6948  0.6541
11255SOL     OW44443   5.349   0.582   2.610 -0.5449  0.4645  0.2616
11255SOL    HW144444   5.267   0.630   2.639 -0.8897  0.2819 -0.3960
11255SOL    HW244445   5.420   0.649   2.587 -0.1347  0.5960  1.8958
11256SOL     OW44446   9.204   5.192   1.165 -0.4664  0.0031 -0.0732
11256SOL    HW144447   9.159   5.156   1.247 -1.7513  0.1214 -0.7056
11256SOL    HW244448   9.158   5.156   1.084 -0.0422  0.9309 -0.7307
11257SOL     OW44449   1.701   7.075   1.266  0.1324 -0.0303 -0.0171
11257SOL    HW144450   1.616   7.031   1.296 -0.1982  0.8969  0.4230
11257SOL    HW244451   1.697   7.173   1.286  2.0549 -0.2653  1.6891
11258SOL     OW44452   9.890   7.574   1.361 -0.1926 -0.0847 -0.0811
11258SOL    HW144453   9.845   7.489   1.387 -1.9832  1.1543  0.9503
11258SOL    HW244454   9.959   7.598   1.430  1.0070 -1.1912 -0.8792
11259SOL     OW44455   9.728   5.498   4.524 -0.4573  0.4541  0.0013
11259SOL    HW144456   9.697   5.427   4.587  0.3429 -0.6866 -0.8679
11259SOL    HW244457   9.709   5.588   4.563 -1.2142 -0.2339  1.2477
11260SOL     OW44458   0.930   8.405   4.644 -0.7740 -0.1420 -0.3731
11260SOL    HW144459   0.859   8.457   4.595 -2.0204 -0.9196  0.5824
11260SOL    HW244460   1.011   8.463   4.656 -0.5708  0.1841 -3.0126
11261SOL     OW44461   3.178   9.647   1.787  0.4181  0.2634 -0.3601
11261SOL    HW144462   3.126   9.684   1.710 -1.3273 -0.8132  0.2553
11261SOL    HW244463   3.208   9.554   1.766  1.1698  0.4858 -0.2886
11262SOL     OW44464   1.818   3.042   2.652  0.2629  0.0625  0.1490
11262SOL    HW144465   1.865   3.014   2.569 -1.3698  1.5225 -1.3303
11262SOL    HW244466   1.734   2.988   2.663  0.2492  0.1732  0.5975
11263SOL     OW44467   1.886   2.840   0.131  0.5626  0.0828 -0.6022
11263SOL    HW144468   1.908   2.914   0.067  0.2146  0.0196 -0.7988
11263SOL    HW244469   1.957   2.834   0.201  0.4515  0.7810 -0.4261
11264SOL     OW44470   2.740   5.409   1.110  0.2732 -0.5425 -0.5043
11264SOL    HW144471   2.758   5.377   1.017 -1.1589  0.9130 -1.3053
11264SOL    HW244472   2.660   5.469   1.110  1.1026  0.6139  1.4353
11265SOL     OW44473   9.782   9.560   1.296 -0.3269 -0.0036  0.9432
11265SOL    HW144474   9.859   9.623   1.296 -0.0731 -0.3074  1.6301
11265SOL    HW244475   9.789   9.500   1.376 -0.6496 -0.7849  0.3883
11266SOL     OW44476   9.181   2.450   1.337 -0.0530  0.2754  0.4746
11266SOL    HW144477   9.148   2.367   1.292  1.3967 -0.5860  0.9803
11266SOL    HW244478   9.128   2.465   1.421  0.1150 -0.5083  0.7227
11267SOL     OW44479   0.370   7.242   1.700 -0.7305  0.7822  0.1455
11267SOL    HW144480   0.290   7.200   1.659  0.4165 -0.8665 -0.4345
11267SOL    HW244481   0.373   7.219   1.798 -1.8601  2.2622  0.5512
11268SOL     OW44482   4.899   7.690   1.599 -0.4891  0.8299 -0.4312
11268SOL    HW144483   4.881   7.668   1.503  0.1320 -0.3412 -0.2871
11268SOL    HW244484   4.951   7.775   1.604  0.3442  0.3761 -1.1951
11269SOL     OW44485   4.372   0.695   0.403 -0.2659 -0.0401 -0.4437
11269SOL    HW144486   4.346   0.681   0.498 -0.0526  2.6603  0.0510
11269SOL    HW244487   4.453   0.640   0.381 -0.0346 -0.2982  1.0646
11270SOL     OW44488   7.946   7.769   2.950 -0.0250  0.2175  0.1197
11270SOL    HW144489   7.977   7.855   2.908 -0.1295  0.1556 -0.0845
11270SOL    HW244490   8.025   7.718   2.984  0.0360  0.4083  0.2697
11271SOL     OW44491   8.188   1.107   1.921 -0.3862  0.3749 -0.2868
11271SOL    HW144492   8.124   1.093   1.997  0.7846  0.4006  0.7371
11271SOL    HW244493   8.271   1.053   1.938 -0.5810 -0.5462 -2.1463
11272SOL     OW44494   9.835   9.716   2.222  0.0423 -0.0029  0.3550
11272SOL    HW144495   9.886   9.723   2.136  2.2313 -0.2031  1.6021
11272SOL    HW244496   9.898   9.721   2.299 -1.9758  1.0186  2.0012
11273SOL     OW44497   4.055   0.588   1.845  0.1277 -0.5017  0.3990
11273SOL    HW144498   4.149   0.590   1.880 -0.9903  0.8087  3.5222
11273SOL    HW244499   4.004   0.516   1.892 -1.1941  0.7277  0.8865
11274SOL     OW44500   0.262   5.443   1.255  0.1990 -0.1020  0.0210
11274SOL    HW144501   0.171   5.414   1.223  0.0417  0.4685 -0.0559
11274SOL    HW244502   0.318   5.362   1.273  0.4112 -0.4369 -2.0160
11275SOL     OW44503   0.395   0.670   2.035 -0.0051  0.4654  0.1747
11275SOL    HW144504   0.358   0.705   2.121 -1.0908  0.7818 -0.4146
11275SOL    HW244505   0.432   0.745   1.981  0.5794  0.2808  0.3196
11276SOL     OW44506   4.245   7.907   4.367 -0.3315  0.3991  0.1907
11276SOL    HW144507   4.174   7.925   4.435 -1.7899 -1.3660 -0.8257
11276SOL    HW244508   4.234   7.969   4.289  0.2526  1.2257  0.7626
11277SOL     OW44509   9.161   4.142   1.922 -0.2628  0.2666  0.2779
11277SOL    HW144510   9.105   4.081   1.866  1.9073  0.6721 -2.4675
11277SOL    HW244511   9.249   4.098   1.941  0.0388  1.2155  1.0912
11278SOL     OW44512   8.413   6.533   0.381  0.2857 -0.7744  0.4774
11278SOL    HW144513   8.429   6.619   0.333 -0.6192 -1.1586 -0.5166
11278SOL    HW244514   8.500   6.484   0.391  1.1622  1.1467  2.8129
11279SOL     OW44515   9.335   7.480   2.116  0.5644 -0.0518 -0.8771
11279SOL    HW144516   9.376   7.413   2.054  0.4715  1.0106 -2.0966
11279SOL    HW244517   9.243   7.503   2.085  0.1090 -0.3002  0.2575
11280SOL     OW44518   3.022   3.629   0.142  0.0657 -0.1722 -0.0130
11280SOL    HW144519   3.004   3.694   0.217  0.4630 -0.9945  0.7987
11280SOL    HW244520   2.947   3.634   0.076 -2.5484 -2.5521  2.6107
11281SOL     OW44521   2.659   7.690   2.479  0.2319 -0.5187  0.2078
11281SOL    HW144522   2.711   7.624   2.425 -0.8332 -1.2380  0.0404
11281SOL    HW244523   2.573   7.713   2.432  1.0308  1.7554 -0.2078
11282SOL     OW44524   9.343   0.913   1.843 -0.2124 -0.0839 -0.5524
11282SOL    HW144525   9.441   0.896   1.837 -0.2916 -0.0857 -2.0619
11282SOL    HW244526   9.294   0.826   1.843 -0.2468 -0.0654 -0.7005
11283SOL     OW44527   8.881   8.882   3.787  0.1243 -0.0785 -0.0767
11283SOL    HW144528   8.952   8.949   3.811 -0.1057 -0.0142  0.4272
11283SOL    HW244529   8.852   8.833   3.869  1.2873 -1.7913 -0.6528
11284SOL     OW44530   8.579   0.899   2.926  0.0418 -0.3563 -0.0884
11284SOL    HW144531   8.589   0.992   2.891 -0.0892  0.1274  1.1185
11284SOL    HW244532   8.596   0.833   2.853 -0.3894  0.6210 -1.0778
11285SOL     OW44533   3.279   3.139   3.225  0.3332  0.7534  0.4919
11285SOL    HW144534   3.296   3.170   3.132 -0.5309  2.5068  0.8843
11285SOL    HW244535   3.209   3.197   3.267 -0.3319 -0.9250  1.7506
11286SOL     OW44536   1.641   2.742   0.151 -0.5906 -0.6406  0.0168
11286SOL    HW144537   1.580   2.809   0.192  0.9449  0.8620 -0.0816
11286SOL    HW244538   1.736   2.771   0.164 -0.0180 -0.9248 -3.2046
11287SOL     OW44539   9.220   2.262   2.003  0.1532  0.2514 -0.8782
11287SOL    HW144540   9.152   2.253   1.930 -0.0288 -0.1441 -0.6605
11287SOL    HW244541   9.269   2.348   1.992  0.3814  0.0272 -1.6852
11288SOL     OW44542   8.207   2.616   1.845  0.2868  0.8221 -0.4424
11288SOL    HW144543   8.178   2.692   1.787 -2.2157 -0.5073 -1.0158
11288SOL    HW244544   8.238   2.540   1.788  1.3374  0.8634  0.0749
11289SOL     OW44545   1.343   0.225   0.613  0.7008  0.6289  0.2684
11289SOL    HW144546   1.311   0.298   0.673 -1.6721 -0.3492  0.2347
11289SOL    HW244547   1.295   0.229   0.526  1.3869 -0.2449 -0.1594
11290SOL     OW44548   2.805   5.849   1.099 -0.6636  0.5050 -0.7779
11290SOL    HW144549   2.715   5.828   1.061 -0.7253 -1.5394  0.4534
11290SOL    HW244550   2.827   5.945   1.081 -3.1144  1.0485 -1.0178
11291SOL     OW44551   3.103   8.914   4.671  0.1327  0.5671  0.2179
11291SOL    HW144552   3.068   8.833   4.718  0.2552  0.0708 -0.5520
11291SOL    HW244553   3.178   8.889   4.611 -1.6616  0.7736 -2.1663
11292SOL     OW44554   2.808   0.590   3.587  0.0694  0.5429 -0.1028
11292SOL    HW144555   2.774   0.653   3.657 -0.3275  1.6031 -1.2362
11292SOL    HW244556   2.731   0.548   3.540  0.3296  0.3422 -0.3500
11293SOL     OW44557   4.130   9.421   0.252 -0.7154  0.8529  0.0880
11293SOL    HW144558   4.088   9.473   0.177 -2.6824  0.3209  0.7866
11293SOL    HW244559   4.062   9.358   0.291  1.8256 -3.0255 -1.3890
11294SOL     OW44560   2.717   3.535   2.675  0.6792 -0.1744  0.1426
11294SOL    HW144561   2.759   3.585   2.599  0.5322 -0.6374 -0.2459
11294SOL    HW244562   2.620   3.520   2.655  0.7546 -0.7299  0.1954
11295SOL     OW44563   2.315   2.981   1.436 -0.2447  0.2683  0.2438
11295SOL    HW144564   2.252   3.056   1.418 -1.2977 -0.0089  2.6266
11295SOL    HW244565   2.378   3.006   1.510  0.5730 -0.5363 -0.1609
11296SOL     OW44566   4.663   7.901   4.525 -0.2195 -0.4092  0.5785
11296SOL    HW144567   4.709   7.939   4.445  0.7469 -1.4150  0.6403
11296SOL    HW244568   4.605   7.825   4.497 -0.1479 -0.5394  0.7859
11297SOL     OW44569   1.095   2.544   1.403 -0.1212 -0.4007 -0.5055
11297SOL    HW144570   1.191   2.538   1.377 -0.4312 -1.5572 -1.4509
11297SOL    HW244571   1.080   2.491   1.487  0.3119  0.9150  0.4283
11298SOL     OW44572   5.336   9.026   2.043 -0.1514 -0.1812 -0.0697
11298SOL    HW144573   5.260   9.058   1.986 -0.1920  1.0808  0.6709
11298SOL    HW244574   5.413   9.088   2.034  0.1310 -0.4245  0.6309
11299SOL     OW44575   2.712   8.170   0.476  0.4088  0.9504 -0.3347
11299SOL    HW144576   2.658   8.089   0.453  0.6710  0.5575  0.4189
11299SOL    HW244577   2.712   8.233   0.399 -0.0027  0.3412 -0.8378
11300SOL     OW44578   3.172   8.804   1.490  0.4908 -0.0143 -0.1121
11300SOL    HW144579   3.237   8.804   1.413  0.4723 -2.8807 -0.1668
11300SOL    HW244580   3.080   8.823   1.455  0.5334 -0.9690 -0.7471
11301SOL     OW44581   2.563   9.593   3.185 -0.7007 -0.4741  0.0287
11301SOL    HW144582   2.595   9.629   3.097  0.2974 -0.8599  0.2333
11301SOL    HW244583   2.565   9.666   3.253 -0.5663 -0.4122 -0.0396
11302SOL     OW44584   8.612   0.455   1.691 -0.2060 -0.6118  0.4624
11302SOL    HW144585   8.674   0.499   1.756  0.7460  0.8162 -1.3754
11302SOL    HW244586   8.524   0.504   1.691  0.0162 -0.2134  0.1952
11303SOL     OW44587   2.009   2.667   2.910  0.2264 -0.2364  0.1370
11303SOL    HW144588   1.963   2.609   2.977  1.1633  0.6561  1.5935
11303SOL    HW244589   1.991   2.763   2.931  3.0789  0.1400  1.0050
11304SOL     OW44590   5.593   0.492   3.169 -0.1686  0.7047 -0.2710
11304SOL    HW144591   5.690   0.471   3.159 -0.4816 -1.1363  0.4484
11304SOL    HW244592   5.550   0.495   3.078  0.5051  1.3197 -0.5737
11305SOL     OW44593   9.678   5.997   3.355  0.2259  0.8937  0.5738
11305SOL    HW144594   9.703   6.094   3.359  1.6723  0.6036 -0.8577
11305SOL    HW244595   9.700   5.954   3.442  1.6361  1.3839  0.4727
11306SOL     OW44596   4.960   4.746   1.654  0.2882  0.4014 -0.0347
11306SOL    HW144597   4.900   4.768   1.731 -0.5225  2.1980 -1.1659
11306SOL    HW244598   4.963   4.647   1.642 -1.5908  0.2307  0.7049
11307SOL     OW44599   2.950   1.982   4.138 -0.6267 -0.4735 -0.8219
11307SOL    HW144600   2.871   2.037   4.163 -0.1541 -0.0361 -0.2938
11307SOL    HW244601   3.002   1.958   4.219 -1.1065 -2.1511 -0.9745
11308SOL     OW44602   5.647   0.085   1.429  0.6146  0.3171  0.4054
11308SOL    HW144603   5.613   0.005   1.478  2.6686 -2.2809 -2.2659
11308SOL    HW244604   5.747   0.083   1.426  0.6309  2.0540 -1.1655
11309SOL     OW44605   2.156   9.333   0.654  0.0899 -0.0170 -0.1779
11309SOL    HW144606   2.240   9.379   0.625  1.3143 -1.4691  0.9518
11309SOL    HW244607   2.083   9.351   0.588  1.6124  0.2752 -1.8065
11310SOL     OW44608   2.052   4.517   0.268 -0.0105 -0.0846 -0.3778
11310SOL    HW144609   1.970   4.494   0.320  0.2352  1.8743  0.9230
11310SOL    HW244610   2.027   4.528   0.171 -1.2354  0.2070 -0.0444
11311SOL     OW44611   0.501   4.280   3.335 -0.3048 -0.4439  0.0710
11311SOL    HW144612   0.552   4.236   3.261  1.3600  1.7277 -0.1417
11311SOL    HW244613   0.565   4.319   3.401 -1.6342  2.6437 -0.3721
11312SOL     OW44614   8.923   7.871   0.929 -0.2783  0.3564  0.2407
11312SOL    HW144615   8.965   7.805   0.868  0.7376  0.8486  0.4050
11312SOL    HW244616   8.972   7.873   1.016  0.8838  2.6363 -0.4037
11313SOL     OW44617   3.734   0.735   3.745 -0.7431 -0.6831  0.2333
11313SOL    HW144618   3.756   0.811   3.806 -2.9104 -0.1330  0.3565
11313SOL    HW244619   3.785   0.744   3.659  1.3426 -0.7701  1.4332
11314SOL     OW44620   0.273   1.990   2.343 -0.4198 -0.8465 -0.3434
11314SOL    HW144621   0.353   1.935   2.320  0.2443 -1.4183  3.1784
11314SOL    HW244622   0.191   1.932   2.344 -0.1305 -1.2266  0.8061
11315SOL     OW44623   1.413   7.957   0.512  0.2714 -0.3013  0.2430
11315SOL    HW144624   1.373   8.040   0.474 -2.2584 -1.7400 -0.3288
11315SOL    HW244625   1.438   7.973   0.608 -0.6984  0.9445  0.2896
11316SOL     OW44626   5.346   1.221   2.274 -0.0511 -0.1857  0.2172
11316SOL    HW144627   5.431   1.254   2.315 -1.4722  1.3488  2.0057
11316SOL    HW244628   5.271   1.282   2.298 -1.4922 -0.9172 -2.2504
11317SOL     OW44629   8.490   7.650   1.385 -0.4415 -0.7061 -0.6063
11317SOL    HW144630   8.554   7.593   1.334 -0.7106 -0.2655 -1.4434
11317SOL    HW244631   8.510   7.746   1.368 -1.9505 -0.5602 -1.6635
11318SOL     OW44632   8.763   2.825   3.411 -0.5357 -0.5012 -0.2235
11318SOL    HW144633   8.716   2.886   3.474 -2.0798 -0.8413 -1.0171
11318SOL    HW244634   8.747   2.855   3.317  1.2260 -0.3551 -0.4946
11319SOL     OW44635   0.048   5.405   0.652  0.3690  0.5483 -0.4786
11319SOL    HW144636   0.119   5.446   0.594  2.2751 -0.0522  1.3435
11319SOL    HW244637   0.066   5.428   0.747 -0.0052 -2.3562  0.3346
11320SOL     OW44638   7.567   8.661   2.323 -0.0585 -0.2371  0.2499
11320SOL    HW144639   7.587   8.587   2.258 -0.0661  0.0080 -0.0290
11320SOL    HW244640   7.485   8.637   2.376  1.6164 -1.7948  2.2343
11321SOL     OW44641   7.611   0.093   1.429 -0.6555  0.0136 -0.0737
11321SOL    HW144642   7.514   0.086   1.451 -0.7103  0.2187 -0.2570
11321SOL    HW244643   7.634   0.026   1.359 -0.6237 -0.1749  0.1186
11322SOL     OW44644   2.773   9.017   3.066 -0.1067  0.4055  0.0433
11322SOL    HW144645   2.726   9.070   3.136  1.7865  2.4439 -0.1808
11322SOL    HW244646   2.863   9.056   3.050  1.5430 -3.1890  0.1894
11323SOL     OW44647   0.123   7.140   3.516  0.0911  0.6708  0.8348
11323SOL    HW144648   0.196   7.125   3.450  0.3121 -0.4337  1.3209
11323SOL    HW244649   0.147   7.097   3.603 -1.0521  0.4496  1.0556
11324SOL     OW44650   4.951   0.750   4.115 -0.2033 -0.3105  0.3877
11324SOL    HW144651   4.914   0.657   4.106  0.1016 -0.3758 -0.1927
11324SOL    HW244652   4.896   0.801   4.181  0.8099 -1.5267  2.2313
11325SOL     OW44653   9.363   2.419   1.593 -0.4186  0.1305  0.3826
11325SOL    HW144654   9.281   2.386   1.641  0.6134 -1.8185  0.8361
11325SOL    HW244655   9.350   2.408   1.494 -0.2132 -1.4007  0.5080
11326SOL     OW44656   8.302   7.446   0.893  0.4094  0.0920  0.3157
11326SOL    HW144657   8.330   7.408   0.981  0.5698  0.0170  0.2321
11326SOL    HW244658   8.284   7.372   0.828 -1.3514  0.0849  0.7749
11327SOL     OW44659   5.741   7.523   2.535 -0.0378 -0.1833 -0.0353
11327SOL    HW144660   5.668   7.532   2.469 -0.8510 -0.0875  0.8681
11327SOL    HW244661   5.757   7.427   2.555  0.0622 -0.2016 -0.1984
11328SOL     OW44662   2.132   7.014   1.856  0.0550 -0.1528  0.0058
11328SOL    HW144663   2.083   7.101   1.865 -1.2871 -0.8366 -0.4630
11328SOL    HW244664   2.222   7.021   1.900 -0.0500  1.4559 -0.0145
11329SOL     OW44665   9.573   9.987   0.238 -0.2421  0.2932 -1.0250
11329SOL    HW144666   9.615  10.074   0.213  1.7408  0.4545  2.4277
11329SOL    HW244667   9.532   9.995   0.329 -1.0326 -2.0692 -1.1215
11330SOL     OW44668   9.722   9.381   2.528  0.3450 -0.2993 -0.1221
11330SOL    HW144669   9.701   9.437   2.448  0.8224 -1.8340 -1.3273
11330SOL    HW244670   9.646   9.318   2.546 -0.0959  0.5481  1.1061
11331SOL     OW44671   8.970   4.295   4.506 -0.2973  0.0925  0.2298
11331SOL    HW144672   8.970   4.279   4.605 -0.7338 -0.6595  0.1118
11331SOL    HW244673   9.063   4.320   4.477  0.3653 -2.0044  0.4655
11332SOL     OW44674   2.497   6.074   3.908 -0.0889 -0.0825 -0.2926
11332SOL    HW144675   2.485   6.028   3.820 -0.4484  0.7843 -0.7011
11332SOL    HW244676   2.428   6.041   3.972  0.5883 -1.1990 -0.1355
11333SOL     OW44677   5.106   0.711   2.640  0.1602  0.2444 -0.2384
11333SOL    HW144678   5.043   0.686   2.567  0.0223  1.7823 -0.6612
11333SOL    HW244679   5.063   0.779   2.699  1.0214  0.5018  0.1018
11334SOL     OW44680   0.899   3.886   0.881  0.0498  0.1331 -0.5522
11334SOL    HW144681   0.842   3.964   0.909  0.3480  0.4609 -0.8399
11334SOL    HW244682   0.995   3.910   0.890  0.1429 -0.3404 -0.2850
11335SOL     OW44683   4.499   2.512   2.935 -0.1158  0.1058  0.0352
11335SOL    HW144684   4.555   2.508   2.852  0.4003 -0.7964  0.4124
11335SOL    HW244685   4.537   2.579   2.998 -0.2650  0.4903 -0.2819
11336SOL     OW44686   2.569   0.934   0.192 -0.5520  0.1755 -0.3983
11336SOL    HW144687   2.654   0.884   0.209 -0.3942  0.4607 -0.3360
11336SOL    HW244688   2.587   1.007   0.126  0.1083  2.5532  2.2972
11337SOL     OW44689   3.551   9.155   3.626 -0.0097 -0.0235 -0.3325
11337SOL    HW144690   3.609   9.164   3.707  0.7960 -0.3770 -0.8569
11337SOL    HW244691   3.455   9.154   3.653  0.1688  1.7398  0.4698
11338SOL     OW44692   1.349   7.348   4.506 -0.6822  0.2131 -0.6855
11338SOL    HW144693   1.424   7.369   4.443  2.7696 -0.7563  2.9047
11338SOL    HW244694   1.369   7.386   4.596 -3.9749 -1.1509  0.7148
11339SOL     OW44695   4.672   9.602   1.982 -0.3227  0.0910 -0.2525
11339SOL    HW144696   4.655   9.647   1.894  2.1191  1.6175  0.0020
11339SOL    HW244697   4.738   9.656   2.035  0.5643 -2.3744  1.2571
11340SOL     OW44698   9.487   7.139   0.673 -0.5425 -0.0110 -0.0806
11340SOL    HW144699   9.523   7.189   0.751  0.6852  0.2556 -0.8129
11340SOL    HW244700   9.559   7.085   0.631 -1.3607 -0.7204 -0.5975
11341SOL     OW44701   3.442   3.553   1.690  0.1124 -0.3268  0.9800
11341SOL    HW144702   3.495   3.622   1.641  1.5236 -1.2849  1.1333
11341SOL    HW244703   3.422   3.585   1.782  0.8567 -0.1751  1.0884
11342SOL     OW44704   3.192   9.764   3.695  0.1234  0.4175  0.3141
11342SOL    HW144705   3.205   9.861   3.715  1.5549  0.3910 -0.4447
11342SOL    HW244706   3.280   9.717   3.702 -0.4534 -0.7115  0.0363
11343SOL     OW44707   9.900   7.158   0.547  0.2835 -0.0371  0.2312
11343SOL    HW144708   9.824   7.093   0.544  0.2643 -0.0128  0.2036
11343SOL    HW244709   9.975   7.120   0.602 -0.2198  0.4374  1.2528
11344SOL     OW44710   1.357   9.144   4.554  0.6417  0.2791  0.0372
11344SOL    HW144711   1.445   9.179   4.585  1.1801  0.3986 -1.5685
11344SOL    HW244712   1.337   9.057   4.599  1.2567  0.5820  0.9089
11345SOL     OW44713   2.260   6.371   4.013 -0.2610 -0.2384 -0.3907
11345SOL    HW144714   2.218   6.380   4.103 -0.5383 -0.7439 -0.4633
11345SOL    HW244715   2.260   6.274   3.987  1.3032 -0.2870 -0.2219
11346SOL     OW44716   2.425   4.999   3.530 -0.5690 -0.3331  0.3858
11346SOL    HW144717   2.405   4.943   3.610 -0.1734 -0.8158  0.1476
11346SOL    HW244718   2.340   5.031   3.489 -0.7539  1.3169  1.9821
11347SOL     OW44719   8.849   8.636   2.174 -0.1625 -0.1103  0.8262
11347SOL    HW144720   8.807   8.665   2.260  0.8685  0.7532  1.0490
11347SOL    HW244721   8.810   8.688   2.098 -2.3080 -2.0553  0.5248
11348SOL     OW44722   8.132   7.782   2.636 -0.4183 -0.2312 -0.1289
11348SOL    HW144723   8.070   7.835   2.694 -0.1240 -0.5402  0.4685
11348SOL    HW244724   8.131   7.686   2.665 -0.0077 -0.3199 -0.4085
11349SOL     OW44725   9.366   0.952   2.397 -0.1008 -0.1467 -0.2301
11349SOL    HW144726   9.292   0.991   2.452  1.4820  2.2129  0.3096
11349SOL    HW244727   9.435   0.913   2.458  0.3655  0.0363 -0.6408
11350SOL     OW44728   1.961   6.952   3.934 -0.1983 -0.1584  0.0150
11350SOL    HW144729   2.047   6.943   3.884  0.9188 -1.6859  2.1835
11350SOL    HW244730   1.942   6.868   3.984 -2.7185  0.3435 -0.0091
11351SOL     OW44731   4.494   4.106   0.158  0.0711  0.9316 -0.1339
11351SOL    HW144732   4.411   4.068   0.118  1.8153 -3.3560 -0.0682
11351SOL    HW244733   4.564   4.115   0.086  1.1145 -0.4778  0.6607
11352SOL     OW44734   3.625   7.755   1.089 -0.2005  0.3365 -0.5840
11352SOL    HW144735   3.717   7.775   1.120 -0.8969  2.1109  0.3807
11352SOL    HW244736   3.619   7.769   0.990  0.4114  0.7996 -0.5548
11353SOL     OW44737   2.813   8.478   0.600  0.0946 -0.8633  0.3066
11353SOL    HW144738   2.868   8.486   0.517 -0.3333 -1.0444  0.0072
11353SOL    HW244739   2.803   8.382   0.625 -1.1166 -0.9031 -0.3272
11354SOL     OW44740   0.279   9.400   4.631 -0.4567 -0.0006 -0.5986
11354SOL    HW144741   0.243   9.443   4.548 -0.3892 -2.1589 -1.7661
11354SOL    HW244742   0.206   9.392   4.699 -1.1464 -0.4936 -1.3886
11355SOL     OW44743   0.829   4.574   2.767 -0.2514 -0.2000  0.2625
11355SOL    HW144744   0.833   4.567   2.667 -1.5539 -3.5011  0.3967
11355SOL    HW244745   0.733   4.568   2.797  0.1296  0.7606  1.7273
11356SOL     OW44746   4.660   1.689   2.386  0.0980  0.4525  0.1222
11356SOL    HW144747   4.725   1.641   2.445  0.4676  0.9430  0.1186
11356SOL    HW244748   4.569   1.687   2.427  0.1308 -0.1695  0.1654
11357SOL     OW44749   3.661   5.110   2.313 -0.3355  0.3708  0.4309
11357SOL    HW144750   3.686   5.028   2.364 -0.1432 -0.3105 -0.7360
11357SOL    HW244751   3.741   5.145   2.264 -0.6098  0.7596  0.2549
11358SOL     OW44752   4.068   8.609   4.631 -0.2473  0.0208 -0.2073
11358SOL    HW144753   4.154   8.593   4.678 -0.7166 -0.6545  0.4382
11358SOL    HW244754   4.056   8.541   4.559 -0.0623  0.3507 -0.5484
11359SOL     OW44755   9.019   3.949   1.815 -0.2265 -0.1388  0.0796
11359SOL    HW144756   8.928   3.944   1.857  0.2662 -0.5478  1.1223
11359SOL    HW244757   9.036   3.866   1.763 -0.0149 -0.5587  0.8086
11360SOL     OW44758   1.686   5.747   0.208  0.5678 -0.5027 -0.6621
11360SOL    HW144759   1.687   5.689   0.290  0.6214 -1.1055 -1.0847
11360SOL    HW244760   1.633   5.702   0.136  0.0275  0.2908 -0.7746
11361SOL     OW44761   1.201   7.444   2.050  0.4737 -0.0919 -0.0350
11361SOL    HW144762   1.191   7.514   2.120  0.5338  0.1026 -0.2190
11361SOL    HW244763   1.255   7.480   1.974 -0.2234 -0.0487 -0.5172
11362SOL     OW44764   0.125   8.523   4.063  0.2643 -0.1772  0.0609
11362SOL    HW144765   0.102   8.619   4.079  0.9974 -0.0941  0.6924
11362SOL    HW244766   0.199   8.518   3.996  0.1417 -0.3103 -0.0645
11363SOL     OW44767   3.880   7.554   0.931  0.1851  0.4072  0.5420
11363SOL    HW144768   3.804   7.496   0.900  0.4715 -0.5422  1.5855
11363SOL    HW244769   3.921   7.600   0.852 -0.8483  0.1643 -0.1501
11364SOL     OW44770   2.920   7.253   1.329 -0.2213  0.5802  0.6563
11364SOL    HW144771   2.956   7.233   1.420 -0.3464  0.2365  0.6293
11364SOL    HW244772   2.866   7.337   1.333  0.0574  0.7531  0.8284
11365SOL     OW44773   9.697   7.030   1.658 -0.0877 -0.4765 -0.2894
11365SOL    HW144774   9.737   6.939   1.642  1.2611 -0.1253  1.0106
11365SOL    HW244775   9.770   7.097   1.670 -1.0869  0.5514  0.0834
11366SOL     OW44776   1.683   1.658   3.545 -0.0253 -0.5537 -0.4945
11366SOL    HW144777   1.711   1.600   3.469 -0.1165 -1.4539  0.1471
11366SOL    HW244778   1.661   1.601   3.625 -0.4320  0.3389  0.0485
11367SOL     OW44779   0.716   7.775   4.112 -0.4206  0.2422  0.4364
11367SOL    HW144780   0.723   7.874   4.101  0.2856  0.3389  1.6831
11367SOL    HW244781   0.747   7.749   4.203  0.6040 -1.2550 -0.3057
11368SOL     OW44782   0.042   4.631   4.114  0.1473 -0.2069 -0.2577
11368SOL    HW144783   0.069   4.562   4.047  2.1874 -0.5508  0.8919
11368SOL    HW244784   0.015   4.587   4.199  1.1454  0.3677  0.3717
11369SOL     OW44785   3.686   5.921   2.860 -0.2923  0.1485  0.0478
11369SOL    HW144786   3.709   6.015   2.835 -0.8417 -0.0222 -1.0968
11369SOL    HW244787   3.587   5.911   2.868 -0.1789 -0.0248  1.4316
11370SOL     OW44788   4.521   7.020   1.995  0.5304 -0.9010  0.5011
11370SOL    HW144789   4.547   7.089   1.928  0.0598 -0.3307  0.9080
11370SOL    HW244790   4.576   7.031   2.078  1.5184 -1.9650  0.0035
11371SOL     OW44791   9.893   0.506   0.298  0.1944  0.1338 -0.3562
11371SOL    HW144792   9.945   0.424   0.323 -0.1265 -0.2544 -0.9615
11371SOL    HW244793   9.835   0.533   0.374  0.8880  0.2630  0.1359
11372SOL     OW44794   3.315   3.803   0.448  0.3468 -0.1285 -0.0228
11372SOL    HW144795   3.292   3.881   0.507  0.3811 -1.2948  1.5604
11372SOL    HW244796   3.414   3.799   0.436  0.2412  0.9335 -1.3232
11373SOL     OW44797   3.659   9.438   3.633  0.3572 -0.2439 -0.7378
11373SOL    HW144798   3.688   9.425   3.539  1.9077 -0.8197 -0.1875
11373SOL    HW244799   3.696   9.365   3.690 -0.1789  0.3608  0.4108
11374SOL     OW44800   1.291   3.051   4.124 -0.0541 -0.1921 -0.2825
11374SOL    HW144801   1.193   3.064   4.107 -0.4924 -4.0159 -1.2247
11374SOL    HW244802   1.304   2.972   4.184  2.4851 -0.1245 -0.6901
11375SOL     OW44803   0.085   6.319   0.808 -0.0907 -0.3088  0.0987
11375SOL    HW144804   0.044   6.343   0.896 -0.4471  0.6047 -0.3123
11375SOL    HW244805   0.093   6.401   0.751  1.6591 -0.5985 -0.0952
11376SOL     OW44806   4.898   2.225   1.938 -0.3240 -0.2765  0.3706
11376SOL    HW144807   4.820   2.166   1.955 -0.2782 -0.6124 -0.5638
11376SOL    HW244808   4.980   2.185   1.979 -0.3335 -0.7415 -0.0695
11377SOL     OW44809   8.624   8.093   3.881  0.6975 -0.1753 -0.5163
11377SOL    HW144810   8.665   8.083   3.972 -0.0890 -1.6883 -0.3061
11377SOL    HW244811   8.540   8.040   3.877 -1.1988  2.7620 -0.9813
11378SOL     OW44812   3.705   3.893   2.512  0.2783 -0.6410  0.3557
11378SOL    HW144813   3.777   3.837   2.470  0.6576  0.2550 -0.1840
11378SOL    HW244814   3.742   3.983   2.536 -0.5690 -0.3043  0.4131
11379SOL     OW44815   3.020   6.928   4.751 -0.0519  0.8428 -0.0268
11379SOL    HW144816   3.004   6.831   4.770  0.7924  0.6137 -0.4989
11379SOL    HW244817   2.935   6.978   4.766 -0.2077  0.1985  1.3312
11380SOL     OW44818   4.637   0.941   2.391  1.2301  0.4917  0.0344
11380SOL    HW144819   4.610   0.885   2.470  2.4131  0.6917  0.5976
11380SOL    HW244820   4.558   0.956   2.332  0.9017 -1.7273 -0.1023
11381SOL     OW44821   2.368   6.239   2.456 -0.0642 -0.4631  0.1608
11381SOL    HW144822   2.384   6.225   2.358 -0.5327  1.0788 -0.1516
11381SOL    HW244823   2.337   6.153   2.497  0.0424 -1.1015 -1.0663
11382SOL     OW44824   5.050   1.032   1.528 -0.7551  0.1937  0.4093
11382SOL    HW144825   5.029   1.003   1.622  0.7965 -0.9089  0.4277
11382SOL    HW244826   5.110   1.111   1.531 -3.2022  2.1050  0.3417
11383SOL     OW44827   2.953   8.690   1.306 -0.7400  0.5753 -0.3438
11383SOL    HW144828   2.955   8.608   1.363 -0.1543 -0.4784 -1.8498
11383SOL    HW244829   2.859   8.717   1.289 -1.0159 -1.1951 -1.7996
11384SOL     OW44830   0.792   2.698   3.352 -0.0066  0.2846  0.1388
11384SOL    HW144831   0.844   2.775   3.315 -0.7806  0.9897  0.4998
11384SOL    HW244832   0.750   2.648   3.277  1.6407 -0.6350 -0.2014
11385SOL     OW44833   3.295   3.030   2.392  0.1352  0.3047 -0.4371
11385SOL    HW144834   3.219   2.987   2.441  0.7903  0.4449  0.6965
11385SOL    HW244835   3.324   2.971   2.317 -0.3457 -0.2665 -0.1743
11386SOL     OW44836   2.816   3.946   2.042 -0.0392  0.0165  0.0261
11386SOL    HW144837   2.916   3.952   2.051 -0.1105  0.9890  0.1824
11386SOL    HW244838   2.790   3.851   2.023  0.8894 -0.2934  0.2956
11387SOL     OW44839   0.403   4.117   3.565  0.0929 -0.6226 -0.4529
11387SOL    HW144840   0.339   4.044   3.588 -1.0549  1.0163  1.7571
11387SOL    HW244841   0.359   4.206   3.579  1.9380  0.5136 -1.6631
11388SOL     OW44842   1.011   9.825   1.276  0.2223 -0.1795 -0.3861
11388SOL    HW144843   0.997   9.899   1.210 -0.7920 -0.9747 -1.0691
11388SOL    HW244844   0.965   9.848   1.362  1.8189  1.0055  0.1775
11389SOL     OW44845   8.162   7.222   3.043  0.1056  0.6072  0.7112
11389SOL    HW144846   8.090   7.154   3.035 -1.8161  2.6305  0.4785
11389SOL    HW244847   8.181   7.240   3.139  0.9114 -0.5262  0.7764
11390SOL     OW44848   5.726   8.410   3.104  0.1313 -0.8022  0.0361
11390SOL    HW144849   5.707   8.376   3.012 -1.5914  0.0309  0.0609
11390SOL    HW244850   5.739   8.509   3.101  1.0200 -0.8978  0.5571
11391SOL     OW44851   2.172   5.811   0.478 -0.3001  0.3031 -0.7422
11391SOL    HW144852   2.198   5.906   0.464  1.9537 -0.1013  0.4803
11391SOL    HW244853   2.251   5.759   0.511 -1.6533 -1.8609 -0.8069
11392SOL     OW44854   0.890   1.210   2.811  0.1993  0.1375 -0.4997
11392SOL    HW144855   0.868   1.159   2.727 -0.4493  1.1639 -0.9607
11392SOL    HW244856   0.826   1.286   2.821  1.3707  1.0639  0.0114
11393SOL     OW44857   8.381   0.582   1.798 -0.3216 -0.3486 -0.3534
11393SOL    HW144858   8.284   0.594   1.775 -0.5863  0.2628  1.0561
11393SOL    HW244859   8.392   0.501   1.854 -0.2950  0.6912  1.1643
11394SOL     OW44860   1.142   9.454   1.699 -0.0064 -0.4335  0.8066
11394SOL    HW144861   1.206   9.383   1.670  2.1661  1.6748  0.2937
11394SOL    HW244862   1.061   9.451   1.641  1.0735 -1.0172 -0.7065
11395SOL     OW44863   0.305   7.462   1.560 -0.2387  0.6193 -0.3817
11395SOL    HW144864   0.346   7.384   1.607 -0.5584 -0.0985 -1.2766
11395SOL    HW244865   0.326   7.457   1.462 -2.4088  0.2640 -0.8559
11396SOL     OW44866   8.331   5.642   0.125 -0.1165 -0.2610 -0.0051
11396SOL    HW144867   8.286   5.664   0.211  2.3803  0.8762  1.0833
11396SOL    HW244868   8.358   5.546   0.124 -1.0596 -0.5245  0.0526
11397SOL     OW44869   8.900   3.851   3.500 -0.2040  0.0649  0.0712
11397SOL    HW144870   8.867   3.840   3.594 -0.8339 -0.6687 -0.2329
11397SOL    HW244871   8.824   3.844   3.436  0.3645 -0.4601 -0.5607
11398SOL     OW44872   2.300   1.323   3.360 -0.4309  0.2212 -0.1778
11398SOL    HW144873   2.314   1.370   3.272  1.5996 -0.7881 -0.4234
11398SOL    HW244874   2.329   1.228   3.352 -2.3853 -0.4963  0.9637
11399SOL     OW44875   2.544   2.098   3.141 -0.1834 -0.0218  0.7145
11399SOL    HW144876   2.478   2.172   3.130  0.2858  0.6297  2.2454
11399SOL    HW244877   2.635   2.136   3.157 -0.0946 -0.9294  2.4034
11400SOL     OW44878   5.381   9.470   3.950  0.3515  0.3426 -0.8830
11400SOL    HW144879   5.423   9.510   4.032  2.6224 -2.1815 -0.7606
11400SOL    HW244880   5.283   9.455   3.967  0.8595 -0.5016  1.5422
11401SOL     OW44881   0.236   9.103   1.837 -0.0608  0.0781  0.9297
11401SOL    HW144882   0.153   9.087   1.784  2.4335  1.0648 -3.4945
11401SOL    HW244883   0.251   9.202   1.846  1.4686 -0.0829  0.2595
11402SOL     OW44884   8.609   7.198   1.202  0.1275  0.5172 -0.0920
11402SOL    HW144885   8.546   7.121   1.211 -0.2878  0.4451 -3.0465
11402SOL    HW244886   8.700   7.165   1.177  1.1371  0.7044  3.1142
11403SOL     OW44887   0.396   1.470   0.838 -0.1197  0.1116  0.5073
11403SOL    HW144888   0.324   1.527   0.797 -0.1250 -0.0408  0.3044
11403SOL    HW244889   0.363   1.376   0.848  0.1012  0.0071  0.2727
11404SOL     OW44890   1.394   9.644   2.637  0.2003  0.3084  0.0837
11404SOL    HW144891   1.491   9.668   2.635  0.0349  1.0495  0.9354
11404SOL    HW244892   1.349   9.684   2.558  0.9342 -1.6230 -1.3802
11405SOL     OW44893   3.310   4.642   2.227 -0.5096  0.1283 -0.4416
11405SOL    HW144894   3.392   4.692   2.255  1.0868 -1.4965 -2.1218
11405SOL    HW244895   3.275   4.679   2.142  0.2329 -1.0494 -1.2869
11406SOL     OW44896   8.626   6.026   1.179  0.5563  0.1998 -0.0692
11406SOL    HW144897   8.667   6.097   1.237  0.3137  0.2070  0.0951
11406SOL    HW244898   8.692   5.952   1.166  0.3742 -0.1269  0.7927
11407SOL     OW44899   0.982   0.902   1.337 -0.6311  0.3430 -0.4897
11407SOL    HW144900   0.893   0.862   1.361 -0.3915  0.6981  1.0341
11407SOL    HW244901   1.016   0.859   1.253 -2.1039  0.0066 -0.9357
11408SOL     OW44902   9.190   1.134   1.758 -0.4905  0.0560  0.0977
11408SOL    HW144903   9.248   1.087   1.825 -0.6331  2.6093  2.1343
11408SOL    HW244904   9.101   1.090   1.754  0.5371 -1.9942 -0.7208
11409SOL     OW44905   1.517   4.995   0.886 -0.0255  0.3709  0.2826
11409SOL    HW144906   1.516   5.056   0.807  1.5512 -1.5395 -1.2582
11409SOL    HW244907   1.427   4.953   0.898 -0.9779  2.5617  1.0530
11410SOL     OW44908   2.398   1.236   1.522  0.2524 -0.0251 -0.8274
11410SOL    HW144909   2.497   1.228   1.537  0.0178  0.1056  0.9100
11410SOL    HW244910   2.381   1.295   1.444  1.5240  1.3631 -0.0751
11411SOL     OW44911   6.260   8.407   3.648  0.4768 -0.1697  0.3437
11411SOL    HW144912   6.196   8.397   3.572  1.4017  1.4098 -0.6634
11411SOL    HW244913   6.346   8.447   3.615  2.4980 -3.3828  1.4109
11412SOL     OW44914   2.055   4.215   1.338  0.5682  0.6289  0.3280
11412SOL    HW144915   1.959   4.200   1.312  0.4644 -0.5516  1.3099
11412SOL    HW244916   2.065   4.306   1.378 -0.2608  0.5584  0.7092
11413SOL     OW44917   9.453   6.587   3.269 -0.1566  0.1403  0.0915
11413SOL    HW144918   9.360   6.584   3.304 -0.1406 -0.8457  0.0776
11413SOL    HW244919   9.486   6.493   3.255  0.9511  0.4769  0.4084
11414SOL     OW44920   3.066   9.909   3.013 -0.1274 -0.3611  0.5063
11414SOL    HW144921   3.165   9.921   3.001 -0.3970  1.4869  0.0673
11414SOL    HW244922   3.035   9.832   2.956  1.0480 -0.9495  0.6507
11415SOL     OW44923   9.426   0.178   3.697  0.0199 -0.0175 -0.0697
11415SOL    HW144924   9.509   0.122   3.701  0.4948  0.6146 -0.7668
11415SOL    HW244925   9.350   0.128   3.737  0.4306 -1.1856 -0.7247
11416SOL     OW44926   1.205   2.840   4.450 -0.5954 -0.0425 -0.2237
11416SOL    HW144927   1.152   2.924   4.456  0.5678  0.5100  3.5032
11416SOL    HW244928   1.161   2.769   4.505  0.3302 -0.7961 -0.4423
11417SOL     OW44929   3.842   9.673   3.883  0.1945  0.1423  0.3722
11417SOL    HW144930   3.897   9.750   3.852 -1.5261  0.9660 -0.7644
11417SOL    HW244931   3.750   9.679   3.842  0.2245 -2.8779 -0.3079
11418SOL     OW44932   2.818   1.903   3.693 -0.2967 -0.1545  0.4617
11418SOL    HW144933   2.882   1.926   3.766 -0.7289 -0.4340  0.9336
11418SOL    HW244934   2.786   1.986   3.649  0.9973 -0.0543 -0.3002
11419SOL     OW44935   2.334   8.238   1.856  0.3817 -0.2401 -0.1873
11419SOL    HW144936   2.413   8.292   1.886  0.7417 -1.0251  0.2856
11419SOL    HW244937   2.365   8.168   1.792  0.3864 -1.9046  1.6135
11420SOL     OW44938   7.246   9.629   4.384 -0.1934  0.6465  0.4194
11420SOL    HW144939   7.176   9.673   4.441 -0.7765 -1.1617  1.1365
11420SOL    HW244940   7.336   9.665   4.408 -0.5718  0.8470  1.5890
11421SOL     OW44941   2.453   6.624   0.100  0.1257 -0.8202  0.4354
11421SOL    HW144942   2.419   6.548   0.157  0.7338 -1.3137  0.1380
11421SOL    HW244943   2.476   6.590   0.009 -1.5520  0.0982 -0.3733
11422SOL     OW44944   9.857   7.947   1.798  0.2200 -0.3768 -0.3219
11422SOL    HW144945   9.905   7.859   1.801  0.0942 -0.4136  3.7026
11422SOL    HW244946   9.901   8.011   1.861 -2.3744  0.9631  0.2014
11423SOL     OW44947   3.314   8.488   1.774  0.0490 -0.5170 -0.2693
11423SOL    HW144948   3.350   8.479   1.867 -0.6077  0.7967  0.1304
11423SOL    HW244949   3.262   8.574   1.767  1.1142 -0.0130 -2.1846
11424SOL     OW44950   2.198   8.023   3.464 -0.2626  0.5165  0.8680
11424SOL    HW144951   2.166   7.936   3.427  0.1621  1.0237 -0.7198
11424SOL    HW244952   2.126   8.092   3.455 -0.0692  0.7059  0.7695
11425SOL     OW44953   3.241   2.736   4.251  0.3683  0.2797  0.2601
11425SOL    HW144954   3.316   2.802   4.260  0.8984 -0.2158 -0.4139
11425SOL    HW244955   3.272   2.646   4.282 -0.2081  0.2559  0.7553
11426SOL     OW44956   8.809   7.433   0.122 -0.4105 -0.5243 -0.2048
11426SOL    HW144957   8.804   7.507   0.056  1.8110  0.3021  0.5139
11426SOL    HW244958   8.833   7.348   0.075 -0.5200 -0.2923 -0.6840
11427SOL     OW44959   2.769   5.293   3.029 -0.2593  0.3075 -0.9689
11427SOL    HW144960   2.729   5.216   2.980 -0.1616  0.0033 -0.5730
11427SOL    HW244961   2.836   5.260   3.096  1.7473  0.8827 -2.6290
11428SOL     OW44962   1.825   8.020   0.237 -0.0112  0.0731 -0.3105
11428SOL    HW144963   1.881   8.038   0.318  1.3154  0.3384 -1.2720
11428SOL    HW244964   1.870   7.950   0.181 -0.4705  0.5339 -1.2564
11429SOL     OW44965   7.060   0.293   2.786 -0.2229 -0.3408  0.1409
11429SOL    HW144966   7.059   0.256   2.693 -0.0641 -0.3375  0.1380
11429SOL    HW244967   6.970   0.334   2.807 -0.3695 -0.6494  0.1130
11430SOL     OW44968   9.357   8.446   1.376 -0.0383 -0.0068 -0.3006
11430SOL    HW144969   9.394   8.535   1.348  0.4403 -0.1371 -0.0904
11430SOL    HW244970   9.429   8.376   1.369 -0.0369 -0.1284  0.7958
11431SOL     OW44971   3.565   9.161   1.551 -0.5246  0.0123  0.2310
11431SOL    HW144972   3.490   9.193   1.609  0.3109 -0.1901  1.4275
11431SOL    HW244973   3.618   9.091   1.599 -1.3430 -2.0149 -1.7516
11432SOL     OW44974   4.865   5.117   1.220 -1.1762 -0.2880  0.2956
11432SOL    HW144975   4.819   5.029   1.225 -1.9886  0.0547 -0.8700
11432SOL    HW244976   4.799   5.189   1.197 -0.3853  0.4951  0.4114
11433SOL     OW44977   4.542   3.422   3.733  1.0251  0.1988  0.0436
11433SOL    HW144978   4.478   3.407   3.657  1.1306 -0.7686  0.1382
11433SOL    HW244979   4.635   3.431   3.698  0.8866  1.2299 -0.0629
11434SOL     OW44980   6.568   9.441   2.277 -0.4121 -0.7088 -0.4724
11434SOL    HW144981   6.652   9.493   2.260  0.6290 -1.3214  2.3717
11434SOL    HW244982   6.553   9.377   2.202  2.5938 -1.7152 -0.3091
11435SOL     OW44983   9.033   1.346   3.682  0.1944  0.1316  0.4180
11435SOL    HW144984   9.071   1.432   3.647 -1.9160  0.9774  0.1479
11435SOL    HW244985   8.979   1.302   3.610  3.2596 -2.7060 -0.2696
11436SOL     OW44986   0.733   8.706   3.109  0.3029  0.2752  0.3602
11436SOL    HW144987   0.698   8.652   3.032  0.1013 -0.0779  0.6994
11436SOL    HW244988   0.734   8.803   3.084 -1.0027  0.3047  0.3693
11437SOL     OW44989   8.220   8.676   0.062  0.4362  0.0100 -0.6561
11437SOL    HW144990   8.173   8.758   0.095  0.3545 -0.4972  0.4989
11437SOL    HW244991   8.160   8.625   0.000 -0.1608 -0.1049  0.0192
11438SOL     OW44992   3.548   7.271   0.221  0.2738  0.4697 -0.9709
11438SOL    HW144993   3.547   7.357   0.170 -0.2565  0.4421 -1.0136
11438SOL    HW244994   3.615   7.209   0.180 -0.5075  0.2644 -1.9419
11439SOL     OW44995   1.479   5.236   4.641  0.7425 -0.2126  0.3297
11439SOL    HW144996   1.485   5.282   4.552  1.0110 -0.1094  0.4011
11439SOL    HW244997   1.519   5.145   4.634 -1.8497 -1.3173 -0.4014
11440SOL     OW44998   0.509   9.078   4.770 -0.1528  0.4617  0.2942
11440SOL    HW144999   0.421   9.033   4.781  0.8449 -1.6558 -0.1876
11440SOL    HW245000   0.536   9.122   4.856 -1.7760  1.3778  0.3634
11441SOL     OW45001   2.647   2.432   0.067  0.0680  0.6221  0.2597
11441SOL    HW145002   2.680   2.464   0.155 -0.5557  0.5110  0.5375
11441SOL    HW245003   2.566   2.374   0.081  1.4861 -1.4995 -0.1895
11442SOL     OW45004   7.964   6.123   1.955  0.6742  0.0044  0.6183
11442SOL    HW145005   7.993   6.062   2.029 -0.5931 -0.0793  1.0621
11442SOL    HW245006   8.032   6.195   1.941  0.1001  1.0580  3.0541
11443SOL     OW45007   9.569   8.407   0.542 -0.2563 -0.7311 -0.5497
11443SOL    HW145008   9.487   8.371   0.586 -2.2772  1.4740 -2.3648
11443SOL    HW245009   9.543   8.480   0.478  3.1378  0.0724 -1.0987
11444SOL     OW45010   4.798   6.829   2.739  0.3371  0.3955  0.0553
11444SOL    HW145011   4.883   6.782   2.764  1.7812  2.4393 -0.8851
11444SOL    HW245012   4.816   6.893   2.664 -2.0861  0.7338 -0.2757
11445SOL     OW45013   4.729   8.114   1.904  0.2431  0.4444  0.9296
11445SOL    HW145014   4.708   8.120   1.806 -1.6810  1.2320  1.3787
11445SOL    HW245015   4.821   8.075   1.915 -0.2468 -1.4449 -1.1473
11446SOL     OW45016   6.740   0.132   0.167 -0.1376 -0.1119 -0.5192
11446SOL    HW145017   6.771   0.227   0.167 -0.4187 -0.0183 -0.4022
11446SOL    HW245018   6.751   0.094   0.259  0.4481 -0.3474 -0.6916
11447SOL     OW45019   0.986   9.001   1.272 -0.3816 -0.1394 -0.0782
11447SOL    HW145020   0.958   9.092   1.301 -0.0128  0.0223 -0.2221
11447SOL    HW245021   1.060   9.009   1.205  0.3550 -0.5738  0.6837
11448SOL     OW45022   3.323   0.611   2.797 -0.1541 -0.4116 -0.3401
11448SOL    HW145023   3.271   0.695   2.810  0.6728  0.0863 -0.2362
11448SOL    HW245024   3.299   0.570   2.709  2.3372  2.0202 -2.2159
11449SOL     OW45025   0.527   6.753   3.200  0.4065 -0.6313  0.4241
11449SOL    HW145026   0.554   6.809   3.278 -1.6793  0.0520  0.6806
11449SOL    HW245027   0.458   6.687   3.229 -0.6432 -0.1389 -0.9173
11450SOL     OW45028   0.797   5.970   0.910 -0.2562 -0.0497  0.2311
11450SOL    HW145029   0.827   6.040   0.846  0.3237  1.8690  2.5055
11450SOL    HW245030   0.816   5.879   0.872  2.0725  1.0494 -1.3515
11451SOL     OW45031   9.382   7.581   1.191 -0.2699  0.1140 -0.4043
11451SOL    HW145032   9.419   7.628   1.271  0.6445  0.4394 -1.0191
11451SOL    HW245033   9.302   7.527   1.219  0.5069 -0.4158  0.8787
11452SOL     OW45034   7.858   7.185   4.059  0.3052  0.1570 -0.2315
11452SOL    HW145035   7.863   7.089   4.031 -0.6471 -0.3794  1.3752
11452SOL    HW245036   7.950   7.221   4.072  0.6468 -1.3319  1.7031
11453SOL     OW45037   0.383   9.937   2.631 -0.4528  0.0110 -0.5249
11453SOL    HW145038   0.439  10.019   2.617 -0.4369 -0.1986 -1.7441
11453SOL    HW245039   0.443   9.860   2.655 -0.1193 -0.4092 -2.6644
11454SOL     OW45040   9.516   3.658   3.146 -0.0746 -0.3431 -0.1089
11454SOL    HW145041   9.548   3.745   3.108 -0.3187 -0.7896 -1.3632
11454SOL    HW245042   9.593   3.598   3.163  0.0504 -0.0810  0.2441
11455SOL     OW45043   0.736   2.178   4.176 -0.5797 -0.0488  0.0131
11455SOL    HW145044   0.638   2.169   4.197 -0.8533  1.1589 -0.6978
11455SOL    HW245045   0.747   2.232   4.093  0.7500  1.0257  0.8783
11456SOL     OW45046   2.768   7.460   1.389  0.3658  0.1338  0.2546
11456SOL    HW145047   2.757   7.530   1.460  2.0849 -0.8397  1.5347
11456SOL    HW245048   2.679   7.423   1.364 -0.4175  1.7275  0.6484
11457SOL     OW45049   8.081   9.758   0.067  0.3250 -0.1567 -0.4964
11457SOL    HW145050   8.127   9.818   0.001 -0.8139  0.4949 -0.7066
11457SOL    HW245051   8.100   9.791   0.160  2.0266 -1.1417 -0.4694
11458SOL     OW45052   9.233   6.303   0.084  0.8359 -0.2984  1.1330
11458SOL    HW145053   9.318   6.254   0.100  2.0683  1.3273 -0.2390
11458SOL    HW245054   9.247   6.371   0.012 -1.9859 -0.9515 -0.1147
11459SOL     OW45055   4.053   2.496   0.268  0.5022 -0.6977 -0.0135
11459SOL    HW145056   4.084   2.506   0.363 -1.8173  0.4668  0.6549
11459SOL    HW245057   4.109   2.427   0.222  2.2166 -0.6733  1.9418
11460SOL     OW45058   9.772   6.866   0.322  0.2239  0.2732 -0.0190
11460SOL    HW145059   9.789   6.940   0.256  1.8422  0.0133  0.0844
11460SOL    HW245060   9.692   6.813   0.293  0.4548  0.6387 -1.3443
11461SOL     OW45061   3.936   2.454   2.464 -0.1442  0.1402  0.1657
11461SOL    HW145062   3.921   2.403   2.379  1.3369  1.0095 -0.6428
11461SOL    HW245063   3.966   2.547   2.442 -2.0933  1.1607  1.6317
11462SOL     OW45064   0.412   6.805   4.159 -0.2422 -0.1573  0.5989
11462SOL    HW145065   0.394   6.708   4.173  0.5408 -0.3773  0.1004
11462SOL    HW245066   0.473   6.838   4.230  2.9085 -1.0377 -1.5850
11463SOL     OW45067   2.196   0.515   4.761 -0.0298  0.0725 -0.1806
11463SOL    HW145068   2.288   0.481   4.744 -0.9010 -2.0567 -0.8105
11463SOL    HW245069   2.152   0.458   4.831 -1.2358  0.4041 -0.6569
11464SOL     OW45070   9.649   6.882   2.500 -0.0973  0.4939 -0.0779
11464SOL    HW145071   9.608   6.903   2.412  0.6950  0.0335 -0.5608
11464SOL    HW245072   9.716   6.809   2.490  0.0985  0.5227  0.8815
11465SOL     OW45073   9.268   6.293   1.064  0.1640  0.4955  0.3768
11465SOL    HW145074   9.223   6.219   1.014 -1.5377  1.0735  0.9986
11465SOL    HW245075   9.367   6.281   1.060 -0.0043 -0.4918 -1.5504
11466SOL     OW45076   1.150   9.685   3.570  0.9678 -0.8070  0.3042
11466SOL    HW145077   1.058   9.678   3.531  0.9861  1.8501 -0.2807
11466SOL    HW245078   1.216   9.646   3.506  0.6286  0.4768 -0.8534
11467SOL     OW45079   0.290   0.550   3.352 -0.3200  0.1394 -0.3603
11467SOL    HW145080   0.252   0.630   3.399  1.2039  0.4969  0.3053
11467SOL    HW245081   0.228   0.473   3.362 -2.1883  1.4317 -1.6568
11468SOL     OW45082   2.802   5.595   0.569  0.2330 -0.4561  0.1362
11468SOL    HW145083   2.757   5.660   0.508  1.7022  1.1777  0.7250
11468SOL    HW245084   2.896   5.580   0.538  0.3445 -1.2271  0.8156
11469SOL     OW45085   3.577   2.437   3.036  0.4426  0.5540 -0.2997
11469SOL    HW145086   3.552   2.385   2.955  0.6386  1.0166 -0.6551
11469SOL    HW245087   3.675   2.459   3.033  0.6501 -0.2045  0.4947
11470SOL     OW45088   0.817   0.948   0.705 -0.5531 -0.5696  0.1185
11470SOL    HW145089   0.843   0.915   0.614  0.5809  1.2658 -0.2396
11470SOL    HW245090   0.731   0.999   0.699  1.4501  2.8228 -0.6198
11471SOL     OW45091   1.598   5.305   4.087  0.4266  0.0020  0.3782
11471SOL    HW145092   1.661   5.269   4.155 -0.6786 -1.4556  0.6528
11471SOL    HW245093   1.648   5.322   4.002  1.4497  0.1250  0.9960
11472SOL     OW45094   2.568   4.328   1.983 -0.1511 -0.6229 -0.0365
11472SOL    HW145095   2.637   4.303   2.051  0.7723  0.8612 -0.3924
11472SOL    HW245096   2.561   4.255   1.914  1.2957 -0.6556 -0.1639
11473SOL     OW45097   0.701   3.173   0.898 -0.3638 -0.1781 -0.0468
11473SOL    HW145098   0.796   3.150   0.880 -0.1467 -0.9973  2.0153
11473SOL    HW245099   0.641   3.104   0.857  0.0641 -1.2966  1.1712
11474SOL     OW45100   9.291   6.569   2.637 -0.3098 -0.8247 -0.4248
11474SOL    HW145101   9.278   6.490   2.576 -0.3381 -0.9828 -0.2172
11474SOL    HW245102   9.364   6.548   2.703  1.3208  0.2361 -1.8818
11475SOL     OW45103   3.188   1.488   3.175  0.2138  0.1750  0.0106
11475SOL    HW145104   3.282   1.488   3.208  0.0698  1.8175  0.4499
11475SOL    HW245105   3.156   1.582   3.163 -1.5088 -0.3540  0.2710
11476SOL     OW45106   9.796   5.225   1.056 -0.0589  0.3051 -0.1739
11476SOL    HW145107   9.763   5.245   0.964 -1.2173  2.3860  0.6625
11476SOL    HW245108   9.758   5.138   1.087  1.2788 -1.0002 -2.0888
11477SOL     OW45109   9.288   0.585   3.764 -0.2837  0.3690 -0.6564
11477SOL    HW145110   9.216   0.602   3.831  0.5538  1.2103  0.0530
11477SOL    HW245111   9.251   0.596   3.672 -1.5896 -1.3532 -0.3649
11478SOL     OW45112   1.170   1.546   0.966  0.0541  0.1736 -0.2951
11478SOL    HW145113   1.250   1.534   1.025 -0.7643 -1.9856  0.4257
11478SOL    HW245114   1.097   1.591   1.018  0.8756  2.5234 -1.0713
11479SOL     OW45115   6.364   9.891   0.713 -0.2724 -0.0423 -0.3303
11479SOL    HW145116   6.419   9.875   0.795 -0.3571 -0.0384 -0.2727
11479SOL    HW245117   6.295   9.961   0.732 -0.4369 -0.2013 -0.3399
11480SOL     OW45118   9.314   6.334   3.321 -0.1663 -0.3478 -0.4088
11480SOL    HW145119   9.394   6.280   3.296 -0.5729 -0.7916 -0.7848
11480SOL    HW245120   9.231   6.280   3.304 -0.5762  0.3766 -0.7266
11481SOL     OW45121   9.203   8.875   0.504 -0.7414  0.0658  0.2603
11481SOL    HW145122   9.222   8.973   0.494  3.1146 -0.5633  0.8259
11481SOL    HW245123   9.230   8.845   0.596 -1.0049 -1.7260 -0.2379
11482SOL     OW45124   4.321   1.575   4.708 -0.5378  0.0237 -0.1400
11482SOL    HW145125   4.334   1.540   4.615 -1.5493  0.7750 -0.5823
11482SOL    HW245126   4.410   1.594   4.749 -0.0522 -1.0858 -0.6476
11483SOL     OW45127   8.563   3.439   3.458  0.0684 -0.6647  0.0930
11483SOL    HW145128   8.498   3.372   3.494 -0.5577 -0.1336 -0.0558
11483SOL    HW245129   8.518   3.498   3.392 -0.0874  1.6820  2.2256
11484SOL     OW45130   9.190   5.565   2.425 -0.1611  0.5956  0.1827
11484SOL    HW145131   9.138   5.563   2.510  0.5627  1.4243  0.6520
11484SOL    HW245132   9.128   5.560   2.347 -0.9421  1.4915  0.7402
11485SOL     OW45133   8.148   4.485   4.669  0.0546  0.0689 -0.0951
11485SOL    HW145134   8.098   4.519   4.590  1.3746  0.0136 -0.9739
11485SOL    HW245135   8.152   4.556   4.739 -0.4329  0.3967 -0.3963
11486SOL     OW45136   9.202   4.723   3.488 -0.3678 -0.0241  0.3473
11486SOL    HW145137   9.125   4.718   3.551 -0.2239  1.9710  0.6864
11486SOL    HW245138   9.168   4.730   3.394 -0.6104  1.5555  0.5491
11487SOL     OW45139   7.165   0.263   4.167  0.3248 -0.9989  0.5371
11487SOL    HW145140   7.122   0.304   4.087  2.0700  1.0008  0.5614
11487SOL    HW245141   7.231   0.194   4.138  0.2883 -0.9312  0.2909
11488SOL     OW45142   8.770   3.289   1.279  0.2475 -0.7644 -0.0452
11488SOL    HW145143   8.705   3.356   1.314  0.7885 -0.3382  0.1482
11488SOL    HW245144   8.721   3.206   1.253 -0.3319 -0.5799  0.4382
11489SOL     OW45145   1.884   3.030   2.168 -0.1339  0.2937  0.3215
11489SOL    HW145146   1.927   3.102   2.221  1.6795  0.3887 -1.2216
11489SOL    HW245147   1.836   2.967   2.230  0.1019  1.5941  1.8556
11490SOL     OW45148   0.444   3.987   3.325  0.0752  0.1608 -0.5327
11490SOL    HW145149   0.417   4.065   3.382 -1.4875 -0.0891 -0.9218
11490SOL    HW245150   0.406   3.903   3.363 -1.0023 -0.0073 -1.9346
11491SOL     OW45151   4.544   9.360   1.210 -0.1045 -0.4005 -0.4890
11491SOL    HW145152   4.505   9.447   1.179 -0.9856 -1.2444 -1.7522
11491SOL    HW245153   4.606   9.378   1.287  0.3462  1.4453 -1.2489
11492SOL     OW45154   9.573   0.493   2.450 -0.1320 -0.5807 -0.0008
11492SOL    HW145155   9.520   0.504   2.366 -0.4900 -1.6958  0.0611
11492SOL    HW245156   9.558   0.401   2.486  1.8136 -0.8814  0.0561
11493SOL     OW45157   3.801   1.880   2.175 -0.0458 -0.4164  0.3596
11493SOL    HW145158   3.867   1.847   2.242  1.2005  0.8819 -0.2162
11493SOL    HW245159   3.766   1.803   2.122 -2.5433 -1.7799  3.7771
11494SOL     OW45160   4.202   7.731   2.169 -1.0942  0.2291 -0.3318
11494SOL    HW145161   4.167   7.813   2.124 -1.2578  0.3415  0.0041
11494SOL    HW245162   4.131   7.691   2.226 -0.7424  0.3451  0.1930
11495SOL     OW45163   0.399   1.506   3.397  0.0434  0.3678 -0.7679
11495SOL    HW145164   0.416   1.415   3.359  1.1063  1.2811 -2.5206
11495SOL    HW245165   0.460   1.572   3.354 -2.0318  2.2575 -0.8915
11496SOL     OW45166   7.245   8.339   2.071  0.1489 -0.2507  0.8590
11496SOL    HW145167   7.151   8.352   2.040  0.6765 -1.3405 -1.3177
11496SOL    HW245168   7.248   8.343   2.171 -2.0590  0.6557  0.9181
11497SOL     OW45169   8.339   9.271   2.174  0.0810  0.1672 -0.4388
11497SOL    HW145170   8.382   9.356   2.143 -0.4729  0.7681  0.4292
11497SOL    HW245171   8.248   9.264   2.134 -0.4036  0.6534  0.5756
11498SOL     OW45172   4.645   3.133   2.220  0.0064 -0.2422  0.7461
11498SOL    HW145173   4.656   3.126   2.121  1.1448 -2.2275  0.9995
11498SOL    HW245174   4.583   3.209   2.241 -0.1744  0.2544 -1.4686
11499SOL     OW45175   4.175   2.523   2.182  0.0685  0.4208 -0.4203
11499SOL    HW145176   4.188   2.432   2.223  1.7709  0.8458  0.0341
11499SOL    HW245177   4.120   2.579   2.244  1.0421  0.4565  0.4310
11500SOL     OW45178   6.463   8.173   2.790  0.1932  0.2224  0.2074
11500SOL    HW145179   6.461   8.191   2.692 -1.3898  0.8573  0.3350
11500SOL    HW245180   6.538   8.225   2.832  0.7319  0.1212 -0.6273
11501SOL     OW45181   7.061   8.147   2.438  0.5189  0.2582 -0.1046
11501SOL    HW145182   7.122   8.092   2.494 -0.6063  0.0746  0.9467
11501SOL    HW245183   7.042   8.100   2.352  0.2118 -0.6008  0.4403
11502SOL     OW45184   0.271   9.251   2.188  0.1857 -0.2473 -0.5737
11502SOL    HW145185   0.184   9.242   2.236 -0.7398 -0.9236 -2.3215
11502SOL    HW245186   0.309   9.161   2.169  0.9103  0.0265 -0.4196
11503SOL     OW45187   9.297   3.730   2.176  0.4036  0.2587 -0.3257
11503SOL    HW145188   9.205   3.692   2.165  0.5297 -0.0456 -0.3125
11503SOL    HW245189   9.290   3.822   2.215  0.0803  0.4073 -0.7257
11504SOL     OW45190   1.935   7.658   4.627 -0.5964 -0.9094 -0.2469
11504SOL    HW145191   1.982   7.702   4.550 -0.6295 -1.3863 -0.5431
11504SOL    HW245192   1.850   7.706   4.646 -0.2821 -0.4052 -0.1002
11505SOL     OW45193   3.393   7.413   2.158  0.3124  0.7097  0.1141
11505SOL    HW145194   3.305   7.417   2.205 -0.9614  0.7204 -2.1960
11505SOL    HW245195   3.409   7.320   2.125 -0.3391  1.4056 -2.2235
11506SOL     OW45196   1.667   3.540   3.162 -0.0065  0.3407 -0.4612
11506SOL    HW145197   1.716   3.530   3.076 -0.2588  1.8571 -0.7929
11506SOL    HW245198   1.691   3.627   3.205 -0.2694 -0.1654  0.7575
11507SOL     OW45199   2.898   0.305   0.151  0.5518  0.3192  0.0376
11507SOL    HW145200   2.970   0.375   0.149 -0.7904  1.7158 -0.2791
11507SOL    HW245201   2.834   0.326   0.225  1.5204 -2.0114  1.6006
11508SOL     OW45202   7.890   1.588   3.156  0.2183  0.3138 -0.3054
11508SOL    HW145203   7.975   1.640   3.164  0.2347  0.2923 -0.3344
11508SOL    HW245204   7.813   1.645   3.182  0.4257 -0.3059  1.7841
11509SOL     OW45205   9.795   9.313   0.184 -0.1394  0.2647  0.4762
11509SOL    HW145206   9.752   9.226   0.160 -0.6461  0.0509  2.0768
11509SOL    HW245207   9.812   9.315   0.282  2.4783  0.8185  0.0420
11510SOL     OW45208   7.915   0.739   0.738 -0.0451 -0.0683 -0.1684
11510SOL    HW145209   7.999   0.687   0.754  0.6062  0.4096 -1.8995
11510SOL    HW245210   7.843   0.707   0.800  1.0691 -1.3042  0.5020
11511SOL     OW45211   4.105   9.777   0.384 -0.2043  0.3035  0.0851
11511SOL    HW145212   4.067   9.857   0.431 -0.9207  0.2862 -0.4436
11511SOL    HW245213   4.178   9.737   0.439  0.1507  1.3108  0.3643
11512SOL     OW45214   3.633   1.974   3.037  0.7033 -0.1127  0.5413
11512SOL    HW145215   3.703   2.045   3.043  0.4185  0.1648  0.5576
11512SOL    HW245216   3.542   2.016   3.033  0.3853 -0.5455  2.9137
11513SOL     OW45217   0.512   0.241   3.037 -0.2391  0.2226 -0.6140
11513SOL    HW145218   0.536   0.166   2.976 -1.0175  0.2416 -0.9423
11513SOL    HW245219   0.594   0.271   3.087  0.3216 -0.0265 -1.3805
11514SOL     OW45220   0.963   5.550   3.501  0.1591  0.1970  0.2610
11514SOL    HW145221   0.914   5.477   3.548  1.0027 -0.5276  0.0276
11514SOL    HW245222   0.949   5.541   3.402  2.1322 -1.0520  0.0591
11515SOL     OW45223   8.220   9.407   4.672 -1.1861 -0.0851  0.0016
11515SOL    HW145224   8.201   9.422   4.575 -3.3250  0.4025  0.4662
11515SOL    HW245225   8.169   9.326   4.703  1.3864 -1.6809  0.1662
11516SOL     OW45226   0.034   4.354   3.419 -0.8570 -0.1022  0.2989
11516SOL    HW145227   0.093   4.345   3.339  0.2244 -0.3567  1.1064
11516SOL    HW245228   0.029   4.266   3.466 -1.8435 -0.0662  0.2717
11517SOL     OW45229   0.465   0.811   2.777 -0.6549 -0.3267 -0.0245
11517SOL    HW145230   0.449   0.845   2.870 -0.2743  0.7219 -0.3354
11517SOL    HW245231   0.399   0.738   2.756 -0.1325 -1.2425  1.4113
11518SOL     OW45232   6.771   7.809   3.145 -0.1519 -0.2471  0.0767
11518SOL    HW145233   6.744   7.771   3.056  0.4362  1.3955 -0.8263
11518SOL    HW245234   6.689   7.819   3.203 -0.5156 -1.4574 -0.2182
11519SOL     OW45235   9.222   9.616   3.902  0.4498 -0.0274 -0.2646
11519SOL    HW145236   9.315   9.609   3.866 -0.2354 -0.1146 -2.0448
11519SOL    HW245237   9.173   9.531   3.884 -0.7846  0.9611 -1.6380
11520SOL     OW45238   3.722   8.456   3.104  0.1244  0.1150  0.3166
11520SOL    HW145239   3.687   8.364   3.083  0.3347  0.4582 -1.6131
11520SOL    HW245240   3.645   8.518   3.120 -0.0241 -0.3335  1.3451
11521SOL     OW45241   9.524   8.090   2.867  0.5444 -0.0048  0.4738
11521SOL    HW145242   9.490   8.131   2.782  0.2628 -1.2069 -0.0063
11521SOL    HW245243   9.590   8.018   2.845  1.5826  0.6592  1.3306
11522SOL     OW45244   0.896   6.616   4.100  0.1836 -0.0240  0.5709
11522SOL    HW145245   0.872   6.691   4.162  1.5283  0.3355  0.6575
11522SOL    HW245246   0.976   6.568   4.135  0.8348  0.0506 -0.7830
11523SOL     OW45247   1.369   2.545   1.348 -0.3147 -0.4803 -0.3624
11523SOL    HW145248   1.414   2.514   1.264 -0.5285  1.5554 -1.2432
11523SOL    HW245249   1.395   2.639   1.367  0.5741 -1.2478  2.4666
11524SOL     OW45250   8.833   5.177   1.398  0.0893 -0.6465 -0.0513
11524SOL    HW145251   8.766   5.106   1.416 -1.8348  1.0260 -0.4769
11524SOL    HW245252   8.894   5.186   1.477 -0.7275 -1.6068  0.6959
11525SOL     OW45253   9.690   0.627   0.453 -0.0252  0.1721 -0.4064
11525SOL    HW145254   9.752   0.655   0.527 -0.9155  0.5363  0.2088
11525SOL    HW245255   9.690   0.696   0.381 -0.4895  0.6687  0.0641
11526SOL     OW45256   8.731   8.257   2.265  0.1203 -0.0308  0.0218
11526SOL    HW145257   8.781   8.304   2.192  2.3008  1.0184  2.1329
11526SOL    HW245258   8.777   8.171   2.287 -0.5105 -0.3293  0.1838
11527SOL     OW45259   2.072   1.804   4.336 -0.2892 -0.0836  0.2261
11527SOL    HW145260   2.066   1.711   4.371  0.1917  0.3674  1.5471
11527SOL    HW245261   2.149   1.852   4.379 -1.6172  1.4766  0.9401
11528SOL     OW45262   1.270   0.849   2.486 -0.5044  0.1569 -0.0465
11528SOL    HW145263   1.366   0.877   2.483 -0.3973 -0.3308 -2.2487
11528SOL    HW245264   1.264   0.749   2.492 -0.8316 -0.0365 -3.0258
11529SOL     OW45265   2.067   4.530   2.032  0.1548  0.2928 -0.4230
11529SOL    HW145266   2.018   4.546   2.117  0.8086  2.3286 -0.4111
11529SOL    HW245267   2.162   4.506   2.052  0.5814  1.8150 -0.5999
11530SOL     OW45268   7.115   3.662   0.187  0.0434 -0.4284  0.8702
11530SOL    HW145269   7.152   3.749   0.156 -1.2580  0.1776  1.0079
11530SOL    HW245270   7.181   3.616   0.246  0.9705  0.1803  0.3066
11531SOL     OW45271   1.464   0.774   1.799  0.1551  0.6832  0.3128
11531SOL    HW145272   1.520   0.788   1.717  2.6196  1.5007  2.0538
11531SOL    HW245273   1.368   0.787   1.776  0.6731 -0.3972 -2.7171
11532SOL     OW45274   2.048   1.599   1.551  0.4490 -0.1913  0.3462
11532SOL    HW145275   2.140   1.562   1.557  0.7079  0.5149  0.7714
11532SOL    HW245276   2.037   1.672   1.618  0.1981  1.0145 -0.9849
11533SOL     OW45277   2.592   5.499   4.751  0.3911  0.0111  0.4614
11533SOL    HW145278   2.584   5.521   4.849 -1.2180 -0.5344  0.4499
11533SOL    HW245279   2.503   5.472   4.715  1.2235 -0.9692 -0.8863
11534SOL     OW45280   9.591   6.502   1.289  0.4846  0.0935 -0.1781
11534SOL    HW145281   9.498   6.470   1.309  0.0967  1.6659  0.6610
11534SOL    HW245282   9.586   6.579   1.225  1.2454 -0.1056 -0.4814
11535SOL     OW45283   1.534   9.210   2.315  0.1070  0.0382  0.2622
11535SOL    HW145284   1.446   9.177   2.350  0.5849 -0.2922  1.1737
11535SOL    HW245285   1.521   9.297   2.268 -0.9212 -0.6628 -0.7818
11536SOL     OW45286   1.322   5.831   3.555  0.3671 -0.5841 -0.7413
11536SOL    HW145287   1.239   5.866   3.512 -0.3687 -0.5197  0.6803
11536SOL    HW245288   1.343   5.887   3.636  0.1018 -2.4282  0.6238
11537SOL     OW45289   0.845   4.028   1.521 -1.2479  0.4949  0.5359
11537SOL    HW145290   0.770   4.016   1.587 -1.1900 -0.1806  0.4838
11537SOL    HW245291   0.931   4.000   1.563 -0.8515  2.3333  0.9667
11538SOL     OW45292   2.804   7.195   0.626  0.5045 -0.3587  0.2268
11538SOL    HW145293   2.839   7.103   0.645 -0.4588 -0.9314 -0.7270
11538SOL    HW245294   2.826   7.255   0.703 -0.3673 -1.8119  1.6614
11539SOL     OW45295   9.254   4.283   4.509 -0.7971  0.0275  0.0676
11539SOL    HW145296   9.226   4.280   4.413  0.0260 -0.5394 -0.1609
11539SOL    HW245297   9.350   4.310   4.515 -0.6892 -0.4687  0.6974
11540SOL     OW45298   8.106   8.346   0.574 -0.4924 -0.2057  0.4196
11540SOL    HW145299   8.112   8.426   0.634 -2.8284  0.7641 -0.5793
11540SOL    HW245300   8.024   8.293   0.597  0.2698 -1.5235  0.1221
11541SOL     OW45301   0.269   6.180   1.120 -0.4161 -0.2883  0.2406
11541SOL    HW145302   0.343   6.125   1.081  0.1104  2.0920 -2.2722
11541SOL    HW245303   0.182   6.134   1.105  0.0903 -0.8393 -1.0436
11542SOL     OW45304   1.299   4.999   1.153 -0.1359 -0.3851 -0.4529
11542SOL    HW145305   1.391   4.966   1.173 -0.1102 -0.4437 -0.6747
11542SOL    HW245306   1.240   4.921   1.129  0.0502 -0.2098 -1.4728
11543SOL     OW45307   8.496   8.064   0.115 -0.0706 -0.5256  0.8549
11543SOL    HW145308   8.595   8.048   0.120 -0.0634 -0.8983 -0.2662
11543SOL    HW245309   8.469   8.130   0.184  1.2201  0.7812  0.1432
11544SOL     OW45310   0.865   5.373   1.975 -0.4660 -0.2967 -0.5946
11544SOL    HW145311   0.773   5.336   1.986 -1.1047  0.8354 -2.0101
11544SOL    HW245312   0.866   5.439   1.901  1.0755  1.1357  0.6546
11545SOL     OW45313   9.740   7.848   4.580 -0.1130 -0.4959 -0.2034
11545SOL    HW145314   9.774   7.758   4.554 -1.4695 -0.9152 -0.5578
11545SOL    HW245315   9.761   7.865   4.677  0.0940 -1.2138 -0.1183
11546SOL     OW45316   6.534   9.951   3.272  0.4386  0.1955 -0.1755
11546SOL    HW145317   6.607   9.884   3.259 -1.6895 -1.9262 -1.7933
11546SOL    HW245318   6.492   9.939   3.362 -0.2162 -0.9606 -0.6285
11547SOL     OW45319   1.954   4.258   1.818  0.8002 -0.0448  0.3691
11547SOL    HW145320   1.947   4.158   1.827  0.1458 -0.0495 -0.1339
11547SOL    HW245321   2.009   4.281   1.738  1.5829  0.0041  0.9108
11548SOL     OW45322   8.447   0.191   3.332  0.1597  1.1924 -0.1232
11548SOL    HW145323   8.481   0.139   3.410  1.0230  1.7983 -0.0929
11548SOL    HW245324   8.353   0.220   3.349 -0.8880 -1.6528 -0.7742
11549SOL     OW45325   9.989   0.788   2.138  0.0137  0.1869 -0.0321
11549SOL    HW145326   9.946   0.813   2.051  2.1645 -1.0772 -1.5026
11549SOL    HW245327  10.003   0.689   2.140 -0.3999  0.1576  1.9559
11550SOL     OW45328   4.463   9.659   0.516  0.3338  0.0340  0.3651
11550SOL    HW145329   4.381   9.617   0.556  1.6606 -1.9637  1.0770
11550SOL    HW245330   4.438   9.710   0.434 -1.3594 -2.1544 -0.5347
11551SOL     OW45331   2.800   0.688   0.104 -0.1579  0.0129 -0.5756
11551SOL    HW145332   2.875   0.716   0.043  0.3692 -3.5974 -1.7486
11551SOL    HW245333   2.816   0.724   0.196  2.9319 -0.5119 -0.8543
11552SOL     OW45334   5.173   8.012   2.264  0.2425 -0.7273  0.2382
11552SOL    HW145335   5.084   7.966   2.274  0.0284 -0.4645 -0.4471
11552SOL    HW245336   5.165   8.085   2.197  0.8181 -0.2754  0.6590
11553SOL     OW45337   8.442   7.711   4.591 -0.2178 -0.2455 -0.1981
11553SOL    HW145338   8.416   7.790   4.534 -2.1188 -1.3582 -0.9161
11553SOL    HW245339   8.374   7.638   4.579  1.2672 -1.8117  0.8299
11554SOL     OW45340   7.806   3.372   4.747 -0.5972 -0.2645 -0.4877
11554SOL    HW145341   7.850   3.433   4.680 -1.3587  0.6061 -0.2080
11554SOL    HW245342   7.834   3.399   4.839 -0.1918 -0.9483 -0.4103
11555SOL     OW45343   9.954   5.955   1.403  0.2639 -0.7589  0.3845
11555SOL    HW145344  10.023   6.024   1.427  0.4400 -1.1627  1.0677
11555SOL    HW245345   9.869   6.001   1.380  0.7859 -0.2494 -0.5599
11556SOL     OW45346   4.367   9.770   4.320 -0.2707  0.2020  0.1466
11556SOL    HW145347   4.273   9.741   4.336  0.3443 -0.8907  1.9370
11556SOL    HW245348   4.381   9.785   4.222 -1.4158 -2.6833 -0.5099
11557SOL     OW45349   0.125   1.880   3.969 -0.5029  0.0080  0.4932
11557SOL    HW145350   0.100   1.969   4.007 -0.2761  0.9667 -1.5881
11557SOL    HW245351   0.218   1.857   3.998  0.3332  1.5484 -0.8846
11558SOL     OW45352   8.343   6.158   1.359 -0.2757 -0.4876 -0.0885
11558SOL    HW145353   8.417   6.205   1.311 -0.0299  0.2343  0.9688
11558SOL    HW245354   8.260   6.162   1.304  0.0572  0.1255 -0.5553
11559SOL     OW45355   5.733   0.837   3.155  0.9429  0.0666  0.4191
11559SOL    HW145356   5.711   0.790   3.241  2.6527  1.5678  1.7312
11559SOL    HW245357   5.675   0.918   3.145 -0.6329 -1.2100 -0.8476
11560SOL     OW45358   1.387   8.805   1.954  0.0236 -0.0916  0.0957
11560SOL    HW145359   1.408   8.877   2.019  0.0353 -0.1712  0.1809
11560SOL    HW245360   1.462   8.738   1.953  0.0629 -0.0447 -0.0624
11561SOL     OW45361   3.750   5.600   3.125 -0.4853  0.0821  0.3648
11561SOL    HW145362   3.792   5.637   3.041 -0.0460 -1.7884 -0.2630
11561SOL    HW245363   3.746   5.501   3.119  0.2631 -0.1388  2.9036
11562SOL     OW45364   3.631   1.267   3.218 -0.1125 -0.3995  0.4492
11562SOL    HW145365   3.700   1.339   3.209  0.3031 -1.0673 -1.9337
11562SOL    HW245366   3.676   1.178   3.224 -0.7607 -0.8596 -1.3581
11563SOL     OW45367   3.335   7.146   2.636  0.2852 -0.3838 -0.1677
11563SOL    HW145368   3.353   7.121   2.732 -0.8806 -0.5824  0.0075
11563SOL    HW245369   3.264   7.216   2.633  1.1083  0.4278 -0.8436
11564SOL     OW45370   3.592   7.740   3.055 -0.6424  0.1177  0.0573
11564SOL    HW145371   3.534   7.664   3.083 -0.2960  0.7964  2.7481
11564SOL    HW245372   3.686   7.708   3.044 -0.2029  0.3590  2.6180
11565SOL     OW45373   2.652   2.351   2.288 -0.0070 -0.4081 -0.1529
11565SOL    HW145374   2.588   2.413   2.334  0.3772 -0.5540  0.5845
11565SOL    HW245375   2.601   2.288   2.229 -0.4197  0.4264 -0.6950
11566SOL     OW45376   2.440   1.822   4.151 -0.2109  0.1573 -0.1760
11566SOL    HW145377   2.396   1.878   4.221 -1.8684  0.1706 -1.1996
11566SOL    HW245378   2.370   1.774   4.098  0.8156  2.2687 -3.5882
11567SOL     OW45379   9.977   8.791   2.964  0.3604  0.3350  0.4281
11567SOL    HW145380  10.073   8.767   2.973  0.8664  0.9449 -2.6673
11567SOL    HW245381   9.953   8.796   2.867 -2.1073  2.8631  1.0961
11568SOL     OW45382   5.123   3.233   0.955  0.4449  0.1684 -0.9918
11568SOL    HW145383   5.131   3.246   1.054  1.4618 -0.2106 -1.0225
11568SOL    HW245384   5.195   3.172   0.923  0.1847  0.3724 -1.9889
11569SOL     OW45385   1.007   3.506   4.246  0.0092 -0.0370  0.2339
11569SOL    HW145386   0.928   3.457   4.208  0.3333 -1.1563  0.9821
11569SOL    HW245387   1.019   3.592   4.197 -0.8840 -0.4639 -0.7582
11570SOL     OW45388   0.952   8.659   0.909 -0.4225  0.2763 -0.6538
11570SOL    HW145389   1.045   8.676   0.875 -0.7166 -0.5351 -1.8857
11570SOL    HW245390   0.920   8.570   0.877 -0.5447 -0.7242  2.1756
11571SOL     OW45391   3.564   2.391   4.120  0.1732  0.2054 -0.2000
11571SOL    HW145392   3.520   2.407   4.032  1.1028  0.6232 -0.5934
11571SOL    HW245393   3.604   2.299   4.121 -0.1364  0.0712 -0.0829
11572SOL     OW45394   3.161   2.831   3.662  0.1205 -0.3950  0.0908
11572SOL    HW145395   3.143   2.850   3.566  1.8389  0.1805 -0.1295
11572SOL    HW245396   3.215   2.905   3.701 -1.0680 -0.3193  1.6729
11573SOL     OW45397   8.800   6.106   4.670 -0.7009  0.1190 -0.4784
11573SOL    HW145398   8.884   6.094   4.722 -1.1698 -0.2534  0.2064
11573SOL    HW245399   8.738   6.167   4.719 -2.0269 -1.9369  0.4977
11574SOL     OW45400   7.410   9.649   1.167 -0.3536  0.0583  0.2586
11574SOL    HW145401   7.337   9.700   1.120  0.9318  0.1161 -1.7551
11574SOL    HW245402   7.402   9.552   1.145 -1.5957 -0.3756  2.4757
11575SOL     OW45403   2.600   3.845   0.067 -0.2481  0.3316 -0.1257
11575SOL    HW145404   2.623   3.886  -0.022  0.9146  2.1284  0.9637
11575SOL    HW245405   2.504   3.860   0.087 -0.3871  0.4207 -0.8457
11576SOL     OW45406   0.073   0.281   0.364  0.4780  0.1220  0.7485
11576SOL    HW145407   0.059   0.192   0.408  1.8464 -0.3683  0.2117
11576SOL    HW245408   0.118   0.343   0.429  1.3594 -0.2146  0.4718
11577SOL     OW45409   1.306   4.386   3.196 -0.4817  0.4321 -0.1659
11577SOL    HW145410   1.291   4.472   3.244  1.8624  0.9527 -0.2982
11577SOL    HW245411   1.307   4.311   3.262 -0.6079  0.7459  0.1927
11578SOL     OW45412   2.292   1.459   4.643  0.1771 -0.2842  0.6200
11578SOL    HW145413   2.387   1.487   4.654  1.2319 -2.8150 -1.5295
11578SOL    HW245414   2.248   1.517   4.574  0.5546  0.0061  0.6192
11579SOL     OW45415   1.691   0.240   4.460 -0.5012 -0.4517  0.4018
11579SOL    HW145416   1.628   0.260   4.385 -0.1350  0.7441  0.3947
11579SOL    HW245417   1.760   0.313   4.465  1.1330 -1.9568  0.1379
11580SOL     OW45418   1.190   4.322   1.414 -0.0481  0.1779 -0.3249
11580SOL    HW145419   1.265   4.256   1.420 -0.4888 -0.2243  1.3752
11580SOL    HW245420   1.226   4.414   1.408  0.5989  0.0037  0.7429
11581SOL     OW45421   9.134   6.946   3.424  0.5576  0.6461  0.6162
11581SOL    HW145422   9.176   7.007   3.357 -1.2761  0.6027 -0.6181
11581SOL    HW245423   9.192   6.940   3.505  3.0888  0.3052 -1.1531
11582SOL     OW45424   9.270   4.368   1.350 -0.0014  0.1549  0.1391
11582SOL    HW145425   9.184   4.372   1.399  0.2424  1.7462  0.4639
11582SOL    HW245426   9.346   4.368   1.415  0.2519 -0.6676 -0.1575
11583SOL     OW45427   2.698   3.753   3.933 -0.2801 -0.5111  0.2501
11583SOL    HW145428   2.699   3.688   3.857 -0.7888 -0.5240  0.2541
11583SOL    HW245429   2.622   3.816   3.922  0.9095  0.8310 -0.3789
11584SOL     OW45430   3.182   7.616   1.821  0.1564 -0.1570 -0.3226
11584SOL    HW145431   3.170   7.532   1.767  2.9015 -2.0697  1.9218
11584SOL    HW245432   3.171   7.696   1.761 -2.5781 -2.0694 -2.4944
11585SOL     OW45433   0.368   2.042   1.939 -0.0897 -0.3980  0.4470
11585SOL    HW145434   0.313   2.024   1.858  0.0858 -0.1783  0.2785
11585SOL    HW245435   0.457   1.998   1.930 -0.6349 -1.6889  1.2053
11586SOL     OW45436   0.071   1.276   4.740 -0.1811  0.0075  0.2185
11586SOL    HW145437   0.068   1.191   4.792 -0.1981  0.0133  0.2273
11586SOL    HW245438   0.015   1.345   4.787  0.2668  0.1832  0.4993
11587SOL     OW45439   8.567   7.416   4.101  0.2555 -0.0618 -0.4747
11587SOL    HW145440   8.601   7.454   4.016  1.7424 -0.5242 -0.1143
11587SOL    HW245441   8.639   7.360   4.144 -1.3718 -2.1120 -0.3032
11588SOL     OW45442   0.801   1.474   4.623 -0.1554  0.0702  0.2009
11588SOL    HW145443   0.751   1.483   4.537  2.1102  0.3653 -1.1255
11588SOL    HW245444   0.787   1.555   4.680 -0.5668  0.4871 -0.4985
11589SOL     OW45445   0.970   5.519   2.202 -0.5420  0.2200 -0.2218
11589SOL    HW145446   1.060   5.539   2.163 -0.6017  0.2030 -0.3673
11589SOL    HW245447   0.919   5.459   2.141 -0.5325 -0.0227  0.0114
11590SOL     OW45448   9.675   9.528   1.607 -0.2824 -0.6112 -0.0320
11590SOL    HW145449   9.653   9.621   1.578  0.9269 -0.9222 -2.0750
11590SOL    HW245450   9.600   9.491   1.661 -2.2339  0.3948 -1.9843
11591SOL     OW45451   1.705   3.641   0.535 -0.4507 -0.3562 -0.4990
11591SOL    HW145452   1.721   3.552   0.493 -0.0183 -0.1235 -0.8389
11591SOL    HW245453   1.783   3.666   0.592 -0.9812 -0.6094  0.3429
11592SOL     OW45454   8.064   1.872   4.558  0.0001  0.0653  0.2434
11592SOL    HW145455   8.020   1.783   4.568 -0.4036  0.2492  0.0958
11592SOL    HW245456   8.056   1.903   4.463  1.8411 -0.6345 -0.1740
11593SOL     OW45457   8.744   9.966   4.120 -0.0791 -0.4988 -0.0049
11593SOL    HW145458   8.684  10.042   4.093  1.1646  1.0743  1.5529
11593SOL    HW245459   8.824   9.964   4.061 -0.0297 -0.4695  0.0597
11594SOL     OW45460   2.000   2.714   2.634  0.3292  0.0006 -0.9849
11594SOL    HW145461   2.015   2.808   2.601  0.7451 -0.2075 -1.4044
11594SOL    HW245462   1.998   2.714   2.734  2.0090  0.2196 -0.9312
11595SOL     OW45463   7.580   8.255   1.231  0.8933 -0.0099  0.0168
11595SOL    HW145464   7.559   8.232   1.136  0.2442  0.6170  0.0037
11595SOL    HW245465   7.679   8.265   1.242  1.2595 -3.1478  0.1067
11596SOL     OW45466   3.553   9.308   1.170 -0.2271 -0.6465 -0.1786
11596SOL    HW145467   3.461   9.287   1.138 -0.1780  0.0932 -0.8205
11596SOL    HW245468   3.614   9.233   1.149 -0.5036 -0.7782 -0.5063
11597SOL     OW45469   1.976   1.772   1.951  0.1320  0.1825 -0.2647
11597SOL    HW145470   2.062   1.776   2.003 -0.3430  1.7545  0.4154
11597SOL    HW245471   1.991   1.811   1.860  0.2753 -0.0515 -0.3419
11598SOL     OW45472   0.157   5.059   3.410  0.8060  0.1472  0.2283
11598SOL    HW145473   0.195   5.149   3.389 -0.7815  0.8631  0.3906
11598SOL    HW245474   0.132   5.055   3.506  0.4227 -0.3045  0.1095
11599SOL     OW45475   1.667   9.108   0.928  0.2373 -0.2105 -0.0837
11599SOL    HW145476   1.701   9.105   0.834  1.7224 -1.6772  0.4755
11599SOL    HW245477   1.718   9.043   0.984 -1.5040 -0.2885  1.4635
11600SOL     OW45478   9.155   7.437   2.887 -0.4861  0.0052 -0.7181
11600SOL    HW145479   9.188   7.528   2.911  2.1115 -1.2510  0.6119
11600SOL    HW245480   9.155   7.426   2.788  2.2681  0.3356 -0.7673
11601SOL     OW45481   6.058   0.182   2.074  0.5919 -0.2686 -1.1303
11601SOL    HW145482   6.053   0.083   2.064  0.3345 -0.2596 -1.1038
11601SOL    HW245483   6.072   0.224   1.984  0.8770 -0.3397 -1.1184
11602SOL     OW45484   1.308   8.468   2.703  0.1484 -0.1337  0.4540
11602SOL    HW145485   1.362   8.394   2.743 -0.5649 -0.8101  0.1694
11602SOL    HW245486   1.291   8.448   2.607 -1.4429 -0.4038  0.7827
11603SOL     OW45487   7.874   5.585   2.917 -0.3758  0.4914 -0.3768
11603SOL    HW145488   7.835   5.665   2.872 -1.7090  0.3059  0.4401
11603SOL    HW245489   7.859   5.591   3.015  1.1240  0.1156 -0.1121
11604SOL     OW45490   2.709   3.177   2.631  0.5877 -0.0588  0.4545
11604SOL    HW145491   2.627   3.235   2.635 -0.5583 -1.5895 -0.4769
11604SOL    HW245492   2.789   3.232   2.655 -0.5850  1.6985  0.4685
11605SOL     OW45493   8.568   4.557   3.838 -0.0115 -0.8984 -0.1763
11605SOL    HW145494   8.547   4.507   3.922  0.4063 -1.0972 -0.1885
11605SOL    HW245495   8.633   4.504   3.783 -0.6937 -1.0279 -0.8802
11606SOL     OW45496   2.646   8.970   3.667  0.4118  0.2688 -0.3521
11606SOL    HW145497   2.600   8.892   3.625 -0.3490  0.6892 -0.3080
11606SOL    HW245498   2.732   8.939   3.710 -0.4246 -0.7516  0.6288
11607SOL     OW45499   1.754   6.263   1.755  0.1706 -0.3350 -0.0430
11607SOL    HW145500   1.711   6.224   1.674 -0.2740  0.5280 -0.2239
11607SOL    HW245501   1.784   6.356   1.736  0.6342 -0.3483  0.5923
11608SOL     OW45502   2.713   4.086   3.035 -0.0079  0.2363 -0.0525
11608SOL    HW145503   2.694   4.107   3.131 -0.3108 -1.0480  0.1787
11608SOL    HW245504   2.750   3.994   3.027 -0.0549  0.2989 -1.1793
11609SOL     OW45505   4.194   8.238   3.415 -0.2479 -0.1460  0.2272
11609SOL    HW145506   4.192   8.238   3.515 -2.2515 -0.5061  0.2108
11609SOL    HW245507   4.238   8.155   3.382 -0.2778 -0.3888  0.8052
11610SOL     OW45508   0.518   9.544   4.742  0.5148  0.1806  0.0076
11610SOL    HW145509   0.435   9.511   4.696  0.9659  1.3668 -1.7178
11610SOL    HW245510   0.501   9.551   4.840 -2.0595  2.1636 -0.5243
11611SOL     OW45511   8.418   4.049   3.024  0.3581  0.6702  0.5590
11611SOL    HW145512   8.473   4.044   2.940  1.2488 -0.2445  1.1852
11611SOL    HW245513   8.426   4.141   3.063  1.6429  0.4814  0.7676
11612SOL     OW45514   0.444   5.144   1.744  0.1275  1.1862  0.1587
11612SOL    HW145515   0.395   5.073   1.694  2.3598 -0.9607  0.9048
11612SOL    HW245516   0.403   5.154   1.835  0.1998  0.3778  0.2870
11613SOL     OW45517   2.796   6.757   2.818  0.0217 -0.4436 -0.5706
11613SOL    HW145518   2.861   6.762   2.743 -0.0427 -0.4300 -0.6259
11613SOL    HW245519   2.798   6.842   2.870  0.1778 -0.5132 -0.4644
11614SOL     OW45520   0.447   3.073   1.217  0.5856 -0.2213 -0.0540
11614SOL    HW145521   0.527   3.121   1.252  0.7233 -0.8504  0.5057
11614SOL    HW245522   0.371   3.085   1.280  1.1379 -2.2535  1.0425
11615SOL     OW45523   3.860   2.569   2.804  0.0397  0.4929 -0.6447
11615SOL    HW145524   3.793   2.526   2.744  0.1629  1.0881 -1.2204
11615SOL    HW245525   3.876   2.663   2.774  0.5313  0.6141 -0.0243
11616SOL     OW45526   3.444   9.099   1.795  0.2190  0.0993 -0.3236
11616SOL    HW145527   3.379   9.090   1.719  0.3310 -0.5538 -0.3502
11616SOL    HW245528   3.414   9.172   1.856  0.5014  1.0871 -1.3634
11617SOL     OW45529   1.178   4.420   4.351 -0.5225 -0.2104  0.1899
11617SOL    HW145530   1.159   4.517   4.333  0.3896  0.1600  1.1510
11617SOL    HW245531   1.132   4.392   4.435  0.2251 -0.2671  0.5860
11618SOL     OW45532   2.913   4.282   2.315  0.1821  0.8174  0.2106
11618SOL    HW145533   2.875   4.374   2.309 -0.6842  0.3625 -1.6687
11618SOL    HW245534   2.840   4.215   2.298  0.8407 -0.2119  1.3857
11619SOL     OW45535   3.012   1.327   1.797  0.0680  0.2597 -0.3598
11619SOL    HW145536   3.081   1.263   1.830 -1.1880 -0.1932  1.4409
11619SOL    HW245537   3.016   1.332   1.697  2.8345  0.4041 -0.2824
11620SOL     OW45538   2.998   2.019   3.882 -0.0255  0.2923  0.3621
11620SOL    HW145539   3.021   2.112   3.854  1.2722  0.0335  0.5434
11620SOL    HW245540   2.985   2.016   3.981 -0.9526  0.4513  0.2535
11621SOL     OW45541   1.673   4.810   1.041  0.2355  0.3284 -0.0279
11621SOL    HW145542   1.623   4.724   1.031 -1.1067  0.7042  3.0087
11621SOL    HW245543   1.631   4.880   0.983 -0.5559 -0.3048 -0.2273
11622SOL     OW45544   1.605   8.080   2.663  0.1815 -0.7003 -0.3656
11622SOL    HW145545   1.667   8.002   2.669 -0.0507 -0.9202 -0.7883
11622SOL    HW245546   1.620   8.128   2.577  0.8451  0.1670  0.2268
11623SOL     OW45547   9.652   2.343   4.211 -0.1206 -0.1175  0.6395
11623SOL    HW145548   9.692   2.435   4.214 -0.6732  0.2244 -1.5193
11623SOL    HW245549   9.569   2.341   4.266 -0.0929  0.6786  0.7130
11624SOL     OW45550   9.175   0.914   3.625  0.1580  0.3177  0.2839
11624SOL    HW145551   9.204   0.898   3.719 -0.8157  0.2026  0.5673
11624SOL    HW245552   9.256   0.923   3.567  0.7688 -1.1112  0.8703
11625SOL     OW45553   5.174   3.042   0.415  0.2285  0.5242 -0.1428
11625SOL    HW145554   5.086   3.089   0.411  0.0620  0.1728 -0.6898
11625SOL    HW245555   5.246   3.103   0.383  0.1999  0.8315  0.3584
11626SOL     OW45556   2.123   6.591   0.305  0.4250  0.2404  0.0870
11626SOL    HW145557   2.164   6.677   0.337  1.5613  0.2161 -1.2395
11626SOL    HW245558   2.195   6.523   0.292 -0.4902 -0.9892  1.3074
11627SOL     OW45559   9.444   0.027   1.950  0.4933 -0.6268  0.1091
11627SOL    HW145560   9.493   0.113   1.933 -0.3400 -0.0789  0.3991
11627SOL    HW245561   9.384   0.039   2.030  0.2442 -1.4221  0.0407
11628SOL     OW45562   2.562   6.967   2.172  0.7437 -0.6500  0.1972
11628SOL    HW145563   2.624   6.937   2.100  0.3453 -2.8068  0.7122
11628SOL    HW245564   2.568   6.904   2.250 -0.6318  0.2355  1.0443
11629SOL     OW45565   1.237   6.938   2.357 -0.4767  0.1595 -0.9231
11629SOL    HW145566   1.181   6.981   2.428  0.8948 -0.3034  0.4795
11629SOL    HW245567   1.267   7.008   2.292 -0.1759  0.9487  0.0350
11630SOL     OW45568   5.551   7.368   2.221 -0.3492  0.1645  0.2875
11630SOL    HW145569   5.503   7.283   2.241 -2.9598  1.1264 -1.6809
11630SOL    HW245570   5.582   7.367   2.126 -1.2647  1.8253 -0.0334
11631SOL     OW45571   2.122   6.368   2.521 -0.6604  0.0745 -0.3778
11631SOL    HW145572   2.219   6.356   2.501 -0.8454  0.1694 -1.3708
11631SOL    HW245573   2.099   6.318   2.605 -0.0715 -1.2258 -0.9714
11632SOL     OW45574   0.034   1.595   1.879 -0.2623 -0.3878 -0.3150
11632SOL    HW145575  -0.032   1.525   1.908 -0.1144 -0.6425 -0.5873
11632SOL    HW245576  -0.011   1.658   1.816 -0.8663  0.7632  1.2518
11633SOL     OW45577   3.721   1.972   3.535  0.0867  0.2058  0.1380
11633SOL    HW145578   3.713   1.873   3.546  0.8739  0.2130  0.8005
11633SOL    HW245579   3.812   1.995   3.501  0.2978  0.7903  1.0955
11634SOL     OW45580   2.354   2.613   3.847 -0.1978 -0.6327  0.0866
11634SOL    HW145581   2.278   2.550   3.860 -0.5969  0.0080  0.8959
11634SOL    HW245582   2.319   2.701   3.812  0.1099 -0.1715  0.9355
11635SOL     OW45583   7.178   8.745   3.061  0.3831  0.0008 -0.0347
11635SOL    HW145584   7.079   8.733   3.050  0.5782 -0.1310 -1.8327
11635SOL    HW245585   7.225   8.661   3.032  1.0416  0.2192  0.3928
11636SOL     OW45586   2.420   0.552   2.122  0.3590  0.5548 -0.4319
11636SOL    HW145587   2.446   0.631   2.065 -0.7770  1.2856  0.0457
11636SOL    HW245588   2.413   0.581   2.217 -0.6113  0.0050 -0.3278
11637SOL     OW45589   8.311   1.550   0.164  0.1122  0.3512 -0.2267
11637SOL    HW145590   8.351   1.629   0.210 -1.5771  0.5191  1.0361
11637SOL    HW245591   8.211   1.555   0.171 -0.0632 -1.1301 -1.4288
11638SOL     OW45592   1.212   0.231   2.263 -0.2701  0.7935 -0.2698
11638SOL    HW145593   1.234   0.204   2.170  0.7093  2.8783 -0.6641
11638SOL    HW245594   1.253   0.166   2.327 -2.6211 -1.8055 -1.2842
11639SOL     OW45595   1.375   5.614   3.951 -0.2769 -0.0821  0.3460
11639SOL    HW145596   1.312   5.679   3.993 -0.2824  0.9129 -1.1306
11639SOL    HW245597   1.355   5.522   3.983 -1.0900  0.4914  1.5232
11640SOL     OW45598   2.008   5.105   3.152  0.2288 -0.6062 -0.0203
11640SOL    HW145599   1.937   5.037   3.134  2.0163 -2.1199 -1.5856
11640SOL    HW245600   2.021   5.163   3.072 -0.0332  0.4414  0.6784
11641SOL     OW45601   9.629   5.738   0.832 -0.4691  0.4709  0.3847
11641SOL    HW145602   9.673   5.827   0.846 -1.0405  0.7963  0.1159
11641SOL    HW245603   9.538   5.752   0.793 -0.5393 -0.2360  0.2990
11642SOL     OW45604   2.644   7.983   1.745  0.2889 -0.7559  0.1033
11642SOL    HW145605   2.682   7.903   1.699 -1.5845 -1.8975  0.4874
11642SOL    HW245606   2.620   7.960   1.839  0.3891  0.4549  0.4344
11643SOL     OW45607   0.325   7.094   3.313  0.0726  0.2510 -0.2006
11643SOL    HW145608   0.414   7.129   3.342  0.1669 -0.2477  0.1114
11643SOL    HW245609   0.311   7.116   3.217  0.8053 -0.2232 -0.4173
11644SOL     OW45610   9.388   9.264   0.707  0.3430 -0.2700 -0.3266
11644SOL    HW145611   9.474   9.215   0.695 -0.0611 -1.0279 -0.1179
11644SOL    HW245612   9.407   9.362   0.717  1.0579 -0.2227 -2.0039
11645SOL     OW45613   8.893   1.451   1.166  0.0006 -0.3627 -0.4664
11645SOL    HW145614   8.959   1.392   1.215 -1.0019 -2.1432 -1.2171
11645SOL    HW245615   8.930   1.474   1.076  0.2531 -0.1150 -0.3000
11646SOL     OW45616   3.433   1.618   4.034  0.1253 -0.3825  0.2602
11646SOL    HW145617   3.369   1.672   4.089 -0.3376  0.8313 -1.4187
11646SOL    HW245618   3.385   1.541   3.993 -0.5221  1.0654 -1.7674
11647SOL     OW45619   1.069   7.939   1.111  0.3720 -0.2981  0.2783
11647SOL    HW145620   1.027   7.894   1.031 -1.1473  1.2313  0.1746
11647SOL    HW245621   1.045   7.889   1.194 -0.3488 -0.3347  0.0511
11648SOL     OW45622   3.247   2.358   0.580 -0.1845  0.3296 -0.3428
11648SOL    HW145623   3.286   2.352   0.673  1.6868  0.6802 -1.0723
11648SOL    HW245624   3.320   2.345   0.513 -1.6261 -0.4871 -1.7847
11649SOL     OW45625   2.111   0.337   0.187  0.2169 -0.2397 -0.5771
11649SOL    HW145626   2.065   0.285   0.259  2.3676  0.9380  1.7247
11649SOL    HW245627   2.209   0.315   0.187  0.7321  1.8935 -1.2467
11650SOL     OW45628   3.785   7.283   2.381  0.7358 -0.0649  0.0960
11650SOL    HW145629   3.813   7.366   2.333  1.2538  1.7164  3.2803
11650SOL    HW245630   3.867   7.232   2.409  0.6630  1.0693  2.5657
11651SOL     OW45631   9.620   4.131   4.687  0.1735 -0.2182  0.0387
11651SOL    HW145632   9.632   4.052   4.749  0.6612  0.1729  0.4493
11651SOL    HW245633   9.556   4.196   4.729 -0.5554 -0.5873 -0.4903
11652SOL     OW45634   3.255   4.737   3.439 -0.5944  0.2833 -0.0310
11652SOL    HW145635   3.321   4.739   3.364 -0.7453  0.0405 -0.1730
11652SOL    HW245636   3.163   4.749   3.402 -0.6770  0.0746  0.1041
11653SOL     OW45637   2.085   0.438   3.118  0.7231  0.7523  0.6566
11653SOL    HW145638   2.130   0.502   3.180  1.6424  1.0126 -0.2656
11653SOL    HW245639   1.988   0.460   3.112  0.3697 -0.0289  2.9369
11654SOL     OW45640   0.081   9.671   2.072 -1.1944 -0.0083 -0.2997
11654SOL    HW145641   0.006   9.671   2.006 -3.4837  1.4028  2.1945
11654SOL    HW245642   0.101   9.765   2.100 -0.2778 -0.5750  1.0157
11655SOL     OW45643   2.530   7.453   0.248  0.4370 -0.1453 -0.9102
11655SOL    HW145644   2.464   7.497   0.188  2.7221 -0.6015 -3.8914
11655SOL    HW245645   2.595   7.521   0.281 -0.9482  0.1448  1.3033
11656SOL     OW45646   1.687   5.202   3.693  0.3053  0.4578 -0.1862
11656SOL    HW145647   1.765   5.148   3.662  0.0312 -0.3842  0.5652
11656SOL    HW245648   1.629   5.225   3.615  1.0218  0.6530 -0.6737
11657SOL     OW45649   1.517   0.954   2.460  0.0331 -0.1370 -0.3389
11657SOL    HW145650   1.476   1.017   2.394 -2.9533 -2.6979 -1.0352
11657SOL    HW245651   1.572   0.886   2.411  0.9621  0.2628  0.1533
11658SOL     OW45652   8.582   2.112   3.546 -0.4244 -0.0088 -0.0243
11658SOL    HW145653   8.561   2.038   3.482  1.2250  0.3113 -0.9480
11658SOL    HW245654   8.595   2.197   3.496  0.4237  0.3394  0.7793
11659SOL     OW45655   9.470   0.924   0.424  0.1790  0.0001 -0.1103
11659SOL    HW145656   9.496   1.018   0.400 -0.8308  0.1519 -0.6328
11659SOL    HW245657   9.539   0.860   0.391  0.4654  0.4959 -0.4706
11660SOL     OW45658   0.062   5.734   1.297  0.2466 -0.0407  0.0894
11660SOL    HW145659   0.022   5.820   1.328 -2.1078 -1.3106  0.7086
11660SOL    HW245660   0.135   5.753   1.231  0.1389  2.4276  0.6245
11661SOL     OW45661   7.871   3.661   0.337  0.0718 -0.3998  0.3681
11661SOL    HW145662   7.777   3.648   0.305  0.5115 -3.1943  0.0689
11661SOL    HW245663   7.873   3.662   0.437 -0.2055 -1.1656  0.3864
11662SOL     OW45664   9.697   2.917   4.585 -0.1716 -0.6703 -0.0720
11662SOL    HW145665   9.757   2.908   4.665 -1.4736 -0.1004  0.9865
11662SOL    HW245666   9.731   2.991   4.527  1.2065 -1.5773 -0.4418
11663SOL     OW45667   1.796   5.944   2.143 -0.0918  0.7564 -0.1757
11663SOL    HW145668   1.845   5.967   2.227  0.1305  1.4670 -0.5037
11663SOL    HW245669   1.838   5.989   2.065 -1.2355  1.3426 -0.4696
  10.00000  10.00000   4.78122
