chitosan Film  in water:acetic acid 2%
24181
    1CHTO  H203    1   5.389   6.988   2.472 -0.8244 -2.8825 -1.9941
    1CHTO   O82    2   5.466   7.012   2.425 -0.1611  0.4740  0.6410
    1CHTO  C123    3   5.597   6.971   2.482  0.7968 -0.2107 -0.6927
    1CHTO  H227    4   5.615   7.032   2.571  0.8231 -1.7379  0.3726
    1CHTO   O77    5   5.560   6.837   2.528  0.3596  0.8617  0.2121
    1CHTO  C118    6   5.658   6.774   2.612  0.5984  0.1023  0.0470
    1CHTO  H222    7   5.681   6.841   2.696 -0.6637  0.3168  0.2349
    1CHTO  C125    8   5.584   6.650   2.670 -0.3285 -0.1561  0.3670
    1CHTO   O84    9   5.664   6.567   2.748 -0.4822  0.4321 -0.5143
    1CHTO  H205   10   5.701   6.496   2.699  0.7149 -0.4928  1.6926
    1CHTO  C114   11   5.784   6.751   2.527 -0.1096 -0.0344 -0.4257
    1CHTO  H218   12   5.756   6.679   2.451 -0.5783 -0.1944 -0.1062
    1CHTO  C116   13   5.839   6.888   2.471  0.4683 -0.1148  0.1372
    1CHTO  H220   14   5.865   6.948   2.561  0.7091 -0.0586  0.0310
    1CHTO   O79   15   5.952   6.860   2.395  0.1367 -0.1450 -0.0279
    1CHTO  H201   16   6.020   6.822   2.447 -0.1078 -2.1643 -1.1114
    1CHTO  C120   17   5.718   6.956   2.387 -0.4635  0.0484  0.1312
    1CHTO  H224   18   5.698   6.882   2.307  1.2400 -0.2524 -0.0245
    1CHTO   N21   19   5.761   7.074   2.315  0.2165 -0.3072  0.2816
    1CHTO  H211   20   5.741   7.162   2.375  1.4807  0.5550 -0.5221
    1CHTO  H212   21   5.730   7.089   2.212 -0.3344  1.1250  0.6349
    1CHTO   O75   22   5.870   6.680   2.615 -0.4113 -0.0177 -0.5867
    1CHTO  C112   23   5.933   6.541   2.548 -0.1891 -0.4902  0.1090
    1CHTO  H216   24   5.918   6.545   2.439  2.1503 -1.0054 -0.2655
    1CHTO   O73   25   5.865   6.430   2.608 -0.8089  0.2773  0.0592
    1CHTO  C113   26   5.890   6.297   2.555 -0.7407 -0.0111  0.4453
    1CHTO  H217   27   5.854   6.275   2.452 -0.8866 -2.3961  0.9699
    1CHTO  C124   28   5.811   6.189   2.632  0.2291 -0.2222  0.3712
    1CHTO   O83   29   5.673   6.198   2.603 -0.4467 -0.5578 -0.5585
    1CHTO  H204   30   5.635   6.120   2.638 -0.5017  0.5634  1.9781
    1CHTO  C109   31   6.039   6.267   2.574 -0.4839 -0.0420 -0.4824
    1CHTO  H213   32   6.056   6.254   2.682  1.1758 -2.3838 -0.9875
    1CHTO  C110   33   6.132   6.382   2.527  0.8677  0.4093 -0.0780
    1CHTO  H214   34   6.140   6.380   2.419 -0.8136  2.1248 -0.2645
    1CHTO   O78   35   6.262   6.353   2.591  0.1383 -0.0573  0.2452
    1CHTO  H200   36   6.293   6.268   2.565  1.1089 -0.2869  2.0939
    1CHTO  C111   37   6.089   6.523   2.576 -0.5081  0.0795  0.7830
    1CHTO  H215   38   6.109   6.534   2.684  1.8597 -1.3457  0.5141
    1CHTO   N19   39   6.163   6.633   2.509 -0.0290  0.2207  0.4960
    1CHTO  H207   40   6.119   6.652   2.413 -0.0727 -1.0136  0.2651
    1CHTO  H208   41   6.153   6.720   2.572  0.9090  0.8662 -0.2364
    1CHTO   O74   42   6.068   6.143   2.505  0.1761  0.0968 -0.4400
    1CHTO  C115   43   6.171   6.035   2.582  0.1714  0.0665 -0.0814
    1CHTO  H219   44   6.207   6.074   2.677  0.5257  1.9618 -0.9596
    1CHTO   O76   45   6.103   5.908   2.612 -0.1058 -0.3952 -0.1514
    1CHTO  C122   46   6.060   5.836   2.494 -0.3801 -0.1310  0.5411
    1CHTO  H226   47   5.983   5.904   2.455 -0.7118  0.3815  2.0699
    1CHTO  C126   48   5.984   5.707   2.534  0.1664 -0.1762  0.6223
    1CHTO   O85   49   5.864   5.730   2.610  0.0829  0.2738  0.4947
    1CHTO  H206   50   5.809   5.798   2.575  0.7000  0.1223 -0.7962
    1CHTO  C121   51   6.176   5.806   2.381  0.8759 -0.5311 -1.4674
    1CHTO  H225   52   6.190   5.696   2.375  1.8696 -0.5573  0.9917
    1CHTO   O81   53   6.140   5.860   2.253 -0.2071 -0.4403  0.4606
    1CHTO  H202   54   6.091   5.795   2.206  1.0300 -0.6445 -0.5968
    1CHTO  C119   55   6.309   5.863   2.429  0.2909 -0.5748  0.3410
    1CHTO  H223   56   6.345   5.797   2.508 -1.2836 -0.9940  0.7464
    1CHTO  C117   57   6.291   6.015   2.474 -0.3797  0.1898  0.2807
    1CHTO  H221   58   6.259   6.079   2.391  1.5107 -0.5679 -1.0718
    1CHTO   N20   59   6.427   6.075   2.522  0.6027  0.4210  0.3136
    1CHTO  H209   60   6.510   6.052   2.457  0.6462  0.1857  0.4537
    1CHTO  H210   61   6.429   6.181   2.546 -0.0357  0.3957  0.4949
    1CHTO   O80   62   6.428   5.853   2.326 -0.6155 -0.0346  0.4988
    1CHTO  C103   63   6.452   5.707   2.236 -0.0411  0.4678 -0.2633
    1CHTO  H190   64   6.381   5.626   2.250 -1.7290  1.8471 -0.6284
    1CHTO  C101   65   6.459   5.738   2.078  0.6754 -0.4176  0.1326
    1CHTO  H188   66   6.515   5.832   2.074 -0.6284  0.3265 -0.7567
    1CHTO   O68   67   6.310   5.749   2.010  0.6904 -0.4271 -0.1320
    1CHTO  H168   68   6.286   5.839   1.998  0.7372 -0.5165 -0.9033
    1CHTO   C99   69   6.536   5.625   1.991 -0.2254 -0.0948  0.0840
    1CHTO  H186   70   6.473   5.534   2.003 -1.0084  0.3891 -0.3483
    1CHTO   N17   71   6.555   5.654   1.849  0.6352  0.1309 -0.3444
    1CHTO  H174   72   6.470   5.702   1.803  0.8570  0.3121 -0.5656
    1CHTO  H175   73   6.647   5.708   1.833  0.4642  0.0668 -1.6657
    1CHTO   C97   74   6.669   5.590   2.060  0.6285  0.6176  0.5109
    1CHTO  H184   75   6.739   5.675   2.053  1.3820 -0.0631 -0.3531
    1CHTO   O64   76   6.640   5.557   2.199  0.3029  0.7661  0.0695
    1CHTO  C104   77   6.594   5.665   2.283  0.6305 -0.1141 -0.7468
    1CHTO  H191   78   6.665   5.748   2.279  0.6192 -0.0129  1.0212
    1CHTO  C108   79   6.583   5.629   2.430 -0.1760  0.1211 -0.4523
    1CHTO   O71   80   6.712   5.595   2.467 -0.0646 -0.3443  0.0002
    1CHTO  H171   81   6.721   5.561   2.554 -0.0153 -0.8590 -0.1999
    1CHTO   O62   82   6.738   5.476   2.006 -0.0457 -0.1727 -0.1869
    1CHTO   C91   83   6.872   5.490   1.974 -0.6104 -0.2028  0.0472
    1CHTO  H178   84   6.898   5.594   1.952  2.7209 -0.8233  0.7690
    1CHTO   C92   85   6.894   5.410   1.840 -0.3922  0.6874  0.5057
    1CHTO  H179   86   6.806   5.418   1.774  0.7967  0.1404 -1.1709
    1CHTO   O66   87   6.993   5.474   1.763  0.6344  0.4027  0.1409
    1CHTO  H166   88   7.082   5.455   1.782  0.6617  0.5340  0.1447
    1CHTO   C93   89   6.939   5.258   1.867 -0.3200 -0.7671  0.8613
    1CHTO  H180   90   6.964   5.231   1.763 -0.8074  0.7876  0.3282
    1CHTO   N16   91   6.838   5.158   1.905  0.0296  0.2263  0.0551
    1CHTO  H172   92   6.759   5.209   1.957 -0.7078 -0.0449 -0.7752
    1CHTO  H173   93   6.803   5.108   1.816 -0.7299  1.9248 -0.6284
    1CHTO   C94   94   7.072   5.256   1.948 -0.0841  0.7112 -0.3516
    1CHTO  H181   95   7.069   5.181   2.027  0.0345  0.4519 -0.5945
    1CHTO   O61   96   7.091   5.377   2.024  0.1556 -0.6932 -0.0082
    1CHTO   C95   97   6.976   5.439   2.081 -0.9003  0.6646 -0.2137
    1CHTO  H182   98   6.919   5.370   2.143 -1.2371  0.2928 -0.9284
    1CHTO  C106   99   7.028   5.551   2.171  0.2964  0.2051  0.3851
    1CHTO   O69  100   7.097   5.496   2.281 -0.0574 -1.0546 -0.5158
    1CHTO  H169  101   7.155   5.566   2.303  1.4105 -2.3733 -0.1465
    1CHTO   O63  102   7.188   5.250   1.857  0.4515 -0.0751 -0.1265
    1CHTO   C96  103   7.317   5.159   1.932  0.3773 -0.3919  0.2038
    1CHTO  H183  104   7.289   5.142   2.036 -1.2334 -0.7378 -0.2651
    1CHTO   C98  105   7.455   5.234   1.924 -0.0068  0.0120 -0.0937
    1CHTO  H185  106   7.440   5.341   1.948 -1.1995 -0.2427  0.3688
    1CHTO   O67  107   7.539   5.187   2.027 -0.0981 -0.5821  0.1906
    1CHTO  H167  108   7.586   5.258   2.067 -0.1028 -0.7535  0.4948
    1CHTO  C102  109   7.534   5.215   1.786  0.0324  0.0525 -0.4265
    1CHTO  H189  110   7.634   5.258   1.800  0.6001 -1.2547 -0.3416
    1CHTO   N18  111   7.479   5.298   1.673  0.1138 -0.2770 -0.2172
    1CHTO  H176  112   7.380   5.256   1.673 -0.3511  0.7158  2.7968
    1CHTO  H177  113   7.483   5.402   1.701  2.1709 -0.3636 -0.0717
    1CHTO  C105  114   7.527   5.065   1.752 -0.4698 -0.3399  0.4963
    1CHTO  H192  115   7.490   5.047   1.651  0.2261 -0.4453  0.2567
    1CHTO   O65  116   7.445   4.973   1.827 -0.3227 -0.1279  0.4282
    1CHTO  C100  117   7.314   5.022   1.854 -0.8462 -0.6783 -0.6678
    1CHTO  H187  118   7.262   5.045   1.760 -2.3268  1.5070  0.6532
    1CHTO  C107  119   7.240   4.910   1.925  0.1250  0.8318  0.5347
    1CHTO   O70  120   7.238   4.791   1.841  0.2300  0.1728 -0.3759
    1CHTO  H170  121   7.314   4.736   1.846 -0.3742 -0.7244 -0.8953
    1CHTO   O57  122   7.679   5.026   1.757 -0.0405  0.5724 -0.3576
    1CHTO   C85  123   7.743   4.939   1.661  0.0955  0.0284 -0.2306
    1CHTO  H157  124   7.672   4.946   1.576 -0.1095 -2.2418 -0.2835
    1CHTO   C83  125   7.721   4.785   1.705 -0.0754  0.0240  0.6870
    1CHTO  H155  126   7.615   4.764   1.689  0.6334 -2.5939 -1.0291
    1CHTO   O56  127   7.749   4.775   1.850  0.3006 -0.2677 -0.1146
    1CHTO  H135  128   7.744   4.684   1.873 -2.2681 -0.6520 -1.9010
    1CHTO   C81  129   7.806   4.691   1.612 -0.4035  0.6342  0.0303
    1CHTO  H153  130   7.761   4.702   1.513  0.0717  1.1886 -0.1242
    1CHTO   N14  131   7.786   4.541   1.642  0.0619 -1.2846  0.4665
    1CHTO  H141  132   7.878   4.488   1.658  0.0176 -1.1652  1.1329
    1CHTO  H142  133   7.735   4.497   1.559  1.7150 -0.3880 -1.0578
    1CHTO   C79  134   7.954   4.732   1.608  0.2874  0.1577 -0.0321
    1CHTO  H151  135   8.004   4.667   1.537 -0.8732  0.0937 -0.8051
    1CHTO   O52  136   7.968   4.862   1.549 -0.2011  0.3280 -0.1707
    1CHTO   C86  137   7.891   4.971   1.620  0.1503  0.1379 -0.0506
    1CHTO  H158  138   7.947   5.003   1.710  0.5917 -0.8424  0.0240
    1CHTO   C90  139   7.890   5.095   1.531  0.2350 -0.4384  0.3952
    1CHTO   O60  140   7.882   5.072   1.393 -0.0983  0.2974 -0.5568
    1CHTO  H138  141   7.803   5.025   1.378 -1.0295  1.5738  0.3140
    1CHTO   O50  142   8.013   4.726   1.738  0.6912 -0.1527 -0.2299
    1CHTO   C73  143   8.118   4.661   1.805 -0.5532  0.1387 -0.0858
    1CHTO  H145  144   8.198   4.638   1.733 -0.8521 -0.6254 -0.1802
    1CHTO   C74  145   8.087   4.529   1.871  0.4113 -0.4001 -0.0596
    1CHTO  H146  146   8.036   4.476   1.789  0.9490  2.5565 -2.3807
    1CHTO   O54  147   8.210   4.464   1.908 -0.2555  0.0041  0.2893
    1CHTO  H133  148   8.280   4.500   1.856  0.3558 -1.8495 -0.1908
    1CHTO   C75  149   7.985   4.549   1.996  0.1292 -0.6781  0.1659
    1CHTO  H147  150   7.888   4.592   1.966 -0.1009 -0.5750  1.0405
    1CHTO   N13  151   7.946   4.425   2.061  0.0554  0.1574 -0.4457
    1CHTO  H139  152   7.861   4.447   2.124  1.0422 -1.7393  1.6521
    1CHTO  H140  153   7.908   4.358   1.985 -0.1643 -0.3976  0.1367
    1CHTO   C76  154   8.040   4.653   2.089 -0.2237 -0.4784 -0.0003
    1CHTO  H148  155   8.124   4.623   2.151  1.1467  0.9989 -1.0855
    1CHTO   O49  156   8.082   4.770   2.019 -0.2586  0.5021 -0.1976
    1CHTO   C77  157   8.179   4.750   1.911  0.6749 -0.3339 -0.1191
    1CHTO  H149  158   8.270   4.703   1.947  0.3658 -1.5949 -0.9524
    1CHTO   C88  159   8.213   4.889   1.858  0.0455  0.3017 -0.4022
    1CHTO   O58  160   8.307   4.877   1.715 -0.5885 -0.7634  0.3911
    1CHTO  H136  161   8.351   4.794   1.717  0.5861 -0.1620 -0.1521
    1CHTO   O51  162   7.915   4.696   2.181 -0.4007 -0.0610  0.1549
    1CHTO   C78  163   7.949   4.815   2.292  0.1177 -0.8501 -1.1958
    1CHTO  H150  164   8.044   4.868   2.272  0.5329 -1.8032 -1.8367
    1CHTO   C80  165   7.963   4.755   2.431  0.1541  0.4744  0.0638
    1CHTO  H152  166   7.878   4.685   2.443  0.2129  0.1173 -1.4912
    1CHTO   O55  167   8.082   4.677   2.430  0.2181 -0.1823  0.1281
    1CHTO  H134  168   8.085   4.634   2.513  0.4887  0.5295  0.4876
    1CHTO   C84  169   7.959   4.857   2.558  0.6658 -0.1657  0.2516
    1CHTO  H156  170   8.056   4.906   2.560  1.4503 -1.4868 -2.9002
    1CHTO   N15  171   7.942   4.784   2.690  0.2416  0.2359  0.7298
    1CHTO  H143  172   7.842   4.761   2.721 -0.1251  0.2923 -0.3886
    1CHTO  H144  173   8.006   4.699   2.701  0.8681  0.5883 -0.1648
    1CHTO   C87  174   7.850   4.958   2.538  0.0849 -0.2010  1.2977
    1CHTO  H159  175   7.754   4.907   2.541 -1.1716  1.8603 -1.4752
    1CHTO   O53  176   7.868   5.020   2.394 -0.2157 -0.2239 -0.1297
    1CHTO   C82  177   7.844   4.925   2.288 -0.4070  0.0321  0.1620
    1CHTO  H154  178   7.750   4.872   2.308 -0.3585 -0.0072  0.2889
    1CHTO   C89  179   7.833   5.000   2.154 -0.2779 -0.5031  0.3792
    1CHTO   O59  180   7.740   4.946   2.061  0.0570 -0.1544  0.1434
    1CHTO  H137  181   7.781   4.893   1.996 -0.5164  0.1242 -0.4503
    1CHTO   O45  182   7.857   5.068   2.643 -0.7237 -0.0356 -0.4106
    1CHTO   C67  183   7.791   5.191   2.612  0.3858 -0.9460 -0.3783
    1CHTO  H124  184   7.795   5.218   2.507 -1.8651  1.2056  0.0513
    1CHTO   C65  185   7.636   5.181   2.654 -0.0061  0.3549 -0.1420
    1CHTO  H122  186   7.622   5.081   2.694  1.4760  0.4226  0.5826
    1CHTO   O44  187   7.572   5.201   2.525 -0.1722  0.2350 -0.2915
    1CHTO  H102  188   7.479   5.192   2.526 -0.3628  1.9131  1.0854
    1CHTO   C63  189   7.590   5.274   2.765 -0.5957 -0.4189  0.6425
    1CHTO  H120  190   7.642   5.244   2.857  4.1683  3.0865 -0.7177
    1CHTO   N11  191   7.443   5.253   2.806  0.0208  0.1286  0.3091
    1CHTO  H108  192   7.386   5.331   2.761 -0.9020 -0.2083  0.8845
    1CHTO  H109  193   7.402   5.159   2.774  1.9073 -0.2516 -1.1151
    1CHTO   C61  194   7.624   5.419   2.722 -0.2477  0.1559 -0.0368
    1CHTO  H118  195   7.606   5.475   2.815 -2.1825  1.9591 -1.4790
    1CHTO   O40  196   7.761   5.435   2.689  0.2269 -0.0987 -0.1229
    1CHTO   C68  197   7.853   5.322   2.694  0.1794 -0.0811  0.4761
    1CHTO  H125  198   7.874   5.293   2.799  0.5844  0.6251  0.5948
    1CHTO   C72  199   7.994   5.375   2.631 -0.6764 -0.0072  0.7252
    1CHTO   O48  200   8.096   5.286   2.652 -0.3483  0.2710 -0.2298
    1CHTO  H105  201   8.182   5.323   2.652 -0.1665 -0.1386 -1.1264
    1CHTO   O38  202   7.542   5.465   2.613 -0.7181 -0.3789  0.3017
    1CHTO   C55  203   7.490   5.596   2.619 -0.0390 -0.1186  0.5599
    1CHTO  H112  204   7.494   5.645   2.717  3.7220 -1.3170  1.0830
    1CHTO   C56  205   7.341   5.584   2.563  0.4825 -0.0967 -0.3984
    1CHTO  H113  206   7.350   5.551   2.459 -0.2214  0.8496 -0.7667
    1CHTO   O42  207   7.259   5.478   2.624  0.8008  1.1748 -0.0427
    1CHTO  H100  208   7.173   5.478   2.586  0.9873  1.1977 -0.4689
    1CHTO   C57  209   7.272   5.726   2.573 -0.8171  0.1345  0.3687
    1CHTO  H114  210   7.259   5.732   2.682 -1.0874 -1.5418  0.4423
    1CHTO   N10  211   7.140   5.747   2.513 -0.4022 -0.3480 -0.6142
    1CHTO  H106  212   7.135   5.839   2.457 -1.2492  0.0908  0.1654
    1CHTO  H107  213   7.062   5.743   2.588 -1.7539  0.7736 -1.9403
    1CHTO   C58  214   7.369   5.843   2.532 -0.5941 -0.0432 -0.4812
    1CHTO  H115  215   7.353   5.861   2.423 -0.6735  0.3207 -0.4083
    1CHTO   O37  216   7.508   5.818   2.554 -1.1162 -0.3692  0.2029
    1CHTO   C59  217   7.564   5.691   2.522 -0.7589  0.6494  0.5105
    1CHTO  H116  218   7.547   5.650   2.422 -1.3210  2.4550 -0.1602
    1CHTO   C70  219   7.718   5.705   2.547 -0.1963  0.0746  1.4959
    1CHTO   O46  220   7.752   5.769   2.672  0.1744 -0.2328  0.5992
    1CHTO  H103  221   7.845   5.769   2.686  0.8521  3.1952 -2.9537
    1CHTO   O39  222   7.343   5.970   2.622  0.4267 -0.1704 -0.6553
    1CHTO   C60  223   7.302   6.093   2.556 -0.0221  0.1299 -0.0443
    1CHTO  H117  224   7.289   6.063   2.452  1.4934 -1.8443  0.2886
    1CHTO   C62  225   7.162   6.146   2.606  0.5679  0.3461 -0.2629
    1CHTO  H119  226   7.083   6.071   2.590  1.8441 -0.7963 -1.3513
    1CHTO   O43  227   7.178   6.170   2.748  0.0150 -0.4675 -0.1114
    1CHTO  H101  228   7.115   6.234   2.777  0.4693 -0.6622  1.3605
    1CHTO   C66  229   7.121   6.277   2.521  0.2971  0.0596 -0.0568
    1CHTO  H123  230   7.108   6.253   2.416  0.8581 -1.7458  0.2819
    1CHTO   N12  231   6.990   6.317   2.577 -0.0316 -0.2031  0.3912
    1CHTO  H110  232   6.971   6.414   2.533  0.6504 -0.2230  0.0518
    1CHTO  H111  233   6.982   6.323   2.685  1.5186  2.3374  0.4131
    1CHTO   C69  234   7.227   6.385   2.538  0.0525  0.1194  0.7676
    1CHTO  H126  235   7.226   6.409   2.647 -0.7868 -0.2979  0.8499
    1CHTO   O41  236   7.375   6.324   2.487  0.3605  0.4741 -0.3170
    1CHTO   C64  237   7.421   6.196   2.559 -0.1176 -0.3401 -0.0987
    1CHTO  H121  238   7.440   6.215   2.667 -0.9070 -0.7565  0.1236
    1CHTO   C71  239   7.547   6.155   2.493 -0.3020 -0.2378  0.2369
    1CHTO   O47  240   7.657   6.245   2.524  0.4216  0.0210 -0.2834
    1CHTO  H104  241   7.734   6.199   2.554  1.5770  2.4675  0.6140
    1CHTO   O34  242   7.193   6.517   2.451  0.7167  0.5377  0.4868
    1CHTO   C49  243   7.190   6.663   2.429 -0.3348 -0.1494  0.7399
    1CHTO   H91  244   7.185   6.681   2.322  1.3384 -0.3315  0.6050
    1CHTO   C47  245   7.312   6.728   2.499  0.2906 -0.4855  0.6113
    1CHTO   H89  246   7.322   6.833   2.465 -1.9648 -0.5296 -0.2383
    1CHTO   O33  247   7.432   6.658   2.456  0.0016  0.1081 -0.0716
    1CHTO   H70  248   7.411   6.569   2.438 -0.4973  0.2966 -0.4299
    1CHTO   C45  249   7.302   6.724   2.657 -0.3077  0.4727  0.1415
    1CHTO   H87  250   7.292   6.616   2.679  2.5606  0.3297  0.9247
    1CHTO    N8  251   7.423   6.773   2.735 -0.1566  0.1439  0.2510
    1CHTO   H75  252   7.433   6.733   2.835  0.9741 -0.0786  0.0583
    1CHTO   H76  253   7.453   6.876   2.728  2.4717 -0.4774  1.6265
    1CHTO   C43  254   7.160   6.794   2.703 -0.7443  0.9398 -0.0027
    1CHTO   H85  255   7.161   6.784   2.812 -2.7591 -4.2191 -0.3399
    1CHTO   O29  256   7.050   6.724   2.630  0.5304 -0.4735  0.2238
    1CHTO   C50  257   7.052   6.717   2.486  0.4397 -0.2530 -0.0253
    1CHTO   H92  258   6.981   6.647   2.440 -0.9971  1.3820 -0.3700
    1CHTO   C54  259   7.015   6.842   2.407  0.0617  0.5090 -0.3594
    1CHTO   O36  260   6.876   6.868   2.423  0.5422 -0.2282  0.2294
    1CHTO   H72  261   6.861   6.952   2.461 -2.8965 -1.0796  0.8697
    1CHTO   O27  262   7.148   6.934   2.687 -0.6492  0.4255 -0.3675
    1CHTO   C37  263   7.058   7.042   2.711  0.1991  0.1907 -0.1892
    1CHTO   H79  264   6.965   7.035   2.652 -0.7689  0.7186  1.2401
    1CHTO   C38  265   7.014   7.046   2.862 -0.3612  0.0620 -0.1441
    1CHTO   H80  266   7.104   7.030   2.923  1.5293  1.0397 -2.5834
    1CHTO   O31  267   6.924   6.934   2.885 -0.4075 -0.0821 -0.5584
    1CHTO   H68  268   6.926   6.906   2.975  0.0616  0.5212 -0.3760
    1CHTO   C39  269   6.948   7.184   2.896  0.0058 -0.0364 -0.3868
    1CHTO   H81  270   6.845   7.188   2.859  0.0883  0.5040 -0.5712
    1CHTO    N7  271   6.928   7.200   3.040  0.3480  0.9298 -0.3479
    1CHTO   H73  272   6.865   7.119   3.075  0.2817  1.1932  0.1325
    1CHTO   H74  273   6.875   7.290   3.064 -1.2777 -0.4038  1.2621
    1CHTO   C40  274   7.032   7.303   2.834  0.2206  0.3601  0.1875
    1CHTO   H82  275   7.128   7.319   2.885  1.5544  0.7814 -2.3830
    1CHTO   O26  276   7.051   7.291   2.696  0.0490 -0.5388 -0.5623
    1CHTO   C41  277   7.132   7.172   2.669  0.3860 -0.2558 -0.3668
    1CHTO   H83  278   7.218   7.188   2.736  0.3813 -2.6199  0.2673
    1CHTO   C52  279   7.189   7.187   2.525  0.2572 -0.4775 -0.3307
    1CHTO   O35  280   7.086   7.210   2.435 -0.5474 -0.2899 -0.0132
    1CHTO   H71  281   7.131   7.258   2.368  1.3420 -1.4314  0.3792
    1CHTO   O28  282   6.968   7.438   2.853 -0.1730 -0.1621  0.1172
    1CHTO   C42  283   7.039   7.558   2.812  0.1097 -0.3376  0.1570
    1CHTO   H84  284   7.067   7.538   2.709 -0.0702  1.3865 -0.2509
    1CHTO   C44  285   7.176   7.586   2.879  0.0995 -0.6278 -0.1440
    1CHTO   H86  286   7.178   7.541   2.978 -0.3193  1.4738  0.8424
    1CHTO   O32  287   7.277   7.520   2.797  0.4547 -0.0925  0.6549
    1CHTO   H69  288   7.253   7.430   2.795 -0.5952  0.1931 -0.0133
    1CHTO   C48  289   7.210   7.739   2.879 -0.8223 -0.5672  0.6469
    1CHTO   H90  290   7.318   7.754   2.870 -0.7521 -1.0348  0.6820
    1CHTO    N9  291   7.185   7.797   3.021  0.3073  0.0985 -0.6665
    1CHTO   H77  292   7.205   7.903   3.028 -2.7803  0.7520 -0.9284
    1CHTO   H78  293   7.081   7.784   3.048  0.0439  0.8884 -1.2731
    1CHTO   C51  294   7.141   7.819   2.762  0.0973  0.0449  0.2350
    1CHTO   H93  295   7.163   7.923   2.784  2.8106 -0.4483  0.1017
    1CHTO   O30  296   6.998   7.800   2.755  0.5380  0.5661  0.0065
    1CHTO   C46  297   6.936   7.680   2.816 -0.6679 -0.6386  0.2540
    1CHTO   H88  298   6.913   7.701   2.921 -0.6210  1.0546 -0.0527
    1CHTO   C53  299   6.817   7.642   2.727 -0.6548 -0.2668 -0.0316
    1CHTO   O72  300   6.703   7.732   2.738  0.1823 -0.2896  0.2323
    1CHTO  H199  301   6.726   7.822   2.726 -0.1521  0.0831  2.3212
    1CHTO   O22  302   7.195   7.784   2.633  0.5236  0.4259 -0.6667
    1CHTO   C31  303   7.140   7.850   2.507  0.5988 -0.2813 -0.5042
    1CHTO   H59  304   7.032   7.827   2.505  0.5789 -0.6082  2.1031
    1CHTO   C29  305   7.161   8.007   2.503 -0.1421  0.6318 -0.5122
    1CHTO   H57  306   7.263   8.026   2.542 -1.1118  0.0908  2.4394
    1CHTO   O21  307   7.060   8.066   2.577  0.2320 -0.3669  0.1380
    1CHTO   H37  308   7.092   8.119   2.648 -2.5844 -0.8947  1.9104
    1CHTO   C27  309   7.150   8.065   2.349  0.3346  0.2375 -0.3387
    1CHTO   H55  310   7.042   8.072   2.328  0.0466 -0.2833  0.9266
    1CHTO    N5  311   7.210   8.204   2.329  0.2440  0.1874  0.0978
    1CHTO   H43  312   7.178   8.229   2.229 -0.1554  0.8783  0.3987
    1CHTO   H44  313   7.164   8.268   2.403 -3.1930 -3.4188  1.2900
    1CHTO   C25  314   7.198   7.969   2.237 -0.0327 -0.0777 -0.1403
    1CHTO   H53  315   7.306   7.954   2.246 -0.0663 -0.7607 -0.8492
    1CHTO   O17  316   7.145   7.830   2.259 -0.6850  0.0907  0.3043
    1CHTO   C32  317   7.203   7.777   2.382 -0.2911 -0.3100  0.2166
    1CHTO   H60  318   7.311   7.780   2.393 -0.0191 -1.6178 -1.8464
    1CHTO   C36  319   7.167   7.620   2.383  0.0271 -0.2934  0.1928
    1CHTO   O25  320   7.026   7.604   2.393 -0.2756  0.2601  0.3767
    1CHTO   H40  321   6.999   7.518   2.420 -2.6372  0.6715 -0.5775
    1CHTO   O15  322   7.146   8.016   2.090 -0.0373  0.3913  0.5115
    1CHTO   C19  323   7.162   7.973   1.947  0.3494 -0.0322 -0.3075
    1CHTO   H47  324   7.143   8.063   1.887  0.3273 -0.1557 -0.4885
    1CHTO   C20  325   7.305   7.919   1.907  0.7801  0.1684  0.0458
    1CHTO   H48  326   7.339   7.839   1.975  1.6205 -0.3618 -0.9840
    1CHTO   O19  327   7.396   8.035   1.912  0.8335  0.4865 -0.0878
    1CHTO   H35  328   7.391   8.077   1.996 -3.2872  1.0845 -0.5312
    1CHTO   C21  329   7.316   7.867   1.754  0.0454 -0.5051  0.6274
    1CHTO   H49  330   7.304   7.951   1.686  0.8635 -1.7332 -1.0587
    1CHTO    N4  331   7.441   7.808   1.703  0.3434 -1.2966  0.4779
    1CHTO   H41  332   7.522   7.876   1.726 -1.7137  1.8785 -1.3776
    1CHTO   H42  333   7.437   7.795   1.596  3.3321  0.2404  0.1148
    1CHTO   C22  334   7.187   7.783   1.733  0.6522 -0.2109  0.1861
    1CHTO   H50  335   7.189   7.696   1.799 -0.4064 -0.1739  0.2758
    1CHTO   O14  336   7.065   7.856   1.760 -0.4810  0.0823 -0.1378
    1CHTO   C23  337   7.055   7.868   1.903  0.8981  0.0832 -0.2797
    1CHTO   H51  338   7.065   7.773   1.957  2.2263  1.5169  2.0790
    1CHTO   C34  339   6.911   7.918   1.929 -0.5205 -0.2222 -0.2964
    1CHTO   O23  340   6.815   7.813   1.891 -0.0379 -0.1756  0.4816
    1CHTO   H38  341   6.812   7.806   1.797  0.2201 -1.8974  0.5928
    1CHTO   O16  342   7.178   7.743   1.594  0.6154  0.2216 -0.4883
    1CHTO   C24  343   7.138   7.581   1.567 -0.0395 -0.6451  0.5690
    1CHTO   H52  344   7.135   7.523   1.659 -0.3468 -0.1331  0.8801
    1CHTO   C26  345   7.244   7.536   1.467  0.2929 -0.0793 -0.4426
    1CHTO   H54  346   7.268   7.621   1.400  0.3671  1.4210  1.4731
    1CHTO   O20  347   7.370   7.510   1.537 -0.2450 -0.1450 -0.0078
    1CHTO   H36  348   7.425   7.586   1.541 -0.4389  0.2553 -3.6172
    1CHTO   C30  349   7.207   7.411   1.381 -0.1377 -0.0922 -0.0745
    1CHTO   H58  350   7.225   7.320   1.441 -2.0607 -0.1702  0.4001
    1CHTO    N6  351   7.295   7.403   1.258 -0.2779  0.3604 -0.2152
    1CHTO   H45  352   7.262   7.475   1.184  1.3146  1.3246  0.0022
    1CHTO   H46  353   7.305   7.307   1.209  0.9427  0.2588  0.2270
    1CHTO   C33  354   7.054   7.408   1.342 -0.9150 -0.1741 -0.4604
    1CHTO   H61  355   7.037   7.476   1.257  2.0903  0.7174 -0.4317
    1CHTO   O18  356   6.968   7.440   1.452 -0.4458  0.5560 -0.2069
    1CHTO   C28  357   6.991   7.570   1.507 -0.8976 -0.1303  0.0668
    1CHTO   H56  358   6.976   7.651   1.436 -0.3859 -0.5051 -0.4763
    1CHTO   C35  359   6.891   7.598   1.624 -0.4724 -0.2596  0.6301
    1CHTO   O24  360   6.756   7.627   1.586  0.4039 -0.0878  0.5888
    1CHTO   H39  361   6.724   7.699   1.637 -0.4672 -1.4452  2.0181
    1CHTO    O9  362   7.023   7.275   1.294  0.1066  0.5333  0.3923
    1CHTO   C13  363   6.873   7.268   1.230  0.3381  0.6157 -0.5435
    1CHTO   H26  364   6.828   7.369   1.221  1.5962  1.0834 -1.6793
    1CHTO   C11  365   6.790   7.173   1.318  0.1130 -0.1570 -0.3566
    1CHTO   H24  366   6.761   7.230   1.407  2.4848 -1.0704  1.0251
    1CHTO    O8  367   6.859   7.059   1.365  0.1169 -0.4295 -0.4355
    1CHTO    H3  368   6.889   7.057   1.453 -0.6147  1.4469 -0.1245
    1CHTO    C9  369   6.661   7.138   1.245  0.6927 -0.1661  0.1654
    1CHTO   H22  370   6.622   7.235   1.212  1.2932  0.5242  1.4636
    1CHTO    N2  371   6.552   7.077   1.329  0.2851  0.4397 -0.3110
    1CHTO   H10  372   6.458   7.058   1.279  1.4744  1.1155 -2.8707
    1CHTO   H11  373   6.530   7.132   1.419  2.2865 -1.2955  1.2841
    1CHTO    C7  374   6.690   7.062   1.109  0.3542 -0.2010 -0.1261
    1CHTO   H20  375   6.606   7.093   1.044 -0.7373 -2.5676  0.1115
    1CHTO    O4  376   6.810   7.097   1.046  0.2828 -0.5592  1.1194
    1CHTO   C14  377   6.873   7.220   1.079  0.0219 -0.5367  0.3543
    1CHTO   H27  378   6.814   7.297   1.026  1.1708 -0.6612 -1.1332
    1CHTO   C18  379   7.014   7.227   1.013 -0.2626 -0.0545 -0.4388
    1CHTO   O13  380   7.022   7.207   0.870 -0.5690 -0.7482  0.2084
    1CHTO    H7  381   7.027   7.116   0.850  1.2130 -0.4856 -0.5702
    1CHTO    O2  382   6.685   6.900   1.110  0.3486  0.4674 -0.1000
    1CHTO    C1  383   6.800   6.828   1.053  0.5059  0.2991  0.1384
    1CHTO   H14  384   6.896   6.883   1.059 -0.3824  1.7256  1.8931
    1CHTO    C2  385   6.776   6.783   0.903 -0.6352  0.7262  0.8798
    1CHTO   H15  386   6.688   6.718   0.902  0.2513 -0.4959 -0.9060
    1CHTO    O6  387   6.744   6.907   0.833 -0.3858 -0.3948  0.4910
    1CHTO    H1  388   6.699   6.881   0.755 -1.0686 -0.2685  0.8444
    1CHTO    C3  389   6.904   6.693   0.850 -0.0166  0.2873  0.2184
    1CHTO   H16  390   6.996   6.754   0.838  0.6427 -0.5362  1.0510
    1CHTO    N1  391   6.868   6.631   0.713  0.5123 -0.0914  0.6921
    1CHTO    H8  392   6.788   6.562   0.736  1.0037 -1.1697 -0.7170
    1CHTO    H9  393   6.816   6.711   0.663  2.7827  1.6527  1.0422
    1CHTO    C4  394   6.946   6.578   0.951  0.5669 -0.1052  0.1303
    1CHTO   H17  395   6.877   6.497   0.931  0.9586 -0.2397 -0.7086
    1CHTO    O1  396   6.935   6.615   1.088  0.3709  0.5415 -0.2088
    1CHTO    C5  397   6.824   6.698   1.139  0.4634 -0.4749  0.1290
    1CHTO   H18  398   6.732   6.640   1.135  0.2941 -0.2188  0.3059
    1CHTO   C16  399   6.869   6.725   1.288  0.0765 -0.4429 -0.3266
    1CHTO   O11  400   6.854   6.613   1.374  0.7501  0.2925 -0.1074
    1CHTO    H5  401   6.939   6.580   1.398  0.4454  0.8511  1.8387
    1CHTO    O3  402   7.088   6.538   0.933 -0.2544  0.6734 -0.0145
    1CHTO    C6  403   7.111   6.395   0.961 -0.5824 -0.3411  0.1059
    1CHTO   H19  404   7.033   6.365   1.031  1.0259 -0.9270  1.6818
    1CHTO    C8  405   7.095   6.299   0.838 -0.0529 -0.3378 -0.0797
    1CHTO   H21  406   7.151   6.341   0.754 -0.7250  2.2024  0.6901
    1CHTO    O7  407   6.954   6.298   0.806  0.1364  0.3060  0.1328
    1CHTO    H2  408   6.905   6.230   0.847  0.5404 -1.5266 -2.3323
    1CHTO   C12  409   7.154   6.154   0.876 -0.4866  0.2041  0.0376
    1CHTO   H25  410   7.084   6.118   0.954  0.2405 -1.4105 -0.0364
    1CHTO    N3  411   7.139   6.056   0.758 -0.2785 -0.2447 -0.1612
    1CHTO   H12  412   7.035   6.044   0.731 -0.0382 -0.4980 -1.0053
    1CHTO   H13  413   7.186   6.096   0.669 -1.2793  1.7820  0.1928
    1CHTO   C15  414   7.295   6.162   0.934  0.2305 -0.3266  0.1437
    1CHTO   H28  415   7.358   6.216   0.863  0.2280  2.4148  2.1561
    1CHTO   O10  416   7.379   6.006   0.971 -0.0075 -0.5244  0.3124
    1CHTO    H4  417   7.328   5.942   1.016  1.3759 -2.1189 -0.3436
    1CHTO    O5  418   7.289   6.241   1.057  0.2913  0.1819  0.1972
    1CHTO   C10  419   7.249   6.378   1.035 -0.0827  0.7627 -0.4056
    1CHTO   H23  420   7.324   6.435   0.981  0.6013  1.3817  1.1783
    1CHTO   C17  421   7.242   6.434   1.172  0.4194 -0.3188  0.3613
    1CHTO   O12  422   7.372   6.479   1.221 -0.0024  0.2686  0.0772
    1CHTO    H6  423   7.409   6.400   1.256 -0.4660 -0.1407 -0.3547
    2CHTO  H203  424   6.178   4.730   2.815  1.0125 -0.9738  1.9072
    2CHTO   O82  425   6.139   4.655   2.775 -0.3029  0.4718  0.4368
    2CHTO  C123  426   6.019   4.696   2.714 -0.0817  0.0448  0.3636
    2CHTO  H227  427   6.047   4.757   2.627  1.7096 -0.2488  0.7210
    2CHTO   O77  428   5.939   4.577   2.678 -0.0462 -0.1587 -0.0025
    2CHTO  C118  429   5.829   4.606   2.590  0.4915 -0.6854  0.0266
    2CHTO  H222  430   5.871   4.661   2.505 -0.2515  0.7727  0.5972
    2CHTO  C125  431   5.767   4.469   2.541 -0.0607 -0.3029  0.2266
    2CHTO   O84  432   5.734   4.368   2.646  0.1025  0.3419 -0.0271
    2CHTO  H205  433   5.727   4.424   2.721 -1.1911  0.0160  0.1115
    2CHTO  C114  434   5.718   4.696   2.655 -0.3552 -0.2722  0.4154
    2CHTO  H218  435   5.660   4.635   2.726 -2.7095  1.1719 -0.1940
    2CHTO  C116  436   5.777   4.816   2.735 -0.0582  0.7369  0.4401
    2CHTO  H220  437   5.798   4.894   2.659 -0.2380 -1.3242 -1.7943
    2CHTO   O79  438   5.676   4.869   2.828 -0.1900 -0.1857  0.4272
    2CHTO  H201  439   5.701   4.948   2.871 -3.0625  1.0558 -0.0404
    2CHTO  C120  440   5.917   4.773   2.809 -0.0242 -0.1592 -0.2110
    2CHTO  H224  441   5.896   4.709   2.897  0.9005 -1.6215 -1.0337
    2CHTO   N21  442   5.972   4.901   2.855  0.2173  0.1731 -0.2121
    2CHTO  H211  443   5.934   4.927   2.952 -0.2373  0.8643 -0.5714
    2CHTO  H212  444   5.947   4.982   2.789  0.9669  2.1144  1.8458
    2CHTO   O75  445   5.636   4.735   2.545 -0.2726 -0.6251  0.0965
    2CHTO  C112  446   5.492   4.758   2.571 -0.4654  0.0519 -0.0426
    2CHTO  H216  447   5.468   4.775   2.677  1.6497 -0.1784  0.5068
    2CHTO   O73  448   5.423   4.641   2.524 -0.1310 -0.3025 -0.0031
    2CHTO  C113  449   5.279   4.641   2.515 -0.4275  0.4305  0.2737
    2CHTO  H217  450   5.234   4.647   2.616  0.6418 -0.3438  0.8152
    2CHTO  C124  451   5.231   4.502   2.478 -0.5539 -0.1827 -0.0599
    2CHTO   O83  452   5.287   4.401   2.573  0.1112  0.6335 -1.0651
    2CHTO  H204  453   5.249   4.315   2.569 -0.6016  0.9126 -0.5503
    2CHTO  C109  454   5.228   4.750   2.419 -0.8655  0.3207 -0.4726
    2CHTO  H213  455   5.274   4.729   2.321  2.0374  1.3154  0.6250
    2CHTO  C110  456   5.283   4.884   2.477  0.9111 -0.1527  0.7281
    2CHTO  H214  457   5.248   4.900   2.579  2.2454  0.7920  1.0415
    2CHTO   O78  458   5.234   4.991   2.394  0.2848 -0.0856 -0.1118
    2CHTO  H200  459   5.284   4.995   2.315  0.8845  0.2402  0.2862
    2CHTO  C111  460   5.435   4.888   2.491 -0.5327 -0.2566  0.2321
    2CHTO  H215  461   5.483   4.894   2.393 -0.9254  1.2403  0.1240
    2CHTO   N19  462   5.476   5.014   2.561  0.4531 -0.4773 -0.0728
    2CHTO  H207  463   5.571   5.009   2.611  0.2644  1.6829  0.5600
    2CHTO  H208  464   5.474   5.101   2.497 -0.1322  0.4286  1.1634
    2CHTO   O74  465   5.087   4.734   2.411 -0.0136  0.4799 -0.4396
    2CHTO  C115  466   5.015   4.777   2.282 -0.4230 -0.9486 -0.3992
    2CHTO  H219  467   5.085   4.816   2.208 -1.6205  1.8509 -0.1234
    2CHTO   O76  468   4.942   4.663   2.218 -0.4402 -0.3443  0.2468
    2CHTO  C122  469   4.843   4.606   2.298  0.0664  0.8312 -0.3131
    2CHTO  H226  470   4.891   4.551   2.378  0.4633  0.2616 -0.9405
    2CHTO  C126  471   4.770   4.496   2.213  0.3937  0.2784  0.0050
    2CHTO   O85  472   4.838   4.372   2.221 -0.3828  0.0980 -0.1718
    2CHTO  H206  473   4.774   4.305   2.206  0.2284 -0.4512 -0.3749
    2CHTO  C121  474   4.737   4.709   2.358 -0.9514 -0.1426  0.4462
    2CHTO  H225  475   4.636   4.678   2.324 -0.9575  0.4508 -0.0800
    2CHTO   O81  476   4.733   4.713   2.502  0.0032  0.1472  0.2656
    2CHTO  H202  477   4.732   4.625   2.536  0.2622  0.0405 -0.0036
    2CHTO  C119  478   4.770   4.857   2.303 -0.3575 -0.0606  0.6458
    2CHTO  H223  479   4.758   4.859   2.195 -1.0090 -1.1812  0.6867
    2CHTO  C117  480   4.911   4.894   2.325 -1.3698 -0.6302 -0.5914
    2CHTO  H221  481   4.930   4.918   2.430 -2.4071  2.1765 -1.0018
    2CHTO   N20  482   4.953   5.020   2.258  0.9172  0.0075  0.5892
    2CHTO  H209  483   5.047   5.059   2.294  0.6462  0.8533  0.3900
    2CHTO  H210  484   4.873   5.092   2.257  1.9403  1.1360 -0.4556
    2CHTO   O80  485   4.651   4.963   2.358 -0.1116 -0.4344 -0.2962
    2CHTO  C103  486   4.584   5.060   2.244 -0.3047  0.2064 -0.4094
    2CHTO  H190  487   4.660   5.109   2.183  0.6128 -1.5621 -0.7207
    2CHTO  C101  488   4.481   4.999   2.151 -0.1001  0.5456  0.9447
    2CHTO  H188  489   4.417   4.932   2.208 -0.2740 -0.9164 -0.9171
    2CHTO   O68  490   4.553   4.904   2.039  0.3426  0.4065  0.2686
    2CHTO  H168  491   4.600   4.835   2.082  1.3272  0.2139 -1.1117
    2CHTO   C99  492   4.398   5.115   2.082 -0.0799 -0.6638 -0.1463
    2CHTO  H186  493   4.465   5.178   2.021  3.0267 -3.7017 -0.0036
    2CHTO   N17  494   4.288   5.075   1.993 -0.0979 -0.5146  0.0508
    2CHTO  H174  495   4.310   4.993   1.926  1.0731  0.1688 -0.4006
    2CHTO  H175  496   4.187   5.066   2.030 -0.2686 -1.0601 -0.5273
    2CHTO   C97  497   4.344   5.216   2.186 -0.0494 -0.2058 -0.5519
    2CHTO  H184  498   4.272   5.166   2.253  1.1106  0.6729  1.4000
    2CHTO   O64  499   4.456   5.269   2.259  0.0602  0.6159 -0.2802
    2CHTO  C104  500   4.522   5.177   2.340  0.4726  0.3905  0.3073
    2CHTO  H191  501   4.448   5.136   2.409  3.0105 -0.1111  2.8233
    2CHTO  C108  502   4.629   5.240   2.424 -0.3112 -0.0715 -0.6038
    2CHTO   O71  503   4.601   5.361   2.494 -0.0466  0.1841  0.5017
    2CHTO  H171  504   4.627   5.351   2.584  1.1283 -0.9559  0.0523
    2CHTO   O62  505   4.286   5.342   2.130  0.8341  0.3220 -0.5243
    2CHTO   C91  506   4.181   5.403   2.194 -0.0718  0.2352  0.2211
    2CHTO  H178  507   4.139   5.327   2.260  2.4316 -0.1943  1.3687
    2CHTO   C92  508   4.075   5.427   2.088  0.2310  0.1940  0.4583
    2CHTO  H179  509   4.080   5.344   2.016  3.7895  0.3730  0.3814
    2CHTO   O66  510   3.951   5.426   2.159 -0.1472  0.2894  0.4627
    2CHTO  H166  511   3.930   5.338   2.185  0.3157 -0.0770 -0.3577
    2CHTO   C93  512   4.080   5.566   2.018 -0.7447  0.2792  0.6287
    2CHTO  H180  513   3.979   5.582   1.976  0.5630  0.4315 -2.6498
    2CHTO   N16  514   4.167   5.550   1.895 -0.6656  0.1219  0.1544
    2CHTO  H172  515   4.157   5.458   1.839 -2.2739  0.2343  0.2271
    2CHTO  H173  516   4.266   5.565   1.935 -1.0002 -1.3677  1.6092
    2CHTO   C94  517   4.124   5.689   2.108  0.3396  0.4508  0.0906
    2CHTO  H181  518   4.222   5.730   2.082  0.8037  0.5251  1.8681
    2CHTO   O61  519   4.138   5.644   2.244 -0.1517  0.0688  0.4697
    2CHTO   C95  520   4.213   5.530   2.273 -0.5315 -0.5719 -0.4089
    2CHTO  H182  521   4.315   5.552   2.239 -0.6525 -0.3377 -0.6208
    2CHTO  C106  522   4.200   5.506   2.432 -0.4171  0.5537  0.0149
    2CHTO   O69  523   4.277   5.402   2.486 -0.0641  0.1820  0.2785
    2CHTO  H169  524   4.258   5.400   2.578 -0.8406 -2.1773  0.0928
    2CHTO   O63  525   4.023   5.795   2.093  0.7332 -0.1603  0.3287
    2CHTO   C96  526   4.053   5.922   2.174 -0.4825 -0.1109  0.1469
    2CHTO  H183  527   4.149   5.905   2.223  0.0225  1.1034 -0.4206
    2CHTO   C98  528   3.947   5.959   2.282 -0.2865  0.5660 -0.4144
    2CHTO  H185  529   3.845   5.946   2.245 -0.2006  1.4066 -0.9644
    2CHTO   O67  530   3.970   5.860   2.387 -0.3167 -0.1478 -0.2781
    2CHTO  H167  531   3.914   5.869   2.462 -2.0782 -3.5463 -1.0702
    2CHTO  C102  532   3.959   6.112   2.336  0.2001 -0.1824 -0.2680
    2CHTO  H189  533   4.044   6.119   2.405 -0.7078 -0.9535  0.9711
    2CHTO   N18  534   3.843   6.156   2.419 -0.3131  0.4875 -0.0650
    2CHTO  H176  535   3.831   6.082   2.497 -1.3489  2.4641  1.7081
    2CHTO  H177  536   3.858   6.248   2.472 -3.6159  0.0752  1.7214
    2CHTO  C105  537   3.974   6.209   2.215  0.0473  0.6695 -0.3939
    2CHTO  H192  538   3.879   6.208   2.162 -1.0065 -0.8189  1.4623
    2CHTO   O65  539   4.083   6.168   2.126  0.2207 -0.0169 -0.4435
    2CHTO  C100  540   4.060   6.047   2.067 -0.1965 -0.6500 -0.6182
    2CHTO  H187  541   3.964   6.067   2.016 -0.7892 -2.1361 -0.1456
    2CHTO  C107  542   4.176   6.033   1.964  0.0090  0.0089 -0.1403
    2CHTO   O70  543   4.147   5.923   1.874 -0.0064  0.1092  0.3221
    2CHTO  H170  544   4.072   5.938   1.819  1.4524  0.9769 -1.5067
    2CHTO   O57  545   4.019   6.357   2.268 -0.1307  0.2817  0.2089
    2CHTO   C85  546   3.998   6.473   2.181  0.6574  0.4876 -0.2273
    2CHTO  H157  547   3.889   6.496   2.175  0.5172 -0.1373 -0.0889
    2CHTO   C83  548   4.042   6.452   2.033  0.8831 -0.1129  0.0043
    2CHTO  H155  549   3.997   6.365   1.985  0.1361  0.1556  0.2068
    2CHTO   O56  550   4.179   6.415   2.042 -0.5617  0.3827  0.6039
    2CHTO  H135  551   4.218   6.415   1.956 -0.0127 -0.5193  0.8387
    2CHTO   C81  552   4.017   6.582   1.946  0.5609 -0.2197 -0.7405
    2CHTO  H153  553   3.911   6.606   1.953  0.2755 -1.8315  0.7796
    2CHTO   N14  554   4.037   6.566   1.798 -0.1262 -0.1383  0.6437
    2CHTO  H141  555   3.941   6.570   1.751  0.0183  0.8705  0.4300
    2CHTO  H142  556   4.098   6.641   1.753 -2.1582  1.5074  0.5130
    2CHTO   C79  557   4.096   6.701   2.013  0.1370  0.1210  0.1089
    2CHTO  H151  558   4.065   6.793   1.963 -0.2145 -0.8793 -1.5782
    2CHTO   O52  559   4.065   6.716   2.158 -0.1471 -0.1707  0.2432
    2CHTO   C86  560   4.080   6.597   2.238 -0.5191  0.4149  0.0218
    2CHTO  H158  561   4.188   6.572   2.238 -0.5831  0.1150  0.5361
    2CHTO   C90  562   4.045   6.636   2.378  0.4582 -0.1518 -0.0417
    2CHTO   O60  563   4.086   6.542   2.476  0.3269  0.1943 -0.3206
    2CHTO  H138  564   4.175   6.552   2.503  0.3727  1.7478 -0.9860
    2CHTO   O50  565   4.237   6.693   2.010 -0.2220  0.5701  0.2430
    2CHTO   C73  566   4.347   6.780   1.998 -0.5548 -0.7521 -0.0578
    2CHTO  H145  567   4.316   6.884   2.016 -0.1064 -0.4147 -1.1553
    2CHTO   C74  568   4.408   6.768   1.849  0.3452 -0.1752  0.3884
    2CHTO  H146  569   4.321   6.784   1.783  0.5438  0.3056  0.2429
    2CHTO   O54  570   4.498   6.876   1.829  0.3020 -0.1371  0.1980
    2CHTO  H133  571   4.465   6.959   1.857 -1.4202 -0.1736 -1.6053
    2CHTO   C75  572   4.464   6.621   1.829 -0.2040 -0.4788 -0.1598
    2CHTO  H147  573   4.380   6.551   1.845 -0.9097  0.3632 -0.1153
    2CHTO   N13  574   4.519   6.595   1.691  0.5264 -0.4425  0.0126
    2CHTO  H139  575   4.475   6.500   1.666 -1.2040  0.6917 -1.4184
    2CHTO  H140  576   4.626   6.608   1.693  0.3629  0.8296  1.0833
    2CHTO   C76  577   4.575   6.589   1.934  0.3491 -0.4746  0.1885
    2CHTO  H148  578   4.661   6.654   1.916  1.0083 -1.7590 -1.3605
    2CHTO   O49  579   4.519   6.610   2.068 -0.1281 -0.2903 -0.1319
    2CHTO   C77  580   4.471   6.743   2.089  0.1137  0.2370 -0.4765
    2CHTO  H149  581   4.544   6.823   2.091 -0.3931  0.6821  0.5693
    2CHTO   C88  582   4.432   6.737   2.241  0.0269 -0.1844  0.2835
    2CHTO   O58  583   4.349   6.842   2.278  0.1376  0.2922  0.2768
    2CHTO  H136  584   4.374   6.911   2.336 -2.2583  1.5345 -0.0861
    2CHTO   O51  585   4.616   6.442   1.939 -0.2287  0.2765 -0.1486
    2CHTO   C78  586   4.692   6.379   2.076 -0.5091 -0.4102 -0.1296
    2CHTO  H150  587   4.665   6.447   2.159 -0.0804 -0.7322  0.2770
    2CHTO   C80  588   4.842   6.376   2.065 -0.2992  0.6038  0.0486
    2CHTO  H152  589   4.864   6.340   1.963 -0.7488 -2.9661  1.1492
    2CHTO   O55  590   4.886   6.508   2.078  0.4386 -0.0382 -0.1460
    2CHTO  H134  591   4.972   6.520   2.044 -0.2870  3.3390 -0.9691
    2CHTO   C84  592   4.906   6.286   2.174 -0.5933  0.1844  0.4179
    2CHTO  H156  593   4.913   6.336   2.270 -0.3040 -1.9630  1.5477
    2CHTO   N15  594   5.048   6.256   2.143 -0.2605 -0.0476  0.4871
    2CHTO  H143  595   5.092   6.265   2.240 -0.5057  0.0174  0.5935
    2CHTO  H144  596   5.055   6.154   2.112 -2.4030 -0.3492  0.8833
    2CHTO   C87  597   4.832   6.156   2.204 -0.3781  0.1654  0.1701
    2CHTO  H159  598   4.841   6.080   2.127 -2.1239  2.9528 -2.8684
    2CHTO   O53  599   4.681   6.192   2.221  0.1484 -0.4618  0.4333
    2CHTO   C82  600   4.627   6.238   2.103 -0.6293 -0.0300  0.2836
    2CHTO  H154  601   4.640   6.169   2.020  0.0647  0.0219  0.3422
    2CHTO   C89  602   4.476   6.257   2.123  0.1012  0.4789 -0.4048
    2CHTO   O59  603   4.442   6.346   2.229  0.3418  0.0417  0.6566
    2CHTO  H137  604   4.403   6.422   2.192 -0.4114 -1.5328 -1.9056
    2CHTO   O45  605   4.894   6.100   2.336 -0.3235 -0.8348 -0.1624
    2CHTO   C67  606   4.805   6.010   2.405  0.5029 -0.2432 -0.7053
    2CHTO  H124  607   4.702   6.045   2.408  0.9201  1.0469 -1.0956
    2CHTO   C65  608   4.802   5.869   2.334 -1.0375 -0.1089  0.6062
    2CHTO  H122  609   4.897   5.856   2.283 -1.5076 -0.8562 -0.0928
    2CHTO   O44  610   4.695   5.860   2.237  0.1755  0.3467 -0.0600
    2CHTO  H102  611   4.617   5.840   2.285  0.5258 -1.2149 -0.1052
    2CHTO   C63  612   4.809   5.751   2.435 -0.2865  0.5701 -0.0951
    2CHTO  H120  613   4.912   5.745   2.469 -0.0022 -3.5522 -1.4339
    2CHTO   N11  614   4.793   5.615   2.370  0.3461 -0.3535  0.0151
    2CHTO  H108  615   4.693   5.584   2.389  0.6692 -1.2806  0.2204
    2CHTO  H109  616   4.815   5.618   2.265  0.5476 -2.2537 -0.0172
    2CHTO   C61  617   4.715   5.779   2.556  0.5373  0.1441  0.4460
    2CHTO  H118  618   4.719   5.693   2.625 -1.6574  0.3188  0.8228
    2CHTO   O40  619   4.768   5.900   2.630 -0.5062  0.1267 -0.0252
    2CHTO   C68  620   4.850   5.995   2.557  0.3836  0.0264 -0.2353
    2CHTO  H125  621   4.954   5.956   2.562 -0.2302 -2.0891 -3.2016
    2CHTO   C72  622   4.853   6.127   2.641 -0.4555  0.1002  0.0101
    2CHTO   O48  623   4.878   6.099   2.779 -0.1665 -0.1673 -0.4228
    2CHTO  H105  624   4.959   6.138   2.805  0.4102 -2.4244  1.2916
    2CHTO   O38  625   4.574   5.791   2.520 -0.0799  0.5027 -0.7319
    2CHTO   C55  626   4.480   5.825   2.627  0.3384 -0.2127  0.4244
    2CHTO  H112  627   4.540   5.882   2.699  0.9098 -1.7290  1.1658
    2CHTO   C56  628   4.417   5.699   2.690  0.6626 -0.6517  0.5151
    2CHTO  H113  629   4.370   5.643   2.608 -1.6729 -1.0619  2.1157
    2CHTO   O42  630   4.529   5.625   2.749  0.3316  0.1188 -0.5231
    2CHTO  H100  631   4.574   5.675   2.814 -2.1811  1.6380  0.1644
    2CHTO   C57  632   4.302   5.730   2.798  0.4904 -0.0619  0.4080
    2CHTO  H114  633   4.349   5.763   2.891 -1.2801  0.4857  1.1252
    2CHTO   N10  634   4.225   5.610   2.839  0.1003  0.3402  0.2132
    2CHTO  H106  635   4.266   5.561   2.926 -1.8404  0.6378  1.3486
    2CHTO  H107  636   4.126   5.642   2.869 -0.2426 -0.1818 -0.3361
    2CHTO   C58  637   4.207   5.845   2.748 -0.4369 -0.0560 -1.0641
    2CHTO  H115  638   4.127   5.798   2.686 -1.3437 -0.0448  0.0753
    2CHTO   O37  639   4.287   5.947   2.687  0.3959 -0.0083 -0.2700
    2CHTO   C59  640   4.361   5.912   2.570 -0.3504 -1.0151  0.3944
    2CHTO  H116  641   4.313   5.864   2.485 -0.5595  3.2881 -2.0147
    2CHTO   C70  642   4.418   6.043   2.521  0.3954 -0.3867  1.0139
    2CHTO   O46  643   4.310   6.124   2.476 -0.2159  0.3942  0.2570
    2CHTO  H103  644   4.273   6.181   2.541 -0.6603 -1.2720  1.4991
    2CHTO   O39  645   4.133   5.912   2.880  0.0438  0.7033 -0.6438
    2CHTO   C60  646   4.003   5.962   2.845 -0.5212  0.4518 -0.3770
    2CHTO  H117  647   3.986   5.945   2.739 -1.9193 -2.1402  0.2192
    2CHTO   C62  648   3.885   5.894   2.923  0.1737  0.7212  0.3777
    2CHTO  H119  649   3.910   5.788   2.899  4.4436  1.5809  0.5478
    2CHTO   O43  650   3.898   5.923   3.065  0.3562  0.3220 -0.5026
    2CHTO  H101  651   3.974   5.878   3.095 -0.3550 -0.6318 -0.0949
    2CHTO   C66  652   3.742   5.945   2.857 -0.6513  0.2225 -0.1130
    2CHTO  H123  653   3.744   5.915   2.752 -0.6292 -0.3615  0.0511
    2CHTO   N12  654   3.629   5.869   2.916 -0.2237  0.5087 -0.0480
    2CHTO  H110  655   3.638   5.876   3.024 -2.7350  0.6226  0.1882
    2CHTO  H111  656   3.535   5.902   2.873 -0.0229  0.6378 -0.3886
    2CHTO   C69  657   3.733   6.097   2.871  0.6239 -0.1144 -0.4799
    2CHTO  H126  658   3.713   6.133   2.974 -1.5596 -2.0844 -0.1767
    2CHTO   O41  659   3.862   6.163   2.813 -0.6825 -0.2045 -0.0300
    2CHTO   C64  660   3.993   6.115   2.873 -0.4109  0.6797  0.2898
    2CHTO  H121  661   4.011   6.134   2.981 -1.2627  2.1832  0.1712
    2CHTO   C71  662   4.097   6.199   2.798 -0.4243 -0.3805 -0.2953
    2CHTO   O47  663   4.093   6.176   2.655  0.3167 -0.4953 -0.0654
    2CHTO  H104  664   4.105   6.086   2.632 -3.8546 -1.5501  1.3154
    2CHTO   O34  665   3.610   6.148   2.786  0.2914 -0.2862  0.0702
    2CHTO   C49  666   3.494   6.260   2.781 -0.4386  0.1583 -1.4063
    2CHTO   H91  667   3.400   6.207   2.797 -0.9574  1.3773 -0.3707
    2CHTO   C47  668   3.498   6.331   2.649 -0.2698  0.5106 -0.9927
    2CHTO   H89  669   3.409   6.398   2.647 -0.9757 -0.3132  1.0782
    2CHTO   O33  670   3.488   6.225   2.547 -0.0583 -0.2876  0.3310
    2CHTO   H70  671   3.502   6.233   2.455 -2.1328  1.0623  0.1025
    2CHTO   C45  672   3.634   6.411   2.637 -0.2899 -0.1706  0.1555
    2CHTO   H87  673   3.720   6.345   2.659 -0.0300  0.0739 -0.1239
    2CHTO    N8  674   3.650   6.463   2.497  0.9085 -0.3462  0.0480
    2CHTO   H75  675   3.594   6.555   2.485  0.1418 -1.1935 -3.4046
    2CHTO   H76  676   3.751   6.501   2.499 -0.0866  2.4293  2.5516
    2CHTO   C43  677   3.646   6.517   2.758 -0.1639 -0.3505  0.1249
    2CHTO   H85  678   3.746   6.558   2.746 -0.3542  0.2217  0.4291
    2CHTO   O29  679   3.630   6.449   2.891 -0.0799  0.1277 -0.0081
    2CHTO   C50  680   3.515   6.359   2.896 -0.1715  0.1304  0.3730
    2CHTO   H92  681   3.526   6.292   2.983 -2.1153  0.9857  1.3388
    2CHTO   C54  682   3.393   6.441   2.923 -0.0272  0.0424 -0.0813
    2CHTO   O36  683   3.386   6.503   3.052 -0.1556 -0.4031 -0.2598
    2CHTO   H72  684   3.298   6.512   3.082  0.3309  1.0982  0.7825
    2CHTO   O27  685   3.551   6.618   2.737 -0.3116 -0.1070 -0.2117
    2CHTO   C37  686   3.499   6.734   2.659  0.4501  0.3614 -0.0210
    2CHTO   H79  687   3.514   6.725   2.550  2.0039  3.0515 -0.0460
    2CHTO   C38  688   3.348   6.746   2.674 -0.0727 -0.4838 -0.4318
    2CHTO   H80  689   3.330   6.769   2.780  0.1563 -0.6224 -0.3638
    2CHTO   O31  690   3.291   6.626   2.618 -0.2542 -0.1228 -0.9421
    2CHTO   H68  691   3.224   6.585   2.669 -0.7906  0.9522 -0.7893
    2CHTO   C39  692   3.293   6.873   2.595 -0.6619  0.3143 -0.6377
    2CHTO   H81  693   3.312   6.851   2.490 -0.0962  0.0393 -0.4843
    2CHTO    N7  694   3.140   6.891   2.608  0.2208 -0.3518  0.7955
    2CHTO   H73  695   3.113   6.979   2.552 -1.1814 -1.0109  0.4234
    2CHTO   H74  696   3.105   6.907   2.709  0.1827 -1.3776  0.9559
    2CHTO   C40  697   3.375   7.001   2.635 -0.0309  0.3142  0.3649
    2CHTO   H82  698   3.344   7.032   2.735 -1.7746 -0.6860  0.1515
    2CHTO   O26  699   3.514   6.976   2.627 -0.3265  0.2640 -0.1342
    2CHTO   C41  700   3.568   6.867   2.700 -0.9788 -0.9076 -0.0332
    2CHTO   H83  701   3.550   6.895   2.805 -2.6129  0.9563 -0.7872
    2CHTO   C52  702   3.718   6.860   2.683 -0.2598  0.1531 -0.1943
    2CHTO   O35  703   3.800   6.991   2.732  0.0228 -0.1746  0.2780
    2CHTO   H71  704   3.882   6.988   2.686 -0.4744  0.2501 -0.6365
    2CHTO   O28  705   3.346   7.109   2.546  0.0385 -0.7842  0.3146
    2CHTO   C42  706   3.370   7.248   2.572 -0.3356  0.2266 -0.3619
    2CHTO   H84  707   3.334   7.306   2.487 -1.3050  0.3674  0.1316
    2CHTO   C44  708   3.519   7.278   2.607 -0.0243  0.8170 -0.4266
    2CHTO   H86  709   3.555   7.202   2.676  2.0625  1.8657 -0.3212
    2CHTO   O32  710   3.579   7.257   2.471  0.2075 -0.7837  0.6638
    2CHTO   H69  711   3.672   7.260   2.486  0.7156 -0.9011 -2.1697
    2CHTO   C48  712   3.553   7.420   2.671  0.2086  0.0578 -0.1617
    2CHTO   H90  713   3.528   7.490   2.591  0.8005  2.3332  1.5597
    2CHTO    N9  714   3.699   7.435   2.704 -0.1722 -0.0057  0.6394
    2CHTO   H77  715   3.718   7.520   2.769 -2.9795 -0.1965  1.8057
    2CHTO   H78  716   3.753   7.345   2.728 -0.6761 -0.3989  0.2932
    2CHTO   C51  717   3.462   7.448   2.795  0.0182  0.5535 -0.1001
    2CHTO   H93  718   3.487   7.379   2.875  2.7909  0.5305 -0.9611
    2CHTO   O30  719   3.322   7.432   2.747  0.6587 -0.3589  0.2974
    2CHTO   C46  720   3.289   7.290   2.698  0.4606  0.2865  0.2475
    2CHTO   H88  721   3.324   7.235   2.785  0.3381 -1.3187 -0.6826
    2CHTO   C53  722   3.133   7.278   2.673  0.1820  0.3567 -0.3879
    2CHTO   O72  723   3.064   7.285   2.794  0.8482 -0.1701  0.4686
    2CHTO  H199  724   3.112   7.346   2.847  1.4327  1.5662 -1.9540
    2CHTO   O22  725   3.481   7.579   2.852 -0.6410  0.5934 -0.3163
    2CHTO   C31  726   3.436   7.611   2.994 -0.7888 -0.9602  0.3192
    2CHTO   H59  727   3.440   7.722   3.000  3.5723 -1.1243  3.1539
    2CHTO   C29  728   3.299   7.559   3.028 -0.0008  0.0038 -0.7463
    2CHTO   H57  729   3.293   7.451   3.010 -0.7272  0.0102 -0.5593
    2CHTO   O21  730   3.211   7.626   2.945  0.1980 -0.1178  0.1826
    2CHTO   H37  731   3.241   7.643   2.858  3.0843 -1.2341  0.8796
    2CHTO   C27  732   3.262   7.594   3.179  0.6178 -0.3274 -0.0575
    2CHTO   H55  733   3.252   7.702   3.194  4.2505  0.4268 -2.5234
    2CHTO    N5  734   3.134   7.527   3.228 -0.0487 -0.1292 -0.2695
    2CHTO   H43  735   3.046   7.556   3.173 -0.3417 -0.5016 -0.0012
    2CHTO   H44  736   3.117   7.547   3.332  0.2914  0.2519 -0.2848
    2CHTO   C25  737   3.382   7.548   3.267 -0.2576  0.4758 -0.5145
    2CHTO   H53  738   3.379   7.438   3.263  0.4460  0.4679 -0.8961
    2CHTO   O17  739   3.507   7.611   3.225  0.2056  0.2682  0.6996
    2CHTO   C32  740   3.549   7.565   3.097  0.1865 -0.3485 -0.6546
    2CHTO   H60  741   3.559   7.457   3.091 -1.6212 -0.5851  0.1994
    2CHTO   C36  742   3.684   7.633   3.075 -0.4464  0.0845  0.4517
    2CHTO   O25  743   3.786   7.553   3.128  0.0830 -0.0420 -0.2816
    2CHTO   H40  744   3.797   7.574   3.218  0.5754  1.6144 -0.7167
    2CHTO   O15  745   3.361   7.594   3.410  0.1155 -0.0721  0.3774
    2CHTO   C19  746   3.382   7.510   3.534  0.2546  0.2335 -0.0885
    2CHTO   H47  747   3.335   7.413   3.515  1.7460 -0.2678 -1.3612
    2CHTO   C20  748   3.533   7.490   3.577  0.0184  0.4345 -0.5297
    2CHTO   H48  749   3.578   7.582   3.617 -0.5420  0.2066  0.6609
    2CHTO   O19  750   3.605   7.439   3.458 -0.3663 -0.2494  0.7459
    2CHTO   H35  751   3.696   7.426   3.477 -0.5490 -1.4668  0.8324
    2CHTO   C21  752   3.537   7.387   3.694 -0.5054 -0.3913  0.1172
    2CHTO   H49  753   3.506   7.289   3.659  0.5316 -1.5667  2.3534
    2CHTO    N4  754   3.676   7.349   3.734 -0.4427 -0.1799 -0.2961
    2CHTO   H41  755   3.738   7.321   3.650  0.6401  2.0220 -0.2783
    2CHTO   H42  756   3.733   7.424   3.788  0.8710 -1.4531  0.1320
    2CHTO   C22  757   3.447   7.438   3.811  0.7133 -0.0382  0.1384
    2CHTO   H50  758   3.500   7.509   3.875  0.5827 -0.4755  0.7321
    2CHTO   O14  759   3.308   7.474   3.769  0.5137  0.1058 -0.6905
    2CHTO   C23  760   3.308   7.566   3.660  0.8914  0.0933  0.2199
    2CHTO   H51  761   3.363   7.650   3.707  1.6003 -0.4874  0.4418
    2CHTO   C34  762   3.163   7.603   3.635  0.9068 -1.0216  0.3760
    2CHTO   O23  763   3.097   7.687   3.735  0.5836  0.1891 -0.0063
    2CHTO   H38  764   3.108   7.665   3.826 -3.3171  2.2181  1.0412
    2CHTO   O16  765   3.409   7.328   3.895 -0.1349 -0.1275 -0.3887
    2CHTO   C24  766   3.427   7.333   4.056  0.0829  0.2546 -0.5230
    2CHTO   H52  767   3.512   7.392   4.088  1.6415  0.0319 -4.0250
    2CHTO   C26  768   3.444   7.184   4.102 -0.1873  0.0632 -0.2540
    2CHTO   H54  769   3.359   7.126   4.062 -0.5474  0.1493  0.3801
    2CHTO   O20  770   3.564   7.136   4.035  0.0781 -0.4479  0.5922
    2CHTO   H36  771   3.538   7.146   3.946 -4.1882  0.5120  1.8214
    2CHTO   C30  772   3.440   7.165   4.256 -0.1781  0.0747  0.1072
    2CHTO   H58  773   3.538   7.200   4.292  0.5531 -1.1196 -0.6503
    2CHTO    N6  774   3.453   7.021   4.298  0.2561 -0.2581  0.1728
    2CHTO   H45  775   3.381   6.993   4.373  0.7615  0.1166  0.7998
    2CHTO   H46  776   3.456   6.952   4.215  1.9097 -1.1636  0.9546
    2CHTO   C33  777   3.316   7.240   4.312 -0.4637  0.9498 -1.0881
    2CHTO   H61  778   3.225   7.187   4.283 -1.1728  0.4566  1.8782
    2CHTO   O18  779   3.305   7.374   4.263  0.3688  0.3357 -0.0931
    2CHTO   C28  780   3.299   7.395   4.117  0.0592 -0.0439 -0.2565
    2CHTO   H56  781   3.213   7.347   4.071  0.0907 -1.5068  1.1544
    2CHTO   C35  782   3.284   7.553   4.093 -0.6450 -0.5810 -0.7587
    2CHTO   O24  783   3.160   7.603   4.140 -0.2258 -0.4070 -0.2512
    2CHTO   H39  784   3.152   7.695   4.122 -0.4639  0.0826  2.2111
    2CHTO    O9  785   3.324   7.236   4.453  0.7526  0.1817  0.5502
    2CHTO   C13  786   3.216   7.258   4.535 -0.1410 -0.2881 -0.4300
    2CHTO   H26  787   3.131   7.209   4.484 -0.0691 -1.6056  0.6766
    2CHTO   C11  788   3.190   7.418   4.556 -1.0017 -1.2213  0.3754
    2CHTO   H24  789   3.156   7.471   4.465 -1.7209  0.2577  1.4900
    2CHTO    O8  790   3.313   7.490   4.592 -0.4590 -0.2930  0.0669
    2CHTO    H3  791   3.344   7.465   4.677 -0.3714 -1.0246 -0.1717
    2CHTO    C9  792   3.077   7.434   4.655  0.1285  0.2415 -0.0790
    2CHTO   H22  793   2.989   7.390   4.606  1.0939 -0.2335 -1.4058
    2CHTO    N2  794   3.032   7.580   4.663  0.3978  0.5057 -0.1723
    2CHTO   H10  795   3.068   7.640   4.581  0.2029  0.2934 -0.4110
    2CHTO   H11  796   2.924   7.587   4.663  0.4992  2.3839  0.9495
    2CHTO    C7  797   3.115   7.369   4.789 -0.6672  0.4159 -0.5107
    2CHTO   H20  798   3.022   7.373   4.850  0.2032 -1.0425  0.9391
    2CHTO    O4  799   3.143   7.225   4.767 -0.0843  0.1707  0.1849
    2CHTO   C14  800   3.240   7.181   4.667  0.2811  0.5089 -0.0656
    2CHTO   H27  801   3.217   7.074   4.645  1.1307 -0.1665  2.2405
    2CHTO   C18  802   3.388   7.181   4.717  0.1515  0.1378  0.2379
    2CHTO   O13  803   3.424   7.092   4.825 -0.5625 -0.3870 -0.4223
    2CHTO    H7  804   3.511   7.060   4.810 -0.7113 -0.4145 -1.2839
    2CHTO    O2  805   3.238   7.433   4.854 -0.1789 -0.0512  0.4764
    2CHTO    C1  806   3.233   7.460   4.998  0.2210 -0.2279 -0.7163
    2CHTO   H14  807   3.208   7.367   5.054  1.3945 -0.2361 -0.1859
    2CHTO    C2  808   3.147   7.587   5.046 -0.2876  0.4245  0.0990
    2CHTO   H15  809   3.191   7.668   4.985 -0.7095 -0.8653 -1.9651
    2CHTO    O6  810   3.009   7.564   5.028  0.5176 -0.1196  0.4124
    2CHTO    H1  811   2.985   7.490   5.080 -1.2885  2.0059  2.6903
    2CHTO    C3  812   3.176   7.624   5.202  0.0956 -0.0003 -0.0444
    2CHTO   H16  813   3.146   7.543   5.270  1.3479  1.0143  1.7874
    2CHTO    N1  814   3.090   7.734   5.260  0.7399 -0.1124 -0.0955
    2CHTO    H8  815   2.986   7.710   5.243  0.5110 -1.7172  3.2365
    2CHTO    H9  816   3.133   7.822   5.215  2.4517 -1.9805 -2.2241
    2CHTO    C4  817   3.337   7.647   5.231 -0.1101  0.2290  0.2640
    2CHTO   H17  818   3.376   7.738   5.184  0.1402 -0.9539 -1.8807
    2CHTO    O1  819   3.409   7.533   5.178  0.9924 -0.9482 -0.0711
    2CHTO    C5  820   3.381   7.487   5.038 -0.6742  0.4903 -0.7190
    2CHTO   H18  821   3.432   7.563   4.979  3.0556 -1.5903 -0.2862
    2CHTO   C16  822   3.465   7.355   5.027  0.1904 -0.4640 -0.5570
    2CHTO   O11  823   3.424   7.246   5.117 -0.1562 -0.1504  0.8390
    2CHTO    H5  824   3.333   7.227   5.104 -0.2180  0.5759  0.1915
    2CHTO    O3  825   3.357   7.639   5.372 -0.3753  0.2350 -0.3231
    2CHTO    C6  826   3.404   7.769   5.437 -0.0978  0.1613 -0.6049
    2CHTO   H19  827   3.385   7.850   5.367  1.3539  0.7249 -0.3497
    2CHTO    C8  828   3.337   7.806   5.571  0.3676 -0.4083 -0.0718
    2CHTO   H21  829   3.342   7.716   5.633  0.1860 -0.3305  0.0557
    2CHTO    O7  830   3.201   7.837   5.538 -0.3647 -0.0211 -0.4161
    2CHTO    H2  831   3.153   7.757   5.530  1.1221 -0.9782  0.0619
    2CHTO   C12  832   3.397   7.933   5.643  0.1116 -0.1783 -0.2618
    2CHTO   H25  833   3.367   8.021   5.582  0.4363 -0.8747 -1.4444
    2CHTO    N3  834   3.333   7.960   5.776  0.3517 -0.5653 -0.0548
    2CHTO   H12  835   3.247   7.896   5.784  0.4613 -0.7108 -0.0466
    2CHTO   H13  836   3.299   8.063   5.783  0.9807 -0.3418 -0.2352
    2CHTO   C15  837   3.552   7.927   5.648 -0.2171  1.0255 -0.5983
    2CHTO   H28  838   3.583   7.854   5.722 -2.2246  0.7669  0.0207
    2CHTO   O10  839   3.612   8.069   5.686 -0.3098 -0.5865 -0.5687
    2CHTO    H4  840   3.573   8.141   5.640 -0.4553  1.3085  2.3571
    2CHTO    O5  841   3.609   7.898   5.521  0.0698 -0.2936 -0.3705
    2CHTO   C10  842   3.556   7.776   5.465  0.5012  0.1056  0.3511
    2CHTO   H23  843   3.585   7.698   5.535  3.7770  0.1746 -0.8231
    2CHTO   C17  844   3.642   7.747   5.343 -0.7469 -0.2499  0.7732
    2CHTO   O12  845   3.696   7.863   5.275  0.7322 -0.1561  0.0477
    2CHTO    H6  846   3.734   7.819   5.202 -2.9214 -2.8204 -0.3945
    3CHTO  H203  847   6.906   2.501   0.971  1.6825 -2.6019 -0.0186
    3CHTO   O82  848   6.947   2.511   0.887  0.1538 -0.0449 -0.5113
    3CHTO  C123  849   7.001   2.385   0.842  0.3929  0.3877  0.5355
    3CHTO  H227  850   7.050   2.406   0.746 -1.5964 -2.5464 -1.1699
    3CHTO   O77  851   7.098   2.339   0.940 -0.2780 -0.7249 -0.4320
    3CHTO  C118  852   7.162   2.212   0.932 -0.2368  0.5044  0.1282
    3CHTO  H222  853   7.213   2.206   0.835 -2.8506 -1.6684 -1.1715
    3CHTO  C125  854   7.262   2.211   1.050 -0.3440 -0.1042  1.0337
    3CHTO   O84  855   7.369   2.302   1.022 -0.2592 -0.6226 -0.4081
    3CHTO  H205  856   7.452   2.259   1.017  0.5292  0.9102 -0.9527
    3CHTO  C114  857   7.051   2.107   0.956 -0.5813  0.1569 -0.1353
    3CHTO  H218  858   7.001   2.124   1.051 -0.1429  0.5349  0.0261
    3CHTO  C116  859   6.946   2.120   0.839  0.9094 -0.0293 -0.5872
    3CHTO  H220  860   6.990   2.086   0.743 -0.2951 -1.2032 -0.7208
    3CHTO   O79  861   6.838   2.034   0.861 -0.0966  0.3964  0.0152
    3CHTO  H201  862   6.795   2.057   0.941  0.6604  2.5912 -0.1611
    3CHTO  C120  863   6.887   2.269   0.825 -0.1607  0.5894  0.3447
    3CHTO  H224  864   6.811   2.288   0.903 -1.7000 -0.0094 -0.9618
    3CHTO   N21  865   6.811   2.294   0.703 -0.0419  0.0950 -0.5420
    3CHTO  H211  866   6.763   2.199   0.684 -0.5597  0.3484 -0.5063
    3CHTO  H212  867   6.731   2.365   0.721 -0.0678 -0.8859  3.5779
    3CHTO   O75  868   7.109   1.977   0.965  0.4487 -0.1765 -0.3702
    3CHTO  C112  869   7.032   1.873   1.075  1.0132 -0.7315  0.2649
    3CHTO  H216  870   6.924   1.896   1.071  1.1027  0.1741  2.2152
    3CHTO   O73  871   7.080   1.906   1.209 -0.0677 -0.3665  0.0790
    3CHTO  C113  872   6.997   1.854   1.311 -0.2253 -0.2000 -0.8998
    3CHTO  H217  873   6.910   1.923   1.309 -1.7685 -2.0725 -0.2185
    3CHTO  C124  874   7.065   1.873   1.449 -0.3325 -0.1879  0.3545
    3CHTO   O83  875   7.175   1.784   1.475  0.8273 -0.5199  0.0632
    3CHTO  H204  876   7.205   1.789   1.564 -0.2986  0.0855  0.4170
    3CHTO  C109  877   6.957   1.704   1.285  0.0587 -0.2282 -0.0382
    3CHTO  H213  878   7.038   1.644   1.328  0.2210 -0.4955 -0.7112
    3CHTO  C110  879   6.932   1.656   1.135 -0.0883  0.1546 -0.5007
    3CHTO  H214  880   6.835   1.694   1.100  0.1791  0.5051 -0.8773
    3CHTO   O78  881   6.928   1.512   1.143 -0.1747  0.4583 -0.0270
    3CHTO  H200  882   6.839   1.486   1.158 -0.1873 -0.0407 -0.9275
    3CHTO  C111  883   7.040   1.722   1.055  0.4777  0.7227 -0.0265
    3CHTO  H215  884   7.136   1.684   1.094 -0.8515 -1.5391  1.1372
    3CHTO   N19  885   7.034   1.689   0.910 -0.1633 -0.9225 -0.0765
    3CHTO  H207  886   6.945   1.719   0.856  0.4487 -0.6364 -0.9395
    3CHTO  H208  887   7.120   1.725   0.855 -1.1924 -1.0731 -1.8434
    3CHTO   O74  888   6.829   1.674   1.349  0.1239  0.2756 -0.0952
    3CHTO  C115  889   6.829   1.572   1.462  0.1737 -0.7533  0.3027
    3CHTO  H219  890   6.929   1.533   1.482 -0.0092 -1.5610 -0.3098
    3CHTO   O76  891   6.789   1.641   1.600 -0.2389  0.5500  0.0361
    3CHTO  C122  892   6.656   1.691   1.609  0.2286 -0.0075  0.3522
    3CHTO  H226  893   6.664   1.796   1.582  1.4720  0.7423  3.3931
    3CHTO  C126  894   6.623   1.694   1.759  0.0337  0.3282 -0.9258
    3CHTO   O85  895   6.501   1.759   1.807  0.4677 -0.3802  0.0785
    3CHTO  H206  896   6.519   1.821   1.874  0.9501 -0.7061  0.2565
    3CHTO  C121  897   6.549   1.597   1.534 -0.3351 -0.0456  0.0750
    3CHTO  H225  898   6.455   1.586   1.592 -2.0313  0.4017 -2.5097
    3CHTO   O81  899   6.507   1.676   1.424 -0.0494  0.6065 -0.1393
    3CHTO  H202  900   6.563   1.675   1.349  0.2119  1.3638  0.0447
    3CHTO  C119  901   6.598   1.460   1.499  0.2928 -0.0011 -0.3289
    3CHTO  H223  902   6.620   1.419   1.598  1.7067  1.1994 -0.1224
    3CHTO  C117  903   6.733   1.458   1.414 -0.2319  0.0268  0.5606
    3CHTO  H221  904   6.718   1.473   1.307 -0.8884 -0.8077  0.5335
    3CHTO   N20  905   6.809   1.327   1.422 -0.2859 -0.2305 -0.7789
    3CHTO  H209  906   6.765   1.250   1.360 -1.1638 -0.1321 -0.2940
    3CHTO  H210  907   6.913   1.352   1.406 -0.1972  0.2749  0.5083
    3CHTO   O80  908   6.500   1.377   1.453  0.4032 -0.2531  0.8449
    3CHTO  C103  909   6.393   1.301   1.570 -0.4957  0.3524  0.6528
    3CHTO  H190  910   6.424   1.303   1.674  0.1946 -0.3430  0.4639
    3CHTO  C101  911   6.239   1.351   1.568  1.0579  0.0439  0.8310
    3CHTO  H188  912   6.204   1.357   1.465 -0.1939  1.3371  1.3141
    3CHTO   O68  913   6.232   1.478   1.636  0.4448 -0.0922 -0.0304
    3CHTO  H168  914   6.297   1.483   1.704  0.5403 -1.8482  0.0216
    3CHTO   C99  915   6.144   1.238   1.645 -0.0954  0.3888 -0.0150
    3CHTO  H186  916   6.178   1.230   1.751 -0.3130  0.0472  0.0307
    3CHTO   N17  917   5.997   1.274   1.647 -0.0098  0.0589 -0.2992
    3CHTO  H174  918   5.979   1.371   1.602  0.6706 -0.9904 -2.9426
    3CHTO  H175  919   5.953   1.258   1.744  1.1651 -0.2550  0.1883
    3CHTO   C97  920   6.171   1.098   1.582 -0.0949  0.1685  0.5784
    3CHTO  H184  921   6.141   1.102   1.476  0.3925 -0.5162  0.4121
    3CHTO   O64  922   6.313   1.068   1.597  0.4552  0.2207  0.2424
    3CHTO  C104  923   6.395   1.146   1.521  0.3967 -0.3370  0.3571
    3CHTO  H191  924   6.373   1.144   1.414 -0.8376  0.0973  0.6020
    3CHTO  C108  925   6.535   1.082   1.531 -0.0913  0.2521 -0.4572
    3CHTO   O71  926   6.533   0.965   1.457 -0.0753 -0.0945  0.2176
    3CHTO  H171  927   6.488   0.892   1.494  0.4952 -0.5865 -0.0506
    3CHTO   O62  928   6.106   0.995   1.652 -0.2308 -0.0215 -0.0061
    3CHTO   C91  929   6.059   0.872   1.594 -0.9914 -0.3901 -0.3708
    3CHTO  H178  930   6.088   0.884   1.490 -0.3567 -0.6838 -0.2284
    3CHTO   C92  931   5.898   0.863   1.588 -0.7832  0.8723  0.3644
    3CHTO  H179  932   5.867   0.859   1.693 -0.3581  1.4319  0.5133
    3CHTO   O66  933   5.847   0.980   1.522 -0.1548 -0.0663 -0.4194
    3CHTO  H166  934   5.756   1.003   1.526 -0.6622 -1.7181 -2.1671
    3CHTO   C93  935   5.856   0.728   1.511 -1.1563  0.4725  0.2422
    3CHTO  H180  936   5.875   0.750   1.404  0.1151  0.0474  0.3672
    3CHTO   N16  937   5.709   0.705   1.520  0.0011 -0.1702  0.5402
    3CHTO  H172  938   5.675   0.695   1.418 -0.3061  0.3936  0.5864
    3CHTO  H173  939   5.672   0.621   1.578 -0.3350  1.8101  3.3115
    3CHTO   C94  940   5.934   0.597   1.555  0.1362  0.4387  0.1380
    3CHTO  H181  941   5.897   0.549   1.645  2.4963 -1.8076 -0.0002
    3CHTO   O61  942   6.069   0.625   1.581 -0.0593 -0.5833  0.2540
    3CHTO   C95  943   6.106   0.733   1.660 -0.3183 -1.0079 -0.0862
    3CHTO  H182  944   6.063   0.728   1.760  0.4224  0.5181  0.3311
    3CHTO  C106  945   6.267   0.718   1.681 -0.7216 -0.0616  0.7082
    3CHTO   O69  946   6.336   0.751   1.560 -0.2697  0.2769  0.2449
    3CHTO  H169  947   6.272   0.742   1.492  2.0676 -1.8448 -1.7977
    3CHTO   O63  948   5.930   0.480   1.442 -0.2970  0.1713  0.0937
    3CHTO   C96  949   5.882   0.338   1.468  0.9010  0.4141  0.1109
    3CHTO  H183  950   5.933   0.283   1.388  0.2026 -1.6472  1.0488
    3CHTO   C98  951   5.721   0.325   1.438 -0.3638 -0.5977 -0.8388
    3CHTO  H185  952   5.665   0.380   1.515  1.7635  1.2959 -0.6013
    3CHTO   O67  953   5.695   0.393   1.314 -0.2133 -0.1953  0.2730
    3CHTO  H167  954   5.762   0.372   1.252  2.3255  2.2555  2.0575
    3CHTO  C102  955   5.679   0.172   1.440  0.6097  1.0190 -0.1193
    3CHTO  H189  956   5.734   0.122   1.359  0.9318 -0.0681  0.7638
    3CHTO   N18  957   5.535   0.147   1.409 -0.5667  0.3174 -0.3531
    3CHTO  H176  958   5.489   0.238   1.372 -3.4590 -1.2854 -0.8468
    3CHTO  H177  959   5.480   0.099   1.489 -0.7343  0.9355 -0.0913
    3CHTO  C105  960   5.730   0.102   1.567 -0.5996  0.3345  0.0486
    3CHTO  H192  961   5.673   0.140   1.651 -0.9881  1.0450 -0.5255
    3CHTO   O65  962   5.868   0.126   1.592 -0.0313  0.0827 -0.4945
    3CHTO  C100  963   5.909   0.264   1.605 -0.2961 -0.6832 -0.4576
    3CHTO  H187  964   5.851   0.323   1.677 -0.4965  1.1882 -2.1102
    3CHTO  C107  965   6.056   0.267   1.650  0.2622 -0.4862 -0.3965
    3CHTO   O70  966   6.078   0.200   1.776 -0.2237 -0.3562  0.4329
    3CHTO  H170  967   6.114   0.115   1.759  1.3933  0.1809  1.0401
    3CHTO   O57  968   5.724  -0.040   1.535 -0.5279 -0.0010 -0.2481
    3CHTO   C85  969   5.691  -0.146   1.628 -0.2613 -0.0923  0.1509
    3CHTO  H157  970   5.698  -0.239   1.568 -0.2028 -0.3142  0.4988
    3CHTO   C83  971   5.545  -0.147   1.673 -0.5731  0.6807  0.3662
    3CHTO  H155  972   5.479  -0.155   1.587 -4.1013  0.2899  2.9771
    3CHTO   O56  973   5.507  -0.018   1.724  0.6822 -0.1757  0.1099
    3CHTO  H135  974   5.528   0.049   1.662 -0.5606  0.6724  0.5796
    3CHTO   C81  975   5.513  -0.257   1.775  0.3012  0.1668 -0.0240
    3CHTO  H153  976   5.530  -0.352   1.723 -0.5285 -1.0731  1.8933
    3CHTO   N14  977   5.364  -0.276   1.815 -0.4377  0.1833  0.1914
    3CHTO  H141  978   5.336  -0.377   1.792 -0.2193 -0.1378  1.3015
    3CHTO  H142  979   5.301  -0.203   1.768  0.6455  0.3642 -1.0325
    3CHTO   C79  980   5.613  -0.250   1.894 -0.4199  0.1348  0.1624
    3CHTO  H151  981   5.594  -0.339   1.955 -1.9546  0.5541  0.3078
    3CHTO   O52  982   5.751  -0.252   1.844 -0.5991  0.0921  0.1744
    3CHTO   C86  983   5.790  -0.149   1.753 -0.3705 -0.0454  0.4381
    3CHTO  H158  984   5.792  -0.058   1.816 -2.0903 -0.5291  1.2122
    3CHTO   C90  985   5.941  -0.182   1.716 -0.6748  0.5233 -0.4212
    3CHTO   O60  986   6.034  -0.156   1.826 -0.3763  0.0812 -0.2188
    3CHTO  H138  987   6.022  -0.073   1.867 -0.7083 -1.4742  3.0201
    3CHTO   O50  988   5.597  -0.139   1.987 -0.1101  0.1628 -0.3771
    3CHTO   C73  989   5.602  -0.091   2.125 -0.0261  0.1262  0.2050
    3CHTO  H145  990   5.671  -0.153   2.185 -0.1697  0.0365  0.2776
    3CHTO   C74  991   5.463  -0.095   2.181 -0.1576 -0.0571 -0.5495
    3CHTO  H146  992   5.420  -0.195   2.193 -0.3133  0.0703  0.0034
    3CHTO   O54  993   5.473  -0.050   2.318  0.2487 -0.4342 -0.1935
    3CHTO  H133  994   5.417  -0.096   2.377  1.1299 -2.8606 -1.1935
    3CHTO   C75  995   5.372  -0.007   2.093 -0.3563  0.0790  0.8237
    3CHTO  H147  996   5.379  -0.052   1.992  0.6923 -1.5488  1.5919
    3CHTO   N13  997   5.229  -0.007   2.126  0.2001 -0.2755 -0.1145
    3CHTO  H139  998   5.184  -0.093   2.078 -0.4192  0.9848 -1.8360
    3CHTO  H140  999   5.184   0.083   2.088  0.6050 -0.5263 -1.2055
    3CHTO   C76 1000   5.434   0.140   2.088  0.0134 -0.2182 -0.3049
    3CHTO  H148 1001   5.427   0.186   2.187 -2.2408 -0.7951 -0.1796
    3CHTO   O49 1002   5.571   0.148   2.044  0.2974 -0.1710  0.0605
    3CHTO   C77 1003   5.655   0.061   2.116 -0.8363  0.2167 -0.0435
    3CHTO  H149 1004   5.647   0.105   2.215  0.6076  1.1920 -0.3541
    3CHTO   C88 1005   5.798   0.073   2.056  0.2453 -0.2592 -0.3239
    3CHTO   O58 1006   5.887  -0.007   2.149  0.3238  1.0060  0.3121
    3CHTO  H136 1007   5.971  -0.019   2.110 -0.2462 -1.7447 -0.1886
    3CHTO   O51 1008   5.348   0.232   1.973  0.6989  0.3640  0.5501
    3CHTO   C78 1009   5.359   0.382   2.004  0.5460 -0.2130 -0.2910
    3CHTO  H150 1010   5.443   0.397   2.074 -0.0826 -0.7033  0.5806
    3CHTO   C80 1011   5.227   0.437   2.071 -0.5362  0.3275  0.1640
    3CHTO  H152 1012   5.138   0.410   2.011 -0.8642  0.4483  0.5990
    3CHTO   O55 1013   5.213   0.371   2.202  0.1027  0.0899 -0.7011
    3CHTO  H134 1014   5.124   0.375   2.232  0.5436 -2.2430  0.9941
    3CHTO   C84 1015   5.230   0.592   2.082 -0.2510 -0.4077 -0.0393
    3CHTO  H156 1016   5.314   0.618   2.146 -0.4801  0.8606 -0.2551
    3CHTO   N15 1017   5.105   0.647   2.151  0.2327 -0.6102 -0.4636
    3CHTO  H143 1018   5.028   0.643   2.077  1.8071  2.6460 -2.4323
    3CHTO  H144 1019   5.132   0.750   2.164  0.5290 -0.6903 -0.4311
    3CHTO   C87 1020   5.265   0.666   1.946  0.5809 -0.1780 -0.2014
    3CHTO  H159 1021   5.174   0.653   1.886  1.5023 -0.4385 -1.5671
    3CHTO   O53 1022   5.389   0.608   1.890 -0.5516 -0.2370  0.1540
    3CHTO   C82 1023   5.378   0.463   1.870 -0.2077  0.1537 -0.2991
    3CHTO  H154 1024   5.294   0.453   1.802  0.0543  1.3201 -0.8010
    3CHTO   C89 1025   5.509   0.423   1.791  0.7836  0.0846  0.3087
    3CHTO   O59 1026   5.497   0.297   1.729  0.3347  0.5916 -0.1599
    3CHTO  H137 1027   5.585   0.281   1.700 -0.0862 -0.4183 -0.9204
    3CHTO   O45 1028   5.293   0.830   1.973  0.3134  0.4957  0.3468
    3CHTO   C67 1029   5.426   0.882   1.976 -0.2678 -0.7596 -0.2543
    3CHTO  H124 1030   5.490   0.793   1.980  1.7075  0.6471  0.2938
    3CHTO   C65 1031   5.459   0.962   1.849 -0.2296 -0.1524  0.4339
    3CHTO  H122 1032   5.369   1.004   1.804 -1.4519 -2.7252  0.3821
    3CHTO   O44 1033   5.511   0.870   1.754 -0.1186  0.1288 -0.1068
    3CHTO  H102 1034   5.457   0.794   1.741  0.8405 -0.5512 -0.1743
    3CHTO   C63 1035   5.556   1.084   1.870  0.2170 -0.2906  1.0621
    3CHTO  H120 1036   5.492   1.165   1.906  0.9998  0.9789 -0.3327
    3CHTO   N11 1037   5.608   1.149   1.743 -0.1008 -0.0770  0.5121
    3CHTO  H108 1038   5.709   1.182   1.756 -0.7643  1.8671  0.8944
    3CHTO  H109 1039   5.601   1.070   1.672  0.1941 -0.1860  0.6009
    3CHTO   C61 1040   5.660   1.054   1.982 -0.1168  0.5103 -0.1171
    3CHTO  H118 1041   5.721   1.143   2.003 -1.0415  1.3825 -1.0702
    3CHTO   O40 1042   5.597   1.004   2.113  0.5630  0.0010 -0.4049
    3CHTO   C68 1043   5.460   0.970   2.103 -0.0613 -0.4342 -0.4527
    3CHTO  H125 1044   5.397   1.061   2.097  0.5672 -0.0044 -0.4711
    3CHTO   C72 1045   5.422   0.900   2.236 -0.0405 -0.0290 -0.1062
    3CHTO   O48 1046   5.468   0.765   2.249 -0.0065  0.0921  0.1739
    3CHTO  H105 1047   5.560   0.759   2.264  0.0777  0.4684 -0.1890
    3CHTO   O38 1048   5.750   0.951   1.935  0.5145 -0.1264 -0.1344
    3CHTO   C55 1049   5.849   0.896   2.021  0.0990 -1.0526  0.1720
    3CHTO  H112 1050   5.816   0.890   2.125 -1.1761  0.1842 -0.1476
    3CHTO   C56 1051   5.987   0.970   2.005 -0.0223  0.8639 -0.0260
    3CHTO  H113 1052   6.009   0.956   1.898  0.8339 -1.1926  0.4040
    3CHTO   O42 1053   5.980   1.108   2.036  0.1071 -0.0863 -0.1211
    3CHTO  H100 1054   6.005   1.129   2.124  2.1214  0.8933 -0.9008
    3CHTO   C57 1055   6.097   0.898   2.101  0.6814  0.2666 -0.3708
    3CHTO  H114 1056   6.064   0.898   2.204 -0.0906 -2.6585 -0.5515
    3CHTO   N10 1057   6.233   0.954   2.093  0.7256  0.4570 -0.0619
    3CHTO  H106 1058   6.301   0.940   2.175  1.2989 -0.1382 -0.6263
    3CHTO  H107 1059   6.245   1.055   2.056 -1.8336  1.8641  2.7006
    3CHTO   C58 1060   6.108   0.746   2.060  0.2454 -0.2669 -0.3825
    3CHTO  H115 1061   6.138   0.733   1.954 -0.3804  0.7878 -0.6968
    3CHTO   O37 1062   5.975   0.691   2.074 -0.3389 -0.3979  0.1020
    3CHTO   C59 1063   5.879   0.752   1.988 -0.1154 -0.0129  0.0427
    3CHTO  H116 1064   5.906   0.743   1.883 -2.0455  0.5313 -0.5224
    3CHTO   C70 1065   5.748   0.676   2.007 -0.7323 -0.0787  0.3509
    3CHTO   O46 1066   5.748   0.547   1.952 -0.5228  0.6032 -0.1303
    3CHTO  H103 1067   5.805   0.491   2.001  0.1171  0.9642 -0.4498
    3CHTO   O39 1068   6.193   0.662   2.144 -0.1709 -0.0339  0.0311
    3CHTO   C60 1069   6.288   0.577   2.075 -0.5104 -1.1145  0.0288
    3CHTO  H117 1070   6.250   0.551   1.976  0.6261  0.4907 -0.8561
    3CHTO   C62 1071   6.429   0.653   2.043  0.8105  0.1924 -0.4555
    3CHTO  H119 1072   6.414   0.747   1.985  2.3258  0.6457 -0.1457
    3CHTO   O43 1073   6.473   0.703   2.177  0.1128  0.7185  0.2398
    3CHTO  H101 1074   6.400   0.743   2.221 -0.3950 -0.2870  0.3195
    3CHTO   C66 1075   6.527   0.542   1.982  0.2514 -0.5546 -0.1235
    3CHTO  H123 1076   6.486   0.507   1.887  0.5418  0.7114 -0.7376
    3CHTO   N12 1077   6.660   0.601   1.955 -0.1229 -0.4658 -0.2527
    3CHTO  H110 1078   6.737   0.526   1.942 -0.1276 -0.4832 -0.1790
    3CHTO  H111 1079   6.656   0.687   1.890 -1.9859  1.2349  1.9884
    3CHTO   C69 1080   6.536   0.429   2.084 -1.0805  0.4865  0.1111
    3CHTO  H126 1081   6.568   0.459   2.186 -1.3406 -0.2694  0.4254
    3CHTO   O41 1082   6.411   0.364   2.091  0.0665  0.0136  0.2867
    3CHTO   C64 1083   6.303   0.438   2.151 -0.6090 -0.5232  0.2241
    3CHTO  H121 1084   6.326   0.444   2.259  4.1630 -1.4932 -0.6517
    3CHTO   C71 1085   6.162   0.371   2.135 -0.0970  0.0398  0.0910
    3CHTO   O47 1086   6.166   0.250   2.204 -0.0102  0.2348 -0.5559
    3CHTO  H104 1087   6.236   0.195   2.173  1.2305  1.4400  0.0532
    3CHTO   O34 1088   6.626   0.324   2.047  0.2417 -0.5903  0.0238
    3CHTO   C49 1089   6.664   0.237   1.920 -0.6738 -0.0309 -0.1406
    3CHTO   H91 1090   6.692   0.305   1.839 -1.2302  0.7594  0.3224
    3CHTO   C47 1091   6.552   0.143   1.870 -0.2593 -0.1584 -0.2711
    3CHTO   H89 1092   6.477   0.202   1.814  0.0914  0.1954 -0.3699
    3CHTO   O33 1093   6.489   0.079   1.987  0.5675  0.1462 -0.1610
    3CHTO   H70 1094   6.474   0.138   2.059  0.3661  1.3367 -1.1659
    3CHTO   C45 1095   6.609   0.017   1.784 -0.2189  0.4582  0.9224
    3CHTO   H87 1096   6.641  -0.063   1.852 -0.2771  0.8911  1.4683
    3CHTO    N8 1097   6.499  -0.035   1.700  0.0718 -0.2838  0.2351
    3CHTO   H75 1098   6.541  -0.096   1.621 -0.8503  0.9604 -1.2505
    3CHTO   H76 1099   6.429  -0.085   1.764 -0.1776  0.8038  0.8279
    3CHTO   C43 1100   6.746   0.057   1.715 -0.2047  0.3513  0.2025
    3CHTO   H85 1101   6.777  -0.035   1.666 -2.8560 -1.1526  1.2427
    3CHTO   O29 1102   6.840   0.080   1.818 -0.3984  0.2127  0.2875
    3CHTO   C50 1103   6.799   0.157   1.937 -0.3842  0.2707  0.4821
    3CHTO   H92 1104   6.792   0.093   2.026 -0.9194  0.4120  0.5424
    3CHTO   C54 1105   6.911   0.268   1.974  0.4661 -0.1089  0.0511
    3CHTO   O36 1106   7.006   0.204   2.054 -0.2372  0.2104  0.0323
    3CHTO   H72 1107   6.966   0.176   2.134 -1.0928 -0.7694 -0.7188
    3CHTO   O27 1108   6.736   0.169   1.627  0.1012 -0.3376  0.2436
    3CHTO   C37 1109   6.842   0.256   1.574 -0.2753  0.3150  0.1966
    3CHTO   H79 1110   6.894   0.297   1.662 -0.5683 -1.5050  1.2375
    3CHTO   C38 1111   6.942   0.165   1.496  0.4588  0.0207  0.3632
    3CHTO   H80 1112   6.891   0.108   1.417  0.7408  2.2250 -1.4383
    3CHTO   O31 1113   7.006   0.072   1.582  0.0607 -0.2509 -0.0624
    3CHTO   H68 1114   6.950   0.015   1.630  0.1665  0.5333  1.0221
    3CHTO   C39 1115   7.063   0.248   1.429  0.7890 -0.0419  0.2016
    3CHTO   H81 1116   7.122   0.296   1.506 -0.6828  1.5627  0.3456
    3CHTO    N7 1117   7.150   0.158   1.343 -0.3256 -0.1029 -0.0463
    3CHTO   H73 1118   7.096   0.116   1.259  0.0818  2.1017 -1.4566
    3CHTO   H74 1119   7.181   0.070   1.397  0.5269  0.7409  0.8443
    3CHTO   C40 1120   6.994   0.368   1.342 -0.3282 -0.5722  0.3684
    3CHTO   H82 1121   6.939   0.325   1.259  2.9712 -0.7453 -1.8086
    3CHTO   O26 1122   6.908   0.438   1.438  0.0430  0.2816 -0.5313
    3CHTO   C41 1123   6.788   0.367   1.487  0.1966 -0.2098 -0.1406
    3CHTO   H83 1124   6.732   0.336   1.398 -0.3145  2.2911 -0.7218
    3CHTO   C52 1125   6.696   0.456   1.570  0.1465 -0.1553 -0.0277
    3CHTO   O35 1126   6.654   0.593   1.492  0.2565  0.3686  0.5706
    3CHTO   H71 1127   6.734   0.637   1.469  0.5067 -1.3064 -2.1026
    3CHTO   O28 1128   7.091   0.467   1.292  0.4056 -0.4374 -0.1044
    3CHTO   C42 1129   7.053   0.585   1.214 -0.7521  0.2938 -0.5864
    3CHTO   H84 1130   7.148   0.612   1.168  1.0002 -2.1685  1.4124
    3CHTO   C44 1131   7.023   0.706   1.308  0.6919  0.4587 -0.4872
    3CHTO   H86 1132   6.946   0.680   1.380  1.1076  2.1660  0.6222
    3CHTO   O32 1133   7.149   0.744   1.361 -0.7511 -0.2221 -0.0226
    3CHTO   H69 1134   7.201   0.773   1.288 -1.0170 -3.2798 -1.4642
    3CHTO   C48 1135   6.953   0.823   1.229 -0.0744 -0.3797  0.4022
    3CHTO   H90 1136   7.030   0.863   1.163  0.2222  0.2653  1.1390
    3CHTO    N9 1137   6.906   0.936   1.319 -0.4705  0.2835  0.4913
    3CHTO   H77 1138   6.983   0.985   1.376 -2.1642  0.7623  2.4390
    3CHTO   H78 1139   6.850   1.010   1.262  1.5993  1.5131  0.0135
    3CHTO   C51 1140   6.843   0.761   1.135 -0.8078  0.4072  0.3802
    3CHTO   H93 1141   6.775   0.709   1.202  1.0569 -0.6107  1.5153
    3CHTO   O30 1142   6.903   0.673   1.041 -0.7673 -0.0168  0.1793
    3CHTO   C46 1143   6.952   0.557   1.101  0.0668 -0.2478 -0.1135
    3CHTO   H88 1144   6.866   0.505   1.142 -0.4812  0.6351 -0.1198
    3CHTO   C53 1145   7.020   0.469   0.995 -0.0991  0.2589  0.2882
    3CHTO   O72 1146   7.114   0.529   0.909  0.0919  0.1305 -0.4600
    3CHTO  H199 1147   7.104   0.487   0.826  0.2833 -1.4516  0.3055
    3CHTO   O22 1148   6.776   0.853   1.042 -0.4841  0.5258  0.2834
    3CHTO   C31 1149   6.636   0.818   1.008 -0.2014 -1.0773  0.5766
    3CHTO   H59 1150   6.632   0.712   0.974  1.6399 -0.8083 -0.5757
    3CHTO   C29 1151   6.529   0.838   1.120 -0.2541  0.7891  0.2774
    3CHTO   H57 1152   6.550   0.930   1.176  0.3261  0.3735  0.7525
    3CHTO   O21 1153   6.551   0.739   1.218 -0.1527  0.8424 -0.4278
    3CHTO   H37 1154   6.641   0.720   1.237 -0.4041  1.6958  1.7491
    3CHTO   C27 1155   6.380   0.840   1.065 -0.7250  0.5149 -0.1276
    3CHTO   H55 1156   6.355   0.739   1.031 -0.4806  0.3037  0.3174
    3CHTO    N5 1157   6.284   0.876   1.173 -0.8041 -0.4472 -0.3909
    3CHTO   H43 1158   6.257   0.795   1.239  1.0597 -0.1091  0.8289
    3CHTO   H44 1159   6.310   0.956   1.241  1.5419  0.1447 -1.9315
    3CHTO   C25 1160   6.372   0.931   0.940 -0.4821 -0.2156 -0.6294
    3CHTO   H53 1161   6.406   1.031   0.969  0.9671 -1.0698  0.7534
    3CHTO   O17 1162   6.467   0.884   0.832  0.0224  0.3247 -0.1707
    3CHTO   C32 1163   6.600   0.902   0.874  0.3625  0.4496  0.4410
    3CHTO   H60 1164   6.626   1.007   0.892 -0.7628  0.4989  1.8615
    3CHTO   C36 1165   6.672   0.852   0.750  0.3359  0.0368 -0.1561
    3CHTO   O25 1166   6.659   0.940   0.633  0.0138 -0.1386 -0.3060
    3CHTO   H40 1167   6.725   0.920   0.570 -0.5873 -0.1620 -0.9348
    3CHTO   O15 1168   6.238   0.939   0.888 -0.1939  0.4463 -0.0983
    3CHTO   C19 1169   6.162   1.044   0.819  0.1421 -0.2295  0.2535
    3CHTO   H47 1170   6.072   0.987   0.793 -0.0042 -0.2106  0.7089
    3CHTO   C20 1171   6.124   1.164   0.910  0.1052  0.2650  0.3976
    3CHTO   H48 1172   6.216   1.205   0.954  0.4763 -1.3365  1.1397
    3CHTO   O19 1173   6.041   1.122   1.023  0.1796 -0.6029 -0.1245
    3CHTO   H35 1174   5.962   1.088   0.986  0.5134 -1.0125 -0.4675
    3CHTO   C21 1175   6.056   1.285   0.830  0.4805 -0.0737 -0.3300
    3CHTO   H49 1176   5.960   1.250   0.792  0.0973  2.4807 -1.8466
    3CHTO    N4 1177   6.036   1.405   0.910  0.1287  0.2779 -0.3401
    3CHTO   H41 1178   5.955   1.459   0.863 -0.1236  0.1744 -0.0196
    3CHTO   H42 1179   6.122   1.470   0.924  0.8961 -1.1337  1.7788
    3CHTO   C22 1180   6.140   1.317   0.707 -0.4556  0.2740 -0.5970
    3CHTO   H50 1181   6.227   1.374   0.740  0.3033 -0.7710 -0.7760
    3CHTO   O14 1182   6.175   1.208   0.630 -0.2906  0.5275 -0.3876
    3CHTO   C23 1183   6.236   1.093   0.685 -0.2192  0.4495 -0.4132
    3CHTO   H51 1184   6.341   1.121   0.702  0.6500 -2.2763 -1.0067
    3CHTO   C34 1185   6.223   0.986   0.576  0.5924 -0.6274  0.5840
    3CHTO   O23 1186   6.311   0.870   0.582 -0.0084 -0.7801  0.0260
    3CHTO   H38 1187   6.397   0.907   0.574 -0.5313  1.0126  2.3193
    3CHTO   O16 1188   6.059   1.390   0.618 -0.4262  0.2796 -0.2231
    3CHTO   C24 1189   6.147   1.482   0.489 -0.5711  0.4229  0.0631
    3CHTO   H52 1190   6.228   1.426   0.441 -0.9973 -0.5947  0.5180
    3CHTO   C26 1191   6.202   1.614   0.544 -0.3004  0.5409  0.6142
    3CHTO   H54 1192   6.117   1.670   0.588  0.5922  0.6195  2.3004
    3CHTO   O20 1193   6.295   1.589   0.654 -0.2240 -0.4412 -0.0574
    3CHTO   H36 1194   6.241   1.577   0.730 -2.0787 -2.9216 -1.6882
    3CHTO   C30 1195   6.278   1.696   0.435 -0.0810 -0.7164  0.5090
    3CHTO   H58 1196   6.371   1.643   0.413  0.8058  0.2483  1.8462
    3CHTO    N6 1197   6.313   1.827   0.487  0.1122  0.3270  0.5384
    3CHTO   H45 1198   6.223   1.879   0.517 -0.3534 -0.1891  0.0343
    3CHTO   H46 1199   6.367   1.882   0.410  0.7017 -0.4627  0.3852
    3CHTO   C33 1200   6.197   1.700   0.295 -0.2045  0.8898  0.3787
    3CHTO   H61 1201   6.128   1.786   0.296 -1.7950 -0.3669  0.4976
    3CHTO   O18 1202   6.122   1.579   0.268 -0.6794 -0.0255  1.0535
    3CHTO   C28 1203   6.048   1.516   0.377 -0.3967 -0.6045 -0.1438
    3CHTO   H56 1204   5.974   1.583   0.420  1.3431  0.6209  0.9875
    3CHTO   C35 1205   5.997   1.389   0.314 -0.1888 -0.1816 -0.2712
    3CHTO   O24 1206   5.923   1.306   0.397  0.1373  0.5237  0.1197
    3CHTO   H39 1207   5.979   1.245   0.440  1.1933  1.1225 -0.3921
    3CHTO    O9 1208   6.293   1.727   0.184 -0.2071  0.7924 -0.0202
    3CHTO   C13 1209   6.359   1.864   0.154 -0.4522 -0.8311  0.4211
    3CHTO   H26 1210   6.316   1.942   0.220  2.0413  1.3514 -0.4219
    3CHTO   C11 1211   6.352   1.904   0.005 -0.3826 -0.0383 -0.3395
    3CHTO   H24 1212   6.249   1.937  -0.010 -0.4463 -0.1541 -0.1641
    3CHTO    O8 1213   6.371   1.791  -0.085  0.6420  0.3285 -0.3449
    3CHTO    H3 1214   6.329   1.814  -0.165  0.5542  1.2253 -0.0535
    3CHTO    C9 1215   6.441   2.032  -0.016  0.3355  0.4530  0.3535
    3CHTO   H22 1216   6.414   2.098   0.068 -0.2477  0.5610  0.0843
    3CHTO    N2 1217   6.414   2.099  -0.143 -0.5842  0.3312  0.1469
    3CHTO   H10 1218   6.327   2.163  -0.143 -1.6474 -1.0477 -1.7439
    3CHTO   H11 1219   6.505   2.150  -0.169  0.6561 -1.1714  1.3929
    3CHTO    C7 1220   6.591   2.002   0.009 -0.3257  0.3745 -0.2740
    3CHTO   H20 1221   6.638   2.102   0.008  0.0485  0.2004 -0.6403
    3CHTO    O4 1222   6.609   1.938   0.140 -0.0358  0.2000 -0.8052
    3CHTO   C14 1223   6.516   1.847   0.191 -0.3285  0.0672 -0.1855
    3CHTO   H27 1224   6.525   1.865   0.300  0.7924  0.3995 -0.3219
    3CHTO   C18 1225   6.568   1.708   0.165 -0.2156 -0.0115 -0.2392
    3CHTO   O13 1226   6.689   1.672   0.226 -0.0295  0.0195 -0.2753
    3CHTO    H7 1227   6.683   1.684   0.319  0.2792  0.2654 -0.2901
    3CHTO    O2 1228   6.659   1.910  -0.113 -0.1416 -0.3567 -0.0575
    3CHTO    C1 1229   6.801   1.872  -0.094 -0.7586  0.5310 -0.0353
    3CHTO   H14 1230   6.813   1.847   0.013  1.7647  1.4539 -0.0695
    3CHTO    C2 1231   6.898   1.988  -0.131  0.0905  0.2178  0.2687
    3CHTO   H15 1232   6.868   2.025  -0.230  0.1860  0.1901  0.2289
    3CHTO    O6 1233   6.873   2.099  -0.044 -0.1963 -0.3603  0.5959
    3CHTO    H1 1234   6.944   2.157  -0.025 -0.8027  0.2652  0.9935
    3CHTO    C3 1235   7.055   1.936  -0.117  0.3967 -0.0133 -0.5863
    3CHTO   H16 1236   7.072   1.903  -0.013  1.4883 -0.8442 -1.0208
    3CHTO    N1 1237   7.164   2.033  -0.153  0.2665 -0.0534  0.1915
    3CHTO    H8 1238   7.259   1.984  -0.138 -0.2756 -0.5168  2.3711
    3CHTO    H9 1239   7.159   2.132  -0.110  0.6436  0.7577 -1.6074
    3CHTO    C4 1240   7.073   1.804  -0.198  0.4228 -0.0751  0.1856
    3CHTO   H17 1241   7.054   1.827  -0.303 -2.1122 -1.1282  0.3955
    3CHTO    O1 1242   6.978   1.707  -0.148  0.1489  0.2626 -0.5941
    3CHTO    C5 1243   6.844   1.742  -0.181 -0.8872  0.0124 -0.2548
    3CHTO   H18 1244   6.820   1.761  -0.286  2.3751  0.2047 -1.0141
    3CHTO   C16 1245   6.762   1.616  -0.142 -0.0516  1.0592  0.0905
    3CHTO   O11 1246   6.810   1.505  -0.221 -0.4424  0.2863  0.1213
    3CHTO    H5 1247   6.750   1.432  -0.225 -0.2956  0.1219  0.8409
    3CHTO    O3 1248   7.202   1.742  -0.180  0.3114 -0.0288 -0.0820
    3CHTO    C6 1249   7.263   1.692  -0.309 -0.0212  0.6093  0.4496
    3CHTO   H19 1250   7.189   1.706  -0.388  1.3728  1.0376 -0.8015
    3CHTO    C8 1251   7.398   1.756  -0.348 -0.0241  0.9318 -0.2307
    3CHTO   H21 1252   7.467   1.743  -0.264 -2.4940  0.5074  1.7621
    3CHTO    O7 1253   7.364   1.894  -0.367 -0.6612  0.2072  0.8590
    3CHTO    H2 1254   7.441   1.944  -0.386  0.1757 -1.6589 -0.8080
    3CHTO   C12 1255   7.451   1.688  -0.479  0.1271  0.5146 -0.0913
    3CHTO   H25 1256   7.386   1.715  -0.565  0.8172  2.3807 -0.0580
    3CHTO    N3 1257   7.584   1.746  -0.506  0.1905  0.3605  0.0428
    3CHTO   H12 1258   7.614   1.716  -0.605  1.4807  1.6079  0.0266
    3CHTO   H13 1259   7.651   1.704  -0.432  0.6417 -1.8504 -1.5810
    3CHTO   C15 1260   7.450   1.540  -0.468  0.0557  0.0617 -0.2739
    3CHTO   H28 1261   7.533   1.504  -0.408  1.2562  1.9650 -0.7542
    3CHTO   O10 1262   7.465   1.464  -0.618  0.2721 -0.3805 -0.8431
    3CHTO    H4 1263   7.545   1.417  -0.629 -0.1725 -1.2854 -0.2766
    3CHTO    O5 1264   7.323   1.490  -0.427 -0.2135  0.0295 -0.2170
    3CHTO   C10 1265   7.288   1.540  -0.297  0.0092  0.1013 -0.5770
    3CHTO   H23 1266   7.361   1.521  -0.218  1.1010  0.4827 -1.4925
    3CHTO   C17 1267   7.163   1.456  -0.253  0.3436 -0.7338  0.2310
    3CHTO   O12 1268   7.125   1.479  -0.113 -0.0618 -0.1095  0.2372
    3CHTO    H6 1269   7.199   1.449  -0.065 -0.9801 -0.3419  1.5239
    4CHTO  H203 1270   6.772   7.694   2.377 -0.3823 -0.3535 -0.5900
    4CHTO   O82 1271   6.780   7.780   2.411 -0.0922 -0.6040 -0.0224
    4CHTO  C123 1272   6.673   7.862   2.370 -0.0048  0.9564  0.2455
    4CHTO  H227 1273   6.584   7.840   2.431  0.0371  0.0330 -0.0191
    4CHTO   O77 1274   6.724   7.995   2.404 -0.3731  0.5279 -0.2533
    4CHTO  C118 1275   6.629   8.099   2.380  0.5908  0.1124  0.0413
    4CHTO  H222 1276   6.528   8.067   2.409  1.4822 -1.5073  1.4914
    4CHTO  C125 1277   6.669   8.223   2.456  0.2270 -0.6334  0.0932
    4CHTO   O84 1278   6.568   8.324   2.452  0.3480  0.4097 -0.2522
    4CHTO  H205 1279   6.576   8.357   2.365  1.2016  0.8013 -0.0352
    4CHTO  C114 1280   6.615   8.114   2.224 -0.5825  0.0424  0.5738
    4CHTO  H218 1281   6.713   8.127   2.178 -1.5079 -0.7896 -1.7032
    4CHTO  C116 1282   6.566   7.980   2.164 -0.1637  0.1252 -0.2314
    4CHTO  H220 1283   6.459   7.968   2.193 -0.3364 -0.7868 -1.2514
    4CHTO   O79 1284   6.577   7.991   2.023 -0.3213 -0.0534 -0.7193
    4CHTO  H201 1285   6.495   8.015   1.984 -1.1480 -0.3969  0.7530
    4CHTO  C120 1286   6.652   7.855   2.220  0.2424  0.8930  0.0393
    4CHTO  H224 1287   6.745   7.852   2.160  0.0414  1.8228 -0.3243
    4CHTO   N21 1288   6.581   7.726   2.183 -0.3450 -0.2041 -0.1688
    4CHTO  H211 1289   6.476   7.734   2.156  0.4683  1.2296 -3.1295
    4CHTO  H212 1290   6.600   7.641   2.246  5.0275 -0.1579 -1.5325
    4CHTO   O75 1291   6.524   8.223   2.185  0.3709  0.1893  0.3233
    4CHTO  C112 1292   6.592   8.313   2.065 -0.2102  0.4081 -0.4482
    4CHTO  H216 1293   6.621   8.254   1.977  0.1816 -2.0060  1.2356
    4CHTO   O73 1294   6.712   8.375   2.125  0.2327 -0.3739 -0.7582
    4CHTO  C113 1295   6.796   8.442   2.030 -0.6185  0.4454  0.2662
    4CHTO  H217 1296   6.840   8.370   1.957  2.0510  1.4248  0.8409
    4CHTO  C124 1297   6.907   8.499   2.115 -0.0436  0.1109 -0.4013
    4CHTO   O83 1298   6.980   8.393   2.183 -0.7545  0.1963 -0.2702
    4CHTO  H204 1299   7.073   8.398   2.173 -0.8105  1.0115 -0.3754
    4CHTO  C109 1300   6.712   8.550   1.952  0.0937 -0.3876 -0.0892
    4CHTO  H213 1301   6.693   8.631   2.023 -0.0538  0.5077 -1.1300
    4CHTO  C110 1302   6.571   8.507   1.901  0.3467  0.3845  0.2139
    4CHTO  H214 1303   6.581   8.444   1.813  0.7258 -0.9028  1.1621
    4CHTO   O78 1304   6.495   8.619   1.848  0.1728  0.2021 -0.1959
    4CHTO  H200 1305   6.514   8.629   1.756  1.2317 -1.6084 -0.1941
    4CHTO  C111 1306   6.494   8.427   2.016 -0.3132 -0.7373 -0.3477
    4CHTO  H215 1307   6.478   8.496   2.100  0.2506 -0.1323 -0.7269
    4CHTO   N19 1308   6.359   8.373   1.978 -0.0794 -0.2093  0.3624
    4CHTO  H207 1309   6.360   8.332   1.878  1.0743  1.7254 -0.4552
    4CHTO  H208 1310   6.268   8.424   2.007 -0.9340 -0.2520 -2.1071
    4CHTO   O74 1311   6.778   8.596   1.836 -0.2988 -0.3269 -0.0543
    4CHTO  C115 1312   6.812   8.752   1.839  0.2173  0.5990  0.8084
    4CHTO  H219 1313   6.734   8.809   1.890  1.9103  2.7308  1.0799
    4CHTO   O76 1314   6.947   8.787   1.920  0.4727 -0.0813 -0.4656
    4CHTO  C122 1315   7.061   8.708   1.876  0.2844 -0.0589  0.2484
    4CHTO  H226 1316   7.054   8.611   1.925 -0.1210  0.1402  0.5831
    4CHTO  C126 1317   7.194   8.773   1.931 -0.0959 -0.4657 -0.2222
    4CHTO   O85 1318   7.328   8.728   1.893  0.0314  0.5495  0.4533
    4CHTO  H206 1319   7.354   8.645   1.929 -0.0671  0.7840  1.0565
    4CHTO  C121 1320   7.061   8.689   1.713 -0.0760 -0.5697  0.0230
    4CHTO  H225 1321   7.167   8.703   1.685 -0.5388 -1.5623 -2.3253
    4CHTO   O81 1322   7.017   8.553   1.689 -0.5558  0.1464  0.1660
    4CHTO  H202 1323   7.087   8.498   1.719  0.6255  1.2860 -0.4637
    4CHTO  C119 1324   6.975   8.798   1.636 -0.1575 -0.2463 -0.2827
    4CHTO  H223 1325   7.027   8.892   1.657  0.2867  0.1794 -3.0922
    4CHTO  C117 1326   6.824   8.813   1.694  0.4515  0.5840 -0.0503
    4CHTO  H221 1327   6.753   8.751   1.639 -0.7951 -0.7040  2.9118
    4CHTO   N20 1328   6.770   8.949   1.677  0.1922 -0.4997 -0.0050
    4CHTO  H209 1329   6.822   9.015   1.745  1.2316 -0.8877 -0.4042
    4CHTO  H210 1330   6.666   8.947   1.704  0.7375  0.3174  2.3071
    4CHTO   O80 1331   6.977   8.801   1.451  0.2382 -0.4595  0.1857
    4CHTO  C103 1332   7.132   8.808   1.370  0.2898  0.3687 -0.5031
    4CHTO  H190 1333   7.202   8.853   1.440 -0.7236  0.3540  0.5244
    4CHTO  C101 1334   7.195   8.667   1.326  0.2221 -0.3981  0.0221
    4CHTO  H188 1335   7.131   8.610   1.259  2.0201 -1.7475 -0.5791
    4CHTO   O68 1336   7.220   8.582   1.448 -0.4292 -0.2977 -0.1427
    4CHTO  H168 1337   7.247   8.498   1.415  2.2040  0.3370  0.3083
    4CHTO   C99 1338   7.327   8.689   1.243 -0.4441  0.6516  0.6555
    4CHTO  H186 1339   7.406   8.724   1.312  0.7239 -0.9665  0.1644
    4CHTO   N17 1340   7.382   8.554   1.186 -0.2333  0.2654 -0.1780
    4CHTO  H174 1341   7.489   8.541   1.200 -0.1543 -0.8392 -1.6496
    4CHTO  H175 1342   7.330   8.476   1.240 -0.5023  0.7733  0.3030
    4CHTO   C97 1343   7.311   8.799   1.135  0.1234 -0.6716  0.4423
    4CHTO  H184 1344   7.251   8.763   1.050 -0.3503  1.0018  0.0570
    4CHTO   O64 1345   7.255   8.922   1.193 -0.6175 -0.0832 -0.2593
    4CHTO  C104 1346   7.122   8.904   1.249  0.6051 -0.2206  0.3079
    4CHTO  H191 1347   7.059   8.863   1.169 -0.2335  0.0840  0.8098
    4CHTO  C108 1348   7.065   9.037   1.296  0.3051  0.1123 -0.0023
    4CHTO   O71 1349   7.052   9.128   1.184 -0.5366  0.5098  0.4126
    4CHTO  H171 1350   7.057   9.215   1.220  2.7146 -0.5602  2.8485
    4CHTO   O62 1351   7.441   8.845   1.089 -0.4378 -0.6193 -0.5808
    4CHTO   C91 1352   7.441   8.922   0.964 -0.2625 -0.3605  0.6377
    4CHTO  H178 1353   7.338   8.935   0.928  0.2907 -1.0747 -1.2814
    4CHTO   C92 1354   7.510   8.845   0.851 -0.0103  0.2620 -0.3178
    4CHTO  H179 1355   7.606   8.803   0.883 -0.4442 -1.3462 -1.1057
    4CHTO   O66 1356   7.424   8.730   0.819 -0.2428  0.3105  0.2558
    4CHTO  H166 1357   7.463   8.649   0.845 -0.6640  0.8601  2.7437
    4CHTO   C93 1358   7.536   8.934   0.720 -0.7794 -0.0845  0.2171
    4CHTO  H180 1359   7.439   8.954   0.673 -0.9058  0.3732  0.6728
    4CHTO   N16 1360   7.613   8.873   0.615 -0.0146 -0.0041  0.0400
    4CHTO  H172 1361   7.616   8.949   0.538 -1.7603 -0.5063 -0.5414
    4CHTO  H173 1362   7.569   8.782   0.579  2.4493 -1.5154  0.7455
    4CHTO   C94 1363   7.608   9.069   0.757 -0.0073 -0.3967  0.9745
    4CHTO  H181 1364   7.705   9.057   0.805 -0.0153  2.4393  1.7621
    4CHTO   O61 1365   7.539   9.128   0.863  0.7700 -0.1645  0.2525
    4CHTO   C95 1366   7.526   9.051   0.985  0.2431 -0.1112 -0.0529
    4CHTO  H182 1367   7.622   9.011   1.017  0.9456  0.2807 -1.6406
    4CHTO  C106 1368   7.474   9.139   1.102 -0.6336  0.2786  0.0625
    4CHTO   O69 1369   7.345   9.182   1.071  0.2534 -0.2417 -0.1402
    4CHTO  H169 1370   7.351   9.260   1.019  1.2722 -0.7106 -0.7447
    4CHTO   O63 1371   7.630   9.184   0.642  0.4378  0.1181  0.6331
    4CHTO   C96 1372   7.494   9.278   0.607  0.8583  0.5941 -0.0284
    4CHTO  H183 1373   7.419   9.266   0.686  0.3193  0.3992 -0.5709
    4CHTO   C98 1374   7.421   9.249   0.470 -0.4196  0.2081 -0.6312
    4CHTO  H185 1375   7.495   9.268   0.391 -0.4553 -0.0111 -0.7166
    4CHTO   O67 1376   7.393   9.102   0.475 -0.1058 -0.1302  0.0809
    4CHTO  H167 1377   7.353   9.067   0.398 -0.7103  0.9934 -0.1181
    4CHTO  C102 1378   7.293   9.338   0.450  0.2240  0.5983 -0.4571
    4CHTO  H189 1379   7.216   9.294   0.516  1.1373 -0.3460 -0.0063
    4CHTO   N18 1380   7.228   9.334   0.317  0.0006  0.0811 -0.6131
    4CHTO  H176 1381   7.290   9.359   0.233  1.8993 -0.8108  0.4874
    4CHTO  H177 1382   7.137   9.391   0.308 -0.7968 -0.9437  0.6870
    4CHTO  C105 1383   7.318   9.488   0.499  0.5507 -0.3453  0.0790
    4CHTO  H192 1384   7.349   9.542   0.409 -1.0505 -2.2892 -1.6923
    4CHTO   O65 1385   7.413   9.509   0.608 -0.2017  0.8822  0.1167
    4CHTO  C100 1386   7.533   9.432   0.606  0.1186 -0.5998 -0.3158
    4CHTO  H187 1387   7.587   9.468   0.517 -1.3685 -1.8456 -1.7608
    4CHTO  C107 1388   7.620   9.477   0.725 -0.1565 -0.3021  0.5108
    4CHTO   O70 1389   7.557   9.444   0.855 -0.6653  0.3207 -0.2242
    4CHTO  H170 1390   7.589   9.502   0.922 -0.0359  2.0161 -1.9594
    4CHTO   O57 1391   7.181   9.538   0.541  0.3426 -0.0576 -0.2234
    4CHTO   C85 1392   7.135   9.599   0.666 -0.6145 -0.6592  0.5263
    4CHTO  H157 1393   7.209   9.680   0.678 -2.8209  1.4404  0.4698
    4CHTO   C83 1394   7.151   9.501   0.785 -0.7647 -0.1102 -0.0038
    4CHTO  H155 1395   7.257   9.493   0.809 -0.4523 -0.0382 -1.3373
    4CHTO   O56 1396   7.122   9.368   0.737  0.1034  0.6021 -0.4761
    4CHTO  H135 1397   7.194   9.333   0.689  0.2328 -0.9029  0.7526
    4CHTO   C81 1398   7.066   9.540   0.913  0.4431  0.6308  0.1794
    4CHTO  H153 1399   7.110   9.633   0.949  2.2836  0.2481 -1.0148
    4CHTO   N14 1400   7.086   9.450   1.031 -0.3792 -0.3610 -0.0148
    4CHTO  H141 1401   7.191   9.438   1.048 -0.0240  1.7012 -0.5342
    4CHTO  H142 1402   7.039   9.500   1.113  0.3908  2.8111 -1.4442
    4CHTO   C79 1403   6.918   9.562   0.862  0.0390  0.1303  0.0596
    4CHTO  H151 1404   6.856   9.584   0.949  0.0396 -0.0923  0.1175
    4CHTO   O52 1405   6.911   9.682   0.776 -0.3656  0.3535 -0.5506
    4CHTO   C86 1406   6.989   9.658   0.655  0.4231 -0.3731 -0.3193
    4CHTO  H158 1407   6.929   9.592   0.589  0.8543 -0.7024 -0.3874
    4CHTO   C90 1408   6.989   9.787   0.575 -0.7242  0.2900  0.3001
    4CHTO   O60 1409   7.072   9.784   0.454 -0.0686 -0.0165 -0.3095
    4CHTO  H138 1410   7.022   9.768   0.377 -0.2077  1.1127 -0.4620
    4CHTO   O50 1411   6.863   9.443   0.805 -0.1307  0.1832  0.1434
    4CHTO   C73 1412   6.744   9.373   0.772  0.7790 -0.2514 -0.9554
    4CHTO  H145 1413   6.665   9.440   0.735  0.5236  0.9770  1.7440
    4CHTO   C74 1414   6.682   9.299   0.894  0.0881 -0.2699 -0.4131
    4CHTO  H146 1415   6.661   9.373   0.973  1.3416 -0.1787 -0.1511
    4CHTO   O54 1416   6.552   9.252   0.858 -0.1786 -0.1601  0.0761
    4CHTO  H133 1417   6.509   9.217   0.934  1.4413 -1.2005  0.5435
    4CHTO   C75 1418   6.784   9.190   0.946  0.4429 -0.1979 -0.6258
    4CHTO  H147 1419   6.875   9.242   0.980 -0.8340  1.4204  0.4204
    4CHTO   N13 1420   6.729   9.125   1.064 -0.1682  0.0809  0.2489
    4CHTO  H139 1421   6.722   9.017   1.056  0.4138  0.1037 -0.5377
    4CHTO  H140 1422   6.772   9.152   1.160 -3.6622  1.2923  1.5637
    4CHTO   C76 1423   6.822   9.091   0.830  0.0693 -0.9582  0.6093
    4CHTO  H148 1424   6.735   9.036   0.796 -0.3415  0.2937 -0.3825
    4CHTO   O49 1425   6.874   9.159   0.707 -0.4307  0.0990  0.1791
    4CHTO   C77 1426   6.780   9.263   0.662 -0.4574 -0.1270  0.0891
    4CHTO  H149 1427   6.687   9.217   0.628  0.4958 -1.6799 -0.4789
    4CHTO   C88 1428   6.844   9.320   0.531  0.4873  0.0385 -0.1065
    4CHTO   O58 1429   6.850   9.233   0.432 -0.0252 -0.3680  0.2686
    4CHTO  H136 1430   6.939   9.238   0.403 -0.7974 -0.8956 -2.3564
    4CHTO   O51 1431   6.944   9.002   0.864 -0.1048  0.2534 -0.0536
    4CHTO   C78 1432   6.946   8.873   0.792 -0.1130  0.5477 -0.0315
    4CHTO  H150 1433   6.882   8.868   0.701 -0.7868 -1.0112  0.5088
    4CHTO   C80 1434   6.906   8.751   0.890 -0.3009 -0.1990 -0.1930
    4CHTO  H152 1435   6.983   8.748   0.969 -0.7601 -0.9404  0.2292
    4CHTO   O55 1436   6.782   8.769   0.950  0.2266 -0.2849  0.3073
    4CHTO  H134 1437   6.752   8.689   0.989 -1.1200 -0.3154 -0.7471
    4CHTO   C84 1438   6.923   8.607   0.815  0.6135 -0.8637 -0.7532
    4CHTO  H156 1439   6.852   8.601   0.733  2.2566 -0.9716 -2.1774
    4CHTO   N15 1440   6.888   8.491   0.904 -0.3759  0.3291  0.8756
    4CHTO  H143 1441   6.968   8.421   0.894  0.6532  1.4543  1.1597
    4CHTO  H144 1442   6.802   8.445   0.859  0.5622 -0.7867  0.1869
    4CHTO   C87 1443   7.064   8.600   0.753 -0.4869  0.3324  0.0655
    4CHTO  H159 1444   7.138   8.598   0.833 -0.2611  0.6501 -0.1336
    4CHTO   O53 1445   7.081   8.720   0.667 -0.3401 -0.0670 -0.4246
    4CHTO   C82 1446   7.089   8.848   0.736 -0.5826 -0.2855 -0.5006
    4CHTO  H154 1447   7.163   8.847   0.815 -0.6324 -0.2084 -0.4520
    4CHTO   C89 1448   7.127   8.960   0.638 -0.1778 -0.3307  0.0905
    4CHTO   O59 1449   7.159   9.079   0.700 -0.2847 -0.4687 -0.4260
    4CHTO  H137 1450   7.080   9.127   0.717 -0.0957 -0.0009 -0.8779
    4CHTO   O45 1451   7.078   8.473   0.648  0.3503  0.1959 -0.8194
    4CHTO   C67 1452   7.215   8.431   0.621 -0.5625  0.2955  0.2569
    4CHTO  H124 1453   7.275   8.511   0.577  2.2411 -0.2559  2.9016
    4CHTO   C65 1454   7.295   8.384   0.747 -0.2913  0.5209  0.0526
    4CHTO  H122 1455   7.288   8.470   0.813  0.0404  1.1476 -0.7211
    4CHTO   O44 1456   7.432   8.372   0.708  0.2812 -0.5137 -0.3614
    4CHTO  H102 1457   7.490   8.355   0.781  0.7356  0.4502 -0.4978
    4CHTO   C63 1458   7.233   8.262   0.816  0.0743  0.4795  0.0977
    4CHTO  H120 1459   7.129   8.285   0.840  0.7054  0.6438  2.7295
    4CHTO   N11 1460   7.282   8.229   0.949 -0.3406  0.1961  0.6525
    4CHTO  H108 1461   7.207   8.167   0.995  0.8733 -0.6124  1.5576
    4CHTO  H109 1462   7.313   8.316   1.003  1.2621  0.1962 -0.2479
    4CHTO   C61 1463   7.230   8.143   0.709  0.1027  0.1757  0.5425
    4CHTO  H118 1464   7.150   8.077   0.745 -0.3040 -0.4750 -1.5374
    4CHTO   O40 1465   7.191   8.183   0.572 -0.1099  0.3013  0.2237
    4CHTO   C68 1466   7.215   8.314   0.510 -0.1785  0.1414  0.0398
    4CHTO  H125 1467   7.121   8.322   0.452 -0.6196 -3.3546  0.1894
    4CHTO   C72 1468   7.329   8.318   0.412  0.2224  0.0925  0.0994
    4CHTO   O48 1469   7.300   8.263   0.285  0.6144 -0.5827 -0.5456
    4CHTO  H105 1470   7.364   8.290   0.221  1.0167  1.6003  0.7233
    4CHTO   O38 1471   7.354   8.067   0.693 -0.5309 -0.6493  0.0100
    4CHTO   C55 1472   7.329   7.932   0.686  0.3709 -0.6320 -0.0295
    4CHTO  H112 1473   7.233   7.921   0.633  0.0554 -1.8762  0.7915
    4CHTO   C56 1474   7.329   7.860   0.829  0.1233  0.2950 -0.0348
    4CHTO  H113 1475   7.427   7.873   0.876  0.7186 -0.5655 -1.0336
    4CHTO   O42 1476   7.229   7.927   0.911  0.0088  0.1477  0.3763
    4CHTO  H100 1477   7.274   7.997   0.956 -0.0502 -0.7131  1.8214
    4CHTO   C57 1478   7.297   7.709   0.812  1.0653 -0.1732  0.7354
    4CHTO  H114 1479   7.197   7.695   0.774  1.0122 -1.3990  1.2828
    4CHTO   N10 1480   7.302   7.626   0.931  0.4041  0.6221  0.1329
    4CHTO  H106 1481   7.363   7.672   1.008  0.4411 -2.3959  1.9928
    4CHTO  H107 1482   7.203   7.607   0.967  1.2576 -3.3229  0.5424
    4CHTO   C58 1483   7.396   7.657   0.705 -0.1235 -0.4500 -0.2512
    4CHTO  H115 1484   7.499   7.655   0.745 -0.7858 -0.0189  1.5068
    4CHTO   O37 1485   7.388   7.726   0.579  0.5498  0.3799 -0.1524
    4CHTO   C59 1486   7.431   7.862   0.594 -0.0786  0.7055  0.2189
    4CHTO  H116 1487   7.526   7.870   0.646 -0.7581  2.6626  1.1875
    4CHTO   C70 1488   7.425   7.923   0.453 -0.0951  0.3702 -0.4394
    4CHTO   O46 1489   7.518   7.870   0.360  0.0853 -0.7246 -0.2124
    4CHTO  H103 1490   7.500   7.897   0.272 -3.0249 -2.6947 -0.2827
    4CHTO   O39 1491   7.345   7.512   0.664 -0.1088  0.0505  0.4474
    4CHTO   C60 1492   7.445   7.422   0.611  0.2773 -0.2573 -0.3687
    4CHTO  H117 1493   7.521   7.477   0.556 -0.8143  0.2659 -1.3646
    4CHTO   C62 1494   7.505   7.340   0.728 -0.6804 -0.0929  0.1394
    4CHTO  H119 1495   7.557   7.424   0.780  0.3133  0.7343 -2.1271
    4CHTO   O43 1496   7.408   7.277   0.810  0.4304  0.0911  0.4464
    4CHTO  H101 1497   7.345   7.340   0.841  0.6808 -0.7382  2.7475
    4CHTO   C66 1498   7.614   7.234   0.668  0.1800 -0.2540 -0.2747
    4CHTO  H123 1499   7.699   7.287   0.626  1.6918 -1.1068  1.6326
    4CHTO   N12 1500   7.681   7.151   0.772  0.4457  0.1078 -0.0637
    4CHTO  H110 1501   7.773   7.108   0.735  1.2067 -0.7774  2.7229
    4CHTO  H111 1502   7.614   7.070   0.799  2.1734 -1.0198  0.9625
    4CHTO   C69 1503   7.559   7.141   0.550 -0.0187  0.0890 -0.0958
    4CHTO  H126 1504   7.500   7.054   0.586  0.1254 -0.2641 -0.7044
    4CHTO   O41 1505   7.479   7.216   0.452 -0.3201 -0.3078  0.2858
    4CHTO   C64 1506   7.374   7.324   0.511 -0.3648  0.2495  0.2217
    4CHTO  H121 1507   7.288   7.272   0.559 -0.4056 -0.0545 -0.1900
    4CHTO   C71 1508   7.309   7.413   0.400 -0.2614  0.0323 -0.5725
    4CHTO   O47 1509   7.203   7.343   0.332  0.1341 -0.6903  0.3340
    4CHTO  H104 1510   7.236   7.264   0.294 -2.3831 -1.8505  0.4409
    4CHTO   O34 1511   7.673   7.084   0.482  0.5045 -0.0760 -0.1206
    4CHTO   C49 1512   7.747   6.967   0.404 -0.1194  0.3995  0.6610
    4CHTO   H91 1513   7.856   6.973   0.400  0.1723 -3.9855 -2.4711
    4CHTO   C47 1514   7.701   6.985   0.255 -0.8300 -0.2627 -0.3101
    4CHTO   H89 1515   7.755   6.913   0.190 -1.4366  0.7680 -1.9933
    4CHTO   O33 1516   7.732   7.119   0.212 -0.2897 -0.1346 -0.2986
    4CHTO   H70 1517   7.719   7.126   0.119  1.7338  2.5497 -0.4479
    4CHTO   C45 1518   7.554   6.936   0.242 -0.2132 -0.0156  0.5338
    4CHTO   H87 1519   7.500   7.004   0.310 -1.2352 -1.5107  1.2338
    4CHTO    N8 1520   7.492   6.961   0.109  1.0172  0.3165  0.4227
    4CHTO   H75 1521   7.517   7.062   0.081 -0.2207  0.1478 -1.3852
    4CHTO   H76 1522   7.523   6.882   0.042  1.5525  0.6355  0.2888
    4CHTO   C43 1523   7.529   6.788   0.303 -1.3507 -0.9859  0.5107
    4CHTO   H85 1524   7.422   6.768   0.311 -1.6784 -0.9176 -2.9441
    4CHTO   O29 1525   7.590   6.779   0.432  0.2030  0.7155  0.0445
    4CHTO   C50 1526   7.721   6.824   0.464 -0.5350 -0.3613 -0.1586
    4CHTO   H92 1527   7.736   6.834   0.572  2.2427 -2.1526 -0.3397
    4CHTO   C54 1528   7.831   6.725   0.419 -0.1734 -0.0560  0.4206
    4CHTO   O36 1529   7.818   6.594   0.482  0.2568  0.4488 -0.0201
    4CHTO   H72 1530   7.867   6.533   0.430 -1.2500  0.7316 -1.8526
    4CHTO   O27 1531   7.587   6.692   0.208  0.4584  0.1138 -0.4587
    4CHTO   C37 1532   7.612   6.569   0.133 -0.1449 -0.2636 -0.6397
    4CHTO   H79 1533   7.533   6.554   0.059 -0.5948 -1.1420  0.0191
    4CHTO   C38 1534   7.744   6.597   0.055  0.3216 -0.2215  0.4918
    4CHTO   H80 1535   7.827   6.614   0.125  2.4031  0.6127 -2.0922
    4CHTO   O31 1536   7.734   6.722  -0.021  0.7734  0.1668  0.5730
    4CHTO   H68 1537   7.807   6.744  -0.076  0.5580  1.9810  0.9753
    4CHTO   C39 1538   7.774   6.472  -0.037  0.2301 -0.2404 -0.5657
    4CHTO   H81 1539   7.702   6.464  -0.118 -1.4864  0.6050  0.8557
    4CHTO    N7 1540   7.909   6.478  -0.109  0.6462  0.0200 -0.3378
    4CHTO   H73 1541   7.904   6.445  -0.212 -0.0530 -1.1142  0.0449
    4CHTO   H74 1542   7.934   6.583  -0.102  0.1821  0.2144 -1.5365
    4CHTO   C40 1543   7.756   6.330   0.037 -0.4327 -0.3057  0.2713
    4CHTO   H82 1544   7.849   6.298   0.085  0.0042 -0.4815 -0.6765
    4CHTO   O26 1545   7.646   6.334   0.126  0.0541 -0.5610  0.0988
    4CHTO   C41 1546   7.628   6.443   0.225 -1.2987 -0.0227  0.4270
    4CHTO   H83 1547   7.717   6.458   0.287  0.1336  2.6677 -2.1566
    4CHTO   C52 1548   7.508   6.410   0.314  0.8674  0.7629 -0.5083
    4CHTO   O35 1549   7.514   6.287   0.405  0.0107 -0.0146  0.1670
    4CHTO   H71 1550   7.429   6.272   0.441 -0.0693  1.9410  0.8106
    4CHTO   O28 1551   7.717   6.229  -0.058  0.2450 -0.3074 -0.0001
    4CHTO   C42 1552   7.693   6.083  -0.044 -0.1448  0.3162 -0.8627
    4CHTO   H84 1553   7.680   6.043  -0.145  0.3736 -1.4444 -0.2488
    4CHTO   C44 1554   7.564   6.048   0.031  0.3018  0.4734 -0.9943
    4CHTO   H86 1555   7.581   6.069   0.136  1.1299  1.0887 -1.2357
    4CHTO   O32 1556   7.453   6.128  -0.012  0.0703  0.1599  0.1270
    4CHTO   H69 1557   7.471   6.219  -0.002  0.9488  0.2350 -1.8788
    4CHTO   C48 1558   7.535   5.889   0.003  0.2593  0.0504 -0.0268
    4CHTO   H90 1559   7.524   5.880  -0.105  0.5786 -0.1604 -0.0435
    4CHTO    N9 1560   7.411   5.840   0.059  0.2540  0.3341 -0.0372
    4CHTO   H77 1561   7.328   5.861  -0.008 -0.0437 -4.0070 -1.1834
    4CHTO   H78 1562   7.393   5.891   0.152 -1.2435  1.8949 -1.1446
    4CHTO   C51 1563   7.662   5.817   0.066  0.4066  0.6195 -0.5326
    4CHTO   H93 1564   7.668   5.844   0.171  0.6121 -0.2115 -0.3310
    4CHTO   O30 1565   7.784   5.855  -0.004  0.4702  0.0805  0.1347
    4CHTO   C46 1566   7.812   6.008   0.021 -0.4907 -0.5917  0.2073
    4CHTO   H88 1567   7.803   6.030   0.127  0.4788  0.1064  0.1455
    4CHTO   C53 1568   7.945   6.053  -0.036  0.0713 -0.1865  0.5473
    4CHTO   O72 1569   8.044   5.991   0.048 -0.3236  0.3275  0.8065
    4CHTO  H199 1570   8.031   5.982   0.141  0.8329 -3.1941  0.7042
    4CHTO   O22 1571   7.660   5.671   0.053  0.6947  0.2904  0.5282
    4CHTO   C31 1572   7.703   5.582   0.165  0.0330  0.0231 -0.6137
    4CHTO   H59 1573   7.745   5.640   0.250  0.3290  0.0742 -0.7964
    4CHTO   C29 1574   7.589   5.499   0.227  0.6810 -0.1789 -0.4075
    4CHTO   H57 1575   7.550   5.430   0.150 -2.7708 -0.0743  1.1572
    4CHTO   O21 1576   7.478   5.584   0.258  0.3459  0.6773  0.2192
    4CHTO   H37 1577   7.472   5.656   0.198 -5.1499  1.4953  1.4350
    4CHTO   C27 1578   7.642   5.424   0.358  0.0967 -0.6625 -0.5164
    4CHTO   H55 1579   7.681   5.496   0.431  0.5406 -1.0573 -0.3588
    4CHTO    N5 1580   7.529   5.350   0.426 -0.4762 -0.0498  0.5937
    4CHTO   H43 1581   7.566   5.311   0.520  1.4985  0.5775  0.1157
    4CHTO   H44 1582   7.439   5.409   0.437 -0.5865 -0.3084  1.0868
    4CHTO   C25 1583   7.758   5.324   0.316  0.4711  0.3284 -0.3521
    4CHTO   H53 1584   7.724   5.244   0.248  2.0673 -0.3561 -0.3470
    4CHTO   O17 1585   7.856   5.396   0.244  0.3902  0.1987  0.3795
    4CHTO   C32 1586   7.811   5.468   0.127  0.2695  0.1070 -0.3345
    4CHTO   H60 1587   7.767   5.405   0.050 -2.5938  2.4653 -0.7389
    4CHTO   C36 1588   7.949   5.516   0.077  0.0418 -0.3201 -0.4371
    4CHTO   O25 1589   7.935   5.589  -0.042  0.5299 -0.6504  0.1177
    4CHTO   H40 1590   7.912   5.678  -0.022 -0.7636 -0.9054 -0.1934
    4CHTO   O15 1591   7.842   5.262   0.432  0.5158 -0.2189 -0.4235
    4CHTO   C19 1592   7.910   5.327   0.545 -0.0272 -0.2320  0.7363
    4CHTO   H47 1593   7.982   5.249   0.575  1.3702  1.1120  0.9865
    4CHTO   C20 1594   7.995   5.452   0.506  0.1043 -0.0176  0.5283
    4CHTO   H48 1595   7.938   5.520   0.441 -0.5778  0.6083  1.7524
    4CHTO   O19 1596   8.115   5.406   0.440  0.1025 -0.2919 -0.2869
    4CHTO   H35 1597   8.080   5.371   0.360  0.0240 -0.2305 -0.2800
    4CHTO   C21 1598   8.032   5.550   0.626 -0.3200  0.0599 -0.5583
    4CHTO   H49 1599   8.112   5.503   0.685  0.1130  0.8556 -0.5065
    4CHTO    N4 1600   8.085   5.677   0.574 -0.1408 -0.3752 -0.8157
    4CHTO   H41 1601   8.143   5.664   0.484  2.0488 -3.0029  0.9074
    4CHTO   H42 1602   8.146   5.726   0.649  0.2202 -0.4457 -1.0629
    4CHTO   C22 1603   7.906   5.564   0.717  0.5692  0.3094  0.7425
    4CHTO   H50 1604   7.816   5.599   0.666  1.4586 -0.8206 -1.6856
    4CHTO   O14 1605   7.884   5.433   0.771 -0.2125 -0.6487  0.3162
    4CHTO   C23 1606   7.821   5.351   0.672  0.1685  0.6654  0.1780
    4CHTO   H51 1607   7.730   5.407   0.646  0.6022  1.1142 -0.4120
    4CHTO   C34 1608   7.793   5.219   0.742 -0.5335  0.6805 -0.0826
    4CHTO   O23 1609   7.662   5.156   0.722  0.1486 -0.9479 -0.7927
    4CHTO   H38 1610   7.590   5.214   0.734  0.9266 -0.1993  0.3545
    4CHTO   O16 1611   7.924   5.622   0.849 -0.0899  0.6362 -0.8275
    4CHTO   C24 1612   7.784   5.707   0.914  0.6119 -0.4696  0.5424
    4CHTO   H52 1613   7.691   5.658   0.889 -0.4588  2.1854 -0.8370
    4CHTO   C26 1614   7.789   5.856   0.865 -0.2959 -0.1389 -0.4130
    4CHTO   H54 1615   7.891   5.892   0.892  1.1993 -3.9792 -0.5711
    4CHTO   O20 1616   7.778   5.863   0.719 -0.5236 -0.0493  0.1426
    4CHTO   H36 1617   7.743   5.946   0.695  0.7545  0.9362  1.6184
    4CHTO   C30 1618   7.690   5.953   0.933 -0.6758  0.0886  0.3650
    4CHTO   H58 1619   7.584   5.929   0.914 -0.3841 -0.8142 -0.1813
    4CHTO    N6 1620   7.716   6.095   0.906  0.1985  0.1536  0.5246
    4CHTO   H45 1621   7.654   6.156   0.970 -2.5562 -0.8395 -1.0730
    4CHTO   H46 1622   7.685   6.114   0.804  1.8083 -1.6683 -0.3202
    4CHTO   C33 1623   7.702   5.925   1.089 -0.1581 -0.1296 -0.4148
    4CHTO   H61 1624   7.796   5.968   1.128  0.2910  0.6042 -2.2469
    4CHTO   O18 1625   7.696   5.788   1.121 -0.4261 -0.3514 -0.5876
    4CHTO   C28 1626   7.794   5.701   1.067 -0.3552 -0.2754  0.2756
    4CHTO   H56 1627   7.892   5.732   1.103 -1.7898  1.1928  3.0864
    4CHTO   C35 1628   7.750   5.562   1.117  0.6713 -0.9536 -0.3448
    4CHTO   O24 1629   7.795   5.553   1.256  0.3306 -0.6392  0.2303
    4CHTO   H39 1630   7.887   5.570   1.258  0.3783 -0.8423 -0.1459
    4CHTO    O9 1631   7.596   5.998   1.161  0.0015  0.4941  0.8410
    4CHTO   C13 1632   7.649   6.023   1.321  0.3995 -0.0858 -0.4048
    4CHTO   H26 1633   7.724   5.946   1.347  0.2476 -0.5728 -1.3934
    4CHTO   C11 1634   7.522   6.016   1.419 -0.4814 -0.4291  0.0594
    4CHTO   H24 1635   7.490   5.911   1.414  2.1395 -1.2746  0.3509
    4CHTO    O8 1636   7.417   6.097   1.357  0.0252 -0.2670 -0.8919
    4CHTO    H3 1637   7.336   6.106   1.404  1.5511 -1.5413  2.1788
    4CHTO    C9 1638   7.569   6.060   1.560  0.1919 -0.2310  0.3241
    4CHTO   H22 1639   7.659   6.000   1.580  1.5164  1.1011 -1.4300
    4CHTO    N2 1640   7.476   6.030   1.669  0.0975 -0.3905 -0.5430
    4CHTO   H10 1641   7.517   6.060   1.764  0.9657  0.4636 -1.1822
    4CHTO   H11 1642   7.381   6.076   1.646  1.3945  1.8793 -1.5638
    4CHTO    C7 1643   7.620   6.209   1.560 -0.1516 -0.1185  0.1221
    4CHTO   H20 1644   7.650   6.229   1.665  1.8056 -2.1939 -0.0046
    4CHTO    O4 1645   7.732   6.216   1.476  0.1453  0.3004 -0.1320
    4CHTO   C14 1646   7.732   6.160   1.341  0.1903  0.5676 -0.9066
    4CHTO   H27 1647   7.836   6.131   1.316  0.7295  2.0508 -0.4593
    4CHTO   C18 1648   7.693   6.270   1.243 -0.0786 -0.3352 -0.1733
    4CHTO   O13 1649   7.769   6.387   1.272 -0.6029  0.1923  0.3330
    4CHTO    H7 1650   7.733   6.467   1.240  0.8133  1.5846  2.0469
    4CHTO    O2 1651   7.514   6.332   1.514  0.5238 -0.0703  0.7061
    4CHTO    C1 1652   7.513   6.458   1.584 -0.0447  0.1523  0.0933
    4CHTO   H14 1653   7.472   6.537   1.518 -0.7213 -0.9852 -0.8611
    4CHTO    C2 1654   7.655   6.517   1.636 -0.1252 -0.5644  0.2675
    4CHTO   H15 1655   7.705   6.447   1.704  0.8399  1.7265  1.9530
    4CHTO    O6 1656   7.738   6.542   1.524 -0.2424 -0.3926  0.3203
    4CHTO    H1 1657   7.796   6.469   1.516 -0.5492 -0.7725  1.4153
    4CHTO    C3 1658   7.632   6.654   1.709 -0.3479  0.5805 -0.5489
    4CHTO   H16 1659   7.598   6.728   1.635 -0.1581  1.1849 -0.0331
    4CHTO    N1 1660   7.760   6.703   1.771 -0.5867  0.3880 -0.5518
    4CHTO    H8 1661   7.844   6.673   1.710 -0.5522  0.8869 -0.7535
    4CHTO    H9 1662   7.762   6.653   1.867  0.0016  0.8687 -0.3045
    4CHTO    C4 1663   7.521   6.649   1.812 -0.0447 -0.1208 -0.3994
    4CHTO   H17 1664   7.560   6.605   1.904 -1.3629 -0.7909 -0.1497
    4CHTO    O1 1665   7.402   6.569   1.780  0.5742 -0.3782 -0.1368
    4CHTO    C5 1666   7.415   6.450   1.706 -1.1697  0.1372  0.2836
    4CHTO   H18 1667   7.465   6.375   1.767  0.4870  0.5121 -0.5628
    4CHTO   C16 1668   7.278   6.406   1.655 -0.6412 -0.9093 -0.2709
    4CHTO   O11 1669   7.214   6.506   1.580  0.5783  0.1758 -0.8483
    4CHTO    H5 1670   7.186   6.475   1.497 -1.8852 -0.8439  0.3142
    4CHTO    O3 1671   7.456   6.775   1.827 -0.4981  0.1448 -0.4808
    4CHTO    C6 1672   7.405   6.806   1.958  0.3839  0.0972 -0.0469
    4CHTO   H19 1673   7.392   6.720   2.024 -1.6580  0.3177 -0.1184
    4CHTO    C8 1674   7.504   6.900   2.036  0.6985  0.0389  0.1052
    4CHTO   H21 1675   7.529   6.983   1.969  0.0244 -0.0892 -0.3081
    4CHTO    O7 1676   7.622   6.828   2.070  0.4743 -0.5522  0.3526
    4CHTO    H2 1677   7.671   6.885   2.126  3.0935 -1.0023 -1.3890
    4CHTO   C12 1678   7.428   6.953   2.166  0.1968  0.1113  0.1513
    4CHTO   H25 1679   7.413   6.859   2.223  2.0998  0.7905  1.8441
    4CHTO    N3 1680   7.504   7.036   2.259  0.2620 -0.1305 -0.1866
    4CHTO   H12 1681   7.594   7.066   2.208  0.0246 -1.9359 -1.7083
    4CHTO   H13 1682   7.530   6.983   2.349 -0.9087 -0.7472 -0.2005
    4CHTO   C15 1683   7.286   7.007   2.132  0.2383  0.7593  0.0376
    4CHTO   H28 1684   7.295   7.093   2.065 -1.4443  1.0464  0.1651
    4CHTO   O10 1685   7.212   7.034   2.231  0.1926  0.0488 -0.2432
    4CHTO    H4 1686   7.223   7.126   2.247  0.5138 -0.3606  1.9790
    4CHTO    O5 1687   7.212   6.905   2.067  0.1170 -0.2505  0.4032
    4CHTO   C10 1688   7.261   6.868   1.940 -0.0390 -0.1357 -0.2391
    4CHTO   H23 1689   7.263   6.951   1.870  0.2904 -0.0645 -0.1456
    4CHTO   C17 1690   7.162   6.773   1.878  0.4647  0.1545 -0.6450
    4CHTO   O12 1691   7.030   6.826   1.848 -0.0876  0.5986 -0.1498
    4CHTO    H6 1692   7.037   6.920   1.847  0.3962  0.5563 -1.0724
    5CHTO  H203 1693   7.652   3.284   0.888  4.3045 -0.0018  0.4737
    5CHTO   O82 1694   7.648   3.362   0.939 -0.1864  0.6098 -0.6477
    5CHTO  C123 1695   7.631   3.339   1.082 -0.6442  0.3620 -0.7116
    5CHTO  H227 1696   7.524   3.329   1.106 -0.0642 -2.7462  0.8066
    5CHTO   O77 1697   7.692   3.208   1.108  0.4025  0.0540  0.7310
    5CHTO  C118 1698   7.699   3.159   1.240 -0.2676 -0.0203 -0.1223
    5CHTO  H222 1699   7.595   3.145   1.274  0.2064 -0.4722  1.1943
    5CHTO  C125 1700   7.771   3.017   1.253 -0.0537 -0.0892 -0.0920
    5CHTO   O84 1701   7.673   2.921   1.218 -0.5964  0.3681  0.4185
    5CHTO  H205 1702   7.624   2.883   1.289 -2.9324  2.7321  0.1348
    5CHTO  C114 1703   7.771   3.264   1.326 -0.2186 -0.4642  0.6510
    5CHTO  H218 1704   7.875   3.271   1.295 -0.3230 -1.4723  0.0850
    5CHTO  C116 1705   7.701   3.407   1.308 -0.6703  0.2171 -0.4415
    5CHTO  H220 1706   7.597   3.406   1.349  0.4755 -1.1789  2.6109
    5CHTO   O79 1707   7.775   3.500   1.396  0.2744  0.2348  0.1326
    5CHTO  H201 1708   7.802   3.581   1.358  1.1208 -0.4012 -0.6381
    5CHTO  C120 1709   7.699   3.454   1.163 -0.4537  0.7936 -0.2762
    5CHTO  H224 1710   7.804   3.466   1.129 -0.0939 -0.8405  0.2391
    5CHTO   N21 1711   7.646   3.591   1.142 -0.0481 -0.3098 -0.1121
    5CHTO  H211 1712   7.565   3.615   1.210 -0.3570  0.2192 -0.6608
    5CHTO  H212 1713   7.714   3.674   1.129 -0.3989 -0.0015  0.0020
    5CHTO   O75 1714   7.763   3.207   1.460  0.1672 -0.0951 -0.7531
    5CHTO  C112 1715   7.635   3.243   1.543  0.8462  0.1200 -1.2883
    5CHTO  H216 1716   7.551   3.254   1.473  1.5549  0.2889 -2.1138
    5CHTO   O73 1717   7.662   3.366   1.618  0.3000  0.1508  0.0811
    5CHTO  C113 1718   7.542   3.424   1.675  0.0161  0.3748  0.0758
    5CHTO  H217 1719   7.471   3.449   1.594 -2.5222 -1.7233  1.6005
    5CHTO  C124 1720   7.579   3.560   1.732  0.1573  0.7748 -0.0692
    5CHTO   O83 1721   7.471   3.639   1.766  0.4218 -0.0410  0.4715
    5CHTO  H204 1722   7.414   3.590   1.822  0.0221 -0.2072 -0.0791
    5CHTO  C109 1723   7.487   3.324   1.786 -0.5470 -0.3246 -0.1669
    5CHTO  H213 1724   7.560   3.323   1.868  0.1532  0.7562 -0.7546
    5CHTO  C110 1725   7.474   3.177   1.728  0.0318 -0.0219 -0.2724
    5CHTO  H214 1726   7.387   3.180   1.662 -0.1310  0.8784 -0.0267
    5CHTO   O78 1727   7.437   3.087   1.835  0.1136 -0.1957  0.2864
    5CHTO  H200 1728   7.344   3.079   1.846  0.1259  1.2853  1.6238
    5CHTO  C111 1729   7.604   3.137   1.652  0.3746  0.4916  0.2850
    5CHTO  H215 1730   7.684   3.137   1.728  2.1438  1.2443 -1.5429
    5CHTO   N19 1731   7.599   2.997   1.599  0.1342  0.2279 -0.4415
    5CHTO  H207 1732   7.580   2.994   1.493 -0.3730 -0.4828 -0.3350
    5CHTO  H208 1733   7.698   2.957   1.616  0.7346  1.3674 -1.2379
    5CHTO   O74 1734   7.365   3.382   1.845 -0.1642 -0.0425 -0.0817
    5CHTO  C115 1735   7.324   3.309   1.998 -0.0194 -0.2055 -0.3581
    5CHTO  H219 1736   7.353   3.204   2.000  0.0818 -0.2050 -1.3610
    5CHTO   O76 1737   7.407   3.372   2.122  0.5843  0.8092 -0.2194
    5CHTO  C122 1738   7.370   3.510   2.123 -0.5485 -0.0407 -0.3985
    5CHTO  H226 1739   7.415   3.552   2.033  2.3166 -0.4013  0.8060
    5CHTO  C126 1740   7.447   3.585   2.244 -0.1824  1.1312  0.5049
    5CHTO   O85 1741   7.384   3.567   2.370 -0.0244 -0.4032  0.4921
    5CHTO  H206 1742   7.292   3.555   2.359  0.2321 -1.3263 -0.7727
    5CHTO  C121 1743   7.217   3.552   2.126 -0.0297 -0.3440  0.2635
    5CHTO  H225 1744   7.199   3.614   2.217 -0.9988 -0.5123  0.1908
    5CHTO   O81 1745   7.182   3.632   2.016  0.1111 -0.0338  0.3512
    5CHTO  H202 1746   7.175   3.585   1.936 -0.1760 -0.4397  0.6119
    5CHTO  C119 1747   7.129   3.429   2.128  0.5988  0.6321 -0.2395
    5CHTO  H223 1748   7.146   3.387   2.227  0.1582  1.8761  0.3687
    5CHTO  C117 1749   7.166   3.325   2.009  0.2703  0.6126  0.5327
    5CHTO  H221 1750   7.137   3.360   1.910  0.9465  0.5542  0.3063
    5CHTO   N20 1751   7.086   3.199   2.034  0.2974 -0.2081  0.6542
    5CHTO  H209 1752   7.130   3.147   2.118 -0.7080 -1.0530  0.6678
    5CHTO  H210 1753   7.069   3.133   1.950 -2.6724  0.3412  0.7413
    5CHTO   O80 1754   6.979   3.465   2.141  0.2939 -0.5424  0.2942
    5CHTO  C103 1755   6.886   3.538   2.034 -0.5313  0.2071 -0.2563
    5CHTO  H190 1756   6.905   3.645   2.039  2.0235 -0.0878 -2.2138
    5CHTO  C101 1757   6.892   3.504   1.878  0.2250  0.5989  0.3475
    5CHTO  H188 1758   6.900   3.397   1.860  1.7028  0.4755  1.5804
    5CHTO   O68 1759   7.032   3.565   1.816  0.2910 -0.1739 -0.1733
    5CHTO  H168 1760   7.064   3.505   1.752 -1.0578 -1.2594  0.1378
    5CHTO   C99 1761   6.754   3.553   1.808  0.1542  0.1244  0.2009
    5CHTO  H186 1762   6.756   3.664   1.818 -1.3139  0.0857  1.0165
    5CHTO   N17 1763   6.754   3.528   1.659  0.1831 -0.0555 -0.1221
    5CHTO  H174 1764   6.751   3.421   1.646 -0.0951  0.0332 -0.8110
    5CHTO  H175 1765   6.839   3.572   1.610 -0.1904  1.0222  0.1875
    5CHTO   C97 1766   6.630   3.502   1.883  0.3076  0.5324  0.7847
    5CHTO  H184 1767   6.638   3.392   1.883  1.3155  0.5806 -1.7418
    5CHTO   O64 1768   6.636   3.558   2.014  0.3622  0.0502 -0.5848
    5CHTO  C104 1769   6.737   3.508   2.099 -0.4293 -0.6230 -0.1357
    5CHTO  H191 1770   6.720   3.407   2.136 -1.1151 -0.7367 -0.7313
    5CHTO  C108 1771   6.724   3.605   2.219 -0.3141 -0.3487  0.2329
    5CHTO   O71 1772   6.746   3.542   2.342  0.4738  0.1109  0.1880
    5CHTO  H171 1773   6.763   3.609   2.406  0.2322 -0.3850  0.7736
    5CHTO   O62 1774   6.511   3.553   1.833  0.0877  0.6224  0.5895
    5CHTO   C91 1775   6.394   3.479   1.861  0.5725 -0.2320  0.7069
    5CHTO  H178 1776   6.405   3.419   1.951  0.4224 -2.0796 -0.4760
    5CHTO   C92 1777   6.359   3.379   1.748 -0.0621  0.0654  0.1675
    5CHTO  H179 1778   6.338   3.425   1.650 -1.0143  0.0900  0.3740
    5CHTO   O66 1779   6.468   3.296   1.713 -0.1767  0.1539 -0.1795
    5CHTO  H166 1780   6.538   3.350   1.681  0.5215 -0.2009  0.7268
    5CHTO   C93 1781   6.232   3.297   1.803 -0.1247 -0.5355 -0.4917
    5CHTO  H180 1782   6.269   3.245   1.893 -0.7875  0.6709  0.5050
    5CHTO   N16 1783   6.188   3.196   1.709 -0.2055  0.1762 -0.6914
    5CHTO  H172 1784   6.268   3.139   1.664  0.5612  0.1315  0.7351
    5CHTO  H173 1785   6.126   3.249   1.637 -1.6398 -0.9380 -0.3063
    5CHTO   C94 1786   6.116   3.388   1.844  0.5679 -0.5821 -0.0006
    5CHTO  H181 1787   6.077   3.444   1.760  1.3599 -0.5147 -0.3241
    5CHTO   O61 1788   6.162   3.486   1.940 -0.4793 -0.1383  0.4336
    5CHTO   C95 1789   6.267   3.569   1.898 -0.6862  0.2059 -0.4546
    5CHTO  H182 1790   6.234   3.620   1.807 -1.0423 -1.8147 -1.4869
    5CHTO  C106 1791   6.313   3.678   2.009 -0.7073 -0.2658 -0.7418
    5CHTO   O69 1792   6.227   3.793   2.019  0.0810  1.3428  0.6033
    5CHTO  H169 1793   6.220   3.832   1.934 -1.3406 -0.4431 -0.1411
    5CHTO   O63 1794   5.988   3.296   1.910  0.1973 -0.3723  0.2648
    5CHTO   C96 1795   5.848   3.306   1.800 -0.1201 -0.0387 -0.0236
    5CHTO  H183 1796   5.887   3.295   1.699 -0.1964  2.2534 -0.3336
    5CHTO   C98 1797   5.754   3.427   1.795  0.1045  0.1156 -0.0000
    5CHTO  H185 1798   5.699   3.435   1.890  0.0674  2.7242 -0.1910
    5CHTO   O67 1799   5.835   3.541   1.791  0.5554  0.1600 -0.0450
    5CHTO  H167 1800   5.788   3.615   1.757 -1.1464  0.0189  1.9391
    5CHTO  C102 1801   5.662   3.416   1.663  0.3883  0.4614 -0.3523
    5CHTO  H189 1802   5.730   3.440   1.580 -0.0435  0.8126 -0.6058
    5CHTO   N18 1803   5.559   3.519   1.647  0.4651 -0.5491  1.4790
    5CHTO  H176 1804   5.508   3.536   1.741  1.1045 -0.1004  1.7475
    5CHTO  H177 1805   5.608   3.610   1.615  1.0500 -1.3133  0.1964
    5CHTO  C105 1806   5.606   3.271   1.653  0.4682 -0.1461 -0.6495
    5CHTO  H192 1807   5.514   3.270   1.710 -0.7325  1.1537 -2.5068
    5CHTO   O65 1808   5.684   3.161   1.698 -0.5437 -0.2205 -0.2750
    5CHTO  C100 1809   5.760   3.183   1.822  0.4874  0.1081 -0.2072
    5CHTO  H187 1810   5.684   3.207   1.897  0.4873 -1.0277  0.1569
    5CHTO  C107 1811   5.836   3.058   1.869  0.1187  0.3202 -0.4425
    5CHTO   O70 1812   5.767   2.940   1.839 -0.9172 -0.3386  0.1088
    5CHTO  H170 1813   5.693   2.926   1.896 -1.3423  2.2117  0.2239
    5CHTO   O57 1814   5.583   3.248   1.495 -0.3733  0.6103  0.0816
    5CHTO   C85 1815   5.477   3.160   1.459 -0.4662 -0.0014 -0.0690
    5CHTO  H157 1816   5.388   3.189   1.520 -0.4072  0.5919 -0.2660
    5CHTO   C83 1817   5.508   3.011   1.501 -0.0436  0.6267  0.4051
    5CHTO  H155 1818   5.514   3.011   1.610  2.6203  2.5876  0.3239
    5CHTO   O56 1819   5.634   2.965   1.449  0.4040  0.3055  0.1080
    5CHTO  H135 1820   5.696   2.973   1.519 -0.1751 -0.6671  0.7493
    5CHTO   C81 1821   5.388   2.927   1.452  0.8025  0.0729  0.7813
    5CHTO  H153 1822   5.296   2.975   1.483  0.3440  1.1757 -2.0585
    5CHTO   N14 1823   5.385   2.792   1.509  0.3006  0.1951  0.7117
    5CHTO  H141 1824   5.375   2.796   1.615  0.1841 -1.5616  0.7805
    5CHTO  H142 1825   5.471   2.738   1.475  1.7780  1.6551  2.0345
    5CHTO   C79 1826   5.382   2.930   1.289  0.3174 -0.1971  0.1168
    5CHTO  H151 1827   5.291   2.878   1.259  0.2640  0.8479 -1.6126
    5CHTO   O52 1828   5.356   3.069   1.243  0.0494 -0.3808  0.1052
    5CHTO   C86 1829   5.445   3.167   1.309  0.0296  0.2014  0.2300
    5CHTO  H158 1830   5.533   3.155   1.243 -1.4721  1.5848 -2.0725
    5CHTO   C90 1831   5.396   3.316   1.290  0.2644 -0.4382 -0.6409
    5CHTO   O60 1832   5.418   3.369   1.157 -0.0668  0.2091 -0.0165
    5CHTO  H138 1833   5.484   3.436   1.159 -1.0441  1.1912  0.9765
    5CHTO   O50 1834   5.492   2.875   1.216  0.6059 -0.3877  0.3212
    5CHTO   C73 1835   5.518   2.801   1.098 -0.5132  0.4374 -0.1672
    5CHTO  H145 1836   5.453   2.836   1.017  1.7680  0.8238 -1.8641
    5CHTO   C74 1837   5.494   2.647   1.119 -0.2500  0.2512  0.4392
    5CHTO  H146 1838   5.395   2.639   1.166 -0.4430 -0.4770 -0.0815
    5CHTO   O54 1839   5.483   2.591   0.990  0.3843  0.1255  0.0888
    5CHTO  H133 1840   5.396   2.562   0.974  1.8695 -3.7250 -1.5286
    5CHTO   C75 1841   5.609   2.576   1.208  0.3620  0.3233  0.2828
    5CHTO  H147 1842   5.599   2.606   1.314 -1.2245 -0.6032  0.4148
    5CHTO   N13 1843   5.624   2.428   1.207  0.4175 -0.1462 -0.0704
    5CHTO  H139 1844   5.720   2.395   1.169  0.8196  0.7616  0.1478
    5CHTO  H140 1845   5.559   2.393   1.128  0.3861 -2.4884  0.9552
    5CHTO   C76 1846   5.764   2.637   1.187  0.0664 -0.4234  1.0311
    5CHTO  H148 1847   5.819   2.584   1.109 -1.1161 -0.6099  0.3225
    5CHTO   O49 1848   5.759   2.780   1.151  0.1329 -0.6642  0.2616
    5CHTO   C77 1849   5.662   2.808   1.051 -0.0954 -0.5938 -0.6741
    5CHTO  H149 1850   5.681   2.744   0.965 -2.1084 -1.0550 -0.8017
    5CHTO   C88 1851   5.692   2.954   0.998 -0.2218 -0.4483  0.1915
    5CHTO   O58 1852   5.600   2.989   0.900 -0.7047  0.1331 -0.3040
    5CHTO  H136 1853   5.624   2.957   0.815  2.2535 -0.3117  0.6193
    5CHTO   O51 1854   5.854   2.625   1.316  0.1588 -0.6653 -0.0885
    5CHTO   C78 1855   6.017   2.699   1.283 -0.3566 -0.4019  0.1473
    5CHTO  H150 1856   6.004   2.786   1.215 -1.9692 -1.3002 -0.7215
    5CHTO   C80 1857   6.114   2.606   1.206  0.2658 -0.4409  0.5687
    5CHTO  H152 1858   6.109   2.504   1.250 -0.8570 -0.2120  0.9838
    5CHTO   O55 1859   6.063   2.592   1.071  0.5506  0.2752 -0.4450
    5CHTO  H134 1860   5.971   2.577   1.063  0.7366 -1.1600 -0.1269
    5CHTO   C84 1861   6.264   2.664   1.202 -0.3536 -0.7743  0.3947
    5CHTO  H156 1862   6.266   2.750   1.135  1.1573 -0.0124  1.4112
    5CHTO   N15 1863   6.356   2.563   1.144 -0.1407 -0.5342  0.0376
    5CHTO  H143 1864   6.301   2.480   1.105 -0.9994  0.1185 -0.1675
    5CHTO  H144 1865   6.437   2.594   1.081  1.4367  0.0857  2.2957
    5CHTO   C87 1866   6.309   2.710   1.343 -0.0878 -0.1473 -0.2735
    5CHTO  H159 1867   6.317   2.621   1.406  1.6758 -0.0721 -0.3772
    5CHTO   O53 1868   6.207   2.805   1.391 -0.5310  0.5846 -0.0388
    5CHTO   C82 1869   6.080   2.744   1.417  0.3415 -1.2159 -0.0108
    5CHTO  H154 1870   6.099   2.657   1.481  1.7787  0.8990  2.5329
    5CHTO   C89 1871   5.993   2.848   1.500 -0.1852 -0.8015  0.0558
    5CHTO   O59 1872   5.874   2.796   1.561  0.0830 -0.1080 -0.5776
    5CHTO  H137 1873   5.821   2.869   1.587 -1.3042 -1.9168  1.9123
    5CHTO   O45 1874   6.455   2.791   1.343 -0.0709  0.7034 -0.2247
    5CHTO   C67 1875   6.523   2.814   1.467 -0.2479 -0.4984  0.4007
    5CHTO  H124 1876   6.446   2.823   1.544 -0.5653  0.6809 -0.0426
    5CHTO   C65 1877   6.612   2.697   1.505  0.7335  0.0468  0.8387
    5CHTO  H122 1878   6.637   2.638   1.417 -0.6524  1.8510 -0.8124
    5CHTO   O44 1879   6.524   2.618   1.588 -0.3436  0.1939 -0.0427
    5CHTO  H102 1880   6.566   2.535   1.597  1.5129  0.9004 -1.7660
    5CHTO   C63 1881   6.752   2.734   1.574  0.1395  0.0298 -0.2867
    5CHTO  H120 1882   6.820   2.768   1.496 -0.2228 -0.8407 -0.9826
    5CHTO   N11 1883   6.822   2.627   1.647 -0.5651  0.2448 -0.6719
    5CHTO  H108 1884   6.918   2.656   1.682  0.4542 -2.1353 -1.3919
    5CHTO  H109 1885   6.849   2.547   1.581 -0.9294 -0.0541 -0.4601
    5CHTO   C61 1886   6.722   2.862   1.657 -0.3801  0.4230  0.0579
    5CHTO  H118 1887   6.813   2.888   1.712  0.1753 -1.0560 -0.1346
    5CHTO   O40 1888   6.677   2.977   1.583 -0.8444  0.0044  0.0624
    5CHTO   C68 1889   6.605   2.946   1.460  0.4049  0.0795 -0.2749
    5CHTO  H125 1890   6.675   2.942   1.374 -1.2877 -1.3873 -1.6207
    5CHTO   C72 1891   6.510   3.062   1.431  0.2538 -1.1588  0.9665
    5CHTO   O48 1892   6.579   3.182   1.409  0.1622 -0.0698 -0.4528
    5CHTO  H105 1893   6.546   3.222   1.330  0.3727  0.1413 -0.4347
    5CHTO   O38 1894   6.624   2.830   1.759 -0.2528  0.4700  0.2340
    5CHTO   C55 1895   6.571   2.929   1.856 -0.0165 -0.4366  0.1553
    5CHTO  H112 1896   6.551   3.021   1.798 -0.5621  0.5906  1.8970
    5CHTO   C56 1897   6.671   2.965   1.976  0.0603 -0.0844  0.2726
    5CHTO  H113 1898   6.713   2.873   2.020 -0.7274 -0.7857 -0.4336
    5CHTO   O42 1899   6.782   3.044   1.925  0.0917 -0.4181 -1.0889
    5CHTO  H100 1900   6.811   3.006   1.844  1.4502 -0.0065 -0.7988
    5CHTO   C57 1901   6.598   3.058   2.087 -0.7186  0.5758  0.0876
    5CHTO  H114 1902   6.601   3.159   2.047 -0.5251  0.2154 -0.8085
    5CHTO   N10 1903   6.672   3.055   2.215  1.1108  0.3016 -0.2381
    5CHTO  H106 1904   6.654   3.145   2.271 -0.3629 -0.8391  1.1954
    5CHTO  H107 1905   6.778   3.043   2.198  1.4541  1.5658  0.9440
    5CHTO   C58 1906   6.449   3.025   2.101 -0.6842  0.0031  0.2714
    5CHTO  H115 1907   6.435   2.938   2.169 -2.1205 -2.1219 -2.6696
    5CHTO   O37 1908   6.389   3.008   1.971 -0.2965 -0.2833  0.0751
    5CHTO   C59 1909   6.433   2.891   1.908 -0.5264  0.0640  0.9965
    5CHTO  H116 1910   6.435   2.812   1.983  2.1105  0.9758  1.9357
    5CHTO   C70 1911   6.336   2.851   1.791 -0.8307 -0.4712  0.1974
    5CHTO   O46 1912   6.202   2.825   1.828 -0.1965  0.4251 -0.4871
    5CHTO  H103 1913   6.146   2.875   1.772 -3.4491 -0.8660  1.4421
    5CHTO   O39 1914   6.379   3.156   2.186 -0.0298  0.7805 -0.3685
    5CHTO   C60 1915   6.239   3.171   2.181 -0.0596  0.9299  0.2216
    5CHTO  H117 1916   6.203   3.199   2.082 -1.4898 -0.9462  0.2005
    5CHTO   C62 1917   6.165   3.045   2.219  0.4740  0.1090  0.1823
    5CHTO  H119 1918   6.197   2.971   2.143  1.9430 -0.1197  1.0285
    5CHTO   O43 1919   6.215   3.006   2.350  0.0895 -0.4233  0.4385
    5CHTO  H101 1920   6.168   2.935   2.391  0.2300 -1.1192 -0.5784
    5CHTO   C66 1921   6.013   3.079   2.223 -0.0571  0.5531 -1.0459
    5CHTO  H123 1922   5.987   3.102   2.119 -0.1171 -1.0883 -1.4254
    5CHTO   N12 1923   5.929   2.965   2.260  0.9652  0.4198  0.4200
    5CHTO  H110 1924   5.939   2.958   2.367  2.4632  0.0986  0.2730
    5CHTO  H111 1925   5.831   2.992   2.223  0.9829 -1.0018 -0.6946
    5CHTO   C69 1926   5.969   3.200   2.316  0.3427  0.2713  0.0577
    5CHTO  H126 1927   5.970   3.183   2.426  1.3466 -1.8033 -0.2440
    5CHTO   O41 1928   6.065   3.317   2.284  0.0673 -0.3271 -0.2772
    5CHTO   C64 1929   6.199   3.289   2.276  0.2227  0.3992  0.0675
    5CHTO  H121 1930   6.237   3.254   2.373  1.9676 -0.2947 -0.8476
    5CHTO   C71 1931   6.270   3.419   2.242 -0.0636  0.5605  0.3369
    5CHTO   O47 1932   6.411   3.416   2.273  0.4199 -0.5084 -0.0445
    5CHTO  H104 1933   6.426   3.471   2.348 -0.9237  0.5899 -0.5785
    5CHTO   O34 1934   5.814   3.249   2.278  0.0732 -0.0043  0.0054
    5CHTO   C49 1935   5.712   3.367   2.307 -0.6187  0.9479 -0.4095
    5CHTO   H91 1936   5.611   3.324   2.309 -0.9019  1.6066 -0.4506
    5CHTO   C47 1937   5.725   3.472   2.202 -0.1059  0.0861  0.9077
    5CHTO   H89 1938   5.683   3.423   2.112  0.1657 -0.1982  0.9343
    5CHTO   O33 1939   5.866   3.497   2.172  0.2009 -0.0163  0.1779
    5CHTO   H70 1940   5.912   3.558   2.226 -1.7214 -0.5042  2.4339
    5CHTO   C45 1941   5.649   3.614   2.245  0.2016 -0.4590 -0.5404
    5CHTO   H87 1942   5.730   3.682   2.276 -1.2841  2.1663 -2.2809
    5CHTO    N8 1943   5.591   3.671   2.124 -0.8339  0.0997  0.1509
    5CHTO   H75 1944   5.649   3.761   2.107  1.5706 -0.9515  2.3554
    5CHTO   H76 1945   5.489   3.704   2.135 -0.1642  2.3631 -0.2728
    5CHTO   C43 1946   5.556   3.609   2.375  0.5741 -0.4619 -0.4670
    5CHTO   H85 1947   5.535   3.713   2.397  1.2403 -1.1087  3.6268
    5CHTO   O29 1948   5.628   3.541   2.478  0.1157  0.0889  0.3724
    5CHTO   C50 1949   5.727   3.443   2.443 -0.4995  0.7323 -0.3039
    5CHTO   H92 1950   5.815   3.508   2.450  1.0084 -1.0898 -1.8773
    5CHTO   C54 1951   5.749   3.341   2.560 -0.3177 -0.3932  0.2939
    5CHTO   O36 1952   5.827   3.394   2.667 -0.1360  0.0279 -0.4266
    5CHTO   H72 1953   5.919   3.410   2.652 -0.0481 -1.1724 -1.1982
    5CHTO   O27 1954   5.433   3.538   2.354  0.1646  0.8878 -0.2368
    5CHTO   C37 1955   5.301   3.556   2.404  0.2552 -0.1131 -0.1375
    5CHTO   H79 1956   5.291   3.657   2.446  0.9115  0.4630 -1.3262
    5CHTO   C38 1957   5.192   3.555   2.286 -0.5927  0.0488  0.2506
    5CHTO   H80 1958   5.202   3.461   2.231 -1.8915 -0.1885  0.4248
    5CHTO   O31 1959   5.210   3.668   2.194 -0.0815 -0.2948  0.0195
    5CHTO   H68 1960   5.228   3.751   2.233  2.8907 -0.3562 -1.0234
    5CHTO   C39 1961   5.047   3.564   2.350  0.1917  0.8113 -0.4713
    5CHTO   H81 1962   5.041   3.666   2.388 -0.3048  0.7811 -0.4748
    5CHTO    N7 1963   4.935   3.539   2.247 -0.6620 -0.1130  0.2411
    5CHTO   H73 1964   4.844   3.576   2.293 -0.2790  1.3303 -0.1463
    5CHTO   H74 1965   4.921   3.434   2.225  1.3053 -0.2734 -0.3704
    5CHTO   C40 1966   5.032   3.459   2.470 -0.1390 -0.3957 -0.2091
    5CHTO   H82 1967   5.026   3.355   2.440 -1.0737 -0.6215  0.7434
    5CHTO   O26 1968   5.137   3.476   2.569  0.0644 -0.0084  0.3276
    5CHTO   C41 1969   5.271   3.453   2.518  0.0776  0.1476 -0.4572
    5CHTO   H83 1970   5.295   3.351   2.484 -0.8005 -0.9189  1.9691
    5CHTO   C52 1971   5.363   3.470   2.637  0.4631  0.0510  0.1878
    5CHTO   O35 1972   5.349   3.347   2.728 -0.6382 -0.1211 -0.0963
    5CHTO   H71 1973   5.414   3.361   2.794 -1.6373 -0.7757  1.0468
    5CHTO   O28 1974   4.910   3.486   2.543 -0.0370  0.3851 -0.5963
    5CHTO   C42 1975   4.875   3.432   2.669  0.3418 -0.4174 -0.2338
    5CHTO   H84 1976   4.766   3.443   2.675  0.4027 -0.8052  2.3270
    5CHTO   C44 1977   4.933   3.506   2.799 -0.2311  1.2089  0.2417
    5CHTO   H86 1978   5.041   3.514   2.786 -0.0340  0.0100  1.1700
    5CHTO   O32 1979   4.867   3.631   2.798  0.4663  0.0202 -0.4586
    5CHTO   H69 1980   4.819   3.655   2.875 -0.5946 -0.4295 -0.9737
    5CHTO   C48 1981   4.909   3.429   2.932 -0.4206  0.0669  0.1147
    5CHTO   H90 1982   4.801   3.423   2.938 -0.4184  0.6697  0.8020
    5CHTO    N9 1983   4.961   3.492   3.057 -0.1474  0.7983  0.4362
    5CHTO   H77 1984   4.963   3.416   3.134 -1.8717 -0.7343 -0.9750
    5CHTO   H78 1985   4.880   3.556   3.090 -0.5990 -0.1404  1.1622
    5CHTO   C51 1986   4.968   3.280   2.920 -0.4595 -0.7069  0.0136
    5CHTO   H93 1987   5.072   3.293   2.891  0.6564  0.7929  4.3377
    5CHTO   O30 1988   4.891   3.220   2.817 -0.0649 -0.4869 -0.0826
    5CHTO   C46 1989   4.902   3.278   2.670 -0.4444  0.0711 -0.0346
    5CHTO   H88 1990   5.001   3.256   2.628 -0.9463 -0.0396 -1.1845
    5CHTO   C53 1991   4.799   3.214   2.583 -0.0745  0.1155 -0.7805
    5CHTO   O72 1992   4.828   3.075   2.582  0.3820 -0.8787 -0.2396
    5CHTO  H199 1993   4.847   3.046   2.495 -1.9349 -1.0554 -0.7104
    5CHTO   O22 1994   4.958   3.195   3.040 -0.3735 -0.5636 -0.2770
    5CHTO   C31 1995   5.043   3.074   3.073  0.4642  0.2242  0.6346
    5CHTO   H59 1996   4.998   3.033   3.166 -2.3401  2.5561  0.3864
    5CHTO   C29 1997   5.041   2.956   2.968  0.1845 -0.0072  0.2528
    5CHTO   H57 1998   5.082   2.992   2.873 -0.6720 -2.2414 -0.9977
    5CHTO   O21 1999   4.899   2.930   2.954  0.6277  0.1202 -0.4203
    5CHTO   H37 2000   4.876   2.923   2.863 -0.2684  0.2253 -0.2066
    5CHTO   C27 2001   5.120   2.833   3.012  1.0632  0.8216  0.4484
    5CHTO   H55 2002   5.085   2.799   3.111 -2.7487 -0.6403 -1.2964
    5CHTO    N5 2003   5.098   2.725   2.915  0.2598 -0.2635 -0.1621
    5CHTO   H43 2004   5.190   2.675   2.889 -0.3648 -1.7907  0.4573
    5CHTO   H44 2005   5.032   2.646   2.949 -1.1302  1.7892  2.1061
    5CHTO   C25 2006   5.262   2.890   3.041 -0.7204  0.5590 -0.0288
    5CHTO   H53 2007   5.304   2.943   2.954  1.3840 -1.1819 -0.1080
    5CHTO   O17 2008   5.265   2.986   3.148 -0.2360  0.3520 -0.3633
    5CHTO   C32 2009   5.191   3.102   3.107  0.5862 -0.1981  0.9578
    5CHTO   H60 2010   5.227   3.155   3.019 -1.4004 -1.2979 -0.5475
    5CHTO   C36 2011   5.207   3.201   3.221 -0.6102  0.0560 -0.0888
    5CHTO   O25 2012   5.339   3.229   3.264  0.1338  0.4878 -0.1791
    5CHTO   H40 2013   5.345   3.316   3.300 -0.1593 -0.0094  1.0914
    5CHTO   O15 2014   5.369   2.769   3.080  0.4628 -0.8951 -0.0257
    5CHTO   C19 2015   5.501   2.743   3.123 -0.2251  0.2020  0.4036
    5CHTO   H47 2016   5.501   2.795   3.220 -0.7051  2.2140 -0.6448
    5CHTO   C20 2017   5.532   2.591   3.136  0.0572 -0.4570  0.4058
    5CHTO   H48 2018   5.504   2.534   3.047  1.4877  1.7986 -1.5277
    5CHTO   O19 2019   5.445   2.549   3.243  0.0726  0.0364 -0.2058
    5CHTO   H35 2020   5.355   2.559   3.220 -0.5616 -0.1666  2.0218
    5CHTO   C21 2021   5.687   2.562   3.164  0.4719 -0.3437 -0.1561
    5CHTO   H49 2022   5.711   2.602   3.262 -1.2582 -1.6852  0.8648
    5CHTO    N4 2023   5.727   2.422   3.175  0.0524 -0.6277  0.4761
    5CHTO   H41 2024   5.660   2.371   3.107 -0.8039 -0.1636  0.9554
    5CHTO   H42 2025   5.828   2.391   3.155 -0.3797 -2.3536  0.8831
    5CHTO   C22 2026   5.775   2.641   3.062  0.0174 -0.1876 -0.5640
    5CHTO   H50 2027   5.745   2.597   2.967  2.6905 -0.9448 -1.1019
    5CHTO   O14 2028   5.737   2.774   3.078 -0.5914 -0.5470  0.3604
    5CHTO   C23 2029   5.607   2.816   3.033  0.5529  0.1816  0.4341
    5CHTO   H51 2030   5.595   2.793   2.926  0.9498 -0.1937  0.4671
    5CHTO   C34 2031   5.602   2.972   3.026  0.5148  0.2075  0.0269
    5CHTO   O23 2032   5.599   3.026   3.165  0.1233  0.9317  0.2973
    5CHTO   H38 2033   5.511   3.016   3.197  0.3316  0.2182  0.6442
    5CHTO   O16 2034   5.916   2.642   3.070  0.5637 -0.0759  0.3285
    5CHTO   C24 2035   6.009   2.546   2.980 -0.1120  0.4967  0.2132
    5CHTO   H52 2036   5.950   2.464   2.938 -1.1551  1.0281  0.6349
    5CHTO   C26 2037   6.118   2.490   3.062 -0.1566 -0.2751 -0.0335
    5CHTO   H54 2038   6.156   2.572   3.127 -1.1259 -0.7800  1.2074
    5CHTO   O20 2039   6.057   2.404   3.162 -0.5838 -0.5544  0.3833
    5CHTO   H36 2040   6.099   2.320   3.166  1.6343  0.5107  0.2025
    5CHTO   C30 2041   6.230   2.414   2.980 -0.0125  0.5859 -0.1432
    5CHTO   H58 2042   6.185   2.325   2.934 -2.9141  0.3041  3.0466
    5CHTO    N6 2043   6.342   2.371   3.071 -0.3443 -0.8291 -0.1017
    5CHTO   H45 2044   6.377   2.451   3.134  0.7843 -0.7976 -0.7479
    5CHTO   H46 2045   6.312   2.291   3.136 -1.8648  0.7248  1.1559
    5CHTO   C33 2046   6.278   2.502   2.862  0.3092  0.1443  0.2896
    5CHTO   H61 2047   6.336   2.585   2.905  1.4628 -1.3088  1.6269
    5CHTO   O18 2048   6.169   2.547   2.791 -0.4612  0.2231 -0.2947
    5CHTO   C28 2049   6.066   2.622   2.860 -0.1056 -0.3444  0.3545
    5CHTO   H56 2050   6.101   2.718   2.899  1.2137 -0.1398 -1.2548
    5CHTO   C35 2051   5.967   2.655   2.751  0.2623 -0.4454 -0.2070
    5CHTO   O24 2052   5.948   2.559   2.653  0.3873 -0.0290  0.1510
    5CHTO   H39 2053   6.028   2.551   2.604  2.3915 -0.0033  3.2777
    5CHTO    O9 2054   6.376   2.444   2.779 -0.1240 -0.0349  0.2180
    5CHTO   C13 2055   6.464   2.554   2.695  0.6583  0.2812  0.6924
    5CHTO   H26 2056   6.414   2.653   2.691 -0.7178 -0.4626 -1.7733
    5CHTO   C11 2057   6.487   2.493   2.554 -0.4659  0.6161  0.5878
    5CHTO   H24 2058   6.389   2.459   2.518 -0.2042 -1.1031  1.4539
    5CHTO    O8 2059   6.559   2.363   2.554 -0.1766 -0.2144 -0.1043
    5CHTO    H3 2060   6.597   2.344   2.471  1.5833  0.2110  0.5768
    5CHTO    C9 2061   6.559   2.600   2.469  0.1127  0.3664  0.0089
    5CHTO   H22 2062   6.484   2.681   2.462  2.6242  2.7720  0.0652
    5CHTO    N2 2063   6.573   2.556   2.327  0.5040 -0.3847 -0.1882
    5CHTO   H10 2064   6.608   2.454   2.322  3.1117  0.4927 -0.6883
    5CHTO   H11 2065   6.644   2.619   2.276 -0.4464  0.2622 -0.7335
    5CHTO    C7 2066   6.691   2.653   2.539  0.3481 -0.3104 -0.0215
    5CHTO   H20 2067   6.682   2.763   2.532  2.0892 -0.1707 -0.2377
    5CHTO    O4 2068   6.704   2.614   2.677 -0.2187  0.3107  0.0343
    5CHTO   C14 2069   6.599   2.596   2.768 -0.3971 -0.1559  0.0410
    5CHTO   H27 2070   6.587   2.692   2.822 -0.1651 -0.6898  1.0568
    5CHTO   C18 2071   6.661   2.501   2.876 -0.3144  0.0392  0.9588
    5CHTO   O13 2072   6.713   2.368   2.831 -0.0102 -0.1892  0.1794
    5CHTO    H7 2073   6.791   2.380   2.780 -1.4638  0.1504 -2.0140
    5CHTO    O2 2074   6.831   2.614   2.454  0.0308  0.3049 -0.0505
    5CHTO    C1 2075   6.894   2.723   2.390 -0.1834 -0.3118 -0.1124
    5CHTO   H14 2076   6.830   2.812   2.408 -0.3310 -0.2265 -1.0075
    5CHTO    C2 2077   6.925   2.703   2.236 -0.5140  0.3286  0.5840
    5CHTO   H15 2078   6.962   2.600   2.225  0.4121  0.7565 -0.3693
    5CHTO    O6 2079   6.804   2.709   2.163  0.0129 -0.0963  0.0620
    5CHTO    H1 2080   6.767   2.795   2.163  1.9248  0.7493 -1.4371
    5CHTO    C3 2081   7.027   2.804   2.169 -0.0279 -0.3543  0.8913
    5CHTO   H16 2082   6.976   2.901   2.169 -1.4622 -1.0750 -0.4737
    5CHTO    N1 2083   7.069   2.774   2.030 -0.1623  0.1456 -0.6960
    5CHTO    H8 2084   7.126   2.683   2.027 -1.4419 -0.7075  0.6831
    5CHTO    H9 2085   7.121   2.861   1.992  0.4138 -0.5417 -1.4985
    5CHTO    C4 2086   7.150   2.817   2.265 -0.4203 -0.7346 -1.1169
    5CHTO   H17 2087   7.212   2.728   2.258 -0.7897 -0.8527 -3.0990
    5CHTO    O1 2088   7.114   2.839   2.402 -0.3499 -0.4030 -0.1992
    5CHTO    C5 2089   7.032   2.746   2.465  0.3673  0.1503 -0.3714
    5CHTO   H18 2090   7.090   2.655   2.484  1.7864  0.9671 -0.7407
    5CHTO   C16 2091   7.014   2.815   2.604  0.1147 -0.1101  0.2562
    5CHTO   O11 2092   7.139   2.825   2.672 -0.0646 -0.1878  0.4715
    5CHTO    H5 2093   7.203   2.884   2.637 -1.1189 -0.1473 -1.4760
    5CHTO    O3 2094   7.225   2.934   2.230  0.2864  0.3412  0.9511
    5CHTO    C6 2095   7.365   2.943   2.266  0.2001 -0.3339 -0.4732
    5CHTO   H19 2096   7.392   2.878   2.349 -1.4683 -0.2209  0.1843
    5CHTO    C8 2097   7.454   2.897   2.143  0.1847  0.0639 -0.1729
    5CHTO   H21 2098   7.429   2.955   2.054  1.5161  2.0136  0.6890
    5CHTO    O7 2099   7.420   2.759   2.120  0.0552  0.3033  0.0359
    5CHTO    H2 2100   7.446   2.704   2.191  2.0301  1.2369  0.0491
    5CHTO   C12 2101   7.608   2.919   2.178 -0.2989  0.4378 -0.1415
    5CHTO   H25 2102   7.637   2.858   2.266  1.2705  1.0769 -0.1892
    5CHTO    N3 2103   7.691   2.871   2.058 -0.1009 -0.0782  0.1969
    5CHTO   H12 2104   7.646   2.915   1.971  1.4572  1.8850  0.3398
    5CHTO   H13 2105   7.791   2.912   2.052 -0.6740  1.3906  0.4544
    5CHTO   C15 2106   7.627   3.069   2.211 -0.0455 -0.2582  0.0130
    5CHTO   H28 2107   7.604   3.134   2.127 -0.9945 -0.0375  0.4369
    5CHTO   O10 2108   7.778   3.093   2.253  0.9130  0.1540 -0.2131
    5CHTO    H4 2109   7.798   3.063   2.339 -0.9270  0.3654  0.3232
    5CHTO    O5 2110   7.549   3.101   2.328 -0.5356  0.2915 -0.0925
    5CHTO   C10 2111   7.406   3.088   2.304  0.4563 -0.0328  0.6073
    5CHTO   H23 2112   7.374   3.151   2.221 -0.1248 -1.9623 -0.7002
    5CHTO   C17 2113   7.336   3.127   2.431  0.3776 -0.3073 -0.4941
    5CHTO   O12 2114   7.357   3.037   2.537  0.6643 -0.4510 -0.4687
    5CHTO    H6 2115   7.305   3.056   2.613 -2.7332  2.9270 -3.4020
    6CHTO  H203 2116   6.902   4.744   0.106  1.5220  0.3387  1.8236
    6CHTO   O82 2117   6.833   4.758   0.168 -0.0403 -0.1283  0.2311
    6CHTO  C123 2118   6.757   4.880   0.150  0.1935  1.2631  0.0223
    6CHTO  H227 2119   6.810   4.950   0.084  0.4283  0.7206 -0.3679
    6CHTO   O77 2120   6.636   4.827   0.083 -0.4883 -0.6306  0.6831
    6CHTO  C118 2121   6.551   4.935   0.053  0.2284 -0.4773 -0.2028
    6CHTO  H222 2122   6.605   5.018   0.005  0.1436  0.9379  2.0756
    6CHTO  C125 2123   6.436   4.877  -0.047  0.6041 -0.1494  0.0323
    6CHTO   O84 2124   6.394   4.750  -0.004  0.0191 -0.1692  0.9477
    6CHTO  H205 2125   6.320   4.722  -0.054 -0.4752 -1.6897  2.5024
    6CHTO  C114 2126   6.482   4.983   0.182 -0.3972 -0.6772 -0.0494
    6CHTO  H218 2127   6.435   4.897   0.231 -1.4738  0.0320  0.1691
    6CHTO  C116 2128   6.587   5.031   0.287 -0.4569  0.1811  0.4457
    6CHTO  H220 2129   6.608   5.137   0.265 -1.4611  0.2680 -0.1532
    6CHTO   O79 2130   6.529   5.026   0.419  0.5551  0.2533  0.2072
    6CHTO  H201 2131   6.585   5.044   0.492  2.9646 -0.6560 -1.3613
    6CHTO  C120 2132   6.726   4.951   0.286 -0.3269  0.1926  0.0796
    6CHTO  H224 2133   6.701   4.869   0.357 -0.5579  0.0163 -0.2014
    6CHTO   N21 2134   6.849   5.028   0.335  0.3809  0.3385 -0.0443
    6CHTO  H211 2135   6.810   5.085   0.418 -1.6770 -0.7885 -0.1901
    6CHTO  H212 2136   6.926   4.959   0.365 -0.9269 -1.8527 -1.5566
    6CHTO   O75 2137   6.388   5.077   0.146  0.3353  0.0676 -0.0642
    6CHTO  C112 2138   6.241   5.078   0.238 -0.0273  1.1252  0.2074
    6CHTO  H216 2139   6.262   5.101   0.343 -0.6444 -0.0242  0.5903
    6CHTO   O73 2140   6.175   4.948   0.225 -0.3136  0.2182  0.4501
    6CHTO  C113 2141   6.059   4.935   0.307  0.9239  1.2367  0.4571
    6CHTO  H217 2142   6.076   4.968   0.412  0.9664 -0.1400  0.8971
    6CHTO  C124 2143   6.022   4.789   0.306 -0.7574  0.4719 -0.1287
    6CHTO   O83 2144   5.985   4.749   0.438  0.0943  0.3151 -0.1109
    6CHTO  H204 2145   5.966   4.657   0.440  0.5248  0.2335  0.3099
    6CHTO  C109 2146   5.947   5.027   0.251 -0.6030  0.0370 -0.1858
    6CHTO  H213 2147   5.930   5.000   0.146 -2.9760 -1.1353  0.4813
    6CHTO  C110 2148   6.006   5.174   0.260  0.0065 -0.4361  0.4640
    6CHTO  H214 2149   6.020   5.207   0.363  0.3998  0.5929  0.0865
    6CHTO   O78 2150   5.913   5.263   0.198 -0.2153  0.4588  0.4336
    6CHTO  H200 2151   5.881   5.220   0.120 -2.2197 -0.3507  1.6756
    6CHTO  C111 2152   6.142   5.182   0.183  0.2420  0.7157 -0.6340
    6CHTO  H215 2153   6.120   5.156   0.078 -1.3248 -2.7794  0.4744
    6CHTO   N19 2154   6.210   5.311   0.188 -0.6553  0.6556  0.3788
    6CHTO  H207 2155   6.307   5.299   0.141  0.1396 -0.4280  2.2266
    6CHTO  H208 2156   6.232   5.324   0.293  0.4340 -3.3172  0.7270
    6CHTO   O74 2157   5.819   5.028   0.321  0.3920 -0.0254  0.1249
    6CHTO  C115 2158   5.812   5.024   0.481 -0.8178  0.1830 -0.1463
    6CHTO  H219 2159   5.899   4.974   0.523 -0.9719  0.3668  0.3937
    6CHTO   O76 2160   5.815   5.174   0.543  0.3126 -0.0446 -0.4612
    6CHTO  C122 2161   5.701   5.246   0.507  0.3165 -0.0380  0.2095
    6CHTO  H226 2162   5.702   5.259   0.399 -0.2816 -0.1040  0.1965
    6CHTO  C126 2163   5.706   5.390   0.568 -0.1887 -0.1031 -0.1636
    6CHTO   O85 2164   5.616   5.484   0.508 -0.4460  0.1678  0.2187
    6CHTO  H206 2165   5.535   5.443   0.528  0.3375 -1.0366  0.9849
    6CHTO  C121 2166   5.561   5.165   0.537  0.0110  0.7891  0.0845
    6CHTO  H225 2167   5.497   5.230   0.601 -0.7207  0.5481 -0.4027
    6CHTO   O81 2168   5.484   5.154   0.421 -0.3293 -0.4503 -0.4295
    6CHTO  H202 2169   5.524   5.083   0.375 -0.0685  0.1439 -1.1258
    6CHTO  C119 2170   5.579   5.023   0.605 -0.6281 -0.1579 -0.5622
    6CHTO  H223 2171   5.616   5.045   0.705 -3.1536  1.3600  0.0858
    6CHTO  C117 2172   5.678   4.942   0.510 -0.2837  0.0192 -1.0159
    6CHTO  H221 2173   5.641   4.920   0.409  1.9132 -1.6369 -1.4978
    6CHTO   N20 2174   5.702   4.804   0.562 -0.1647 -0.2270  0.2952
    6CHTO  H209 2175   5.605   4.757   0.561 -0.6209  0.7260 -0.5896
    6CHTO  H210 2176   5.748   4.813   0.659 -0.4522  1.6032  0.2722
    6CHTO   O80 2177   5.428   4.955   0.646 -0.0971  0.2149  0.5611
    6CHTO  C103 2178   5.384   4.948   0.797  0.6613  0.2143 -0.6662
    6CHTO  H190 2179   5.462   4.914   0.866 -0.8008 -2.7042 -0.3693
    6CHTO  C101 2180   5.317   5.083   0.858  0.1701 -0.1218  0.5848
    6CHTO  H188 2181   5.275   5.139   0.775  1.7685  0.7554  0.3403
    6CHTO   O68 2182   5.435   5.176   0.902  0.1877  0.1064  0.3126
    6CHTO  H168 2183   5.484   5.206   0.827 -1.5858 -1.2408 -1.4488
    6CHTO   C99 2184   5.224   5.069   0.986 -0.6993 -0.4600  0.1889
    6CHTO  H186 2185   5.284   5.042   1.076 -0.7691 -1.0102  0.0724
    6CHTO   N17 2186   5.135   5.181   1.027 -0.7062 -0.0951  0.1993
    6CHTO  H174 2187   5.191   5.269   1.055  0.4609 -0.8384  0.2176
    6CHTO  H175 2188   5.065   5.191   0.945 -0.8635 -1.1870  0.2007
    6CHTO   C97 2189   5.128   4.945   0.957 -0.1753  0.0635  0.3906
    6CHTO  H184 2190   5.056   4.972   0.879  0.1493 -1.9807 -0.6501
    6CHTO   O64 2191   5.207   4.828   0.923 -0.0505  0.0108  0.8365
    6CHTO  C104 2192   5.273   4.835   0.797 -0.1542 -0.1402 -0.7965
    6CHTO  H191 2193   5.204   4.866   0.718 -1.1818 -1.2535 -0.3498
    6CHTO  C108 2194   5.339   4.702   0.759  0.2522 -0.1413  0.8704
    6CHTO   O71 2195   5.428   4.643   0.855 -0.5665 -0.1983 -0.1701
    6CHTO  H171 2196   5.516   4.663   0.828  0.4319 -1.0901  2.2317
    6CHTO   O62 2197   5.052   4.901   1.074  0.3553  0.5629 -0.4453
    6CHTO   C91 2198   4.915   4.853   1.065  0.3223  0.5435 -0.2509
    6CHTO  H178 2199   4.850   4.931   1.104  0.4113 -0.0165  1.0296
    6CHTO   C92 2200   4.895   4.743   1.171  0.1036  0.4571 -0.1882
    6CHTO  H179 2201   4.937   4.777   1.266  0.7831 -2.3786  0.5542
    6CHTO   O66 2202   4.753   4.724   1.191  0.0706  0.0236 -0.2278
    6CHTO  H166 2203   4.702   4.803   1.195 -1.7481 -1.1134 -0.3039
    6CHTO   C93 2204   4.947   4.601   1.123 -0.5099 -0.3770  0.2765
    6CHTO  H180 2205   4.878   4.526   1.163 -0.1473 -1.3193 -0.8003
    6CHTO   N16 2206   5.076   4.562   1.188  0.3580  1.0210 -0.0384
    6CHTO  H172 2207   5.093   4.458   1.167 -0.3058  1.0562 -0.7622
    6CHTO  H173 2208   5.164   4.615   1.154  0.8043 -0.8320 -1.9268
    6CHTO   C94 2209   4.950   4.584   0.966  0.6894  0.2809  0.1143
    6CHTO  H181 2210   5.043   4.619   0.921 -0.6371  0.7335 -2.3699
    6CHTO   O61 2211   4.836   4.654   0.913  0.1601 -0.4951 -0.2788
    6CHTO   C95 2212   4.863   4.794   0.915  0.0689  0.2043 -0.1821
    6CHTO  H182 2213   4.943   4.815   0.844 -1.6892  0.2299 -2.2022
    6CHTO  C106 2214   4.745   4.869   0.868  0.2642 -0.3468  0.0590
    6CHTO   O69 2215   4.694   4.824   0.742  0.5328  0.1407  0.3934
    6CHTO  H169 2216   4.611   4.863   0.726  0.4982 -0.5185 -1.0687
    6CHTO   O63 2217   4.924   4.422   0.907  0.5023  0.1400 -0.3231
    6CHTO   C96 2218   4.998   4.379   0.781  0.0735 -0.0407  0.8184
    6CHTO  H183 2219   5.101   4.414   0.795  0.5395 -1.9223  2.1964
    6CHTO   C98 2220   4.954   4.437   0.643 -0.1180 -0.5752  0.5052
    6CHTO  H185 2221   4.852   4.399   0.625 -1.3581  3.6502 -2.3214
    6CHTO   O67 2222   4.942   4.583   0.648  0.2003 -0.0142 -0.2159
    6CHTO  H167 2223   4.882   4.613   0.713 -0.5609 -1.3460 -0.2980
    6CHTO  C102 2224   5.065   4.392   0.531  0.4496  0.0381  0.1566
    6CHTO  H189 2225   5.142   4.471   0.534  2.1256 -1.5730  0.5438
    6CHTO   N18 2226   5.005   4.396   0.391 -0.6023  0.1457  0.2275
    6CHTO  H176 2227   4.993   4.502   0.375 -0.1599  0.4739  1.8947
    6CHTO  H177 2228   5.074   4.358   0.317 -0.3008  1.8491 -0.3828
    6CHTO  C105 2229   5.132   4.255   0.564  0.0646  0.0799 -0.1428
    6CHTO  H192 2230   5.153   4.196   0.475  0.6637 -2.8772  1.8682
    6CHTO   O65 2231   5.063   4.170   0.658  0.5803 -0.2195 -0.7871
    6CHTO  C100 2232   5.004   4.227   0.777  0.7307  0.0922 -0.2791
    6CHTO  H187 2233   4.902   4.184   0.778  0.7236  0.1126 -0.1366
    6CHTO  C107 2234   5.073   4.177   0.902 -0.1076 -0.5309 -0.2901
    6CHTO   O70 2235   5.040   4.037   0.924  0.2095 -0.1224  0.4593
    6CHTO  H170 2236   5.079   4.008   1.004  0.6781 -0.5595  0.0729
    6CHTO   O57 2237   5.277   4.305   0.624 -1.0646 -0.4132  0.1122
    6CHTO   C85 2238   5.389   4.211   0.613 -0.0901 -0.5253 -0.6448
    6CHTO  H157 2239   5.370   4.153   0.520  0.8965  1.1619 -1.9500
    6CHTO   C83 2240   5.377   4.100   0.725 -0.5615 -0.0832 -0.7683
    6CHTO  H155 2241   5.278   4.055   0.721 -0.1872 -0.7680 -2.9314
    6CHTO   O56 2242   5.395   4.169   0.855  0.0133 -0.3773 -0.4112
    6CHTO  H135 2243   5.483   4.199   0.868  0.5415 -0.7032 -2.8974
    6CHTO   C81 2244   5.486   3.996   0.690 -0.6397 -0.2788  0.2274
    6CHTO  H153 2245   5.471   3.969   0.586  0.0844 -0.5854  0.2010
    6CHTO   N14 2246   5.466   3.871   0.765 -0.2408  0.3644  0.0880
    6CHTO  H141 2247   5.431   3.796   0.697 -2.4108  1.3458  0.0788
    6CHTO  H142 2248   5.386   3.878   0.836 -1.3072  0.3773 -1.1153
    6CHTO   C79 2249   5.631   4.066   0.699 -0.2763  1.0910 -0.3561
    6CHTO  H151 2250   5.701   3.990   0.665 -0.6403 -0.5214  2.2860
    6CHTO   O52 2251   5.642   4.175   0.601 -0.3776  0.2578 -0.5538
    6CHTO   C86 2252   5.534   4.273   0.613  0.1400 -0.4765  0.4694
    6CHTO  H158 2253   5.562   4.316   0.712 -2.3470 -0.5277  1.2196
    6CHTO   C90 2254   5.540   4.397   0.517  0.1031  0.4828  0.3938
    6CHTO   O60 2255   5.670   4.447   0.525 -0.2579  0.1934 -0.6337
    6CHTO  H138 2256   5.668   4.495   0.606 -0.9321 -1.2910  0.2451
    6CHTO   O50 2257   5.661   4.118   0.832  0.4512 -0.3281 -0.4165
    6CHTO   C73 2258   5.748   4.126   0.946  0.1767  0.0546 -0.4344
    6CHTO  H145 2259   5.766   4.023   0.981 -4.6770 -1.0470 -0.8539
    6CHTO   C74 2260   5.675   4.208   1.053 -0.2403  0.4935 -0.3627
    6CHTO  H146 2261   5.576   4.165   1.069 -1.1632  2.5707 -0.3389
    6CHTO   O54 2262   5.732   4.195   1.185 -0.2523 -0.0742 -0.2033
    6CHTO  H133 2263   5.756   4.275   1.228  0.9453 -0.4235 -0.2190
    6CHTO   C75 2264   5.666   4.360   1.009  0.1674 -0.1594  0.2872
    6CHTO  H147 2265   5.594   4.371   0.926  1.0368  0.8098 -0.3550
    6CHTO   N13 2266   5.605   4.457   1.110  0.0331  1.3241 -0.3005
    6CHTO  H139 2267   5.589   4.402   1.202  0.9025  0.0577 -0.8949
    6CHTO  H140 2268   5.507   4.486   1.075  0.0204  0.7895 -0.7090
    6CHTO   C76 2269   5.811   4.418   0.959 -0.0465  0.0856  0.2997
    6CHTO  H148 2270   5.878   4.436   1.044 -0.2184  0.5751  0.3359
    6CHTO   O49 2271   5.864   4.330   0.864  0.5221 -0.1447 -0.2856
    6CHTO   C77 2272   5.882   4.196   0.909  0.3014  0.1008 -0.3728
    6CHTO  H149 2273   5.945   4.189   0.998 -1.6773  0.0274  1.0669
    6CHTO   C88 2274   5.967   4.120   0.803  0.5327  0.5766  0.0075
    6CHTO   O58 2275   5.997   4.004   0.817 -0.3450  0.2315 -0.6035
    6CHTO  H136 2276   6.016   3.962   0.735 -0.5500  0.6243 -0.8545
    6CHTO   O51 2277   5.785   4.549   0.878  0.1897  0.1725 -0.1474
    6CHTO   C78 2278   5.873   4.672   0.930 -0.5185 -0.1378 -0.4485
    6CHTO  H150 2279   5.917   4.653   1.030 -0.3640 -0.2642 -0.5408
    6CHTO   C80 2280   5.784   4.795   0.934 -0.4473 -0.2322 -0.5335
    6CHTO  H152 2281   5.737   4.803   0.834  0.8657  1.8039 -1.0111
    6CHTO   O55 2282   5.681   4.767   1.029 -0.1274  0.4102  0.3792
    6CHTO  H134 2283   5.630   4.694   1.000 -0.2644  0.0993  1.3904
    6CHTO   C84 2284   5.867   4.924   0.978  0.2780  0.0604 -0.3301
    6CHTO  H156 2285   5.920   4.911   1.073 -0.7882 -0.7374  0.1584
    6CHTO   N15 2286   5.775   5.045   0.984 -0.2864 -0.3223 -0.2492
    6CHTO  H143 2287   5.674   5.023   0.956 -1.4767  3.5175  0.8129
    6CHTO  H144 2288   5.772   5.083   1.084  0.5604 -0.8935  0.0016
    6CHTO   C87 2289   5.993   4.939   0.884  0.2418  0.3228  0.7895
    6CHTO  H159 2290   5.965   4.950   0.779  0.3439 -2.3972  0.4215
    6CHTO   O53 2291   6.068   4.813   0.893 -0.2221  0.3360 -0.1742
    6CHTO   C82 2292   5.995   4.699   0.837  0.3681 -0.2379 -0.4102
    6CHTO  H154 2293   5.963   4.721   0.735  2.9458 -0.9242 -1.4029
    6CHTO   C89 2294   6.083   4.570   0.826  0.0134 -0.4722 -0.2616
    6CHTO   O59 2295   6.186   4.592   0.733 -0.2752 -0.2431 -0.2758
    6CHTO  H137 2296   6.165   4.635   0.652  0.8628 -2.1823 -1.6601
    6CHTO   O45 2297   6.068   5.051   0.915  0.5733 -0.2322  0.2066
    6CHTO   C67 2298   6.205   5.056   0.865  0.0838  1.0749  0.0522
    6CHTO  H124 2299   6.246   4.956   0.850 -1.3069  0.5226 -0.2013
    6CHTO   C65 2300   6.207   5.134   0.730  0.8235  0.4242  0.3550
    6CHTO  H122 2301   6.104   5.167   0.715  0.7277 -0.1826 -0.3791
    6CHTO   O44 2302   6.238   5.034   0.625 -0.0391 -0.0301  0.2237
    6CHTO  H102 2303   6.171   4.969   0.618 -2.1128  1.7664  2.2413
    6CHTO   C63 2304   6.299   5.258   0.723 -0.5596  0.3024 -0.8351
    6CHTO  H120 2305   6.255   5.336   0.785  2.8806  0.5179  1.4636
    6CHTO   N11 2306   6.317   5.327   0.593 -0.2438 -0.5159  0.4842
    6CHTO  H108 2307   6.230   5.317   0.531  1.3930 -0.6813 -1.8224
    6CHTO  H109 2308   6.398   5.293   0.532  0.6899  0.1271  1.3488
    6CHTO   C61 2309   6.437   5.215   0.790  0.3622  0.6856  0.3531
    6CHTO  H118 2310   6.493   5.309   0.806 -0.1153  0.8063  1.3270
    6CHTO   O40 2311   6.430   5.149   0.917 -0.5157  0.0009  0.1468
    6CHTO   C68 2312   6.290   5.129   0.968  0.2792 -0.3192 -0.7276
    6CHTO  H125 2313   6.236   5.223   0.993  0.0152 -0.9863  1.3032
    6CHTO   C72 2314   6.310   5.057   1.096 -0.2358 -0.5323  0.1087
    6CHTO   O48 2315   6.202   5.060   1.196  0.1590  0.0716  0.7378
    6CHTO  H105 2316   6.195   5.146   1.233  4.5081  1.1110 -0.5569
    6CHTO   O38 2317   6.521   5.125   0.715 -0.4579  0.4653 -0.2579
    6CHTO   C55 2318   6.663   5.138   0.746 -0.3678 -0.6545 -0.2438
    6CHTO  H112 2319   6.665   5.178   0.849 -1.6572  0.6388 -0.7014
    6CHTO   C56 2320   6.756   5.224   0.643  0.1938  0.4009  0.3444
    6CHTO  H113 2321   6.746   5.178   0.543 -1.7579  2.0495 -0.2425
    6CHTO   O42 2322   6.704   5.354   0.624 -0.0133  0.0948  0.5329
    6CHTO  H100 2323   6.615   5.350   0.596  0.6066 -1.4000 -1.3376
    6CHTO   C57 2324   6.908   5.221   0.687 -0.0959 -0.6424  0.0697
    6CHTO  H114 2325   6.912   5.281   0.778 -1.0909 -0.5013  0.0303
    6CHTO   N10 2326   7.006   5.281   0.590  1.0373 -0.4804  0.0208
    6CHTO  H106 2327   7.085   5.334   0.640 -1.1547  1.5366  1.4448
    6CHTO  H107 2328   7.048   5.203   0.527  0.5368 -2.7413  2.3730
    6CHTO   C58 2329   6.949   5.077   0.727  0.6278 -0.1760 -0.4849
    6CHTO  H115 2330   6.968   5.020   0.634  0.2174  1.1746 -1.4069
    6CHTO   O37 2331   6.852   5.010   0.815 -0.1494  0.2804 -0.3213
    6CHTO   C59 2332   6.720   4.996   0.761  0.7022  0.1867 -0.5673
    6CHTO  H116 2333   6.721   4.937   0.669  0.1969  0.7752 -0.9531
    6CHTO   C70 2334   6.645   4.913   0.866 -0.4704  0.4599  0.0389
    6CHTO   O46 2335   6.517   4.869   0.811 -0.3537 -0.4807  0.4146
    6CHTO  H103 2336   6.465   4.944   0.791  1.7499  1.0855  0.7529
    6CHTO   O39 2337   7.095   5.077   0.823  0.3785 -0.0202  0.2591
    6CHTO   C60 2338   7.192   4.973   0.790  0.2869 -0.0859  0.1550
    6CHTO  H117 2339   7.132   4.883   0.776  2.8587 -1.9782  0.9824
    6CHTO   C62 2340   7.277   5.017   0.665  0.3229 -0.7817 -0.6267
    6CHTO  H119 2341   7.209   5.021   0.577 -0.9701  1.5296  0.4259
    6CHTO   O43 2342   7.334   5.142   0.702 -0.2935  0.2885  0.1487
    6CHTO  H101 2343   7.326   5.200   0.628  0.3358 -0.6562 -0.6734
    6CHTO   C66 2344   7.389   4.898   0.645 -0.8674  0.0782  0.1523
    6CHTO  H123 2345   7.340   4.804   0.620  0.2159  0.0308 -1.8698
    6CHTO   N12 2346   7.479   4.918   0.532 -0.2321  0.2591  0.3266
    6CHTO  H110 2347   7.547   4.834   0.542  1.9421  2.0243  0.8660
    6CHTO  H111 2348   7.425   4.907   0.439  1.3256  0.7695 -0.6721
    6CHTO   C69 2349   7.471   4.881   0.776  0.5015 -0.1897  0.6102
    6CHTO  H126 2350   7.512   4.977   0.813 -1.7906  0.9790  0.1976
    6CHTO   O41 2351   7.376   4.835   0.872 -0.5879  0.2629 -0.0086
    6CHTO   C64 2352   7.272   4.949   0.915 -0.1941 -0.3572 -0.0263
    6CHTO  H121 2353   7.326   5.042   0.941  1.2571 -1.0509 -0.5113
    6CHTO   C71 2354   7.195   4.912   1.046 -0.0675 -0.5921  0.4634
    6CHTO   O47 2355   7.125   4.785   1.015 -0.2575 -0.2469  0.0761
    6CHTO  H104 2356   7.061   4.767   1.082 -2.7244  1.7010 -1.6692
    6CHTO   O34 2357   7.602   4.765   0.770 -0.3958 -0.0037  0.1544
    6CHTO   C49 2358   7.738   4.734   0.725 -0.6297  0.3800  0.4675
    6CHTO   H91 2359   7.719   4.688   0.627 -0.7377  0.6346  0.3704
    6CHTO   C47 2360   7.806   4.631   0.821 -0.4127 -0.1703 -0.0003
    6CHTO   H89 2361   7.899   4.598   0.770  0.5816  1.4460  0.7307
    6CHTO   O33 2362   7.719   4.515   0.830 -0.2162  0.1541 -0.0112
    6CHTO   H70 2363   7.659   4.519   0.903  1.3164  1.7273  1.1996
    6CHTO   C45 2364   7.837   4.698   0.961 -0.5272 -0.2624 -0.1450
    6CHTO   H87 2365   7.747   4.751   0.996  0.0310  0.5534  0.0640
    6CHTO    N8 2366   7.881   4.603   1.068 -0.1054  0.8694  0.4991
    6CHTO   H75 2367   7.970   4.557   1.027 -0.6432 -0.1571  0.4777
    6CHTO   H76 2368   7.907   4.661   1.155  0.0925  0.7454  0.5229
    6CHTO   C43 2369   7.927   4.834   0.944  0.3435  0.4531 -0.4239
    6CHTO   H85 2370   7.915   4.890   1.036  2.2594  1.5997 -0.8419
    6CHTO   O29 2371   7.877   4.917   0.838  0.3346 -0.4920  0.9664
    6CHTO   C50 2372   7.824   4.859   0.714  0.5629 -0.1584 -0.6943
    6CHTO   H92 2373   7.772   4.942   0.665 -0.6596  0.5444  1.7539
    6CHTO   C54 2374   7.946   4.827   0.610 -0.6103  0.2331  0.0093
    6CHTO   O36 2375   7.991   4.947   0.542  0.1627 -0.7857  0.0120
    6CHTO   H72 2376   8.083   4.936   0.534  0.5582  0.9517  1.7764
    6CHTO   O27 2377   8.068   4.819   0.933 -0.5654  0.7142  0.6293
    6CHTO   C37 2378   8.168   4.920   0.965 -0.7486  0.1329 -0.0935
    6CHTO   H79 2379   8.261   4.875   0.928 -1.4554 -1.9850  0.5933
    6CHTO   C38 2380   8.147   5.056   0.893  0.4959 -0.0852 -0.3951
    6CHTO   H80 2381   8.043   5.084   0.916 -0.3612 -2.0850 -1.7078
    6CHTO   O31 2382   8.164   5.030   0.756  0.1473 -0.7645 -0.6196
    6CHTO   H68 2383   8.252   5.035   0.724  0.3592 -0.4849  0.0007
    6CHTO   C39 2384   8.235   5.175   0.953 -0.0099 -1.3619 -0.1072
    6CHTO   H81 2385   8.340   5.152   0.934 -0.0214 -2.4557  1.0926
    6CHTO    N7 2386   8.200   5.304   0.887  0.5975  0.7518 -0.4912
    6CHTO   H73 2387   8.277   5.345   0.823  2.2355  0.6372  1.3511
    6CHTO   H74 2388   8.147   5.369   0.955  0.1455 -0.4204  0.3016
    6CHTO   C40 2389   8.238   5.175   1.117  0.6599 -1.2058  0.1442
    6CHTO   H82 2390   8.135   5.202   1.141  0.4444 -0.0286 -2.0087
    6CHTO   O26 2391   8.275   5.039   1.150  0.2772 -0.1027 -0.1722
    6CHTO   C41 2392   8.186   4.934   1.115  0.3248  0.1778  0.7772
    6CHTO   H83 2393   8.089   4.953   1.162 -0.0262 -1.4627  0.7584
    6CHTO   C52 2394   8.250   4.807   1.164  0.6236  0.6561 -0.2784
    6CHTO   O35 2395   8.261   4.793   1.329  0.1801  0.2008 -0.2418
    6CHTO   H71 2396   8.342   4.751   1.353  0.3477  1.9488  2.6019
    6CHTO   O28 2397   8.331   5.259   1.172  0.3564  0.5882 -0.0655
    6CHTO   C42 2398   8.313   5.337   1.291  0.0842  0.2150 -0.9245
    6CHTO   H84 2399   8.403   5.397   1.299 -0.3685  1.0307 -1.8133
    6CHTO   C44 2400   8.311   5.243   1.417  0.3780  0.3065  0.9837
    6CHTO   H86 2401   8.224   5.179   1.423 -0.0894  0.5445 -2.2978
    6CHTO   O32 2402   8.426   5.161   1.405 -0.6453  0.4072 -0.1589
    6CHTO   H69 2403   8.431   5.117   1.488  1.6188  1.3751  0.2658
    6CHTO   C48 2404   8.302   5.318   1.556  0.1974  0.1183  0.0459
    6CHTO   H90 2405   8.390   5.380   1.575  0.3234 -0.0344 -0.0312
    6CHTO    N9 2406   8.304   5.226   1.672  0.4050 -0.7187  0.5355
    6CHTO   H77 2407   8.367   5.141   1.651  2.2100  0.6251  0.3401
    6CHTO   H78 2408   8.207   5.191   1.702 -0.4371 -0.6221 -1.9370
    6CHTO   C51 2409   8.183   5.415   1.553 -0.3103  0.4008  0.2008
    6CHTO   H93 2410   8.091   5.356   1.559 -0.2646  0.2737 -0.3004
    6CHTO   O30 2411   8.186   5.505   1.445  0.5761 -0.5586  0.4057
    6CHTO   C46 2412   8.193   5.438   1.294  0.5142  0.0701  0.0601
    6CHTO   H88 2413   8.099   5.384   1.280 -0.4921  1.6599  0.4537
    6CHTO   C53 2414   8.219   5.546   1.189  0.3612 -0.2819  0.4290
    6CHTO   O72 2415   8.314   5.640   1.236  0.1531 -0.0801  0.2998
    6CHTO  H199 2416   8.273   5.724   1.244 -0.4034 -0.4190  1.1021
    6CHTO   O22 2417   8.179   5.501   1.666  0.7307 -0.7423  1.0539
    6CHTO   C31 2418   8.053   5.559   1.713  0.6100 -0.4486  0.0115
    6CHTO   H59 2419   8.075   5.637   1.790 -2.0804  0.9790 -0.6035
    6CHTO   C29 2420   7.966   5.636   1.610 -0.5658 -0.4162 -0.3215
    6CHTO   H57 2421   7.953   5.567   1.525  1.3176  1.2474 -2.0407
    6CHTO   O21 2422   8.046   5.735   1.551  0.0180 -0.5906 -0.2452
    6CHTO   H37 2423   7.993   5.791   1.498  2.2366 -0.2773 -2.2264
    6CHTO   C27 2424   7.821   5.674   1.673 -0.4090 -0.0905 -0.4172
    6CHTO   H55 2425   7.835   5.752   1.750  2.3701 -2.4466  1.6039
    6CHTO    N5 2426   7.737   5.725   1.564  0.2738  0.4697  0.3530
    6CHTO   H43 2427   7.660   5.774   1.623  0.6068  0.6032  0.6793
    6CHTO   H44 2428   7.697   5.647   1.502  0.8249 -1.5472  2.4707
    6CHTO   C25 2429   7.756   5.552   1.746 -0.1127 -0.3711  0.3969
    6CHTO   H53 2430   7.733   5.466   1.682 -0.6692  0.2858 -0.2907
    6CHTO   O17 2431   7.848   5.489   1.844 -1.0094  0.6021 -0.0791
    6CHTO   C32 2432   7.974   5.449   1.788  0.3370 -0.6759 -0.3243
    6CHTO   H60 2433   7.960   5.363   1.722 -2.4393 -1.5911  1.4057
    6CHTO   C36 2434   8.045   5.396   1.913  0.4991  0.7173  0.6133
    6CHTO   O25 2435   8.002   5.278   1.977 -0.0326 -0.2436  0.2736
    6CHTO   H40 2436   8.049   5.202   1.950 -0.0538  0.2375 -1.1232
    6CHTO   O15 2437   7.612   5.590   1.831  0.2939  0.3145  0.6952
    6CHTO   C19 2438   7.564   5.672   1.936  0.7222  0.2739 -0.1498
    6CHTO   H47 2439   7.557   5.592   2.011  2.7273 -1.4665 -1.7652
    6CHTO   C20 2440   7.662   5.779   1.988 -0.3203 -0.2956 -0.2310
    6CHTO   H48 2441   7.682   5.858   1.915  2.0309  1.3210  2.0609
    6CHTO   O19 2442   7.785   5.714   2.023  0.5333  0.1525 -0.3639
    6CHTO   H35 2443   7.859   5.760   1.989 -0.1773  2.5071  1.1398
    6CHTO   C21 2444   7.590   5.845   2.107 -0.1462 -0.0846 -0.1968
    6CHTO   H49 2445   7.562   5.768   2.179  2.8265 -0.3313  0.7561
    6CHTO    N4 2446   7.678   5.947   2.181  0.1189  0.4464 -0.2759
    6CHTO   H41 2447   7.758   5.904   2.240 -0.7481  1.2687  1.5402
    6CHTO   H42 2448   7.722   6.011   2.107  0.4891 -0.6296 -1.0000
    6CHTO   C22 2449   7.452   5.904   2.057  0.2024 -0.0423  0.4942
    6CHTO   H50 2450   7.481   5.964   1.970 -1.3650 -0.1335 -0.1108
    6CHTO   O14 2451   7.368   5.806   2.014 -0.4728 -0.2567  0.2999
    6CHTO   C23 2452   7.416   5.720   1.909 -0.6652 -0.1961  0.0987
    6CHTO   H51 2453   7.411   5.774   1.813  1.7235 -1.1413 -0.6050
    6CHTO   C34 2454   7.324   5.604   1.896 -0.7125  0.0294  0.2482
    6CHTO   O23 2455   7.322   5.555   1.764  0.0519 -0.0191  0.3409
    6CHTO   H38 2456   7.407   5.558   1.725  0.0011 -0.4925  0.1875
    6CHTO   O16 2457   7.379   5.981   2.161  0.3684 -0.2820 -0.2772
    6CHTO   C24 2458   7.284   6.080   2.103 -0.3040  0.1530 -0.3141
    6CHTO   H52 2459   7.269   6.067   1.996  1.0068 -0.9828 -0.3880
    6CHTO   C26 2460   7.344   6.221   2.130 -0.2044 -0.0931  0.5975
    6CHTO   H54 2461   7.376   6.231   2.236  0.1756  1.2593  0.3608
    6CHTO   O20 2462   7.467   6.224   2.067 -0.4010 -0.0630  0.7045
    6CHTO   H36 2463   7.523   6.151   2.082  0.2774  0.0396 -1.1862
    6CHTO   C30 2464   7.256   6.334   2.079 -0.3583  0.6534 -0.7308
    6CHTO   H58 2465   7.254   6.324   1.970 -1.0005  2.7493 -0.9343
    6CHTO    N6 2466   7.296   6.474   2.108  0.5987 -0.1660 -0.2283
    6CHTO   H45 2467   7.346   6.518   2.022  0.9514 -0.6863 -0.2932
    6CHTO   H46 2468   7.224   6.544   2.147  1.7947 -0.5955  2.8693
    6CHTO   C33 2469   7.109   6.311   2.130  0.2795  0.6290  0.1602
    6CHTO   H61 2470   7.104   6.346   2.234  0.5665  0.1209  0.3441
    6CHTO   O18 2471   7.065   6.168   2.117 -0.7088 -0.5043 -0.1658
    6CHTO   C28 2472   7.150   6.069   2.175 -0.2696  0.5782 -0.3350
    6CHTO   H56 2473   7.166   6.095   2.279  0.2454 -0.2692 -0.2037
    6CHTO   C35 2474   7.090   5.927   2.155  0.0559 -1.0507  0.5257
    6CHTO   O24 2475   6.961   5.898   2.192  0.4329  0.4284  0.4505
    6CHTO   H39 2476   6.901   5.969   2.178  2.4035  1.8235 -1.1250
    6CHTO    O9 2477   7.023   6.402   2.054 -0.0503  0.8405  0.3033
    6CHTO   C13 2478   6.914   6.481   2.147 -0.2277  0.6123  0.3104
    6CHTO   H26 2479   6.977   6.555   2.202 -1.1854  1.7200 -0.0748
    6CHTO   C11 2480   6.826   6.392   2.242 -0.4269 -0.4384 -0.4234
    6CHTO   H24 2481   6.885   6.367   2.331 -1.4780 -0.0946  0.3914
    6CHTO    O8 2482   6.790   6.271   2.180 -0.0873 -0.5300  0.3340
    6CHTO    H3 2483   6.734   6.283   2.106 -2.7027 -1.0253  2.1390
    6CHTO    C9 2484   6.713   6.485   2.304  0.0388  0.2959  0.4405
    6CHTO   H22 2485   6.758   6.572   2.356 -2.3019  1.1074  1.1674
    6CHTO    N2 2486   6.632   6.427   2.416 -0.0037 -0.1064  0.5314
    6CHTO   H10 2487   6.526   6.415   2.403 -0.3938  2.0610  1.5662
    6CHTO   H11 2488   6.676   6.339   2.461  1.9440  0.1772 -0.7141
    6CHTO    C7 2489   6.627   6.544   2.191 -0.4210 -0.0224  0.8303
    6CHTO   H20 2490   6.554   6.610   2.242 -1.0860  0.5775 -0.8641
    6CHTO    O4 2491   6.713   6.628   2.107 -0.3800  0.1274 -0.2674
    6CHTO   C14 2492   6.840   6.581   2.040  0.6412 -0.0513 -0.6879
    6CHTO   H27 2493   6.896   6.676   2.031  2.1437 -0.8562 -0.0494
    6CHTO   C18 2494   6.813   6.530   1.894 -0.1201 -0.3599 -1.0005
    6CHTO   O13 2495   6.922   6.501   1.812  0.4185 -0.3054 -0.1384
    6CHTO    H7 2496   6.967   6.426   1.846  0.3763  0.8085  2.4968
    6CHTO    O2 2497   6.556   6.426   2.088 -0.5633  0.2592 -0.4233
    6CHTO    C1 2498   6.418   6.429   2.056 -0.2697 -0.1294  0.7456
    6CHTO   H14 2499   6.407   6.372   1.961  2.2650 -0.3188  0.5251
    6CHTO    C2 2500   6.357   6.575   2.039  0.0807  0.5124  0.0924
    6CHTO   H15 2501   6.367   6.635   2.131 -1.1413 -0.3050  0.7843
    6CHTO    O6 2502   6.443   6.654   1.947 -0.2284  0.2701  0.2853
    6CHTO    H1 2503   6.506   6.703   1.996  0.9625 -1.1435  0.2134
    6CHTO    C3 2504   6.197   6.563   1.998  0.6545 -0.7348  0.0241
    6CHTO   H16 2505   6.181   6.527   1.895  2.8305 -1.3609 -0.1146
    6CHTO    N1 2506   6.129   6.689   1.986  0.8065 -0.6984  0.2029
    6CHTO    H8 2507   6.192   6.774   1.969 -1.0120  0.9255  1.3758
    6CHTO    H9 2508   6.058   6.679   1.905 -1.7242  0.8619  2.1714
    6CHTO    C4 2509   6.125   6.464   2.096  0.8446 -0.0907  0.3104
    6CHTO   H17 2510   6.101   6.511   2.191  2.6268  0.6481  0.4091
    6CHTO    O1 2511   6.200   6.340   2.131 -0.1625 -0.0682 -0.6198
    6CHTO    C5 2512   6.341   6.348   2.160 -0.8139 -0.2306  0.3472
    6CHTO   H18 2513   6.337   6.394   2.258  1.7740  2.2297 -0.6360
    6CHTO   C16 2514   6.387   6.206   2.167  0.0365  0.4853 -0.1863
    6CHTO   O11 2515   6.343   6.116   2.063 -0.0232 -0.4930 -0.4814
    6CHTO    H5 2516   6.370   6.027   2.075  0.9635 -0.0810  0.3749
    6CHTO    O3 2517   6.000   6.425   2.037  0.6083 -0.3530 -0.3312
    6CHTO    C6 2518   5.890   6.386   2.123  0.0179 -0.1022  0.2124
    6CHTO   H19 2519   5.917   6.360   2.225  2.0494 -0.8418 -0.4859
    6CHTO    C8 2520   5.787   6.507   2.145  0.3655  0.0430 -0.1306
    6CHTO   H21 2521   5.752   6.538   2.047  0.6851  0.6273 -0.0639
    6CHTO    O7 2522   5.861   6.610   2.212  0.4285  0.4115 -0.0240
    6CHTO    H2 2523   5.903   6.663   2.148 -1.5306  2.1059  0.0409
    6CHTO   C12 2524   5.669   6.451   2.232  0.3241  0.0342 -0.0945
    6CHTO   H25 2525   5.710   6.419   2.330 -4.3685  0.4137  2.1174
    6CHTO    N3 2526   5.565   6.556   2.263 -0.2811  0.1004  0.1408
    6CHTO   H12 2527   5.602   6.639   2.322  3.2157 -2.3750  1.6003
    6CHTO   H13 2528   5.476   6.522   2.312  1.0554 -0.8689  1.9600
    6CHTO   C15 2529   5.605   6.325   2.161  0.2509 -0.2413 -0.0886
    6CHTO   H28 2530   5.564   6.359   2.065 -1.6562  1.7579  1.3982
    6CHTO   O10 2531   5.491   6.245   2.246  0.1493  0.0577  0.3821
    6CHTO    H4 2532   5.436   6.304   2.294 -0.8322 -1.0529  0.6511
    6CHTO    O5 2533   5.703   6.223   2.137  0.0483 -0.4678  0.1226
    6CHTO   C10 2534   5.824   6.256   2.061  0.2267 -0.6229  0.1140
    6CHTO   H23 2535   5.792   6.277   1.959  0.9490  0.9544  0.1872
    6CHTO   C17 2536   5.916   6.131   2.060 -0.1534  0.2172 -0.3441
    6CHTO   O12 2537   5.984   6.113   2.187  0.2079  0.2783 -0.4855
    6CHTO    H6 2538   6.065   6.068   2.173  0.3534  0.9969 -2.1510
    7CHTO  H203 2539   4.888   2.055   1.947  2.8724  0.6713 -1.2544
    7CHTO   O82 2540   4.903   2.122   2.010  0.1188  0.1819 -0.0021
    7CHTO  C123 2541   4.977   2.225   1.933 -0.1574  0.0510 -0.8348
    7CHTO  H227 2542   4.906   2.277   1.867  1.3922  0.4960 -2.1851
    7CHTO   O77 2543   5.041   2.315   2.026  0.3349 -0.2896 -0.0859
    7CHTO  C118 2544   5.117   2.422   1.972 -0.0602 -0.1922  0.0751
    7CHTO  H222 2545   5.067   2.469   1.886  0.5738  0.2536 -0.0507
    7CHTO  C125 2546   5.153   2.531   2.085  0.5643 -0.0788  0.0004
    7CHTO   O84 2547   5.185   2.658   2.028  0.0570 -0.4219 -0.1213
    7CHTO  H205 2548   5.118   2.687   1.969 -2.4928 -2.1947  1.8008
    7CHTO  C114 2549   5.243   2.355   1.913  0.2549  0.0202 -0.5882
    7CHTO  H218 2550   5.283   2.282   1.983  0.7180  0.4803 -0.3730
    7CHTO  C116 2551   5.200   2.268   1.789  0.2583 -0.6647  0.2219
    7CHTO  H220 2552   5.162   2.327   1.703 -0.7310 -1.0939  0.3576
    7CHTO   O79 2553   5.315   2.198   1.734  0.1395 -0.4928 -0.4554
    7CHTO  H201 2554   5.366   2.154   1.800  0.4833  0.5461 -0.0190
    7CHTO  C120 2555   5.094   2.162   1.840  0.3461  0.1113 -0.5437
    7CHTO  H224 2556   5.154   2.094   1.902  1.4881  0.4452 -1.2702
    7CHTO   N21 2557   5.027   2.072   1.743  0.2070 -0.1697  0.4127
    7CHTO  H211 2558   5.049   2.112   1.645  2.3965 -1.2523  0.4384
    7CHTO  H212 2559   5.063   1.971   1.753  1.8736  0.2294 -1.3770
    7CHTO   O75 2560   5.342   2.458   1.884 -0.0780 -0.3754 -0.2971
    7CHTO  C112 2561   5.487   2.410   1.897 -0.2446 -0.0342  0.0931
    7CHTO  H216 2562   5.497   2.302   1.878  0.2386 -0.0934  0.6643
    7CHTO   O73 2563   5.524   2.443   2.033  0.1573 -0.1033 -0.3179
    7CHTO  C113 2564   5.656   2.407   2.079  0.6732 -0.1397 -0.4991
    7CHTO  H217 2565   5.664   2.298   2.060 -2.4744  0.2416 -4.4168
    7CHTO  C124 2566   5.678   2.441   2.228 -0.2752 -0.3602 -0.1502
    7CHTO   O83 2567   5.676   2.585   2.247 -0.0574 -0.5375  0.7536
    7CHTO  H204 2568   5.604   2.620   2.197  1.2013 -0.9731 -1.4176
    7CHTO  C109 2569   5.768   2.476   1.989 -0.0465 -0.7215  0.3303
    7CHTO  H213 2570   5.760   2.583   2.012 -3.1339 -1.3704  2.6339
    7CHTO  C110 2571   5.738   2.452   1.829  0.0360 -0.5354  0.0734
    7CHTO  H214 2572   5.755   2.345   1.813  0.0278 -0.8516  2.0011
    7CHTO   O78 2573   5.824   2.540   1.754 -0.3897  0.8022 -0.4322
    7CHTO  H200 2574   5.801   2.533   1.663 -1.1836  1.7513 -0.3175
    7CHTO  C111 2575   5.587   2.484   1.797  0.0180  0.3294 -0.1572
    7CHTO  H215 2576   5.574   2.592   1.811  0.6928  0.4735 -0.6108
    7CHTO   N19 2577   5.554   2.454   1.653 -1.0633  0.1186  0.4566
    7CHTO  H207 2578   5.624   2.508   1.591  0.2504 -1.4179  0.5562
    7CHTO  H208 2579   5.573   2.349   1.633 -1.4792  0.1545 -0.1707
    7CHTO   O74 2580   5.902   2.428   2.029 -0.0654 -0.8138  0.7575
    7CHTO  C115 2581   6.019   2.520   1.994  0.1140 -0.0200  0.3015
    7CHTO  H219 2582   5.994   2.591   1.915  0.8522 -1.7674 -1.5597
    7CHTO   O76 2583   6.063   2.616   2.121 -0.0610 -0.8459  0.3373
    7CHTO  C122 2584   6.136   2.560   2.229 -0.1189 -0.3937 -0.3414
    7CHTO  H226 2585   6.054   2.511   2.283  0.4676 -0.0288  0.8872
    7CHTO  C126 2586   6.190   2.676   2.322 -0.0023  0.2067 -0.1782
    7CHTO   O85 2587   6.235   2.653   2.452  0.3903 -0.5994 -0.0976
    7CHTO  H206 2588   6.168   2.630   2.513  0.6224  1.0011  0.7821
    7CHTO  C121 2589   6.242   2.462   2.182  0.2107  0.0435  0.4851
    7CHTO  H225 2590   6.324   2.530   2.151 -0.0710  1.0286  1.8683
    7CHTO   O81 2591   6.280   2.381   2.294 -0.0938 -0.4722 -0.2993
    7CHTO  H202 2592   6.350   2.321   2.277  1.8020  1.5150  0.2924
    7CHTO  C119 2593   6.200   2.374   2.062 -0.2293  0.5276 -0.5690
    7CHTO  H223 2594   6.285   2.320   2.021 -0.1795 -0.6627  1.0636
    7CHTO  C117 2595   6.136   2.437   1.938 -1.2247 -0.5877  0.5385
    7CHTO  H221 2596   6.090   2.374   1.862 -0.7343 -1.8583  1.2694
    7CHTO   N20 2597   6.241   2.512   1.864 -0.1329 -0.3219  0.3636
    7CHTO  H209 2598   6.300   2.434   1.821 -0.6665 -1.3065  1.3913
    7CHTO  H210 2599   6.192   2.561   1.781  2.2576 -0.2066 -1.0071
    7CHTO   O80 2600   6.124   2.261   2.104 -0.5666  0.1022  0.4856
    7CHTO  C103 2601   6.146   2.122   2.023  0.0447 -0.3553  0.0633
    7CHTO  H190 2602   6.168   2.139   1.918  1.9540 -1.6381  0.2135
    7CHTO  C101 2603   6.269   2.038   2.078  0.4392  0.0716 -0.4129
    7CHTO  H188 2604   6.250   2.029   2.185  2.6972  0.0164  0.0193
    7CHTO   O68 2605   6.397   2.097   2.056 -0.1244 -0.2834  0.3507
    7CHTO  H168 2606   6.469   2.037   2.068  0.3682  0.0983 -0.6551
    7CHTO   C99 2607   6.269   1.885   2.023 -0.5106 -0.1036 -0.1338
    7CHTO  H186 2608   6.302   1.886   1.917 -1.7221  1.3953 -0.5230
    7CHTO   N17 2609   6.360   1.797   2.093 -0.2780  0.1383 -0.2634
    7CHTO  H174 2610   6.375   1.702   2.045  2.2423  0.6935 -0.6224
    7CHTO  H175 2611   6.452   1.843   2.125 -0.9935  0.1805  1.8346
    7CHTO   C97 2612   6.129   1.820   2.020 -0.0103 -0.1648  0.0366
    7CHTO  H184 2613   6.105   1.790   2.123 -0.7320 -1.9520 -0.6496
    7CHTO   O64 2614   6.027   1.910   1.963 -0.0616  1.1402  0.6713
    7CHTO  C104 2615   6.019   2.036   2.030  0.7460 -0.0172  0.5704
    7CHTO  H191 2616   5.996   2.031   2.136  1.1874  1.0423  0.7287
    7CHTO  C108 2617   5.901   2.116   1.971 -0.4189 -0.4268  0.8094
    7CHTO   O71 2618   5.924   2.175   1.840  0.4436  0.5449 -0.8487
    7CHTO  H171 2619   5.879   2.257   1.839 -0.1630  0.2205 -0.7380
    7CHTO   O62 2620   6.122   1.709   1.925  0.0686 -0.0460  0.1666
    7CHTO   C91 2621   6.033   1.597   1.946  0.1775 -0.1983 -0.2075
    7CHTO  H178 2622   6.055   1.533   1.860 -0.2641  0.7256 -1.0136
    7CHTO   C92 2623   5.880   1.631   1.922 -0.3474  0.3268 -0.5905
    7CHTO  H179 2624   5.861   1.720   1.984  0.9093 -1.2966  2.2820
    7CHTO   O66 2625   5.863   1.672   1.788 -0.3379 -0.1070  0.7561
    7CHTO  H166 2626   5.772   1.680   1.766 -0.3721  0.5380  1.1012
    7CHTO   C93 2627   5.779   1.525   1.963 -0.0114 -0.1542  0.6015
    7CHTO  H180 2628   5.791   1.443   1.891  0.6254  0.2780  0.2104
    7CHTO   N16 2629   5.633   1.563   1.970  0.0683 -0.3102 -0.6362
    7CHTO  H172 2630   5.627   1.647   2.037 -1.2081  0.2776 -1.4813
    7CHTO  H173 2631   5.618   1.596   1.869  0.1121  0.4143 -0.4079
    7CHTO   C94 2632   5.817   1.468   2.107 -0.4216 -0.6527  0.5349
    7CHTO  H181 2633   5.807   1.543   2.185  0.0525  0.3099 -0.3249
    7CHTO   O61 2634   5.948   1.419   2.101  0.3511 -0.2403 -0.2211
    7CHTO   C95 2635   6.049   1.518   2.084  0.6320 -0.2399  0.3404
    7CHTO  H182 2636   6.031   1.593   2.160 -0.6693  0.3840 -0.5563
    7CHTO  C106 2637   6.183   1.457   2.109  0.8781  0.0072 -0.0189
    7CHTO   O69 2638   6.215   1.359   2.009 -0.3636 -0.6774 -0.3164
    7CHTO  H169 2639   6.199   1.400   1.926 -0.5393 -0.8387 -0.3616
    7CHTO   O63 2640   5.720   1.327   2.150  0.8176  0.2910  0.5452
    7CHTO   C96 2641   5.734   1.289   2.297 -0.4779  0.1260  0.3017
    7CHTO  H183 2642   5.786   1.373   2.343 -0.0706  1.8925 -3.2151
    7CHTO   C98 2643   5.816   1.162   2.327  0.1753  0.4902 -0.2688
    7CHTO  H185 2644   5.795   1.088   2.248 -0.7294 -0.9419  1.2822
    7CHTO   O67 2645   5.953   1.201   2.319  0.6961 -0.0912  0.4645
    7CHTO  H167 2646   5.981   1.255   2.391 -0.7331 -0.6304  1.4405
    7CHTO  C102 2647   5.788   1.092   2.476 -1.2249 -0.5456  0.3933
    7CHTO  H189 2648   5.864   1.135   2.543  0.2968 -0.8588 -1.0939
    7CHTO   N18 2649   5.814   0.947   2.475  0.5212 -0.5440 -0.1417
    7CHTO  H176 2650   5.837   0.908   2.573  0.2104 -0.5770 -0.0828
    7CHTO  H177 2651   5.732   0.893   2.430 -0.1207  0.9204 -0.7447
    7CHTO  C105 2652   5.650   1.133   2.528  0.7834 -0.1303  0.7278
    7CHTO  H192 2653   5.575   1.059   2.499  0.7379 -0.3708  1.4363
    7CHTO   O65 2654   5.600   1.264   2.494 -0.3335  0.4112  0.1935
    7CHTO  C100 2655   5.589   1.276   2.352  0.2460 -0.3592  0.1359
    7CHTO  H187 2656   5.532   1.186   2.326  2.0220 -2.0106  1.7134
    7CHTO  C107 2657   5.511   1.412   2.330 -1.0444  0.1600  0.4206
    7CHTO   O70 2658   5.381   1.430   2.389  0.0399  0.0535  0.3671
    7CHTO  H170 2659   5.375   1.520   2.417  0.3639  0.5088 -1.0123
    7CHTO   O57 2660   5.664   1.126   2.687  0.1150 -0.9512 -0.0381
    7CHTO   C85 2661   5.566   1.109   2.792  0.0589  0.3720 -0.0922
    7CHTO  H157 2662   5.517   1.208   2.798  0.4344  0.5174  0.5845
    7CHTO   C83 2663   5.640   1.081   2.922 -0.5480  0.2991  0.3184
    7CHTO  H155 2664   5.704   1.165   2.948 -0.2864 -0.4612  2.1538
    7CHTO   O56 2665   5.729   0.966   2.897  0.4062 -0.0630 -0.0583
    7CHTO  H135 2666   5.684   0.888   2.925 -1.3868  1.4487  1.5003
    7CHTO   C81 2667   5.547   1.051   3.040 -0.6087  0.3270  0.7150
    7CHTO  H153 2668   5.486   1.139   3.064 -0.8608  0.4074 -0.1815
    7CHTO   N14 2669   5.625   1.037   3.166 -0.0254 -0.9946  0.7566
    7CHTO  H141 2670   5.566   1.050   3.255 -0.2282 -1.3973  0.6824
    7CHTO  H142 2671   5.702   1.110   3.163  2.1464 -2.8130  5.6964
    7CHTO   C79 2672   5.452   0.929   3.002 -0.2711 -0.3487 -0.1300
    7CHTO  H151 2673   5.372   0.922   3.076 -1.3544 -0.1990 -1.2630
    7CHTO   O52 2674   5.376   0.958   2.877 -0.5700 -0.1942 -0.1749
    7CHTO   C86 2675   5.458   0.997   2.762 -0.1361 -0.1028  0.2698
    7CHTO  H158 2676   5.505   0.904   2.724 -0.3583 -0.5540  1.0846
    7CHTO   C90 2677   5.364   1.038   2.658 -0.8627 -0.0070  0.1417
    7CHTO   O60 2678   5.262   1.130   2.684 -0.7528  0.0128 -0.0502
    7CHTO  H138 2679   5.203   1.082   2.738 -0.8069 -1.3762 -1.3437
    7CHTO   O50 2680   5.516   0.798   3.000  0.1920 -0.1444 -0.1529
    7CHTO   C73 2681   5.539   0.659   3.001 -0.7364  0.7779 -0.0200
    7CHTO  H145 2682   5.647   0.634   3.004 -1.0539 -0.9269 -1.8828
    7CHTO   C74 2683   5.491   0.601   2.863  0.2047  1.2329  0.3952
    7CHTO  H146 2684   5.549   0.649   2.784  0.8642 -1.6478 -0.9512
    7CHTO   O54 2685   5.523   0.457   2.864  0.3839 -0.3941 -0.3986
    7CHTO  H133 2686   5.497   0.403   2.792  1.6452  0.3298 -1.4277
    7CHTO   C75 2687   5.338   0.620   2.841 -0.2343  0.2432  1.2810
    7CHTO  H147 2688   5.327   0.729   2.827 -0.5924  0.0456 -0.0818
    7CHTO   N13 2689   5.283   0.561   2.716 -0.4600 -0.5101 -0.6468
    7CHTO  H139 2690   5.177   0.581   2.707 -0.4288 -0.0850 -0.0803
    7CHTO  H140 2691   5.298   0.454   2.715  0.9469 -0.3987  2.8176
    7CHTO   C76 2692   5.257   0.568   2.974 -0.4162 -0.3649  0.1453
    7CHTO  H148 2693   5.278   0.462   2.970  3.3407  0.3700 -2.7171
    7CHTO   O49 2694   5.319   0.621   3.099  0.5187  0.2654  0.2991
    7CHTO   C77 2695   5.462   0.599   3.121  0.6895 -0.6546  0.1019
    7CHTO  H149 2696   5.483   0.492   3.126 -0.5369 -0.8534  1.3740
    7CHTO   C88 2697   5.509   0.652   3.257  0.7941  0.0066 -0.1299
    7CHTO   O58 2698   5.440   0.594   3.355 -0.3733 -0.4560 -0.2339
    7CHTO  H136 2699   5.459   0.636   3.437  1.7856 -1.6860 -0.0615
    7CHTO   O51 2700   5.094   0.621   2.981 -0.1469 -0.2298  0.2866
    7CHTO   C78 2701   5.032   0.643   3.117  0.4165 -0.1131  0.4202
    7CHTO  H150 2702   5.113   0.638   3.192  0.7047 -0.4321  0.0851
    7CHTO   C80 2703   4.923   0.541   3.163 -0.6910  0.0673  0.4685
    7CHTO  H152 2704   4.862   0.521   3.073 -0.1392  1.6833 -0.2860
    7CHTO   O55 2705   4.997   0.425   3.198 -0.1603 -0.3548 -0.8949
    7CHTO  H134 2706   5.033   0.370   3.131 -0.0373  0.6499 -1.6760
    7CHTO   C84 2707   4.831   0.574   3.293 -0.5523 -0.2919 -0.2660
    7CHTO  H156 2708   4.889   0.563   3.385 -0.3529 -0.7527 -0.4431
    7CHTO   N15 2709   4.712   0.480   3.292 -0.8252 -0.4470  0.1136
    7CHTO  H143 2710   4.656   0.484   3.383 -2.7835 -1.1229 -1.0322
    7CHTO  H144 2711   4.642   0.495   3.212 -0.1551 -2.9375 -0.9875
    7CHTO   C87 2712   4.797   0.720   3.289  0.4647  0.2083 -0.4815
    7CHTO  H159 2713   4.712   0.728   3.221 -0.7198 -3.9718  0.3871
    7CHTO   O53 2714   4.917   0.804   3.249 -0.8286  0.0529  0.1476
    7CHTO   C82 2715   4.974   0.788   3.121 -0.0504 -0.2391 -0.1372
    7CHTO  H154 2716   4.901   0.813   3.045  0.2203  0.6567 -0.1090
    7CHTO   C89 2717   5.093   0.894   3.111  0.1545 -0.4348  0.1868
    7CHTO   O59 2718   5.022   1.019   3.121  0.4997  0.3810  0.1378
    7CHTO  H137 2719   4.978   1.015   3.204  2.8489 -0.1704  1.4080
    7CHTO   O45 2720   4.740   0.779   3.458  0.0379 -0.3637  0.3619
    7CHTO   C67 2721   4.744   0.920   3.468  0.4480 -0.5351  0.0938
    7CHTO  H124 2722   4.829   0.959   3.411  0.9174  1.4786  2.0933
    7CHTO   C65 2723   4.610   0.986   3.413 -0.2056 -0.3111  0.6620
    7CHTO  H122 2724   4.526   0.917   3.415 -0.0245 -0.5512  0.0531
    7CHTO   O44 2725   4.634   1.008   3.268 -0.1101  0.2140  0.2518
    7CHTO  H102 2726   4.563   1.054   3.227 -1.7701 -2.5680 -0.0870
    7CHTO   C63 2727   4.568   1.106   3.508  0.0318 -0.2855  0.4636
    7CHTO  H120 2728   4.533   1.064   3.602 -1.6221 -1.1770 -0.5362
    7CHTO   N11 2729   4.452   1.183   3.468  0.4800  0.0434 -0.0365
    7CHTO  H108 2730   4.460   1.249   3.384  0.3200  0.3937  0.2208
    7CHTO  H109 2731   4.359   1.131   3.459  0.3135  0.1714  0.8857
    7CHTO   C61 2732   4.708   1.186   3.542 -0.2828  0.4595  0.3544
    7CHTO  H118 2733   4.681   1.279   3.594 -0.7748 -0.4067  1.6619
    7CHTO   O40 2734   4.798   1.117   3.626  1.1876  0.0917  0.0299
    7CHTO   C68 2735   4.780   0.975   3.615  0.0267  0.3692 -0.3109
    7CHTO  H125 2736   4.691   0.938   3.671  0.2281  0.3692  0.0125
    7CHTO   C72 2737   4.912   0.910   3.676 -0.7676  0.5274 -0.4755
    7CHTO   O48 2738   4.924   0.766   3.665 -0.9449 -0.1221 -0.0442
    7CHTO  H105 2739   5.008   0.734   3.692  0.2048  1.2333 -1.8521
    7CHTO   O38 2740   4.773   1.217   3.415  0.1033  0.0393  0.1462
    7CHTO   C55 2741   4.882   1.317   3.419 -0.2713  0.0515 -0.2944
    7CHTO  H112 2742   4.897   1.351   3.523  0.7654  1.3798 -0.8737
    7CHTO   C56 2743   4.844   1.433   3.326 -0.6276  0.6029 -0.5257
    7CHTO  H113 2744   4.814   1.392   3.229 -0.6658  1.5551 -0.9221
    7CHTO   O42 2745   4.736   1.495   3.388  0.4366 -0.3467  0.4428
    7CHTO  H100 2746   4.660   1.460   3.345 -0.5221  0.5577  1.3534
    7CHTO   C57 2747   4.966   1.539   3.317  0.0887 -0.9514 -0.4615
    7CHTO  H114 2748   4.978   1.581   3.417  0.1123 -1.2333 -0.3449
    7CHTO   N10 2749   4.936   1.642   3.220 -0.3105 -0.8035  0.0802
    7CHTO  H106 2750   4.971   1.735   3.261 -2.5902  0.8766 -1.6048
    7CHTO  H107 2751   4.835   1.646   3.182  0.5909 -4.0787 -2.9428
    7CHTO   C58 2752   5.097   1.467   3.276 -0.4127  0.5829  0.0292
    7CHTO  H115 2753   5.087   1.417   3.177 -2.4009  0.2538  0.3710
    7CHTO   O37 2754   5.117   1.361   3.368  0.6622  0.3333 -0.4169
    7CHTO   C59 2755   5.024   1.252   3.381  0.0736 -0.2534  0.2118
    7CHTO  H116 2756   5.021   1.194   3.289 -0.5082  0.8310 -0.4549
    7CHTO   C70 2757   5.095   1.158   3.484  0.6376 -0.2093 -0.2444
    7CHTO   O46 2758   5.224   1.115   3.443 -0.0838 -0.5204  0.0322
    7CHTO  H103 2759   5.246   1.025   3.458  1.3495 -0.3609 -1.0854
    7CHTO   O39 2760   5.232   1.564   3.284  0.6438  0.7384  0.0697
    7CHTO   C60 2761   5.332   1.508   3.202  0.2493  0.2301  0.1627
    7CHTO  H117 2762   5.327   1.400   3.203  1.5701  0.1513 -0.8910
    7CHTO   C62 2763   5.307   1.543   3.055  0.2824 -0.1296  0.2451
    7CHTO  H119 2764   5.207   1.507   3.025  0.0601  0.2153  0.5567
    7CHTO   O43 2765   5.285   1.685   3.041  0.1753 -0.3097 -0.2615
    7CHTO  H101 2766   5.258   1.699   2.952 -0.7488  1.0448  0.2113
    7CHTO   C66 2767   5.421   1.490   2.955  0.2030 -0.1982  0.6532
    7CHTO  H123 2768   5.420   1.381   2.953 -0.4793 -0.1730 -2.8027
    7CHTO   N12 2769   5.401   1.522   2.809 -0.4263 -0.0235 -0.0817
    7CHTO  H110 2770   5.487   1.501   2.747 -0.1390 -1.1212  0.6727
    7CHTO  H111 2771   5.364   1.622   2.797 -0.9370  0.0095  1.6306
    7CHTO   C69 2772   5.566   1.533   3.007  0.0253 -0.1184 -0.4501
    7CHTO  H126 2773   5.564   1.644   3.011 -1.8792 -0.1210 -0.6173
    7CHTO   O41 2774   5.582   1.482   3.137  0.6650 -0.2690  0.8430
    7CHTO   C64 2775   5.479   1.555   3.240 -0.4678  0.4198  0.6458
    7CHTO  H121 2776   5.494   1.665   3.227  0.5609  0.1461 -0.5696
    7CHTO   C71 2777   5.519   1.499   3.377 -0.1591 -0.7500  0.0717
    7CHTO   O47 2778   5.540   1.362   3.377  0.5356 -0.0947  0.4670
    7CHTO  H104 2779   5.597   1.353   3.303 -0.2390 -0.4217 -0.1007
    7CHTO   O34 2780   5.688   1.483   2.920  0.5740  0.1960  0.3192
    7CHTO   C49 2781   5.792   1.591   2.866  0.1641  0.1032 -0.3030
    7CHTO   H91 2782   5.740   1.685   2.854 -0.6173 -0.0524  1.6109
    7CHTO   C47 2783   5.832   1.545   2.727  0.1975 -0.3839 -0.8832
    7CHTO   H89 2784   5.895   1.631   2.695  0.5654  0.6477  2.3719
    7CHTO   O33 2785   5.724   1.528   2.636  0.5109  0.4384  0.0748
    7CHTO   H70 2786   5.743   1.491   2.551 -0.5814  0.6055 -0.2486
    7CHTO   C45 2787   5.919   1.406   2.732 -0.1553 -0.1388  0.7110
    7CHTO   H87 2788   5.851   1.324   2.705  0.7514 -0.5803 -0.2379
    7CHTO    N8 2789   6.027   1.407   2.628  0.1221 -0.5037  0.1741
    7CHTO   H75 2790   6.104   1.335   2.649 -0.8493 -1.7553 -0.4886
    7CHTO   H76 2791   6.069   1.506   2.614  3.2081 -1.8325 -0.4741
    7CHTO   C43 2792   5.971   1.377   2.877 -1.1232  0.5882  0.3675
    7CHTO   H85 2793   5.884   1.331   2.925 -0.0495  0.4127  2.1895
    7CHTO   O29 2794   6.011   1.494   2.952 -0.3285 -0.2596  0.3614
    7CHTO   C50 2795   5.922   1.604   2.957  0.1469 -0.0131 -0.2472
    7CHTO   H92 2796   5.890   1.620   3.061 -0.1453 -0.7641 -0.2172
    7CHTO   C54 2797   6.001   1.740   2.921  0.8174  0.0709 -0.6271
    7CHTO   O36 2798   5.914   1.850   2.948  0.2521 -0.4921 -0.0037
    7CHTO   H72 2799   5.948   1.910   3.012  1.0053 -0.2842 -0.6006
    7CHTO   O27 2800   6.075   1.275   2.887 -0.1653 -0.1999 -0.7384
    7CHTO   C37 2801   6.154   1.202   2.976  0.2836  0.0208 -0.0621
    7CHTO   H79 2802   6.119   1.220   3.079 -1.0667 -0.4843 -0.4194
    7CHTO   C38 2803   6.137   1.052   2.955 -0.6832 -0.0517  0.0081
    7CHTO   H80 2804   6.173   1.033   2.852  1.5091  1.5676  0.4363
    7CHTO   O31 2805   5.999   1.015   2.963  0.1747  0.5257  0.3036
    7CHTO   H68 2806   5.989   0.922   2.957 -1.9327  0.8051 -0.9435
    7CHTO   C39 2807   6.230   0.970   3.045 -0.1712 -0.6063  0.6501
    7CHTO   H81 2808   6.198   0.984   3.148  0.7753 -3.0918  1.3253
    7CHTO    N7 2809   6.226   0.827   3.021  0.5876  0.2661  0.3041
    7CHTO   H73 2810   6.211   0.781   3.117  2.9940  0.3560  0.7291
    7CHTO   H74 2811   6.147   0.799   2.952  1.6193  0.9364 -1.1638
    7CHTO   C40 2812   6.381   1.023   3.033  0.1375 -0.2472  0.0888
    7CHTO   H82 2813   6.428   0.986   2.942 -0.9302 -1.6885  0.0902
    7CHTO   O26 2814   6.386   1.163   3.045 -0.1081 -0.4066 -0.3492
    7CHTO   C41 2815   6.299   1.239   2.955 -1.0156  0.3818  0.2656
    7CHTO   H83 2816   6.337   1.218   2.854 -1.3322 -0.2446  0.2749
    7CHTO   C52 2817   6.328   1.382   3.000 -0.6096  0.2802  0.1900
    7CHTO   O35 2818   6.487   1.423   2.997 -0.3677 -0.0112  0.2315
    7CHTO   H71 2819   6.539   1.353   3.033  3.5617  2.8279  0.3671
    7CHTO   O28 2820   6.459   0.975   3.142 -0.5043 -0.0662 -0.5536
    7CHTO   C42 2821   6.602   0.953   3.126 -0.2878 -0.6214  0.1751
    7CHTO   H84 2822   6.638   0.916   3.222 -0.1855  0.9300  0.7518
    7CHTO   C44 2823   6.688   1.078   3.097  0.6162 -0.5435 -0.8827
    7CHTO   H86 2824   6.650   1.135   3.012 -0.4719  0.0231 -0.0335
    7CHTO   O32 2825   6.663   1.166   3.210 -0.7117  0.2413  0.2172
    7CHTO   H69 2826   6.576   1.199   3.212 -0.3784  1.2011 -0.4827
    7CHTO   C48 2827   6.835   1.049   3.084  0.2871  0.0396 -0.8429
    7CHTO   H90 2828   6.872   1.023   3.183 -1.0275  1.5190  0.0619
    7CHTO    N9 2829   6.916   1.170   3.056  0.0420 -0.8099 -0.0379
    7CHTO   H77 2830   6.883   1.221   2.966  1.9018 -2.4809 -1.7124
    7CHTO   H78 2831   7.021   1.148   3.047  0.5244  1.6090 -0.6441
    7CHTO   C51 2832   6.855   0.934   2.978 -0.4925 -0.1743  1.0279
    7CHTO   H93 2833   6.830   0.968   2.877  4.4722  3.0621  0.6978
    7CHTO   O30 2834   6.775   0.823   3.013  0.3567  0.1635  0.1192
    7CHTO   C46 2835   6.634   0.846   3.021  0.1248  0.1302  0.2055
    7CHTO   H88 2836   6.604   0.885   2.924 -1.5225 -1.1646  0.1708
    7CHTO   C53 2837   6.572   0.713   3.047 -0.2812  0.1295  0.7249
    7CHTO   O72 2838   6.612   0.613   2.947  0.2975  0.0757  0.1772
    7CHTO  H199 2839   6.697   0.578   2.964 -0.0677 -1.9184 -1.8046
    7CHTO   O22 2840   6.989   0.883   2.971  0.4094 -0.3511 -0.3356
    7CHTO   C31 2841   7.073   0.834   2.856  0.2639  0.1991  0.0368
    7CHTO   H59 2842   7.165   0.793   2.902  0.1202  0.9239  1.0037
    7CHTO   C29 2843   7.009   0.715   2.778  0.0135  0.1281 -0.2363
    7CHTO   H57 2844   6.907   0.747   2.756 -0.8186 -0.9060  1.9839
    7CHTO   O21 2845   6.998   0.606   2.871 -0.0652  0.2109 -0.4187
    7CHTO   H37 2846   6.916   0.599   2.916 -0.2052 -0.3490 -0.7459
    7CHTO   C27 2847   7.080   0.670   2.646  0.2833 -0.3481 -0.2556
    7CHTO   H55 2848   7.169   0.612   2.675 -0.8276 -1.4414  1.0463
    7CHTO    N5 2849   6.986   0.580   2.566  0.2787 -0.3024  0.1171
    7CHTO   H43 2850   6.885   0.618   2.561  0.3152 -0.1581  0.4549
    7CHTO   H44 2851   7.030   0.552   2.471  0.7740  1.6407 -0.2661
    7CHTO   C25 2852   7.131   0.792   2.572 -0.0327  0.1561 -0.1554
    7CHTO   H53 2853   7.044   0.855   2.549 -0.3832 -0.0025  0.7100
    7CHTO   O17 2854   7.210   0.875   2.659 -0.2402  1.1073  0.2009
    7CHTO   C32 2855   7.123   0.939   2.757  0.0453 -0.1461  0.1862
    7CHTO   H60 2856   7.034   0.981   2.711 -0.9662  0.1285  2.3405
    7CHTO   C36 2857   7.212   1.051   2.824  0.2542  0.7330  0.1701
    7CHTO   O25 2858   7.247   1.147   2.720  0.8412 -0.3921  0.2760
    7CHTO   H40 2859   7.331   1.131   2.682 -0.0480 -2.1989 -0.9814
    7CHTO   O15 2860   7.221   0.758   2.469 -0.1157 -0.1203  0.1541
    7CHTO   C19 2861   7.237   0.800   2.323 -0.1198 -0.0340 -0.5786
    7CHTO   H47 2862   7.341   0.775   2.297  0.7115  2.6168 -0.0558
    7CHTO   C20 2863   7.148   0.722   2.218 -0.1783  0.3286  0.0972
    7CHTO   H48 2864   7.041   0.726   2.244 -0.3400  0.2844 -0.5476
    7CHTO   O19 2865   7.185   0.583   2.229 -0.4830  0.4486 -0.2605
    7CHTO   H35 2866   7.113   0.523   2.233 -0.5256  0.5240  0.1972
    7CHTO   C21 2867   7.158   0.779   2.071 -0.1969  0.0983 -0.2522
    7CHTO   H49 2868   7.260   0.764   2.034  0.3167 -1.3422  1.6897
    7CHTO    N4 2869   7.069   0.715   1.970 -0.0166  0.3614 -1.1616
    7CHTO   H41 2870   7.129   0.669   1.893  1.6097 -1.6173  1.2007
    7CHTO   H42 2871   6.999   0.788   1.933  0.5109  1.6738  0.3704
    7CHTO   C22 2872   7.136   0.935   2.079 -0.1271  0.2958 -0.3019
    7CHTO   H50 2873   7.036   0.961   2.113 -1.2357 -2.9488 -0.9490
    7CHTO   O14 2874   7.231   1.000   2.169 -0.5967 -0.1313 -0.3262
    7CHTO   C23 2875   7.228   0.958   2.307  0.0276  0.5844 -0.1261
    7CHTO   H51 2876   7.137   1.001   2.350  1.3488  2.2200  1.0908
    7CHTO   C34 2877   7.343   1.031   2.372  0.2375  0.5558 -0.1016
    7CHTO   O23 2878   7.330   1.172   2.397 -0.9079 -0.4851  0.3855
    7CHTO   H38 2879   7.403   1.202   2.448  1.0873 -1.1153 -2.0144
    7CHTO   O16 2880   7.165   0.994   1.953 -0.0008 -0.3958 -0.2787
    7CHTO   C24 2881   7.095   1.160   1.952  0.0143  0.4602  0.2010
    7CHTO   H52 2882   7.083   1.200   2.053 -0.8332 -0.7195  0.5856
    7CHTO   C26 2883   6.958   1.172   1.891 -1.1371 -0.1061 -0.2215
    7CHTO   H54 2884   6.966   1.137   1.785 -1.8005 -0.3163 -0.2033
    7CHTO   O20 2885   6.873   1.078   1.963 -0.0760 -0.5073 -0.2435
    7CHTO   H36 2886   6.916   0.995   1.968  1.2479  0.1693 -0.2069
    7CHTO   C30 2887   6.904   1.323   1.886  0.1070  0.8518 -0.2621
    7CHTO   H58 2888   6.866   1.353   1.985  1.0517  0.0945  0.3485
    7CHTO    N6 2889   6.777   1.321   1.801 -0.5692  0.0332 -0.0758
    7CHTO   H45 2890   6.761   1.241   1.730 -0.8595 -0.3812  0.4618
    7CHTO   H46 2891   6.691   1.335   1.864 -0.7438 -3.4111  0.5399
    7CHTO   C33 2892   7.018   1.419   1.841  0.3465  0.2697  0.0874
    7CHTO   H61 2893   7.024   1.428   1.732  0.8753 -0.5537  0.0485
    7CHTO   O18 2894   7.147   1.388   1.897  0.5894 -0.1151 -0.1048
    7CHTO   C28 2895   7.195   1.256   1.881 -0.1987 -0.6338  0.6008
    7CHTO   H56 2896   7.191   1.236   1.774  2.8160  1.8290 -0.0385
    7CHTO   C35 2897   7.337   1.255   1.942  0.3498 -0.0942  0.6516
    7CHTO   O24 2898   7.337   1.275   2.085  0.0443  0.0363 -0.0553
    7CHTO   H39 2899   7.395   1.343   2.110  0.8454 -0.0813 -1.5383
    7CHTO    O9 2900   6.977   1.546   1.884  0.0585 -0.4638 -0.4087
    7CHTO   C13 2901   7.054   1.671   1.821  0.0386  0.2630  0.6283
    7CHTO   H26 2902   7.037   1.663   1.711 -1.2903 -1.2743  0.9256
    7CHTO   C11 2903   7.211   1.677   1.862  0.4586  0.6021  0.0471
    7CHTO   H24 2904   7.258   1.591   1.811  1.2365  1.0048  0.0768
    7CHTO    O8 2905   7.227   1.650   2.003 -0.2829 -0.1360  0.1278
    7CHTO    H3 2906   7.290   1.582   2.018  0.2527  0.4467  0.5545
    7CHTO    C9 2907   7.281   1.802   1.815  0.2598 -0.0261  0.5186
    7CHTO   H22 2908   7.276   1.803   1.706 -0.3922 -1.4731  0.5328
    7CHTO    N2 2909   7.430   1.806   1.830  0.3898  0.2201 -0.0614
    7CHTO   H10 2910   7.466   1.708   1.857 -1.8700 -0.8830 -0.9312
    7CHTO   H11 2911   7.452   1.885   1.900  1.0927  0.6583 -0.7654
    7CHTO    C7 2912   7.195   1.925   1.864  0.6741 -1.2230  0.0893
    7CHTO   H20 2913   7.241   2.014   1.815  2.6598 -2.4488 -0.3454
    7CHTO    O4 2914   7.056   1.923   1.833 -0.2509 -0.6152 -0.3292
    7CHTO   C14 2915   6.980   1.807   1.859 -0.0266  0.5766 -0.5170
    7CHTO   H27 2916   6.895   1.813   1.788 -1.4034  1.6871  1.1607
    7CHTO   C18 2917   6.919   1.812   2.005  0.4249  0.1482  0.0518
    7CHTO   O13 2918   6.797   1.883   2.016  0.0694  0.2653  0.4087
    7CHTO    H7 2919   6.811   1.966   2.057  0.0257  1.2659 -1.5559
    7CHTO    O2 2920   7.210   1.932   2.015 -0.2400 -0.3368 -0.5927
    7CHTO    C1 2921   7.170   2.054   2.083  0.6933  0.2374 -0.0356
    7CHTO   H14 2922   7.060   2.066   2.074  0.4904 -0.8573  0.8720
    7CHTO    C2 2923   7.247   2.192   2.027 -0.0681 -0.4355 -0.4362
    7CHTO   H15 2924   7.346   2.157   1.996 -0.2239 -1.1787 -0.1121
    7CHTO    O6 2925   7.177   2.236   1.910  0.9596  0.1035 -0.0893
    7CHTO    H1 2926   7.219   2.310   1.873 -0.0600  0.2600 -0.9669
    7CHTO    C3 2927   7.236   2.309   2.138 -0.0702 -0.0617 -0.2785
    7CHTO   H16 2928   7.136   2.350   2.121  0.0894  1.2437  1.7108
    7CHTO    N1 2929   7.344   2.411   2.121  0.3649 -0.3242  0.0075
    7CHTO    H8 2930   7.437   2.358   2.133  1.2671  0.7932 -1.8195
    7CHTO    H9 2931   7.328   2.455   2.024  1.5127 -0.8240 -0.4230
    7CHTO    C4 2932   7.229   2.262   2.289 -0.3452  0.1010 -0.0545
    7CHTO   H17 2933   7.327   2.235   2.328  0.5244  0.6182 -1.8886
    7CHTO    O1 2934   7.138   2.156   2.306 -0.3119 -0.0959 -0.4670
    7CHTO    C5 2935   7.188   2.038   2.238 -0.5507 -0.0776  0.7482
    7CHTO   H18 2936   7.293   2.015   2.252 -0.3959  1.8648  3.1371
    7CHTO   C16 2937   7.101   1.925   2.296  0.0955 -0.4866 -0.0839
    7CHTO   O11 2938   7.171   1.807   2.301 -0.1415  0.2808  0.2105
    7CHTO    H5 2939   7.107   1.747   2.330  0.5890 -1.8027 -2.2647
    7CHTO    O3 2940   7.178   2.370   2.370 -0.2595 -0.1498 -0.2270
    7CHTO    C6 2941   7.178   2.343   2.516  0.9415  0.9330 -0.5759
    7CHTO   H19 2942   7.197   2.238   2.538 -0.1023  1.0898  1.1359
    7CHTO    C8 2943   7.290   2.434   2.593  0.1262  0.1682  0.3643
    7CHTO   H21 2944   7.276   2.537   2.559  2.2113  0.7128  1.1090
    7CHTO    O7 2945   7.421   2.398   2.554  0.4826 -0.4702 -0.2344
    7CHTO    H2 2946   7.418   2.386   2.461  0.0852 -1.5701 -0.0954
    7CHTO   C12 2947   7.271   2.435   2.745 -0.3947  0.7088 -0.0893
    7CHTO   H25 2948   7.303   2.334   2.779 -0.8683  0.3683 -0.6333
    7CHTO    N3 2949   7.367   2.526   2.820 -0.6214  0.3155 -0.3781
    7CHTO   H12 2950   7.375   2.615   2.760  1.0265  0.0044 -0.6304
    7CHTO   H13 2951   7.467   2.488   2.831  0.0285  1.9756 -0.3916
    7CHTO   C15 2952   7.120   2.456   2.779 -0.5450 -0.7701 -0.4117
    7CHTO   H28 2953   7.087   2.554   2.746 -0.0429  0.0345  1.4832
    7CHTO   O10 2954   7.083   2.436   2.922 -0.4552 -0.0176  0.2530
    7CHTO    H4 2955   7.144   2.483   2.976  0.4791 -1.4286  0.4330
    7CHTO    O5 2956   7.043   2.356   2.715 -0.1877 -0.1903  0.5206
    7CHTO   C10 2957   7.039   2.366   2.573  0.0113 -0.5906  0.5148
    7CHTO   H23 2958   7.017   2.470   2.551  2.2206 -0.2800 -0.3617
    7CHTO   C17 2959   6.923   2.279   2.524  0.3606 -0.3401 -0.0391
    7CHTO   O12 2960   6.892   2.301   2.385  0.0956  0.2339 -0.2960
    7CHTO    H6 2961   6.815   2.350   2.368  0.6411  1.4141  0.5501
    8CHTO  H203 2962   7.375   7.989   1.219  0.6255  0.8774 -0.7094
    8CHTO   O82 2963   7.364   8.041   1.296 -0.1373 -0.1536 -0.1104
    8CHTO  C123 2964   7.257   8.006   1.380  0.6093 -0.5821 -0.5058
    8CHTO  H227 2965   7.293   7.929   1.450  2.3231 -0.1769 -0.9093
    8CHTO   O77 2966   7.242   8.127   1.454 -0.2594 -0.1543  0.6089
    8CHTO  C118 2967   7.127   8.137   1.542 -0.5705 -0.2401  0.0660
    8CHTO  H222 2968   7.137   8.054   1.614  0.2120  0.6832  1.0232
    8CHTO  C125 2969   7.152   8.270   1.620  0.3463  0.1045 -0.6898
    8CHTO   O84 2970   7.252   8.247   1.718 -0.0972  0.3975  0.5068
    8CHTO  H205 2971   7.224   8.186   1.783  0.4327  0.4670  0.8031
    8CHTO  C114 2972   7.001   8.124   1.452 -0.1898  0.3900 -0.0009
    8CHTO  H218 2973   7.004   8.201   1.374 -1.2752  2.2862  1.7924
    8CHTO  C116 2974   6.999   7.980   1.388  0.4774  0.3321  0.2521
    8CHTO  H220 2975   6.984   7.901   1.465 -1.9331  1.6948  1.2409
    8CHTO   O79 2976   6.878   7.972   1.309 -0.6233  0.6810 -0.6270
    8CHTO  H201 2977   6.885   8.014   1.226  1.5718 -0.3389 -0.9915
    8CHTO  C120 2978   7.129   7.959   1.299 -0.3950 -0.7969  0.2793
    8CHTO  H224 2979   7.111   8.029   1.215 -0.2525  2.3704  2.7746
    8CHTO   N21 2980   7.135   7.821   1.245 -0.1936 -0.4301 -0.0604
    8CHTO  H211 2981   7.200   7.760   1.306  0.7240  1.0784  0.4943
    8CHTO  H212 2982   7.159   7.817   1.140  0.5577  1.0321  0.0522
    8CHTO   O75 2983   6.894   8.146   1.542 -0.4956  0.1757 -0.0890
    8CHTO  C112 2984   6.778   8.219   1.478 -0.5717 -0.0045  0.1363
    8CHTO  H216 2985   6.731   8.164   1.394 -1.9389 -0.1008  0.9530
    8CHTO   O73 2986   6.830   8.343   1.435 -0.1581  0.0322  0.1508
    8CHTO  C113 2987   6.736   8.434   1.376  0.0346 -0.1473  0.2573
    8CHTO  H217 2988   6.687   8.387   1.288  2.4517  0.2919 -1.3654
    8CHTO  C124 2989   6.812   8.554   1.316 -0.2540  0.3232  0.4152
    8CHTO   O83 2990   6.744   8.629   1.217  0.3018 -0.3541  0.1433
    8CHTO  H204 2991   6.720   8.576   1.143  1.1716  0.6932 -0.9075
    8CHTO  C109 2992   6.633   8.467   1.484 -0.0246  0.5047 -0.1562
    8CHTO  H213 2993   6.690   8.498   1.573  0.7844 -0.1006 -0.4676
    8CHTO  C110 2994   6.559   8.337   1.515 -0.5422  0.6222  0.7932
    8CHTO  H214 2995   6.516   8.291   1.425  1.3600  0.1308  0.1046
    8CHTO   O78 2996   6.460   8.355   1.618  0.2669  0.3693 -0.4440
    8CHTO  H200 2997   6.392   8.413   1.590 -1.2608 -1.9099 -1.5781
    8CHTO  C111 2998   6.661   8.238   1.576 -0.0212  0.4223 -0.0952
    8CHTO  H215 2999   6.704   8.285   1.665  0.4162 -1.1664  0.5646
    8CHTO   N19 3000   6.621   8.104   1.621  0.0336  0.3684  0.5616
    8CHTO  H207 3001   6.546   8.116   1.697  0.5903  0.2110  1.1429
    8CHTO  H208 3002   6.699   8.051   1.675  0.5417  1.0356  0.4824
    8CHTO   O74 3003   6.552   8.572   1.439 -0.1968  0.0825  0.0850
    8CHTO  C115 3004   6.409   8.554   1.361 -0.5709  0.5517 -0.1847
    8CHTO  H219 3005   6.401   8.458   1.311  0.9365  0.4729 -0.2776
    8CHTO   O76 3006   6.281   8.568   1.460  0.2613 -0.0359 -0.1221
    8CHTO  C122 3007   6.302   8.680   1.546  0.1070 -0.3616 -0.9298
    8CHTO  H226 3008   6.380   8.653   1.616 -1.2922  0.0488  0.8248
    8CHTO  C126 3009   6.176   8.682   1.627  0.5634 -0.0252  0.6648
    8CHTO   O85 3010   6.183   8.598   1.741 -0.1817 -0.4229  0.1941
    8CHTO  H206 3011   6.135   8.518   1.742  0.5722 -0.8895 -0.5423
    8CHTO  C121 3012   6.328   8.817   1.462 -0.0310 -0.4597  0.4991
    8CHTO  H225 3013   6.249   8.893   1.479  1.2208  1.0995 -0.4615
    8CHTO   O81 3014   6.450   8.874   1.511  0.3507  0.1437 -0.3505
    8CHTO  H202 3015   6.427   8.940   1.573 -3.3633 -1.5268  0.1973
    8CHTO  C119 3016   6.328   8.792   1.308 -0.1069 -0.5342 -0.4888
    8CHTO  H223 3017   6.221   8.797   1.288 -0.0707 -0.2639 -0.6126
    8CHTO  C117 3018   6.387   8.659   1.250  0.1259 -0.6344 -0.1423
    8CHTO  H221 3019   6.491   8.675   1.222 -0.1761 -0.1067 -0.9489
    8CHTO   N20 3020   6.316   8.618   1.123  0.3306 -0.0142 -0.2506
    8CHTO  H209 3021   6.360   8.667   1.037  0.1112  0.2219 -0.2286
    8CHTO  H210 3022   6.317   8.510   1.119  1.8136 -0.0574  0.5982
    8CHTO   O80 3023   6.383   8.923   1.234  0.2858 -0.0058 -0.2774
    8CHTO  C103 3024   6.303   9.054   1.235 -0.1504  0.2706 -0.5907
    8CHTO  H190 3025   6.201   9.037   1.270 -0.1888  2.6340  0.5137
    8CHTO  C101 3026   6.374   9.172   1.322  0.6677  0.0652  0.8872
    8CHTO  H188 3027   6.480   9.169   1.294  0.4232 -0.8603  0.0353
    8CHTO   O68 3028   6.349   9.151   1.479 -0.3085 -0.1902 -0.2364
    8CHTO  H168 3029   6.334   9.060   1.496 -1.5655 -0.5127 -2.7401
    8CHTO   C99 3030   6.326   9.320   1.271 -0.2843  0.2379 -0.3374
    8CHTO  H186 3031   6.220   9.337   1.301  0.1119  0.3064  1.0262
    8CHTO   N17 3032   6.405   9.437   1.329 -0.2504  0.2280  0.4495
    8CHTO  H174 3033   6.413   9.422   1.436  1.6487 -3.8927 -0.1551
    8CHTO  H175 3034   6.374   9.536   1.299 -0.5539 -0.7905 -2.6978
    8CHTO   C97 3035   6.328   9.318   1.113  0.6464  0.2680  0.4778
    8CHTO  H184 3036   6.434   9.309   1.086  0.5054  1.5934 -0.6088
    8CHTO   O64 3037   6.249   9.212   1.061  0.2561  0.7074  0.3147
    8CHTO  C104 3038   6.297   9.083   1.085 -0.3388  0.3219  0.6828
    8CHTO  H191 3039   6.393   9.059   1.039 -0.4957 -0.6948  0.8597
    8CHTO  C108 3040   6.199   8.986   1.010 -0.5188 -0.1631  0.5739
    8CHTO   O71 3041   6.060   8.991   1.056 -0.3890 -0.1015  0.3302
    8CHTO  H171 3042   6.009   9.042   0.995  1.5464 -0.8374 -1.9986
    8CHTO   O62 3043   6.275   9.443   1.058 -0.4215  0.0038 -0.1622
    8CHTO   C91 3044   6.354   9.509   0.956  0.1908 -0.1593  0.4641
    8CHTO  H178 3045   6.456   9.472   0.963  0.9877  1.6248 -1.2104
    8CHTO   C92 3046   6.357   9.661   0.982 -0.8537 -0.4493  0.2534
    8CHTO  H179 3047   6.257   9.706   0.984 -0.3242  0.7193  1.0146
    8CHTO   O66 3048   6.419   9.682   1.115  0.1001  0.0164  0.1281
    8CHTO  H166 3049   6.360   9.675   1.186 -0.6952  0.2812 -0.5009
    8CHTO   C93 3050   6.451   9.737   0.888  0.0097 -0.0061 -0.4678
    8CHTO  H180 3051   6.553   9.715   0.922  1.0140  3.6639 -0.9193
    8CHTO   N16 3052   6.430   9.883   0.896 -0.3009  0.0720 -0.3119
    8CHTO  H172 3053   6.474   9.925   0.986 -0.6056  0.1789 -0.2144
    8CHTO  H173 3054   6.329   9.918   0.885 -0.5242 -0.8896 -1.4407
    8CHTO   C94 3055   6.440   9.683   0.742  0.1071 -0.9633 -0.1942
    8CHTO  H181 3056   6.362   9.737   0.689 -0.9494  1.4546  3.6423
    8CHTO   O61 3057   6.415   9.542   0.714 -0.6984 -0.1417  0.0077
    8CHTO   C95 3058   6.309   9.490   0.803 -0.1284  0.5735  0.6261
    8CHTO  H182 3059   6.218   9.549   0.793 -0.4408  0.1385  0.8778
    8CHTO  C106 3060   6.269   9.340   0.757  0.1889  0.5085 -0.0009
    8CHTO   O69 3061   6.135   9.307   0.799 -0.2983  0.2904 -0.2307
    8CHTO  H169 3062   6.126   9.340   0.886 -0.9086 -1.7884  0.5355
    8CHTO   O63 3063   6.585   9.720   0.677  0.4078 -0.3895 -0.0882
    8CHTO   C96 3064   6.576   9.760   0.522  0.2661  0.3870 -0.0585
    8CHTO  H183 3065   6.473   9.778   0.490 -0.2295 -1.6034  0.3493
    8CHTO   C98 3066   6.634   9.655   0.429  0.6225 -0.5405 -0.9724
    8CHTO  H185 3067   6.738   9.630   0.452  0.1074 -0.2935  1.6998
    8CHTO   O67 3068   6.559   9.536   0.452 -0.5082 -0.1193 -0.0829
    8CHTO  H167 3069   6.557   9.513   0.543 -1.9300  2.7399  0.6612
    8CHTO  C102 3070   6.619   9.687   0.274  0.2718 -0.2157  0.7527
    8CHTO  H189 3071   6.513   9.670   0.247  0.5891 -1.4863  0.2963
    8CHTO   N18 3072   6.697   9.599   0.181 -0.9669  0.3610 -0.1198
    8CHTO  H176 3073   6.762   9.661   0.121  1.3676  2.4571  4.3672
    8CHTO  H177 3074   6.638   9.543   0.110 -0.0818 -1.9442  0.9012
    8CHTO  C105 3075   6.643   9.841   0.249  0.2097  0.5186  0.4759
    8CHTO  H192 3076   6.747   9.862   0.223  0.1529  1.7236  1.1929
    8CHTO   O65 3077   6.612   9.935   0.355 -0.3033 -0.5779 -0.1201
    8CHTO  C100 3078   6.641   9.896   0.491 -0.0500  0.3725  0.0105
    8CHTO  H187 3079   6.750   9.879   0.489  0.1977  1.9295 -1.7653
    8CHTO  C107 3080   6.627  10.015   0.591  0.4269  0.5488  0.1818
    8CHTO   O70 3081   6.702  10.124   0.551 -0.1308 -0.1279  0.1437
    8CHTO  H170 3082   6.792  10.109   0.527 -0.0969  1.1377 -0.5419
    8CHTO   O57 3083   6.551   9.876   0.131  0.4665  0.6570  0.1392
    8CHTO   C85 3084   6.521   9.990   0.049  0.1419  0.8346 -0.8263
    8CHTO  H157 3085   6.616  10.018  -0.002  0.8924  1.4759  0.8751
    8CHTO   C83 3086   6.480  10.114   0.133  0.4075  0.6142  0.4119
    8CHTO  H155 3087   6.573  10.136   0.186  1.0235 -0.6234 -0.1344
    8CHTO   O56 3088   6.379  10.069   0.228  0.5933 -0.1445  0.4723
    8CHTO  H135 3089   6.366  10.132   0.296  0.5313 -0.2190  0.5298
    8CHTO   C81 3090   6.436  10.234   0.046 -0.1566 -0.4211 -0.1957
    8CHTO  H153 3091   6.521  10.266  -0.014 -0.1746 -0.9704 -0.5214
    8CHTO   N14 3092   6.401  10.358   0.119 -0.0463 -0.0333 -0.3698
    8CHTO  H141 3093   6.457  10.350   0.209 -0.5781  0.3070 -0.0101
    8CHTO  H142 3094   6.429  10.449   0.070  2.3792 -1.4714 -1.7362
    8CHTO   C79 3095   6.316  10.186  -0.041  0.3381  0.5663  0.0759
    8CHTO  H151 3096   6.298  10.268  -0.112 -0.5997  0.6395  0.3923
    8CHTO   O52 3097   6.355  10.074  -0.121 -0.0533 -0.1700  0.3214
    8CHTO   C86 3098   6.405   9.958  -0.048 -0.4954 -0.1972  0.2743
    8CHTO  H158 3099   6.309   9.925  -0.004 -0.3709  0.8463  1.3438
    8CHTO   C90 3100   6.449   9.848  -0.142  0.0447  0.2932 -0.4004
    8CHTO   O60 3101   6.341   9.811  -0.232  0.6204 -0.6372 -0.2740
    8CHTO  H138 3102   6.326   9.879  -0.294 -1.8508 -0.0836  0.8652
    8CHTO   O50 3103   6.189  10.169   0.030  0.4294 -0.0883 -0.1682
    8CHTO   C73 3104   6.047  10.171   0.010  0.1469 -0.4664 -0.0944
    8CHTO  H145 3105   6.026  10.128  -0.089 -0.6311 -1.6686  0.5893
    8CHTO   C74 3106   5.981  10.318   0.018  0.0804  0.1596  0.1149
    8CHTO  H146 3107   6.036  10.385  -0.050  4.0437 -2.5417  0.4997
    8CHTO   O54 3108   5.850  10.313  -0.032  0.0540  0.4512 -0.7726
    8CHTO  H133 3109   5.836  10.388  -0.087 -0.5835 -0.0328 -1.2623
    8CHTO   C75 3110   5.987  10.372   0.165 -0.0611  0.4252 -0.1571
    8CHTO  H147 3111   6.094  10.379   0.189  0.3094  0.8820 -1.9019
    8CHTO   N13 3112   5.923  10.503   0.197 -0.1469  0.2749  0.5888
    8CHTO  H139 3113   5.917  10.523   0.303 -1.9486  2.1238  0.1751
    8CHTO  H140 3114   5.977  10.585   0.152  0.3670 -0.6259 -0.4326
    8CHTO   C76 3115   5.938  10.260   0.265 -0.0515 -0.4935 -0.1415
    8CHTO  H148 3116   5.831  10.245   0.248 -0.5706 -0.5405  2.9134
    8CHTO   O49 3117   6.011  10.135   0.240 -0.1213  0.3349 -0.3185
    8CHTO   C77 3118   5.982  10.080   0.117 -0.1887 -0.2741  0.3053
    8CHTO  H149 3119   5.874  10.071   0.100  0.2518 -1.6826 -1.9549
    8CHTO   C88 3120   6.040   9.935   0.114  0.1519  0.0149  0.1082
    8CHTO   O58 3121   5.991   9.857  -0.002  0.3166 -0.3244 -0.1801
    8CHTO  H136 3122   6.037   9.880  -0.080 -0.3239 -0.7963 -0.6956
    8CHTO   O51 3123   5.979  10.307   0.419  1.1130 -0.3689  0.0315
    8CHTO   C78 3124   5.928  10.215   0.528  0.2862 -0.3808 -0.1163
    8CHTO  H150 3125   5.914  10.112   0.490 -1.3119  0.6421 -2.4703
    8CHTO   C80 3126   5.799  10.269   0.594  0.3977  0.5995 -0.4100
    8CHTO  H152 3127   5.814  10.374   0.628  0.7947  0.6542 -0.7531
    8CHTO   O55 3128   5.701  10.256   0.489  0.2877  0.3012  0.1374
    8CHTO  H134 3129   5.631  10.311   0.518  0.0256  0.2907 -0.4756
    8CHTO   C84 3130   5.764  10.174   0.721  0.8035 -0.1357 -0.1742
    8CHTO  H156 3131   5.745  10.072   0.688 -0.1523  0.2365 -0.7972
    8CHTO   N15 3132   5.633  10.213   0.779  0.2965  0.1761  0.2510
    8CHTO  H143 3133   5.618  10.319   0.781  0.1928  0.1918 -1.0715
    8CHTO  H144 3134   5.548  10.169   0.731  0.4818 -0.8831  0.8646
    8CHTO   C87 3135   5.882  10.192   0.817  0.1764 -0.4260  0.4210
    8CHTO  H159 3136   5.906  10.297   0.833 -1.8364  0.3334 -1.3219
    8CHTO   O53 3137   6.005  10.126   0.754  0.1124 -0.3256  0.6435
    8CHTO   C82 3138   6.038  10.206   0.639  0.1283 -0.0923  0.7707
    8CHTO  H154 3139   6.057  10.306   0.679  1.5654  0.0759 -0.2904
    8CHTO   C89 3140   6.171  10.151   0.580  0.3384  0.1300  0.1534
    8CHTO   O59 3141   6.279  10.182   0.669  0.1124  0.2777 -0.2269
    8CHTO  H137 3142   6.264  10.148   0.756 -2.1714  3.0660  0.5602
    8CHTO   O45 3143   5.851  10.125   0.969 -0.5813 -0.5498 -0.1762
    8CHTO   C67 3144   5.864   9.982   0.980 -0.7643 -0.6868 -0.0066
    8CHTO  H124 3145   5.845   9.938   0.882  0.0828  1.0158 -0.9691
    8CHTO   C65 3146   6.005   9.939   1.022  0.2575 -0.4263 -0.0814
    8CHTO  H122 3147   6.067  10.027   1.005 -0.2225  0.5024  2.6613
    8CHTO   O44 3148   6.049   9.832   0.941  0.2688 -0.1755 -0.2950
    8CHTO  H102 3149   6.142   9.826   0.944  0.1380 -2.8294  0.2695
    8CHTO   C63 3150   6.018   9.909   1.172 -0.0563  0.2614  0.2003
    8CHTO  H120 3151   5.972   9.989   1.231 -0.1384 -1.8775  3.1529
    8CHTO   N11 3152   6.162   9.896   1.226 -0.5145 -0.2370 -0.4771
    8CHTO  H108 3153   6.206   9.807   1.186  0.8105  0.3474 -0.3167
    8CHTO  H109 3154   6.169   9.900   1.332  1.0879  1.1407 -0.6233
    8CHTO   C61 3155   5.932   9.782   1.199  0.9008 -0.0028 -0.0326
    8CHTO  H118 3156   5.906   9.770   1.306  0.5881 -0.1499 -0.1249
    8CHTO   O40 3157   5.805   9.790   1.133  0.0532 -0.0073  0.2346
    8CHTO   C68 3158   5.761   9.918   1.078 -0.4507  0.0453  0.4913
    8CHTO  H125 3159   5.742   9.982   1.166  0.2051 -0.8705  1.3214
    8CHTO   C72 3160   5.634   9.903   1.005 -0.1717 -0.1713 -0.8855
    8CHTO   O48 3161   5.519   9.916   1.085  0.6015 -0.0198 -0.1026
    8CHTO  H105 3162   5.523   9.998   1.132  0.7415  0.8617 -1.6196
    8CHTO   O38 3163   5.983   9.657   1.154 -0.1876 -0.5024 -0.2818
    8CHTO   C55 3164   5.915   9.531   1.187  0.9820 -0.0459 -0.4327
    8CHTO  H112 3165   5.807   9.554   1.186  0.4762 -2.2810 -0.5689
    8CHTO   C56 3166   5.959   9.480   1.333  0.0512 -0.2719  0.0346
    8CHTO  H113 3167   6.069   9.491   1.339  0.0479 -0.4286  0.3823
    8CHTO   O42 3168   5.903   9.585   1.418 -0.4071  0.0890  0.2335
    8CHTO  H100 3169   5.931   9.582   1.507 -1.2603  0.4889  0.5198
    8CHTO   C57 3170   5.910   9.338   1.372  0.4795 -0.0105  0.5145
    8CHTO  H114 3171   5.804   9.332   1.393  0.8482 -2.2308  1.8585
    8CHTO   N10 3172   5.967   9.279   1.495 -0.0166 -0.5921  0.3501
    8CHTO  H106 3173   5.967   9.357   1.569  1.7432  1.6553 -1.9475
    8CHTO  H107 3174   5.910   9.191   1.522 -0.4171 -0.8703 -1.3581
    8CHTO   C58 3175   5.929   9.247   1.248  0.3494 -0.0230  0.4770
    8CHTO  H115 3176   6.037   9.224   1.235  0.1110  0.2743 -2.2963
    8CHTO   O37 3177   5.865   9.300   1.130 -1.1282  0.8990 -0.1569
    8CHTO   C59 3178   5.933   9.416   1.085  0.2689  0.1118 -0.1787
    8CHTO  H116 3179   6.037   9.393   1.065  0.4094  1.1046 -0.6207
    8CHTO   C70 3180   5.863   9.455   0.948  0.4886  0.3088  0.4422
    8CHTO   O46 3181   5.925   9.562   0.884 -0.5377 -0.1564  0.0319
    8CHTO  H103 3182   5.909   9.553   0.792 -0.8060  1.2433 -0.0721
    8CHTO   O39 3183   5.855   9.103   1.267  1.0202  0.3078  0.5477
    8CHTO   C60 3184   5.713   9.096   1.228 -0.3486  0.0504 -0.7470
    8CHTO  H117 3185   5.670   9.196   1.231  0.9187  0.5696  2.5107
    8CHTO   C62 3186   5.696   9.039   1.084  0.0273 -0.7315  0.0579
    8CHTO  H119 3187   5.746   9.117   1.022 -0.4449  2.0552  3.0169
    8CHTO   O43 3188   5.767   8.918   1.062 -0.1345 -0.0566  0.0750
    8CHTO  H101 3189   5.734   8.849   1.117  0.2911  0.5052  1.0508
    8CHTO   C66 3190   5.543   9.031   1.052  0.4858  0.1982  0.4408
    8CHTO  H123 3191   5.503   9.132   1.057  0.7053  0.3122 -0.1228
    8CHTO   N12 3192   5.512   8.976   0.921 -0.2330  0.2027  0.1712
    8CHTO  H110 3193   5.597   8.920   0.884 -0.3809  0.7052 -0.9420
    8CHTO  H111 3194   5.501   9.054   0.847 -0.2543  0.0298 -0.0067
    8CHTO   C69 3195   5.458   8.955   1.160 -0.1600 -0.1714  0.3473
    8CHTO  H126 3196   5.468   8.845   1.153 -3.5833 -0.4785 -0.8304
    8CHTO   O41 3197   5.500   8.987   1.302  0.1121 -0.4426 -0.4754
    8CHTO   C64 3198   5.638   9.007   1.333  0.2420 -0.3438 -0.5242
    8CHTO  H121 3199   5.694   8.911   1.331 -0.1928 -0.5990 -0.5044
    8CHTO   C71 3200   5.656   9.058   1.475 -0.0481 -0.4289  0.2710
    8CHTO   O47 3201   5.595   9.186   1.491  0.0382  0.0509  0.5497
    8CHTO  H104 3202   5.536   9.190   1.564 -1.1580  0.0597 -0.4079
    8CHTO   O34 3203   5.307   8.977   1.146  0.0691  0.0823  0.3703
    8CHTO   C49 3204   5.207   9.062   1.223 -0.9581 -0.1634  0.0780
    8CHTO   H91 3205   5.167   9.006   1.308 -0.3896  0.0390  0.4766
    8CHTO   C47 3206   5.093   9.089   1.119 -0.3727 -0.3905  0.4499
    8CHTO   H89 3207   5.022   9.154   1.173  0.2640  1.3545 -0.7690
    8CHTO   O33 3208   5.032   8.967   1.076  0.2678 -0.1907 -0.0314
    8CHTO   H70 3209   5.058   8.937   0.991 -2.1929 -0.7254 -0.6392
    8CHTO   C45 3210   5.154   9.195   1.005 -0.0127  0.2764  0.3170
    8CHTO   H87 3211   5.248   9.158   0.962  0.8273 -0.1864  2.4772
    8CHTO    N8 3212   5.056   9.214   0.895  0.0749 -0.2983  0.2568
    8CHTO   H75 3213   4.965   9.267   0.918  0.4267  0.0383  0.8808
    8CHTO   H76 3214   5.024   9.115   0.867  1.2607 -0.9021  0.9908
    8CHTO   C43 3215   5.198   9.324   1.078  0.1212  0.2914 -0.5600
    8CHTO   H85 3216   5.233   9.398   1.006  0.0740 -1.2608 -2.2133
    8CHTO   O29 3217   5.296   9.293   1.184  0.3510 -0.3701  0.1837
    8CHTO   C50 3218   5.262   9.188   1.285  0.6890  0.2409  0.1561
    8CHTO   H92 3219   5.354   9.169   1.342  0.4622 -0.0768  0.4122
    8CHTO   C54 3220   5.176   9.244   1.397  0.1700 -0.2097  0.4961
    8CHTO   O36 3221   5.247   9.320   1.498 -0.1670  0.1114  0.0663
    8CHTO   H72 3222   5.322   9.370   1.469  1.5384 -2.7122 -0.5908
    8CHTO   O27 3223   5.086   9.392   1.136 -0.2261  0.1402  0.1498
    8CHTO   C37 3224   5.053   9.526   1.178  0.6949 -0.3507  0.7803
    8CHTO   H79 3225   4.978   9.519   1.258 -1.3000 -0.2496 -1.0086
    8CHTO   C38 3226   5.177   9.605   1.229 -0.4572 -0.0008  0.0764
    8CHTO   H80 3227   5.253   9.601   1.149 -0.8925 -0.4199 -0.3215
    8CHTO   O31 3228   5.228   9.548   1.351  0.3684 -0.1708 -0.1019
    8CHTO   H68 3229   5.153   9.524   1.401 -1.0721  2.7882 -0.7506
    8CHTO   C39 3230   5.151   9.764   1.257 -0.0895  0.4073 -0.4694
    8CHTO   H81 3231   5.083   9.780   1.340  1.5544 -1.5159  1.3066
    8CHTO    N7 3232   5.275   9.841   1.295  0.3383 -0.0435 -0.3599
    8CHTO   H73 3233   5.337   9.840   1.207  1.2911  0.5937  0.2949
    8CHTO   H74 3234   5.240   9.938   1.328 -0.0684 -0.2349 -0.2343
    8CHTO   C40 3235   5.071   9.822   1.130  0.3465  0.1660  0.0996
    8CHTO   H82 3236   5.138   9.839   1.046 -0.9418  1.9332 -0.6160
    8CHTO   O26 3237   4.958   9.740   1.093 -0.3907 -0.4241  0.1345
    8CHTO   C41 3238   4.986   9.598   1.055  0.3534 -0.3739 -0.4260
    8CHTO   H83 3239   5.051   9.595   0.966  1.9030 -2.8597  0.7559
    8CHTO   C52 3240   4.854   9.531   1.008 -0.4526  0.7617 -0.1179
    8CHTO   O35 3241   4.801   9.583   0.894  0.7382  0.3266  0.5067
    8CHTO   H71 3242   4.860   9.566   0.823 -2.2512 -0.6040 -1.8375
    8CHTO   O28 3243   5.009   9.950   1.155  0.0348  0.2501 -0.2611
    8CHTO   C42 3244   4.983  10.048   1.046  0.7048  0.4125  0.2773
    8CHTO   H84 3245   4.949  10.141   1.091 -0.9019  0.3108 -0.6813
    8CHTO   C44 3246   4.858   9.996   0.968 -0.2491  0.3474  0.1424
    8CHTO   H86 3247   4.883   9.908   0.910 -0.8227  0.4273 -0.2312
    8CHTO   O32 3248   4.755   9.951   1.060 -0.4218  0.2037  0.0410
    8CHTO   H69 3249   4.695   9.904   1.006  1.4143 -2.1461  0.0027
    8CHTO   C48 3250   4.823  10.110   0.864 -0.1904  0.4127 -0.1319
    8CHTO   H90 3251   4.798  10.193   0.931  1.2409 -1.6739  3.1105
    8CHTO    N9 3252   4.702  10.068   0.785 -0.2449  0.4701  0.6287
    8CHTO   H77 3253   4.621  10.139   0.792 -1.7678 -1.2469  0.8585
    8CHTO   H78 3254   4.720  10.032   0.685 -0.8336 -0.9517  1.0224
    8CHTO   C51 3255   4.953  10.143   0.772  0.3999  0.2419 -0.5515
    8CHTO   H93 3256   4.983  10.044   0.739 -1.3512 -1.8086  3.5763
    8CHTO   O30 3257   5.047  10.204   0.861 -0.1024  0.0612  0.4705
    8CHTO   C46 3258   5.107  10.086   0.960  0.3599 -0.7411  0.5256
    8CHTO   H88 3259   5.151  10.002   0.906  0.2868 -0.2264 -0.3518
    8CHTO   C53 3260   5.211  10.153   1.045 -0.3824 -0.4233 -0.4535
    8CHTO   O72 3261   5.327  10.201   0.979  0.1123 -0.6386 -0.1818
    8CHTO  H199 3262   5.397  10.142   1.001  0.9981  0.2230 -0.6413
    8CHTO   O22 3263   4.920  10.229   0.664 -0.9687 -0.0706 -0.4290
    8CHTO   C31 3264   5.000  10.229   0.538 -0.1946  0.1416  0.2361
    8CHTO   H59 3265   4.958  10.308   0.472 -0.0561 -0.1139 -0.1603
    8CHTO   C29 3266   5.146  10.262   0.554 -0.3252 -0.4843 -0.7487
    8CHTO   H57 3267   5.174  10.184   0.627 -0.6762  1.1537  1.1923
    8CHTO   O21 3268   5.160  10.385   0.623 -0.0286  0.4131  0.3309
    8CHTO   H37 3269   5.130  10.461   0.577 -2.5048 -0.2338  0.8151
    8CHTO   C27 3270   5.229  10.248   0.427  0.6223  0.1426  0.4817
    8CHTO   H55 3271   5.204  10.335   0.365 -1.5225 -1.1794 -0.5828
    8CHTO    N5 3272   5.374  10.253   0.462  0.1547 -0.3761  0.2533
    8CHTO   H43 3273   5.430  10.209   0.381  1.5338 -1.1154  1.5941
    8CHTO   H44 3274   5.411  10.352   0.486 -1.4027  0.2748  0.0439
    8CHTO   C25 3275   5.192  10.124   0.343 -0.0931  0.0530 -0.0314
    8CHTO   H53 3276   5.238  10.035   0.389  0.6103  2.3334  3.8765
    8CHTO   O17 3277   5.052  10.104   0.335 -0.0561  0.0951  0.1810
    8CHTO   C32 3278   4.988  10.096   0.462 -0.2889  0.2949  0.0863
    8CHTO   H60 3279   5.034  10.017   0.522  0.3654  0.4090 -0.2652
    8CHTO   C36 3280   4.834  10.056   0.445 -0.6011  0.3278 -0.3842
    8CHTO   O25 3281   4.815   9.919   0.437 -0.9789 -0.4568 -0.2356
    8CHTO   H40 3282   4.892   9.879   0.403 -0.5909 -0.0965  0.2074
    8CHTO   O15 3283   5.253  10.129   0.205 -0.0998 -0.3489 -0.3251
    8CHTO   C19 3284   5.304  10.069   0.089  0.1883 -0.0856  0.2468
    8CHTO   H47 3285   5.236   9.985   0.070  0.1108 -0.1595  0.8335
    8CHTO   C20 3286   5.323  10.171  -0.030 -0.9150 -0.3240  0.5839
    8CHTO   H48 3287   5.375  10.262   0.004 -3.1425  1.2393 -0.0739
    8CHTO   O19 3288   5.200  10.218  -0.078  0.0765 -0.0411  0.0065
    8CHTO   H35 3289   5.156  10.276  -0.019  1.8512  0.1239  1.2021
    8CHTO   C21 3290   5.397  10.109  -0.157 -0.0735 -0.9966  0.7093
    8CHTO   H49 3291   5.331  10.033  -0.200 -0.4030 -0.1604 -0.2948
    8CHTO    N4 3292   5.421  10.207  -0.269 -0.2385  0.6497 -0.0626
    8CHTO   H41 3293   5.523  10.195  -0.305 -0.1752 -0.3113  0.4332
    8CHTO   H42 3294   5.359  10.189  -0.355  2.9787  0.3606 -2.4302
    8CHTO   C22 3295   5.527  10.034  -0.120 -0.3521 -0.2267  0.3392
    8CHTO   H50 3296   5.596  10.109  -0.083 -0.1698 -0.5647  0.6986
    8CHTO   O14 3297   5.487   9.935  -0.016 -0.5798 -0.2804  0.2361
    8CHTO   C23 3298   5.443   9.999   0.108  0.3160 -0.9029  1.1280
    8CHTO   H51 3299   5.522  10.067   0.143  0.2124 -0.6381  0.8431
    8CHTO   C34 3300   5.436   9.888   0.218  0.3043  0.0976 -0.0053
    8CHTO   O23 3301   5.482   9.937   0.343  0.9894 -0.0658 -0.1729
    8CHTO   H38 3302   5.483   9.877   0.416  0.4203 -0.2125 -0.2779
    8CHTO   O16 3303   5.582   9.959  -0.232 -0.6433 -0.0021  0.2262
    8CHTO   C24 3304   5.731   9.903  -0.217 -0.3419  0.0126  0.3488
    8CHTO   H52 3305   5.769   9.910  -0.115  2.2477  2.0654 -0.7124
    8CHTO   C26 3306   5.834   9.964  -0.315 -0.0624  0.1409  0.1379
    8CHTO   H54 3307   5.785   9.963  -0.415 -0.5314  1.1212  0.3564
    8CHTO   O20 3308   5.854  10.100  -0.264  0.3367 -0.6559 -0.1779
    8CHTO   H36 3309   5.901  10.157  -0.322  0.2634 -0.1585  0.2480
    8CHTO   C30 3310   5.968   9.881  -0.330  0.5302  0.1687  0.3523
    8CHTO   H58 3311   6.015   9.881  -0.230 -1.9572 -1.7617  1.5991
    8CHTO    N6 3312   6.060   9.934  -0.433  0.6814 -0.2616  0.6441
    8CHTO   H45 3313   5.996   9.967  -0.514 -0.6270 -0.0777  1.7324
    8CHTO   H46 3314   6.108  10.021  -0.390 -2.1930  0.7899  1.8583
    8CHTO   C33 3315   5.931   9.729  -0.355  0.1727  0.4229  0.6737
    8CHTO   H61 3316   5.872   9.722  -0.448  0.0606 -0.5893  0.8111
    8CHTO   O18 3317   5.844   9.692  -0.243  0.2436 -0.0542  0.1722
    8CHTO   C28 3318   5.713   9.747  -0.256  0.5895  0.2475  0.0154
    8CHTO   H56 3319   5.677   9.733  -0.357 -0.1198  1.5927  0.0707
    8CHTO   C35 3320   5.611   9.684  -0.154  0.1325  0.4874 -0.3919
    8CHTO   O24 3321   5.654   9.677  -0.019  0.7827  0.6014  0.3410
    8CHTO   H39 3322   5.665   9.763   0.017  1.1872  0.3511  0.8210
    8CHTO    O9 3323   6.040   9.633  -0.372  0.3221 -0.7103 -0.5688
    8CHTO   C13 3324   6.009   9.493  -0.445  0.2185 -0.8879  0.1067
    8CHTO   H26 3325   5.959   9.532  -0.536  1.5648  2.0946  0.5853
    8CHTO   C11 3326   5.910   9.396  -0.367  0.2060  0.3032  0.7804
    8CHTO   H24 3327   5.808   9.438  -0.366 -0.2573 -0.8018  1.0860
    8CHTO    O8 3328   5.952   9.394  -0.230 -0.0068  0.1894 -0.3205
    8CHTO    H3 3329   5.895   9.444  -0.174 -1.7732 -0.5871 -1.3769
    8CHTO    C9 3330   5.895   9.261  -0.445  0.4508  0.3652 -0.3398
    8CHTO   H22 3331   5.864   9.291  -0.546 -0.2209  0.3760 -0.1313
    8CHTO    N2 3332   5.780   9.177  -0.398  0.7608 -0.1500  0.6167
    8CHTO   H10 3333   5.729   9.149  -0.489  1.6273 -1.9403  0.6613
    8CHTO   H11 3334   5.718   9.199  -0.312  1.0765  3.8089 -0.0887
    8CHTO    C7 3335   6.038   9.190  -0.456  0.3446  0.2511  0.2802
    8CHTO   H20 3336   6.051   9.157  -0.561  1.4012 -2.1340  1.1264
    8CHTO    O4 3337   6.146   9.280  -0.428  0.3919 -0.0728 -0.5998
    8CHTO   C14 3338   6.140   9.407  -0.494  0.3907 -0.0360  0.0310
    8CHTO   H27 3339   6.125   9.397  -0.603 -0.6797  2.4626 -0.0740
    8CHTO   C18 3340   6.278   9.478  -0.470 -0.4528 -0.0369 -0.2889
    8CHTO   O13 3341   6.375   9.435  -0.562  0.0401 -0.1599  0.1963
    8CHTO    H7 3342   6.452   9.488  -0.573  0.0721 -0.4894 -1.2869
    8CHTO    O2 3343   6.038   9.063  -0.352 -0.2766  0.1667 -0.1863
    8CHTO    C1 3344   6.162   9.003  -0.318  0.0748  0.0244 -0.0332
    8CHTO   H14 3345   6.238   9.080  -0.294 -0.2135  0.4617 -0.4804
    8CHTO    C2 3346   6.221   8.914  -0.430 -0.3983 -0.6163  0.0216
    8CHTO   H15 3347   6.142   8.844  -0.459  0.8109 -0.8248 -2.8831
    8CHTO    O6 3348   6.261   9.004  -0.543  0.1221  0.3109  0.3292
    8CHTO    H1 3349   6.225   9.090  -0.531  0.5748  0.4585  0.6352
    8CHTO    C3 3350   6.348   8.833  -0.378  0.5776  0.1016  0.0954
    8CHTO   H16 3351   6.433   8.901  -0.361 -0.1724  1.0813 -0.0221
    8CHTO    N1 3352   6.390   8.738  -0.482  0.4602 -0.1967  0.1404
    8CHTO    H8 3353   6.418   8.642  -0.443 -2.0002 -1.6903 -1.6809
    8CHTO    H9 3354   6.474   8.774  -0.540 -1.0900  2.4309 -0.5699
    8CHTO    C4 3355   6.322   8.763  -0.240 -0.1850  0.6137  0.3686
    8CHTO   H17 3356   6.259   8.676  -0.258  2.6718 -1.5979  0.4983
    8CHTO    O1 3357   6.257   8.850  -0.148  0.1288 -0.4537 -0.0760
    8CHTO    C5 3358   6.136   8.927  -0.183 -0.0079  0.1736 -0.2258
    8CHTO   H18 3359   6.053   8.859  -0.200  1.1764 -1.1153 -0.9650
    8CHTO   C16 3360   6.106   9.033  -0.076 -0.0314 -0.0732 -0.3241
    8CHTO   O11 3361   5.964   9.059  -0.063  0.4934  0.0289 -0.0099
    8CHTO    H5 3362   5.952   9.139  -0.017 -0.1983  2.6414 -4.4834
    8CHTO    O3 3363   6.445   8.723  -0.172 -0.1858 -0.0885  0.2542
    8CHTO    C6 3364   6.412   8.610  -0.087  0.7430 -0.5455 -0.2974
    8CHTO   H19 3365   6.306   8.589  -0.077  0.9034 -0.4120  1.9127
    8CHTO    C8 3366   6.487   8.484  -0.142  0.0624  0.5177  0.0885
    8CHTO   H21 3367   6.594   8.507  -0.143  0.1295  1.1928  5.5611
    8CHTO    O7 3368   6.435   8.456  -0.275 -0.0668  0.0900 -0.9786
    8CHTO    H2 3369   6.468   8.523  -0.331 -0.6508 -0.5186 -2.0737
    8CHTO   C12 3370   6.456   8.348  -0.055 -0.0369  0.0419 -0.0022
    8CHTO   H25 3371   6.356   8.308  -0.079  0.2024 -0.6552  0.1634
    8CHTO    N3 3372   6.543   8.235  -0.093 -0.2294 -0.7629 -0.1729
    8CHTO   H12 3373   6.641   8.278  -0.113 -0.7053  0.7310  0.6573
    8CHTO   H13 3374   6.501   8.182  -0.177  0.1056  0.8456 -1.3868
    8CHTO   C15 3375   6.478   8.383   0.098 -0.0667 -0.1290 -0.3012
    8CHTO   H28 3376   6.581   8.382   0.135  0.6554  2.2179 -2.1664
    8CHTO   O10 3377   6.395   8.284   0.203  0.0757  0.1324 -0.1330
    8CHTO    H4 3378   6.302   8.281   0.189 -0.1420 -1.1625  1.4154
    8CHTO    O5 3379   6.421   8.512   0.136  0.4356 -0.2648 -0.6386
    8CHTO   C10 3380   6.464   8.627   0.057 -0.1098 -0.2200 -1.0502
    8CHTO   H23 3381   6.572   8.634   0.061 -0.1655  1.1444 -1.6553
    8CHTO   C17 3382   6.407   8.761   0.110 -0.5294 -0.3631  0.0928
    8CHTO   O12 3383   6.270   8.753   0.152  0.1465 -0.0597 -0.9392
    8CHTO    H6 3384   6.244   8.842   0.169  2.5979  0.5510 -0.0890
    9CHTO  H203 3385   7.882   4.509   0.462  2.4495  2.3727  0.4087
    9CHTO   O82 3386   7.945   4.471   0.405  0.7304 -0.1032  0.0709
    9CHTO  C123 3387   7.937   4.492   0.262 -0.3976  0.1157 -0.1390
    9CHTO  H227 3388   7.978   4.593   0.245 -0.0597 -0.2339 -1.4742
    9CHTO   O77 3389   8.031   4.391   0.222 -0.3180 -0.0936  0.3574
    9CHTO  C118 3390   8.058   4.379   0.083  0.2293  0.2300  0.2330
    9CHTO  H222 3391   8.096   4.475   0.045  0.8699  1.0291  2.7738
    9CHTO  C125 3392   8.175   4.274   0.069  0.3863  0.2127  0.1563
    9CHTO   O84 3393   8.290   4.328   0.140  0.0879 -0.2757  0.5870
    9CHTO  H205 3394   8.347   4.371   0.079  0.2318 -0.5441  0.5331
    9CHTO  C114 3395   7.933   4.344   0.004  0.2344 -0.0528 -0.3096
    9CHTO  H218 3396   7.896   4.245   0.029 -1.5725  1.0742  1.6455
    9CHTO  C116 3397   7.817   4.443   0.041  0.8651  0.2148  0.8106
    9CHTO  H220 3398   7.849   4.542   0.004  3.0900 -1.1071 -0.9446
    9CHTO   O79 3399   7.693   4.406  -0.025  0.0926  0.0773  0.5633
    9CHTO  H201 3400   7.632   4.477  -0.020  1.8610  1.5771  1.0920
    9CHTO  C120 3401   7.798   4.457   0.196  0.1829  0.5160  0.5766
    9CHTO  H224 3402   7.751   4.365   0.236 -2.7769  0.3712 -2.9848
    9CHTO   N21 3403   7.698   4.559   0.243 -0.6700 -0.0836  0.0922
    9CHTO  H211 3404   7.715   4.615   0.333 -1.5691  0.9040 -0.3451
    9CHTO  H212 3405   7.601   4.513   0.251 -1.2207  1.1896  0.8123
    9CHTO   O75 3406   7.979   4.348  -0.130 -0.2754  0.7091  0.3317
    9CHTO  C112 3407   7.927   4.222  -0.238  0.9799  0.7536 -0.8306
    9CHTO  H216 3408   7.818   4.211  -0.221  0.7689  1.3532 -1.7946
    9CHTO   O73 3409   8.002   4.094  -0.216  0.1850 -0.6447  0.0277
    9CHTO  C113 3410   7.957   3.976  -0.285  0.3444  0.2628 -0.3739
    9CHTO  H217 3411   7.859   3.938  -0.249  0.8773  0.2615  1.1462
    9CHTO  C124 3412   8.059   3.861  -0.263  0.6985  0.7064  0.3090
    9CHTO   O83 3413   8.033   3.773  -0.153 -0.6045  0.9699  0.2562
    9CHTO  H204 3414   8.045   3.820  -0.073 -1.7337  1.5149  0.1197
    9CHTO  C109 3415   7.944   3.998  -0.436 -0.4810 -0.0755 -0.6672
    9CHTO  H213 3416   8.045   4.001  -0.479 -0.9562 -2.1254 -1.9946
    9CHTO  C110 3417   7.875   4.137  -0.464 -0.2498  0.0999  0.3573
    9CHTO  H214 3418   7.770   4.129  -0.438 -1.0912  2.0526 -2.2130
    9CHTO   O78 3419   7.885   4.164  -0.609 -0.2185  0.7884  0.0761
    9CHTO  H200 3420   7.958   4.215  -0.637 -0.3896 -0.0452 -1.9893
    9CHTO  C111 3421   7.941   4.255  -0.391 -0.2832  0.5443  0.2881
    9CHTO  H215 3422   8.047   4.256  -0.419 -0.2674 -1.3679  0.2123
    9CHTO   N19 3423   7.895   4.390  -0.411 -0.0545 -0.9068  0.2718
    9CHTO  H207 3424   7.825   4.397  -0.494 -1.4462  0.9477  1.5537
    9CHTO  H208 3425   7.852   4.440  -0.325  1.0901 -0.0978  0.3847
    9CHTO   O74 3426   7.873   3.887  -0.506 -0.0278 -0.4786  0.8616
    9CHTO  C115 3427   7.988   3.781  -0.576 -0.3122 -0.9587 -0.0003
    9CHTO  H219 3428   8.081   3.778  -0.519 -0.3727 -1.8027  0.0595
    9CHTO   O76 3429   7.934   3.611  -0.578  0.1493  0.4372  0.2259
    9CHTO  C122 3430   7.827   3.597  -0.665  0.5263 -0.1089  0.2321
    9CHTO  H226 3431   7.738   3.639  -0.618  1.9698  1.1750  1.8585
    9CHTO  C126 3432   7.797   3.442  -0.693 -0.3481 -0.0882  0.7176
    9CHTO   O85 3433   7.756   3.383  -0.572  0.0955 -0.0722  0.3298
    9CHTO  H206 3434   7.818   3.403  -0.505  0.9473  2.6874 -1.2033
    9CHTO  C121 3435   7.862   3.656  -0.807  0.1396 -0.2366  0.4275
    9CHTO  H225 3436   7.954   3.610  -0.849  0.1690 -0.1232  0.3670
    9CHTO   O81 3437   7.761   3.634  -0.904 -0.0834 -0.5146  0.3068
    9CHTO  H202 3438   7.804   3.649  -0.987 -2.2624 -0.0378 -0.7610
    9CHTO  C119 3439   7.897   3.811  -0.803 -0.3530  0.0436  0.1288
    9CHTO  H223 3440   7.924   3.831  -0.907  1.5749  1.4087  0.8799
    9CHTO  C117 3441   8.024   3.834  -0.717 -0.0751  0.6763  0.2231
    9CHTO  H221 3442   8.039   3.939  -0.692  1.1976  0.5692 -0.0753
    9CHTO   N20 3443   8.153   3.786  -0.777  0.5369  0.6333  0.0085
    9CHTO  H209 3444   8.213   3.867  -0.816  0.8696 -0.9544 -2.9011
    9CHTO  H210 3445   8.211   3.724  -0.710  0.3506  0.7194  0.2475
    9CHTO   O80 3446   7.786   3.887  -0.787  0.0372  0.4272 -0.2118
    9CHTO  C103 3447   7.758   4.014  -0.884  0.2017 -0.3656  0.9568
    9CHTO  H190 3448   7.759   4.105  -0.824 -0.1599 -0.0323  0.4576
    9CHTO  C101 3449   7.841   4.046  -1.021  0.1055  0.0132  0.3524
    9CHTO  H188 3450   7.868   3.952  -1.069 -0.4022  0.7234 -1.3803
    9CHTO   O68 3451   7.982   4.107  -0.971  0.5477  0.1842  0.6645
    9CHTO  H168 3452   8.033   4.055  -0.912  1.3286  0.2879  0.0923
    9CHTO   C99 3453   7.771   4.138  -1.128 -0.2460  0.0393 -0.0269
    9CHTO  H186 3454   7.766   4.238  -1.080  2.1895  0.3166 -0.2909
    9CHTO   N17 3455   7.848   4.158  -1.254 -0.0478 -0.2856  0.4345
    9CHTO  H174 3456   7.811   4.249  -1.299  0.9842  0.2265  0.6103
    9CHTO  H175 3457   7.950   4.175  -1.223  0.5511  1.7279 -2.5145
    9CHTO   C97 3458   7.619   4.094  -1.153 -1.3998  0.5087 -0.3314
    9CHTO  H184 3459   7.623   3.997  -1.206 -1.5748  0.0110  0.5642
    9CHTO   O64 3460   7.557   4.075  -1.016 -0.4141 -0.0016 -0.4458
    9CHTO  C104 3461   7.614   3.982  -0.926 -0.7988 -0.4325 -0.1305
    9CHTO  H191 3462   7.603   3.884  -0.972 -0.7880 -0.5419  0.0971
    9CHTO  C108 3463   7.528   3.979  -0.800  0.0100  0.0944  0.5580
    9CHTO   O71 3464   7.393   3.947  -0.837  0.0407  0.0044 -0.3906
    9CHTO  H171 3465   7.341   4.026  -0.834  0.4644  0.3581 -1.6056
    9CHTO   O62 3466   7.539   4.186  -1.230 -0.5200 -0.4097 -0.0387
    9CHTO   C91 3467   7.421   4.133  -1.285  0.3443 -0.0071 -1.2116
    9CHTO  H178 3468   7.451   4.059  -1.359  1.9580 -1.3178  0.6707
    9CHTO   C92 3469   7.361   4.248  -1.367  0.0510  0.0826 -0.2195
    9CHTO  H179 3470   7.441   4.287  -1.431  1.5475 -0.6570  1.1764
    9CHTO   O66 3471   7.266   4.196  -1.467 -0.1129  0.0680 -0.3922
    9CHTO  H166 3472   7.260   4.253  -1.541  0.3440  0.2218 -0.3137
    9CHTO   C93 3473   7.293   4.363  -1.274  0.3981 -0.4007 -0.5767
    9CHTO  H180 3474   7.240   4.428  -1.344  1.6939 -1.1979 -2.3295
    9CHTO   N16 3475   7.379   4.466  -1.209 -0.0231 -0.2857 -0.6490
    9CHTO  H172 3476   7.411   4.523  -1.296 -0.2021 -0.0750 -0.5770
    9CHTO  H173 3477   7.465   4.427  -1.156  0.8504 -0.5198 -2.1971
    9CHTO   C94 3478   7.197   4.304  -1.173 -0.1043 -0.0418 -0.3756
    9CHTO  H181 3479   7.229   4.322  -1.071 -1.8035 -0.3381  0.2270
    9CHTO   O61 3480   7.185   4.164  -1.199  0.1014  0.2374 -0.2143
    9CHTO   C95 3481   7.306   4.088  -1.182 -0.7751 -0.3463  0.1996
    9CHTO  H182 3482   7.332   4.103  -1.077 -3.4388  1.8022  0.6151
    9CHTO  C106 3483   7.274   3.934  -1.189  0.0654 -0.7307  0.1451
    9CHTO   O69 3484   7.161   3.902  -1.099 -0.1912  0.0109 -0.5763
    9CHTO  H169 3485   7.083   3.952  -1.111  0.4366  2.3256  3.7627
    9CHTO   O63 3486   7.056   4.364  -1.199 -0.0579 -0.5908  0.5047
    9CHTO   C96 3487   6.970   4.380  -1.064  0.1988  0.2101  0.7331
    9CHTO  H183 3488   7.029   4.423  -0.983  0.3553  1.9865 -0.2876
    9CHTO   C98 3489   6.892   4.248  -1.012  0.2706  0.3248 -0.4402
    9CHTO  H185 3490   6.857   4.187  -1.096  0.3000 -1.0315  0.4984
    9CHTO   O67 3491   6.990   4.164  -0.946 -0.0995 -0.1347  0.2916
    9CHTO  H167 3492   6.969   4.075  -0.926 -0.8910  0.0272  0.1669
    9CHTO  C102 3493   6.772   4.281  -0.915  0.2167 -0.0713 -0.5124
    9CHTO  H189 3494   6.821   4.308  -0.821 -1.2813 -1.6402  0.7558
    9CHTO   N18 3495   6.697   4.159  -0.877  0.5138 -0.0613  0.2733
    9CHTO  H176 3496   6.624   4.188  -0.803  1.5319  0.4463  1.1021
    9CHTO  H177 3497   6.760   4.074  -0.855 -0.0320 -0.0430  1.9817
    9CHTO  C105 3498   6.690   4.395  -0.974  0.3983 -0.3819 -0.8459
    9CHTO  H192 3499   6.643   4.361  -1.067  0.5569 -2.4707 -0.2048
    9CHTO   O65 3500   6.769   4.514  -1.002 -0.0373 -0.4728 -0.0663
    9CHTO  C100 3501   6.863   4.491  -1.103 -0.4769 -0.1294 -0.0104
    9CHTO  H187 3502   6.807   4.456  -1.191  0.1626  0.5693 -0.7067
    9CHTO  C107 3503   6.931   4.623  -1.140 -0.5034 -0.0943  0.8848
    9CHTO   O70 3504   6.834   4.721  -1.180  0.0699  0.3488 -0.1711
    9CHTO  H170 3505   6.810   4.703  -1.268 -1.3920  0.7736  0.1269
    9CHTO   O57 3506   6.583   4.437  -0.864  0.2732 -0.0129 -0.2907
    9CHTO   C85 3507   6.468   4.519  -0.901 -0.8045 -0.1866  0.0799
    9CHTO  H157 3508   6.432   4.498  -1.004 -1.6944 -0.2814  0.4134
    9CHTO   C83 3509   6.520   4.665  -0.917  0.0668  0.1439 -0.2873
    9CHTO  H155 3510   6.583   4.666  -1.007  0.9156  0.7613  0.3055
    9CHTO   O56 3511   6.601   4.705  -0.811 -0.5410 -0.4131  0.2091
    9CHTO  H135 3512   6.612   4.798  -0.812  0.8314 -0.5705  0.0977
    9CHTO   C81 3513   6.392   4.753  -0.947  0.1830  0.1646  0.1595
    9CHTO  H153 3514   6.334   4.702  -1.024 -0.1306  0.4211  0.2225
    9CHTO   N14 3515   6.421   4.885  -1.011 -0.8241 -0.1481  0.1180
    9CHTO  H141 3516   6.468   4.870  -1.106 -1.8803 -0.2269 -0.3982
    9CHTO  H142 3517   6.334   4.940  -1.039 -0.6443 -0.7664 -1.7403
    9CHTO   C79 3518   6.304   4.755  -0.818  0.1655  0.4358 -0.0840
    9CHTO  H151 3519   6.210   4.806  -0.838 -0.7704 -0.4063  2.0042
    9CHTO   O52 3520   6.259   4.623  -0.775  0.2944 -0.2988  0.1326
    9CHTO   C86 3521   6.354   4.508  -0.790  0.2389  0.0038  0.0104
    9CHTO  H158 3522   6.394   4.500  -0.687 -1.8357 -0.6530  0.7993
    9CHTO   C90 3523   6.266   4.383  -0.813 -0.3537 -0.7424 -0.5077
    9CHTO   O60 3524   6.342   4.263  -0.836  0.3639 -0.2445  0.2179
    9CHTO  H138 3525   6.389   4.234  -0.761  2.1529 -1.1311 -1.2049
    9CHTO   O50 3526   6.371   4.816  -0.700  0.2115  0.2902 -0.3418
    9CHTO   C73 3527   6.381   4.889  -0.573 -0.4445  0.2774 -0.3292
    9CHTO  H145 3528   6.301   4.862  -0.504  0.2974  0.7632  0.7446
    9CHTO   C74 3529   6.385   5.046  -0.589 -0.4327  0.5045  0.3885
    9CHTO  H146 3530   6.294   5.075  -0.644 -0.6694  0.4205  0.7382
    9CHTO   O54 3531   6.382   5.120  -0.462 -0.5546 -0.5161 -0.1655
    9CHTO  H133 3532   6.410   5.209  -0.475  0.2556 -0.9043 -1.2199
    9CHTO   C75 3533   6.512   5.085  -0.669  1.0504 -0.1843 -0.0072
    9CHTO  H147 3534   6.504   5.044  -0.771  0.9455 -1.6455  0.5715
    9CHTO   N13 3535   6.539   5.228  -0.694 -0.4322 -0.5933  0.6590
    9CHTO  H139 3536   6.620   5.238  -0.764 -1.1215  0.0535 -0.0627
    9CHTO  H140 3537   6.450   5.268  -0.741  0.6214 -0.4333 -1.2668
    9CHTO   C76 3538   6.639   5.025  -0.601 -0.1484  0.1218  0.2758
    9CHTO  H148 3539   6.650   5.072  -0.503 -1.3002  1.4187 -0.1979
    9CHTO   O49 3540   6.627   4.880  -0.581 -0.5947  0.0794  0.2458
    9CHTO   C77 3541   6.512   4.849  -0.502 -0.4322 -0.0040  0.0634
    9CHTO  H149 3542   6.516   4.901  -0.406 -2.4079 -0.3322  0.3444
    9CHTO   C88 3543   6.501   4.704  -0.470  0.2563 -0.0030 -0.0917
    9CHTO   O58 3544   6.571   4.652  -0.341  0.0976 -0.0576  0.0165
    9CHTO  H136 3545   6.524   4.690  -0.270  0.7936  2.6541 -0.9032
    9CHTO   O51 3546   6.763   5.031  -0.699 -0.0236  0.3851  0.2506
    9CHTO   C78 3547   6.898   4.996  -0.633 -0.2154 -0.5517 -0.2730
    9CHTO  H150 3548   6.876   4.943  -0.538 -3.3396  0.1063 -0.5672
    9CHTO   C80 3549   6.983   5.118  -0.594  0.6715 -0.1913  0.2152
    9CHTO  H152 3550   7.002   5.180  -0.685 -1.3479  1.3821  0.8132
    9CHTO   O55 3551   6.904   5.194  -0.503 -0.6229  0.2368 -0.8072
    9CHTO  H134 3552   6.825   5.233  -0.535 -1.5903 -0.8234  0.2424
    9CHTO   C84 3553   7.122   5.085  -0.531 -0.0786 -0.4384 -0.4766
    9CHTO  H156 3554   7.104   5.044  -0.432 -0.7140  1.6566  0.3187
    9CHTO   N15 3555   7.214   5.204  -0.505  0.3097  0.3060  0.0811
    9CHTO  H143 3556   7.198   5.269  -0.588  0.6954  1.8759  1.2263
    9CHTO  H144 3557   7.203   5.262  -0.416 -0.4642  0.2250  0.0433
    9CHTO   C87 3558   7.200   4.989  -0.621 -0.2135  0.3557 -0.5385
    9CHTO  H159 3559   7.237   5.042  -0.709  0.1361 -0.5072 -0.9241
    9CHTO   O53 3560   7.116   4.876  -0.665 -0.2769 -0.0097  0.0295
    9CHTO   C82 3561   6.982   4.902  -0.722 -0.1207 -0.0632 -0.1931
    9CHTO  H154 3562   6.989   4.942  -0.824 -0.0701 -0.2951 -0.2798
    9CHTO   C89 3563   6.916   4.766  -0.738 -0.4057 -0.3651  0.0156
    9CHTO   O59 3564   6.928   4.694  -0.619  0.1025  0.3583 -0.7136
    9CHTO  H137 3565   6.849   4.645  -0.601 -0.4604  0.6834 -2.2460
    9CHTO   O45 3566   7.334   4.926  -0.535 -0.6001  0.5711  0.4037
    9CHTO   C67 3567   7.370   4.789  -0.535  0.6034 -0.1024  0.0843
    9CHTO  H124 3568   7.295   4.733  -0.480  1.1750 -0.8969  0.0721
    9CHTO   C65 3569   7.387   4.734  -0.677  0.5208 -0.5075 -0.3313
    9CHTO  H122 3570   7.365   4.819  -0.741 -0.6246 -0.1875  0.4587
    9CHTO   O44 3571   7.278   4.647  -0.711 -0.4768 -0.8376  0.5693
    9CHTO  H102 3572   7.260   4.579  -0.649  0.5500  0.3880  2.2744
    9CHTO   C63 3573   7.537   4.686  -0.714 -0.1374  0.0993 -0.8907
    9CHTO  H120 3574   7.601   4.774  -0.721  1.0151 -0.7854 -1.6074
    9CHTO   N11 3575   7.552   4.642  -0.860  0.2587  0.3798 -0.2755
    9CHTO  H108 3576   7.621   4.560  -0.866  0.2306  0.4918 -2.6053
    9CHTO  H109 3577   7.461   4.612  -0.910  0.8498 -0.1334 -1.0594
    9CHTO   C61 3578   7.588   4.596  -0.601 -0.2465  0.0916 -0.2696
    9CHTO  H118 3579   7.697   4.597  -0.619 -0.1385  1.1099  0.4403
    9CHTO   O40 3580   7.572   4.650  -0.464  0.3942 -0.0296 -0.2553
    9CHTO   C68 3581   7.503   4.780  -0.447  0.5435  0.1621 -0.8163
    9CHTO  H125 3582   7.575   4.860  -0.472  1.1803  0.1050  0.7663
    9CHTO   C72 3583   7.474   4.795  -0.293 -0.2231  0.2995  0.0674
    9CHTO   O48 3584   7.411   4.919  -0.257 -0.4157  0.3687  0.0404
    9CHTO  H105 3585   7.322   4.919  -0.286 -0.1465 -1.6766 -0.8345
    9CHTO   O38 3586   7.555   4.455  -0.610 -0.0004 -0.2319  0.4263
    9CHTO   C55 3587   7.440   4.385  -0.544  0.2112  0.0464 -0.1170
    9CHTO  H112 3588   7.368   4.463  -0.516  2.1492  1.2086  1.7629
    9CHTO   C56 3589   7.493   4.308  -0.420  0.6769  0.7876 -0.7270
    9CHTO  H113 3590   7.573   4.243  -0.460 -0.1955 -1.9536  1.8112
    9CHTO   O42 3591   7.573   4.381  -0.323  0.5771  0.1880 -0.4587
    9CHTO  H100 3592   7.561   4.340  -0.239 -2.6464  1.6513 -0.1455
    9CHTO   C57 3593   7.381   4.221  -0.356 -0.0241  0.2346 -0.2996
    9CHTO  H114 3594   7.308   4.289  -0.312 -0.1147 -1.9742  3.1411
    9CHTO   N10 3595   7.422   4.130  -0.244  0.1082  0.9369  0.0337
    9CHTO  H106 3596   7.456   4.036  -0.283 -0.3011  0.4839  0.7687
    9CHTO  H107 3597   7.496   4.175  -0.179  0.1793  0.5313  0.2291
    9CHTO   C58 3598   7.310   4.136  -0.462  0.3732  0.2865 -0.8193
    9CHTO  H115 3599   7.379   4.062  -0.507 -0.4925 -1.9174  1.4006
    9CHTO   O37 3600   7.253   4.216  -0.566  0.0925 -0.4386 -0.2402
    9CHTO   C59 3601   7.358   4.285  -0.638  0.2334  0.2270  0.0131
    9CHTO  H116 3602   7.422   4.209  -0.683  1.8447  1.8513 -0.4783
    9CHTO   C70 3603   7.285   4.348  -0.757  0.2720 -0.1664 -0.0691
    9CHTO   O46 3604   7.242   4.250  -0.842 -0.0799 -0.2775 -0.6857
    9CHTO  H103 3605   7.150   4.249  -0.860 -0.5626  0.4710  1.6266
    9CHTO   O39 3606   7.154   4.079  -0.387  0.9653  0.4562  0.3217
    9CHTO   C60 3607   7.130   3.941  -0.369 -0.0584 -0.3373 -0.7941
    9CHTO  H117 3608   7.218   3.889  -0.405 -1.5355 -3.4286 -0.0748
    9CHTO   C62 3609   7.102   3.908  -0.217  0.0144 -0.1744 -0.0433
    9CHTO  H119 3610   7.189   3.940  -0.156 -0.1852  0.2072  0.0436
    9CHTO   O43 3611   6.990   3.989  -0.165 -0.3476 -0.0206 -0.5101
    9CHTO  H101 3612   6.926   3.947  -0.111  1.6717 -3.3051 -0.6074
    9CHTO   C66 3613   7.085   3.755  -0.217 -0.2133 -0.5263 -0.9364
    9CHTO  H123 3614   7.175   3.710  -0.261 -0.5014 -0.6121 -1.4319
    9CHTO   N12 3615   7.082   3.709  -0.075 -0.4199  0.1884  0.0056
    9CHTO  H110 3616   7.000   3.754  -0.022 -2.5171  0.3126 -3.1733
    9CHTO  H111 3617   7.174   3.711  -0.020 -0.1864  0.3238 -0.3841
    9CHTO   C69 3618   6.966   3.708  -0.304  0.4688  0.0088 -0.2245
    9CHTO  H126 3619   6.873   3.746  -0.256  0.2975  1.5996 -1.7622
    9CHTO   O41 3620   6.982   3.749  -0.443 -0.3669  0.1214 -0.1031
    9CHTO   C64 3621   7.017   3.897  -0.463  0.4753 -0.3356  0.4126
    9CHTO  H121 3622   6.923   3.956  -0.450  0.9124  0.6007 -0.6375
    9CHTO   C71 3623   7.062   3.914  -0.617  0.7186  0.0806  0.2662
    9CHTO   O47 3624   6.972   3.847  -0.702  1.0318 -0.3807 -0.4310
    9CHTO  H104 3625   6.982   3.761  -0.666  0.9840  0.8508  2.6769
    9CHTO   O34 3626   6.958   3.557  -0.310  0.3718 -0.1537  0.4598
    9CHTO   C49 3627   6.915   3.419  -0.329  0.3730  0.0303 -0.7300
    9CHTO   H91 3628   6.816   3.415  -0.374 -0.2654  1.0504  0.5311
    9CHTO   C47 3629   6.903   3.350  -0.192 -0.4525 -0.0800 -0.0189
    9CHTO   H89 3630   6.851   3.255  -0.215  2.4828 -1.4295 -1.4121
    9CHTO   O33 3631   6.823   3.438  -0.116 -0.2573  0.0473 -0.0432
    9CHTO   H70 3632   6.732   3.420  -0.134  0.0789 -2.6675  0.7888
    9CHTO   C45 3633   7.045   3.339  -0.123  0.2133  0.3659  0.9047
    9CHTO   H87 3634   7.051   3.422  -0.050 -0.4320  2.1375 -1.0221
    9CHTO    N8 3635   7.046   3.212  -0.050 -0.1683 -0.2366 -0.0349
    9CHTO   H75 3636   6.960   3.146  -0.054 -1.9042  1.9973 -1.5266
    9CHTO   H76 3637   7.092   3.215   0.047  1.4154 -2.7012 -0.6729
    9CHTO   C43 3638   7.167   3.354  -0.232  0.6016  0.1180 -0.1051
    9CHTO   H85 3639   7.177   3.461  -0.249 -1.4796  0.5845  1.4208
    9CHTO   O29 3640   7.131   3.285  -0.351  0.1963  0.3567  0.4742
    9CHTO   C50 3641   7.009   3.333  -0.418 -0.2697  1.2142 -0.1229
    9CHTO   H92 3642   7.035   3.384  -0.512  1.1437  0.3353 -0.2348
    9CHTO   C54 3643   6.935   3.204  -0.462  0.3824  0.2875 -0.1554
    9CHTO   O36 3644   6.988   3.133  -0.577  0.5704 -0.3195 -0.5064
    9CHTO   H72 3645   6.925   3.070  -0.609  0.0577 -0.7925  1.3710
    9CHTO   O27 3646   7.297   3.302  -0.188 -0.4233 -0.0778 -0.1151
    9CHTO   C37 3647   7.424   3.356  -0.147 -0.3122 -0.5665 -0.4629
    9CHTO   H79 3648   7.500   3.278  -0.160 -0.2695 -0.0915 -3.3906
    9CHTO   C38 3649   7.468   3.474  -0.239  0.2603 -0.0225  0.2521
    9CHTO   H80 3650   7.381   3.537  -0.264 -0.7842 -1.3597  0.4568
    9CHTO   O31 3651   7.530   3.407  -0.355  0.1655 -0.1626  0.7892
    9CHTO   H68 3652   7.465   3.370  -0.411 -0.7180  0.6561  1.2593
    9CHTO   C39 3653   7.586   3.569  -0.178  0.6747 -0.0802 -0.5114
    9CHTO   H81 3654   7.672   3.503  -0.169  1.3317  0.7374 -0.7421
    9CHTO    N7 3655   7.609   3.686  -0.268 -0.2220  0.3220  0.0400
    9CHTO   H73 3656   7.580   3.786  -0.242  1.2003  1.7060 -3.3088
    9CHTO   H74 3657   7.714   3.680  -0.294 -0.4952 -2.7513 -0.6003
    9CHTO   C40 3658   7.544   3.603  -0.032 -0.0508 -0.1406  0.7208
    9CHTO   H82 3659   7.449   3.653  -0.051  0.6320  0.8565 -0.0834
    9CHTO   O26 3660   7.527   3.489   0.046  0.2585  0.0635 -0.0080
    9CHTO   C41 3661   7.410   3.403   0.002  0.1175  0.4188  0.2417
    9CHTO   H83 3662   7.322   3.468   0.012 -0.3585 -0.1751 -0.0824
    9CHTO   C52 3663   7.407   3.284   0.104 -0.5051 -0.2077 -1.2208
    9CHTO   O35 3664   7.540   3.231   0.124  0.5773  0.1628 -0.1622
    9CHTO   H71 3665   7.537   3.157   0.181 -0.0280  1.4219  1.4972
    9CHTO   O28 3666   7.631   3.691   0.047  0.4643  0.1701  0.4783
    9CHTO   C42 3667   7.563   3.790   0.131 -0.1534  0.2431 -0.5810
    9CHTO   H84 3668   7.632   3.805   0.214 -2.2198 -0.2377  1.2698
    9CHTO   C44 3669   7.426   3.753   0.203  0.4019 -0.7402  0.1904
    9CHTO   H86 3670   7.355   3.729   0.124  0.6651 -0.7988 -0.0317
    9CHTO   O32 3671   7.446   3.644   0.296 -0.0536 -0.7269 -0.2587
    9CHTO   H69 3672   7.367   3.634   0.347 -0.6087 -0.3726 -1.0336
    9CHTO   C48 3673   7.365   3.874   0.277 -0.4311 -0.1066  0.0884
    9CHTO   H90 3674   7.430   3.894   0.362  1.2300 -2.1257 -0.6762
    9CHTO    N9 3675   7.227   3.840   0.331 -0.3619 -0.7453 -0.2790
    9CHTO   H77 3676   7.206   3.875   0.431 -1.8789 -1.9073 -0.1766
    9CHTO   H78 3677   7.155   3.877   0.259 -1.7647 -2.9691 -0.0382
    9CHTO   C51 3678   7.363   3.996   0.184  0.4356 -0.0989  0.1374
    9CHTO   H93 3679   7.304   3.967   0.097  0.5397 -1.6851  0.5741
    9CHTO   O30 3680   7.498   4.029   0.150 -0.4055  0.0948  0.2007
    9CHTO   C46 3681   7.554   3.924   0.061  0.2340  0.2350  0.3195
    9CHTO   H88 3682   7.485   3.915  -0.023 -0.1667  0.8239  0.5863
    9CHTO   C53 3683   7.690   3.969   0.005  0.8635  0.1208 -0.2484
    9CHTO   O72 3684   7.779   4.004   0.115 -0.3114 -0.0579  0.7550
    9CHTO  H199 3685   7.794   3.935   0.176 -0.1424  0.3251  1.1546
    9CHTO   O22 3686   7.311   4.112   0.254  0.6763 -0.4652 -0.3156
    9CHTO   C31 3687   7.258   4.237   0.192 -0.4256  0.2185 -0.4215
    9CHTO   H59 3688   7.246   4.307   0.277  0.6259  0.1577 -0.2180
    9CHTO   C29 3689   7.344   4.314   0.085  0.5080 -0.4602  0.6084
    9CHTO   H57 3690   7.386   4.237   0.019  0.1374 -1.0029  0.9936
    9CHTO   O21 3691   7.450   4.372   0.156  0.1518 -0.6308 -0.7500
    9CHTO   H37 3692   7.499   4.315   0.212 -0.5588  1.6917  2.4147
    9CHTO   C27 3693   7.264   4.425   0.010  0.3312 -0.5991 -0.2147
    9CHTO   H55 3694   7.233   4.506   0.078 -1.1824  0.3783 -2.0119
    9CHTO    N5 3695   7.333   4.475  -0.108  0.1190 -0.0028  0.2246
    9CHTO   H43 3696   7.318   4.418  -0.199  0.4959 -1.1271  0.8483
    9CHTO   H44 3697   7.333   4.583  -0.114  0.8769  0.0175  0.5222
    9CHTO   C25 3698   7.124   4.369  -0.026  0.6283 -0.3456  0.0440
    9CHTO   H53 3699   7.130   4.287  -0.099 -0.3056 -0.6250  0.2805
    9CHTO   O17 3700   7.054   4.321   0.086  0.3134 -0.0531 -0.2011
    9CHTO   C32 3701   7.114   4.207   0.141 -0.1148 -0.4513 -0.1083
    9CHTO   H60 3702   7.120   4.121   0.075  2.6100  0.3661 -0.9856
    9CHTO   C36 3703   7.025   4.163   0.258 -0.4555 -0.1310 -0.2340
    9CHTO   O25 3704   6.923   4.073   0.222  0.2464  0.6325  0.3975
    9CHTO   H40 3705   6.872   4.113   0.153 -2.0255 -1.9299  0.4835
    9CHTO   O15 3706   7.025   4.479  -0.103 -0.1044 -0.7700  0.6728
    9CHTO   C19 3707   6.928   4.475  -0.206  0.0426  0.6923 -0.6345
    9CHTO   H47 3708   6.913   4.580  -0.235 -0.0340  0.8030 -0.2016
    9CHTO   C20 3709   6.980   4.402  -0.333  0.4129  0.0148  0.3800
    9CHTO   H48 3710   7.014   4.300  -0.309 -2.0879 -1.3522 -1.5627
    9CHTO   O19 3711   7.088   4.477  -0.386 -0.5184 -0.1462 -0.7337
    9CHTO   H35 3712   7.130   4.431  -0.456 -0.2944 -1.9654  0.5700
    9CHTO   C21 3713   6.861   4.389  -0.440 -0.3002 -0.2280 -0.7044
    9CHTO   H49 3714   6.817   4.484  -0.469 -0.2954 -0.1744 -0.5315
    9CHTO    N4 3715   6.901   4.317  -0.562 -0.1992  0.8159  0.5806
    9CHTO   H41 3716   6.813   4.310  -0.624  1.4269  2.1624 -1.9830
    9CHTO   H42 3717   6.982   4.360  -0.620  1.5228 -1.2599  1.3704
    9CHTO   C22 3718   6.738   4.324  -0.378  0.2040 -0.7836 -0.4653
    9CHTO   H50 3719   6.773   4.225  -0.346 -1.5018 -1.2445  0.0369
    9CHTO   O14 3720   6.694   4.409  -0.268  0.1964  0.4380 -0.4030
    9CHTO   C23 3721   6.785   4.418  -0.156  0.4064  0.0047  0.1224
    9CHTO   H51 3722   6.794   4.314  -0.121 -0.0039  0.3201  1.1886
    9CHTO   C34 3723   6.722   4.507  -0.046 -0.4276 -0.1744 -0.2830
    9CHTO   O23 3724   6.804   4.514   0.071  0.0467  0.0634  0.0547
    9CHTO   H38 3725   6.846   4.597   0.059  0.9948 -0.2383  1.1459
    9CHTO   O16 3726   6.627   4.306  -0.473 -0.2284 -0.1172 -0.4630
    9CHTO   C24 3727   6.512   4.201  -0.425 -0.8188 -0.0434 -0.3813
    9CHTO   H52 3728   6.519   4.173  -0.320  2.3549  1.7186 -0.0584
    9CHTO   C26 3729   6.534   4.081  -0.512 -0.1797 -0.2837  0.4452
    9CHTO   H54 3730   6.540   4.112  -0.619 -0.7581  0.6841  0.6894
    9CHTO   O20 3731   6.662   4.019  -0.492  0.0195  0.6346 -0.1552
    9CHTO   H36 3732   6.704   4.005  -0.575  0.3931 -1.9691  0.4231
    9CHTO   C30 3733   6.419   3.973  -0.508 -0.4622 -1.5574 -0.4567
    9CHTO   H58 3734   6.412   3.926  -0.408  1.8133 -2.3490 -0.6560
    9CHTO    N6 3735   6.437   3.860  -0.596 -0.3703  0.3079  0.4925
    9CHTO   H45 3736   6.451   3.908  -0.692 -0.1520 -0.7620 -0.0130
    9CHTO   H46 3737   6.529   3.809  -0.574  0.3481  0.7979 -1.3197
    9CHTO   C33 3738   6.285   4.054  -0.527 -0.7550  0.1793 -0.5740
    9CHTO   H61 3739   6.288   4.106  -0.625 -1.2774  1.5323  0.1175
    9CHTO   O18 3740   6.277   4.159  -0.430  0.1364 -0.0491 -0.7054
    9CHTO   C28 3741   6.375   4.261  -0.444  0.4246 -0.4050  0.1746
    9CHTO   H56 3742   6.358   4.300  -0.544  0.0126  0.4801  0.5796
    9CHTO   C35 3743   6.350   4.375  -0.344  0.2654  0.5622  0.0359
    9CHTO   O24 3744   6.236   4.448  -0.403  0.0826  0.2924 -0.2923
    9CHTO   H39 3745   6.198   4.514  -0.348  2.1289  1.3248 -0.0415
    9CHTO    O9 3746   6.170   3.980  -0.533  0.1848  0.2217 -0.3121
    9CHTO   C13 3747   6.063   4.019  -0.658 -0.0329 -0.0491  0.0918
    9CHTO   H26 3748   6.108   4.003  -0.759 -0.7891  2.0895 -0.6133
    9CHTO   C11 3749   6.018   4.170  -0.644 -0.1185 -0.9145  0.0595
    9CHTO   H24 3750   6.091   4.236  -0.693 -0.1516 -1.9730 -1.4430
    9CHTO    O8 3751   6.001   4.206  -0.501 -0.0405 -0.0793  0.1550
    9CHTO    H3 3752   5.912   4.212  -0.474  0.0156 -0.9920  0.5508
    9CHTO    C9 3753   5.883   4.175  -0.725  0.1756  0.4850 -0.3550
    9CHTO   H22 3754   5.903   4.128  -0.822 -0.1885 -1.8584  0.6664
    9CHTO    N2 3755   5.832   4.315  -0.755  0.5434 -0.5811  0.2165
    9CHTO   H10 3756   5.911   4.375  -0.797 -1.0383  2.4839  1.4615
    9CHTO   H11 3757   5.831   4.353  -0.654 -2.4533  4.0524 -1.3785
    9CHTO    C7 3758   5.768   4.086  -0.648 -0.6842 -0.7366 -0.1952
    9CHTO   H20 3759   5.708   4.052  -0.736 -1.3950 -1.7260  0.6471
    9CHTO    O4 3760   5.831   3.968  -0.587  0.3571  0.4368  0.6709
    9CHTO   C14 3761   5.940   3.913  -0.662  0.3828  0.0877 -0.3055
    9CHTO   H27 3762   5.901   3.901  -0.765 -1.3741  0.9031  0.2289
    9CHTO   C18 3763   5.960   3.772  -0.599  0.2372  0.1935  0.0078
    9CHTO   O13 3764   6.061   3.698  -0.667  0.4507  0.3807 -0.6972
    9CHTO    H7 3765   6.021   3.638  -0.727  1.4150 -0.9722 -0.0356
    9CHTO    O2 3766   5.663   4.162  -0.523  0.4789  0.0436 -0.0796
    9CHTO    C1 3767   5.555   4.082  -0.481  0.2905  0.8648 -0.1452
    9CHTO   H14 3768   5.592   3.979  -0.501  1.6429  0.9957  1.5408
    9CHTO    C2 3769   5.417   4.108  -0.550 -1.3279 -0.4196  0.2612
    9CHTO   H15 3770   5.399   4.216  -0.539  0.6369 -0.2864  2.7625
    9CHTO    O6 3771   5.433   4.079  -0.686  0.1189  0.0069 -0.1481
    9CHTO    H1 3772   5.357   4.112  -0.730 -0.0506  0.2669  0.3438
    9CHTO    C3 3773   5.299   4.023  -0.481  0.5277  0.1559  0.0089
    9CHTO   H16 3774   5.312   3.916  -0.502  0.0459  0.2644 -0.8578
    9CHTO    N1 3775   5.163   4.063  -0.534  0.0556 -0.2076  0.2930
    9CHTO    H8 3776   5.115   3.973  -0.568  1.9717 -0.3876 -2.0272
    9CHTO    H9 3777   5.105   4.102  -0.451  0.6342 -1.6863  1.4163
    9CHTO    C4 3778   5.314   4.030  -0.321  0.2510 -0.2496 -0.2153
    9CHTO   H17 3779   5.284   4.130  -0.290 -1.1330 -0.9121  0.6643
    9CHTO    O1 3780   5.448   3.999  -0.278 -0.0595 -0.5306 -0.0853
    9CHTO    C5 3781   5.549   4.088  -0.329 -0.0332  0.9301  0.2332
    9CHTO   H18 3782   5.529   4.191  -0.301  1.7356  0.9824  1.4803
    9CHTO   C16 3783   5.683   4.037  -0.262 -0.6055  0.3471 -0.5545
    9CHTO   O11 3784   5.679   4.068  -0.117  0.1284  0.7333  0.3071
    9CHTO    H5 3785   5.684   4.161  -0.107 -1.8531  0.6200  3.0239
    9CHTO    O3 3786   5.230   3.934  -0.257 -0.0419  0.0574  0.0965
    9CHTO    C6 3787   5.199   3.944  -0.113  0.1185  0.3266 -0.0556
    9CHTO   H19 3788   5.278   3.989  -0.052  0.5266  0.6287 -0.7969
    9CHTO    C8 3789   5.071   4.036  -0.097 -0.2299 -0.5199  0.1494
    9CHTO   H21 3790   4.999   4.017  -0.176  1.8956  1.0866 -2.2186
    9CHTO    O7 3791   5.117   4.168  -0.113 -0.4571  0.2240 -0.0536
    9CHTO    H2 3792   5.097   4.184  -0.203 -2.1070 -0.6006  0.1452
    9CHTO   C12 3793   5.009   4.012   0.047 -0.1049  0.7202  0.2270
    9CHTO   H25 3794   5.089   4.048   0.115 -0.1496 -1.6957  1.6069
    9CHTO    N3 3795   4.880   4.085   0.074  0.4074 -0.6497 -0.3156
    9CHTO   H12 3796   4.798   4.016   0.089  0.8077 -0.6863  1.9618
    9CHTO   H13 3797   4.861   4.146  -0.013 -0.0575  1.0494  0.9583
    9CHTO   C15 3798   4.993   3.857   0.068  0.2679 -0.2325 -0.4749
    9CHTO   H28 3799   4.930   3.807  -0.005  0.9406 -1.3198 -0.3111
    9CHTO   O10 3800   4.933   3.820   0.215  0.3227 -0.1951 -0.4743
    9CHTO    H4 3801   4.917   3.902   0.258 -0.4810 -0.5633 -0.0564
    9CHTO    O5 3802   5.123   3.800   0.072  0.4642 -0.0606  0.9149
    9CHTO   C10 3803   5.183   3.805  -0.058 -1.1570 -0.2915  0.0540
    9CHTO   H23 3804   5.123   3.744  -0.126 -0.8510 -0.5924  0.0509
    9CHTO   C17 3805   5.318   3.738  -0.040 -0.0833  0.3372  0.3809
    9CHTO   O12 3806   5.316   3.596  -0.008  0.3963  0.1621  0.3779
    9CHTO    H6 3807   5.383   3.576   0.054 -0.0165 -0.0403  0.7605
   10CHTO  H203 3808   5.111   6.380   2.468  2.0251 -0.2750  3.3876
   10CHTO   O82 3809   5.124   6.473   2.475 -0.2715  0.4609 -0.3171
   10CHTO  C123 3810   5.006   6.545   2.445  0.1972  0.1652 -0.1890
   10CHTO  H227 3811   4.983   6.528   2.338  1.1588 -1.0867 -0.2177
   10CHTO   O77 3812   4.897   6.481   2.522 -0.0869  0.4245 -0.0438
   10CHTO  C118 3813   4.772   6.540   2.492  0.2612 -0.0602 -0.0786
   10CHTO  H222 3814   4.760   6.531   2.383 -0.7768  3.6907 -0.3313
   10CHTO  C125 3815   4.663   6.465   2.562  0.3395 -0.4021 -0.4685
   10CHTO   O84 3816   4.535   6.490   2.501  0.1523  0.0720 -0.4975
   10CHTO  H205 3817   4.473   6.510   2.568  0.3221 -0.0010 -0.3152
   10CHTO  C114 3818   4.769   6.683   2.531  0.3028  0.2109 -0.1430
   10CHTO  H218 3819   4.798   6.687   2.636  0.8954 -1.5125 -0.2193
   10CHTO  C116 3820   4.878   6.764   2.456 -0.5723 -0.5357 -0.1598
   10CHTO  H220 3821   4.868   6.781   2.347  2.6395  1.6133 -0.1905
   10CHTO   O79 3822   4.872   6.891   2.516 -0.0618 -0.0330 -0.5199
   10CHTO  H201 3823   4.940   6.949   2.489  0.9367 -1.1340 -0.4454
   10CHTO  C120 3824   5.020   6.692   2.474 -0.1364  0.4037 -0.0165
   10CHTO  H224 3825   5.045   6.705   2.582 -1.3332  0.0317  0.3207
   10CHTO   N21 3826   5.131   6.752   2.398 -0.3821  0.5783 -0.7528
   10CHTO  H211 3827   5.168   6.844   2.441 -2.3510  1.3719 -0.6737
   10CHTO  H212 3828   5.108   6.765   2.293 -0.0190  0.9254 -0.7899
   10CHTO   O75 3829   4.641   6.731   2.510 -0.3653  0.3402 -1.1730
   10CHTO  C112 3830   4.584   6.816   2.635 -0.8196  0.0446  0.0999
   10CHTO  H216 3831   4.668   6.858   2.691  1.0673 -2.1537 -0.9766
   10CHTO   O73 3832   4.504   6.727   2.710 -0.1199 -0.0902  0.0464
   10CHTO  C113 3833   4.443   6.781   2.832  0.2803  0.1368  0.7207
   10CHTO  H217 3834   4.525   6.828   2.890 -0.3390  1.5397  0.4825
   10CHTO  C124 3835   4.389   6.659   2.909 -0.4522 -0.5261 -0.3411
   10CHTO   O83 3836   4.396   6.687   3.051  0.2885 -0.0239 -0.1409
   10CHTO  H204 3837   4.326   6.746   3.074 -1.2330 -0.9017 -2.2940
   10CHTO  C109 3838   4.343   6.895   2.790 -0.0549 -0.1492  0.6441
   10CHTO  H213 3839   4.266   6.849   2.726 -0.7783 -1.0661  2.1164
   10CHTO  C110 3840   4.425   7.003   2.706  0.0382  0.8409  0.5353
   10CHTO  H214 3841   4.498   7.040   2.778  0.7934 -2.0474  1.3315
   10CHTO   O78 3842   4.346   7.112   2.669 -0.2802  0.3828  0.0953
   10CHTO  H200 3843   4.318   7.160   2.744 -0.0379  1.3601 -0.4215
   10CHTO  C111 3844   4.487   6.932   2.585 -0.3427  0.4952  0.0538
   10CHTO  H215 3845   4.409   6.884   2.524 -1.4805  1.5411  0.6493
   10CHTO   N19 3846   4.556   7.021   2.497 -0.1256  0.1469 -0.3859
   10CHTO  H207 3847   4.502   7.104   2.455 -0.3370  1.1755  1.8510
   10CHTO  H208 3848   4.655   7.046   2.534 -0.4878  1.1326 -0.0694
   10CHTO   O74 3849   4.270   6.957   2.905  0.2630  0.1408 -0.2075
   10CHTO  C115 3850   4.131   6.987   2.878  0.2607 -0.1468 -0.3798
   10CHTO  H219 3851   4.117   7.007   2.772  1.3085 -2.8025 -1.0714
   10CHTO   O76 3852   4.033   6.860   2.918 -0.6179  0.3000 -0.8931
   10CHTO  C122 3853   4.042   6.829   3.052 -0.1705  0.1387  0.3347
   10CHTO  H226 3854   4.148   6.801   3.054  0.1437  1.1332 -1.4991
   10CHTO  C126 3855   3.960   6.698   3.077  0.1903 -0.0697 -0.2580
   10CHTO   O85 3856   3.959   6.657   3.214  0.1162  0.9886 -0.6395
   10CHTO  H206 3857   3.928   6.569   3.220  1.0253  0.6881 -0.1895
   10CHTO  C121 3858   3.999   6.953   3.146  0.8727  0.7396  0.0632
   10CHTO  H225 3859   3.903   6.909   3.181  1.9298 -1.3813  0.4158
   10CHTO   O81 3860   4.095   6.973   3.244  0.1541  0.2046  0.0995
   10CHTO  H202 3861   4.178   7.004   3.215 -0.4014  0.6164 -1.0884
   10CHTO  C119 3862   3.974   7.076   3.064  0.1194 -0.3133  0.7774
   10CHTO  H223 3863   3.884   7.050   3.007 -0.6596  0.5402  1.5871
   10CHTO  C117 3864   4.086   7.114   2.963 -0.0822  1.0361  0.0587
   10CHTO  H221 3865   4.182   7.142   3.007 -0.5566  0.6208  1.3791
   10CHTO   N20 3866   4.043   7.229   2.882 -0.5491  0.8177  0.0911
   10CHTO  H209 3867   4.031   7.198   2.780 -1.5428  0.4891  0.3001
   10CHTO  H210 3868   4.123   7.301   2.889  0.7043 -0.5305 -0.1459
   10CHTO   O80 3869   3.916   7.209   3.162 -0.3368 -0.1540  0.4865
   10CHTO  C103 3870   3.774   7.214   3.219 -0.0251  0.0355 -0.2602
   10CHTO  H190 3871   3.740   7.317   3.231  0.2632  0.0513  0.4165
   10CHTO  C101 3872   3.656   7.146   3.150  0.9936 -0.2568  0.5156
   10CHTO  H188 3873   3.672   7.038   3.147  0.5527 -0.3895  2.1879
   10CHTO   O68 3874   3.648   7.199   3.003  0.2550  0.4907  0.6282
   10CHTO  H168 3875   3.632   7.132   2.939  2.7111  0.8145 -0.3777
   10CHTO   C99 3876   3.525   7.164   3.237 -0.6172 -0.0981  0.4249
   10CHTO  H186 3877   3.507   7.272   3.253 -1.1510  0.2384 -2.1501
   10CHTO   N17 3878   3.394   7.111   3.177  0.6426  0.2045  0.5756
   10CHTO  H174 3879   3.314   7.103   3.249 -0.2188  1.5039 -0.2186
   10CHTO  H175 3880   3.361   7.178   3.099  1.2096 -2.5499 -2.1467
   10CHTO   C97 3881   3.538   7.105   3.379  0.1640  0.3510 -0.5017
   10CHTO  H184 3882   3.549   6.996   3.368 -1.2095  0.1922 -0.2871
   10CHTO   O64 3883   3.655   7.163   3.441  0.1697 -0.0103 -0.0285
   10CHTO  C104 3884   3.780   7.146   3.367 -0.1159 -1.3633 -0.5795
   10CHTO  H191 3885   3.792   7.038   3.361 -1.9201 -1.6520  0.4943
   10CHTO  C108 3886   3.902   7.203   3.451  0.0533 -0.8295  0.4637
   10CHTO   O71 3887   3.890   7.334   3.495 -0.8111  0.1736 -0.1099
   10CHTO  H171 3888   3.842   7.382   3.430 -0.4302 -1.9121 -1.9941
   10CHTO   O62 3889   3.427   7.138   3.470  0.7868  0.2664  0.2388
   10CHTO   C91 3890   3.354   7.041   3.550  0.2016  0.3323 -0.5092
   10CHTO  H178 3891   3.348   6.950   3.491  0.7668  0.5001 -0.8252
   10CHTO   C92 3892   3.206   7.096   3.563  1.1351 -0.0304  0.3858
   10CHTO  H179 3893   3.206   7.195   3.610 -0.4647  0.6764 -1.0322
   10CHTO   O66 3894   3.159   7.117   3.428 -0.0174  0.0620 -0.5679
   10CHTO  H166 3895   3.213   7.187   3.396  0.6838  0.2478  0.9919
   10CHTO   C93 3896   3.115   6.997   3.646  0.1448 -0.1289  0.0918
   10CHTO  H180 3897   3.099   6.903   3.590 -2.7527  0.4158 -0.0459
   10CHTO   N16 3898   2.977   7.046   3.664  0.2738 -0.2076  0.7328
   10CHTO  H172 3899   2.956   7.071   3.767 -1.2992  0.1400  0.3331
   10CHTO  H173 3900   2.931   7.103   3.584  1.3593  1.3827  1.2182
   10CHTO   C94 3901   3.185   6.960   3.779  0.2596 -0.1809 -0.0462
   10CHTO  H181 3902   3.209   7.046   3.841  1.8463  0.8107 -1.9552
   10CHTO   O61 3903   3.315   6.904   3.752  0.1029 -0.1735 -0.0769
   10CHTO   C95 3904   3.405   6.996   3.691  0.2086 -0.6338 -0.2904
   10CHTO  H182 3905   3.420   7.081   3.758 -0.8075 -0.7262  0.0608
   10CHTO  C106 3906   3.540   6.922   3.662  0.1024  0.3350  0.3111
   10CHTO   O69 3907   3.616   6.909   3.780  0.3970 -0.9544  0.9350
   10CHTO  H169 3908   3.562   6.876   3.849 -0.8832 -0.5020  0.1673
   10CHTO   O63 3909   3.110   6.848   3.871  0.1573  0.5171 -0.2082
   10CHTO   C96 3910   3.186   6.823   4.016 -0.4132 -0.2788 -0.5166
   10CHTO  H183 3911   3.262   6.900   4.029  0.0799 -0.6293 -1.3229
   10CHTO   C98 3912   3.258   6.690   4.022 -0.4175  0.1535  0.2566
   10CHTO  H185 3913   3.181   6.615   3.997 -0.3450 -0.1789  1.0039
   10CHTO   O67 3914   3.354   6.686   3.916 -0.1484 -0.1842  0.8314
   10CHTO  H167 3915   3.368   6.595   3.898  0.4480  0.1132 -0.2610
   10CHTO  C102 3916   3.319   6.654   4.160  0.2442  0.5341 -0.3123
   10CHTO  H189 3917   3.401   6.724   4.183  0.9510 -1.1104  2.3911
   10CHTO   N18 3918   3.382   6.516   4.177 -0.1800  0.3295 -0.0171
   10CHTO  H176 3919   3.308   6.445   4.141  0.1161 -0.0181  0.0513
   10CHTO  H177 3920   3.465   6.503   4.110 -1.8771  0.3024 -2.1698
   10CHTO  C105 3921   3.219   6.677   4.269 -0.2156  0.2628 -0.9353
   10CHTO  H192 3922   3.146   6.596   4.271 -0.0509  0.1385  1.5314
   10CHTO   O65 3923   3.153   6.806   4.262  0.0744 -0.2174 -0.6923
   10CHTO  C100 3924   3.089   6.834   4.135  0.8753 -0.1810  0.0151
   10CHTO  H187 3925   3.006   6.764   4.124 -1.0708  2.1900 -0.7699
   10CHTO  C107 3926   3.020   6.961   4.149 -0.3384 -0.5626  0.5385
   10CHTO   O70 3927   2.939   6.986   4.038  0.2185  0.2848  0.5089
   10CHTO  H170 3928   2.855   7.013   4.070 -0.5787  0.3986 -1.6137
   10CHTO   O57 3929   3.308   6.673   4.425 -0.3696  0.5872  0.3116
   10CHTO   C85 3930   3.241   6.623   4.542  0.0813 -0.4264 -0.2108
   10CHTO  H157 3931   3.143   6.590   4.503  1.7066 -2.3867 -2.8033
   10CHTO   C83 3932   3.213   6.738   4.634  0.3372  0.4623 -0.9186
   10CHTO  H155 3933   3.149   6.809   4.581 -0.3488  1.5204  1.2564
   10CHTO   O56 3934   3.334   6.799   4.668  0.0933  0.6163 -0.0006
   10CHTO  H135 3935   3.325   6.863   4.735  1.7956 -0.2163  1.0480
   10CHTO   C81 3936   3.133   6.685   4.759  0.0275 -0.4841 -0.6684
   10CHTO  H153 3937   3.039   6.642   4.722 -1.3306  0.2400  1.8361
   10CHTO   N14 3938   3.086   6.800   4.848  0.2129  0.0798  0.5250
   10CHTO  H141 3939   3.015   6.855   4.791 -0.4216 -1.1251  0.1331
   10CHTO  H142 3940   3.167   6.865   4.875 -1.2632  1.9536  0.5300
   10CHTO   C79 3941   3.215   6.578   4.833  0.1162  0.6752  0.1878
   10CHTO  H151 3942   3.149   6.528   4.903 -0.7727  1.0496 -0.3690
   10CHTO   O52 3943   3.263   6.472   4.743 -0.1023  0.3103 -0.3506
   10CHTO   C86 3944   3.317   6.513   4.614  0.0976 -0.1024  0.1727
   10CHTO  H158 3945   3.420   6.549   4.634 -0.2397 -0.1864  2.1382
   10CHTO   C90 3946   3.336   6.393   4.524  0.4799 -0.1146  0.2196
   10CHTO   O60 3947   3.221   6.371   4.447  0.0186 -0.0544  0.0325
   10CHTO  H138 3948   3.143   6.394   4.494  2.0132  1.2959  2.8445
   10CHTO   O50 3949   3.331   6.625   4.897 -0.1915  0.2499  0.4253
   10CHTO   C73 3950   3.382   6.577   5.022  0.3231 -0.1134  0.6064
   10CHTO  H145 3951   3.345   6.477   5.048 -0.7213  0.3926  1.1174
   10CHTO   C74 3952   3.344   6.682   5.129 -0.6140  0.2794  0.0539
   10CHTO  H146 3953   3.234   6.684   5.131 -0.6579 -0.8460 -0.7923
   10CHTO   O54 3954   3.393   6.628   5.258  0.1404 -0.2254 -0.4058
   10CHTO  H133 3955   3.454   6.693   5.289 -3.3324  2.9861  0.1544
   10CHTO   C75 3956   3.401   6.820   5.086 -0.4353  0.2459 -0.3452
   10CHTO  H147 3957   3.356   6.853   4.991 -1.5620 -0.6275 -0.1199
   10CHTO   N13 3958   3.366   6.934   5.176 -0.1014 -0.0198  0.5477
   10CHTO  H139 3959   3.365   6.894   5.276 -0.2316  0.5200  0.7616
   10CHTO  H140 3960   3.263   6.964   5.161  0.2128  0.2448 -1.1649
   10CHTO   C76 3961   3.550   6.793   5.055  0.0566  0.6685  0.0536
   10CHTO  H148 3962   3.596   6.762   5.149  0.7879  0.2735 -0.4283
   10CHTO   O49 3963   3.586   6.695   4.952 -0.1365 -0.5987  0.3333
   10CHTO   C77 3964   3.533   6.572   5.001 -0.2956 -0.0335 -0.0218
   10CHTO  H149 3965   3.578   6.555   5.099  2.9744  1.8252 -1.1342
   10CHTO   C88 3966   3.574   6.454   4.913 -0.0203 -0.6136 -0.8814
   10CHTO   O58 3967   3.712   6.440   4.914  0.2065 -0.4107  0.1200
   10CHTO  H136 3968   3.755   6.520   4.891  1.5186 -1.3062 -0.6530
   10CHTO   O51 3969   3.615   6.940   5.005  0.0379 -0.1866 -0.4377
   10CHTO   C78 3970   3.792   6.943   5.042  0.3746 -0.4191 -1.0369
   10CHTO  H150 3971   3.833   6.840   5.037 -0.0102 -0.7018  1.2723
   10CHTO   C80 3972   3.810   6.996   5.184 -0.1299  0.1277  0.1868
   10CHTO  H152 3973   3.754   7.092   5.189  0.8102  0.7876 -1.5493
   10CHTO   O55 3974   3.746   6.903   5.273  0.4524  0.5418 -0.3415
   10CHTO  H134 3975   3.664   6.944   5.291 -0.6687 -2.6100  2.2196
   10CHTO   C84 3976   3.958   7.019   5.226 -0.0418 -0.3010 -0.1500
   10CHTO  H156 3977   4.014   6.925   5.231 -0.0532 -0.2606  0.9616
   10CHTO   N15 3978   3.966   7.079   5.364  0.2415 -0.1115  0.1007
   10CHTO  H143 3979   4.001   7.017   5.444  0.1562  1.2173  1.1687
   10CHTO  H144 3980   4.025   7.168   5.370  1.4506 -0.7818 -1.3433
   10CHTO   C87 3981   4.042   7.097   5.124  0.2443 -0.2146 -0.4045
   10CHTO  H159 3982   4.002   7.198   5.123  0.8475  0.0844  2.4040
   10CHTO   O53 3983   4.012   7.029   4.982 -1.1746  0.1029  0.0499
   10CHTO   C82 3984   3.871   7.031   4.948  0.4659 -0.4170  0.4538
   10CHTO  H154 3985   3.828   7.131   4.960 -0.2261 -0.4491 -1.5301
   10CHTO   C89 3986   3.835   6.993   4.805 -0.0337 -0.1548  0.3579
   10CHTO   O59 3987   3.911   7.069   4.718 -0.3694  0.1557  0.1937
   10CHTO  H137 3988   3.869   7.066   4.634  0.6455 -0.4767 -0.3076
   10CHTO   O45 3989   4.208   7.096   5.140 -0.0460  1.0084  0.0181
   10CHTO   C67 3990   4.259   7.232   5.140  0.2597  0.2917  1.0089
   10CHTO  H124 3991   4.216   7.292   5.059  0.8797 -0.1714  0.3376
   10CHTO   C65 3992   4.230   7.308   5.274  0.1338  0.5883 -0.3912
   10CHTO  H122 3993   4.210   7.229   5.346 -0.3156 -0.6041 -1.8015
   10CHTO   O44 3994   4.112   7.385   5.257  0.0586 -0.5738  0.1387
   10CHTO  H102 3995   4.055   7.388   5.331 -0.1716 -0.3836 -0.0454
   10CHTO   C63 3996   4.363   7.379   5.327  0.1109 -0.4908 -0.7040
   10CHTO  H120 3997   4.434   7.314   5.378  0.9134  2.7357  2.5655
   10CHTO   N11 3998   4.347   7.473   5.442 -0.2426  0.0830 -0.6581
   10CHTO  H108 3999   4.285   7.423   5.514  1.5341  0.7325  1.3783
   10CHTO  H109 4000   4.302   7.561   5.403 -1.7967 -1.8169 -3.3313
   10CHTO   C61 4001   4.438   7.441   5.192 -0.1062 -0.6128 -0.5730
   10CHTO  H118 4002   4.525   7.500   5.225  1.0531 -1.3451 -2.2412
   10CHTO   O40 4003   4.492   7.337   5.104  0.2091 -0.1433  0.5865
   10CHTO   C68 4004   4.414   7.211   5.105  0.3972  0.1246 -0.1030
   10CHTO  H125 4005   4.447   7.134   5.177  0.1002 -2.7754 -2.9540
   10CHTO   C72 4006   4.418   7.145   4.965 -0.4743 -0.0167  0.5136
   10CHTO   O48 4007   4.543   7.094   4.916  0.2552 -0.1516 -0.5291
   10CHTO  H105 4008   4.588   7.061   4.992 -1.5455  1.0826  1.1348
   10CHTO   O38 4009   4.351   7.532   5.110 -0.2723 -0.1514 -0.2902
   10CHTO   C55 4010   4.412   7.627   5.021  0.6888  1.0191 -0.4504
   10CHTO  H112 4011   4.319   7.678   4.991  1.3951  1.9169 -1.1419
   10CHTO   C56 4012   4.496   7.563   4.899 -0.0285 -0.4088 -0.7488
   10CHTO  H113 4013   4.575   7.503   4.947  0.6416 -0.5876 -2.0763
   10CHTO   O42 4014   4.415   7.484   4.813  0.3861  0.0386  0.3929
   10CHTO  H100 4015   4.473   7.448   4.749 -0.9189  0.4319 -1.0372
   10CHTO   C57 4016   4.563   7.680   4.819 -0.0916 -0.3424  0.5141
   10CHTO  H114 4017   4.478   7.727   4.769  0.4477 -0.1560 -0.2412
   10CHTO   N10 4018   4.672   7.629   4.728  0.3250  0.0702  0.0997
   10CHTO  H106 4019   4.609   7.604   4.644  1.5385 -2.6192 -0.0342
   10CHTO  H107 4020   4.717   7.540   4.767  0.2362  0.7199  1.7196
   10CHTO   C58 4021   4.628   7.784   4.914 -0.5020  0.2281  0.0390
   10CHTO  H115 4022   4.714   7.738   4.967 -1.0301  1.1407  1.7024
   10CHTO   O37 4023   4.538   7.830   5.013 -0.0043  0.1647 -0.6080
   10CHTO   C59 4024   4.493   7.731   5.110  0.2797 -0.3479 -0.2392
   10CHTO  H116 4025   4.576   7.683   5.160  0.2182 -1.6382 -1.3479
   10CHTO   C70 4026   4.408   7.808   5.211  0.0473  0.3450 -0.8221
   10CHTO   O46 4027   4.301   7.887   5.152  0.4977 -0.0130 -0.1817
   10CHTO  H103 4028   4.291   7.975   5.183 -1.2701 -0.2814  0.0547
   10CHTO   O39 4029   4.681   7.916   4.829 -0.1082  0.7808  0.4879
   10CHTO   C60 4030   4.746   8.015   4.911  0.2526 -0.1615  0.7641
   10CHTO  H117 4031   4.724   7.992   5.015  0.6931  0.9737  1.1092
   10CHTO   C62 4032   4.902   8.018   4.908 -0.2044 -0.3716  0.4078
   10CHTO  H119 4033   4.930   7.913   4.931 -0.8847 -1.0945 -1.9680
   10CHTO   O43 4034   4.937   8.029   4.771 -0.0025 -0.6626 -0.8844
   10CHTO  H101 4035   5.015   8.073   4.743 -0.6896  0.8833 -0.4155
   10CHTO   C66 4036   4.968   8.134   5.004 -0.5578 -0.0291 -0.5100
   10CHTO  H123 4037   4.934   8.115   5.106 -0.7793 -1.6760 -0.8858
   10CHTO   N12 4038   5.116   8.129   5.001 -0.2190  0.3326 -0.1368
   10CHTO  H110 4039   5.146   8.150   4.899  0.3335 -0.5623 -0.1639
   10CHTO  H111 4040   5.155   8.032   5.028 -0.6895 -0.0987 -0.9905
   10CHTO   C69 4041   4.907   8.271   4.961 -0.0097 -0.4769 -0.4699
   10CHTO  H126 4042   4.931   8.300   4.857 -2.7952  0.0956 -0.9892
   10CHTO   O41 4043   4.756   8.260   4.973  0.1738  0.1429 -0.3625
   10CHTO   C64 4044   4.687   8.157   4.879 -0.1924  0.1538  0.5022
   10CHTO  H121 4045   4.702   8.187   4.773  1.0526  1.3981  1.0133
   10CHTO   C71 4046   4.537   8.161   4.905  0.6435 -0.0241 -0.4786
   10CHTO   O47 4047   4.489   8.300   4.906  0.2870  0.0770 -0.0673
   10CHTO  H104 4048   4.399   8.316   4.924 -0.1753  0.8971 -2.8379
   10CHTO   O34 4049   4.946   8.394   5.054  0.1754 -0.1676  0.4917
   10CHTO   C49 4050   4.959   8.545   5.035 -0.0826  0.5601 -0.4862
   10CHTO   H91 4051   5.017   8.577   5.122 -0.1341 -0.0700 -0.2174
   10CHTO   C47 4052   4.813   8.610   5.045  0.2840 -0.3662 -0.7562
   10CHTO   H89 4053   4.827   8.719   5.055  0.7730 -0.5976  1.2373
   10CHTO   O33 4054   4.748   8.558   5.167 -0.5460 -0.0586  0.7434
   10CHTO   H70 4055   4.656   8.547   5.151 -0.4355  0.1913 -0.0957
   10CHTO   C45 4056   4.731   8.581   4.914 -0.3347  0.5278 -0.2220
   10CHTO   H87 4057   4.717   8.474   4.896 -0.9097  0.5822 -0.0934
   10CHTO    N8 4058   4.598   8.646   4.912 -0.4517 -0.7059 -0.4658
   10CHTO   H75 4059   4.605   8.753   4.924 -1.0450 -0.7593  0.4526
   10CHTO   H76 4060   4.533   8.627   4.828 -0.5534 -1.5560 -0.2014
   10CHTO   C43 4061   4.814   8.631   4.790  0.0877 -0.9573 -0.4859
   10CHTO   H85 4062   4.758   8.606   4.700 -2.5457  2.6443  0.0233
   10CHTO   O29 4063   4.952   8.579   4.784  0.0171 -0.4445 -0.3852
   10CHTO   C50 4064   5.027   8.588   4.905  0.2663  0.3936 -0.5441
   10CHTO   H92 4065   5.105   8.511   4.891  0.0273 -0.0785  0.7341
   10CHTO   C54 4066   5.105   8.724   4.913  0.7803 -0.3394  0.0629
   10CHTO   O36 4067   5.188   8.739   4.797  0.2475 -0.5050 -0.4291
   10CHTO   H72 4068   5.130   8.770   4.730 -1.6275 -0.7551  1.0017
   10CHTO   O27 4069   4.824   8.775   4.785  0.0046 -0.2787 -0.5710
   10CHTO   C37 4070   4.862   8.890   4.711 -0.0436  0.3338 -0.4626
   10CHTO   H79 4071   4.972   8.887   4.706 -0.0623 -3.1249  0.2499
   10CHTO   C38 4072   4.823   8.884   4.555 -0.1519 -0.0521  0.2764
   10CHTO   H80 4073   4.715   8.864   4.554  0.1985 -1.9900 -1.1271
   10CHTO   O31 4074   4.893   8.776   4.491  0.5439 -0.6246 -0.2424
   10CHTO   H68 4075   4.983   8.778   4.518  0.8123  1.7127 -1.1772
   10CHTO   C39 4076   4.848   9.020   4.477 -0.2737 -0.2143 -0.4874
   10CHTO   H81 4077   4.957   9.022   4.476 -0.2075 -1.3181  1.6630
   10CHTO    N7 4078   4.796   9.016   4.336 -0.0731 -0.0916 -0.4131
   10CHTO   H73 4079   4.775   9.112   4.291  0.7014 -0.7129 -2.1046
   10CHTO   H74 4080   4.858   8.949   4.280  2.0095  1.7342 -0.3725
   10CHTO   C40 4081   4.799   9.144   4.563 -0.1461  0.0247 -0.0189
   10CHTO   H82 4082   4.695   9.176   4.566 -0.4629 -0.8510 -1.3662
   10CHTO   O26 4083   4.851   9.144   4.695 -0.5517  0.2335 -0.8953
   10CHTO   C41 4084   4.817   9.021   4.780  0.4197  0.1504 -0.3468
   10CHTO   H83 4085   4.708   9.021   4.794  0.4425  0.3979 -0.1503
   10CHTO   C52 4086   4.876   9.035   4.921  0.1559  0.0436  0.4602
   10CHTO   O35 4087   4.990   9.070   4.928  0.7127  0.1815 -0.2704
   10CHTO   H71 4088   5.021   9.102   5.011 -1.9116 -1.6470  1.4911
   10CHTO   O28 4089   4.864   9.267   4.523  0.0963  0.7348  0.2005
   10CHTO   C42 4090   4.805   9.396   4.527  0.3632  0.6772  0.0084
   10CHTO   H84 4091   4.729   9.399   4.605  0.6490  3.6908  0.2227
   10CHTO   C44 4092   4.738   9.447   4.397  0.6538  0.4064  0.0964
   10CHTO   H86 4093   4.814   9.451   4.319  0.3511  0.1467 -0.2116
   10CHTO   O32 4094   4.647   9.342   4.347  0.0525 -0.0097  0.7044
   10CHTO   H69 4095   4.666   9.307   4.263  0.6717  0.3430  0.6952
   10CHTO   C48 4096   4.677   9.590   4.411 -0.2601 -0.3311 -0.0641
   10CHTO   H90 4097   4.596   9.589   4.484  0.6752  1.5590  1.0342
   10CHTO    N9 4098   4.621   9.633   4.281 -0.4862  0.3450  0.0879
   10CHTO   H77 4099   4.665   9.723   4.242 -2.1587  1.9423  1.8427
   10CHTO   H78 4100   4.618   9.545   4.218 -2.4280  1.1189 -0.9557
   10CHTO   C51 4101   4.790   9.682   4.476  0.1194 -0.0353 -0.3271
   10CHTO   H93 4102   4.861   9.715   4.400  0.0314 -2.5263 -1.5428
   10CHTO   O30 4103   4.857   9.626   4.587 -0.1008 -0.0713  0.0923
   10CHTO   C46 4104   4.913   9.500   4.567 -0.0244 -0.3841  0.5092
   10CHTO   H88 4105   4.982   9.507   4.483  0.4102 -2.8264  0.6284
   10CHTO   C53 4106   4.983   9.466   4.699  0.2615  0.1923 -0.2839
   10CHTO   O72 4107   5.084   9.554   4.744  0.2002  0.3598  0.0889
   10CHTO  H199 4108   5.063   9.640   4.715  0.7397  0.1831 -0.8493
   10CHTO   O22 4109   4.723   9.795   4.530 -0.3066 -0.1373 -0.2934
   10CHTO   C31 4110   4.782   9.932   4.526 -0.0029 -0.3796  0.0521
   10CHTO   H59 4111   4.740   9.992   4.610  0.2758  0.5970 -0.5032
   10CHTO   C29 4112   4.934   9.943   4.539  0.1169 -0.4034  0.1971
   10CHTO   H57 4113   4.989   9.894   4.457  3.0796  1.6729  0.8100
   10CHTO   O21 4114   4.975   9.874   4.661 -0.0899  0.8586 -0.1602
   10CHTO   H37 4115   4.951   9.925   4.737  2.0742 -0.0485  1.1762
   10CHTO   C27 4116   4.983  10.093   4.542  0.0483  0.4708  0.1297
   10CHTO   H55 4117   4.930  10.137   4.628 -1.5932  1.3976 -1.3133
   10CHTO    N5 4118   5.126  10.112   4.566  0.1967 -0.6057 -0.1459
   10CHTO   H43 4119   5.164  10.190   4.501 -0.1955 -0.1807  0.1365
   10CHTO   H44 4120   5.150  10.120   4.671 -1.9719 -2.2268  0.4969
   10CHTO   C25 4121   4.933  10.157   4.404 -0.0774  0.9671 -0.1674
   10CHTO   H53 4122   4.974  10.101   4.319  3.1961  2.2470  0.4767
   10CHTO   O17 4123   4.791  10.161   4.402 -0.0312 -0.2938 -0.7357
   10CHTO   C32 4124   4.735  10.022   4.398 -0.6604  0.1581 -0.2585
   10CHTO   H60 4125   4.768   9.966   4.310  0.5139 -3.7296  2.5006
   10CHTO   C36 4126   4.585  10.048   4.401  0.1764  0.1494 -0.3674
   10CHTO   O25 4127   4.507   9.934   4.380  0.3647 -0.1104  0.4763
   10CHTO   H40 4128   4.426   9.925   4.426 -1.2215  1.7709 -1.8312
   10CHTO   O15 4129   4.976  10.299   4.391 -0.6356 -0.7391 -0.0073
   10CHTO   C19 4130   5.036  10.359   4.270 -0.1999 -0.1935  0.0329
   10CHTO   H47 4131   5.084  10.275   4.217 -0.3750 -0.3977  0.1940
   10CHTO   C20 4132   4.933  10.424   4.174  0.0841 -0.3955  0.7773
   10CHTO   H48 4133   4.875  10.502   4.224 -0.2989 -0.4043  0.3506
   10CHTO   O19 4134   4.841  10.323   4.147 -0.2753  0.4808 -0.3665
   10CHTO   H35 4135   4.774  10.322   4.213  0.4401  2.6975  0.4374
   10CHTO   C21 4136   5.006  10.472   4.042  0.4003  0.0883  0.1808
   10CHTO   H49 4137   5.039  10.381   3.993 -1.1003 -1.2864  1.6476
   10CHTO    N4 4138   4.912  10.547   3.950  0.1225 -0.3364 -0.4032
   10CHTO   H41 4139   4.839  10.479   3.908 -0.7835  2.2634 -3.2518
   10CHTO   H42 4140   4.964  10.594   3.868  0.0133  2.1960  0.9361
   10CHTO   C22 4141   5.138  10.548   4.075 -0.7601 -1.1489  0.4910
   10CHTO   H50 4142   5.108  10.648   4.110 -0.3054 -0.4182 -1.1725
   10CHTO   O14 4143   5.222  10.480   4.170  0.5217 -0.8148  0.7474
   10CHTO   C23 4144   5.156  10.454   4.296 -0.7547 -0.4458  0.5583
   10CHTO   H51 4145   5.130  10.540   4.360  1.6039  0.2010  0.7135
   10CHTO   C34 4146   5.265  10.385   4.385  0.5214  0.1367  0.3996
   10CHTO   O23 4147   5.385  10.462   4.407 -0.4628  0.1681 -0.5109
   10CHTO   H38 4148   5.450  10.408   4.447 -1.6899  0.1779  1.5642
   10CHTO   O16 4149   5.216  10.566   3.956 -0.4827  0.4711  0.4562
   10CHTO   C24 4150   5.323  10.659   3.961  0.6947  0.0379  0.2200
   10CHTO   H52 4151   5.338  10.700   4.061  0.6489 -1.6134  0.9207
   10CHTO   C26 4152   5.280  10.782   3.873  0.5160 -0.1527 -0.0587
   10CHTO   H54 4153   5.249  10.749   3.771  1.0917  0.3917 -0.4136
   10CHTO   O20 4154   5.164  10.842   3.930 -0.4197  0.2012 -0.3845
   10CHTO   H36 4155   5.180  10.914   3.988  0.5086 -0.8554  0.6846
   10CHTO   C30 4156   5.395  10.881   3.852  0.2938 -0.4956 -0.0083
   10CHTO   H58 4157   5.415  10.933   3.947 -0.6397 -0.2149  0.0384
   10CHTO    N6 4158   5.356  10.990   3.755  0.2393 -0.0228 -0.2302
   10CHTO   H45 4159   5.256  11.016   3.785  0.4888 -0.2130  0.7890
   10CHTO   H46 4160   5.419  11.077   3.766 -0.4657  0.4626 -0.0523
   10CHTO   C33 4161   5.520  10.808   3.802 -0.3019  0.5954 -0.5114
   10CHTO   H61 4162   5.507  10.762   3.703  1.2009 -1.4173  0.1871
   10CHTO   O18 4163   5.549  10.703   3.897  0.0309  0.3077 -0.5825
   10CHTO   C28 4164   5.454  10.594   3.920 -0.3258  0.2454 -0.0785
   10CHTO   H56 4165   5.440  10.539   3.827 -0.6617  0.8118 -0.3651
   10CHTO   C35 4166   5.505  10.513   4.038  0.5840 -0.0734  0.4626
   10CHTO   O24 4167   5.615  10.441   3.985 -0.1990 -0.0390 -0.0994
   10CHTO   H39 4168   5.671  10.418   4.057  1.4988  0.1811 -1.3176
   10CHTO    O9 4169   5.631  10.904   3.790  0.1275  0.3295  0.3582
   10CHTO   C13 4170   5.797  10.848   3.769 -0.3347  0.0238  0.2254
   10CHTO   H26 4171   5.857  10.936   3.737 -1.4231  1.7435  2.7683
   10CHTO   C11 4172   5.802  10.731   3.663 -0.7534 -0.2095  0.0070
   10CHTO   H24 4173   5.750  10.757   3.569 -3.3058 -0.9875  1.1451
   10CHTO    O8 4174   5.726  10.615   3.701 -0.2068  0.1641  0.2050
   10CHTO    H3 4175   5.769  10.577   3.776  0.6417 -1.2626 -0.9765
   10CHTO    C9 4176   5.953  10.699   3.641  0.3665  0.2068 -0.6146
   10CHTO   H22 4177   5.998  10.797   3.620  0.0253  0.3520 -0.6617
   10CHTO    N2 4178   5.986  10.616   3.522 -0.5168 -0.0742  0.3283
   10CHTO   H10 4179   5.964  10.658   3.425  1.1370  0.6431  0.2523
   10CHTO   H11 4180   5.928  10.526   3.532  0.4788 -0.9520 -1.5169
   10CHTO    C7 4181   6.018  10.655   3.778 -0.6130  0.0008 -0.1590
   10CHTO   H20 4182   6.111  10.714   3.777  0.6336 -1.9023  0.6294
   10CHTO    O4 4183   5.933  10.676   3.897  0.1709 -0.5300 -0.2021
   10CHTO   C14 4184   5.875  10.805   3.905 -0.6648 -0.4159 -0.2999
   10CHTO   H27 4185   5.949  10.887   3.914 -0.3474 -0.9278  1.8590
   10CHTO   C18 4186   5.787  10.813   4.034 -0.1836 -0.3615  0.3304
   10CHTO   O13 4187   5.734  10.942   4.044 -0.0657 -0.2513 -0.3984
   10CHTO    H7 4188   5.666  10.932   4.107 -0.6932  0.0299 -1.0170
   10CHTO    O2 4189   6.069  10.509   3.793 -0.3528  0.3355 -0.0187
   10CHTO    C1 4190   6.195  10.492   3.863 -0.0851  0.0030  0.2471
   10CHTO   H14 4191   6.215  10.568   3.942 -0.2598  0.6478 -0.3265
   10CHTO    C2 4192   6.320  10.494   3.765 -0.3874 -0.1231  0.5591
   10CHTO   H15 4193   6.296  10.408   3.700  2.6776 -1.0443  0.5904
   10CHTO    O6 4194   6.323  10.619   3.697 -0.4678  0.4238 -0.5679
   10CHTO    H1 4195   6.312  10.615   3.603  0.9431 -1.4827 -0.6901
   10CHTO    C3 4196   6.452  10.459   3.856  0.2816  0.1037  0.2769
   10CHTO   H16 4197   6.461  10.537   3.932 -1.1532 -0.4288  1.0249
   10CHTO    N1 4198   6.578  10.460   3.778 -0.3942  0.1482  0.9066
   10CHTO    H8 4199   6.593  10.558   3.735 -0.4537 -0.8484 -1.4428
   10CHTO    H9 4200   6.585  10.381   3.705 -1.8465  1.6890 -0.9509
   10CHTO    C4 4201   6.430  10.324   3.940 -0.2482  0.2381 -0.2019
   10CHTO   H17 4202   6.407  10.245   3.868 -0.7897 -0.0433  0.2721
   10CHTO    O1 4203   6.314  10.345   4.020 -0.5196 -0.4796 -0.1908
   10CHTO    C5 4204   6.188  10.360   3.950  0.4796  0.0667 -0.3305
   10CHTO   H18 4205   6.168  10.269   3.895 -0.2272  0.3666 -0.5728
   10CHTO   C16 4206   6.074  10.375   4.049 -0.2825  0.0406 -0.4015
   10CHTO   O11 4207   6.072  10.252   4.129  0.2210  0.5456  0.1419
   10CHTO    H5 4208   6.025  10.181   4.090  2.2069 -0.6866 -0.0850
   10CHTO    O3 4209   6.532  10.298   4.037 -0.4607  0.0035 -0.8929
   10CHTO    C6 4210   6.546  10.156   4.078 -0.3728 -0.2568 -0.3006
   10CHTO   H19 4211   6.475  10.090   4.028 -0.6978 -0.0982 -0.0474
   10CHTO    C8 4212   6.691  10.108   4.045  0.6040 -0.1460 -0.2361
   10CHTO   H21 4213   6.764  10.174   4.092  0.0695 -0.1209  0.5686
   10CHTO    O7 4214   6.711  10.112   3.898  0.0668  0.5490 -0.1474
   10CHTO    H2 4215   6.657  10.048   3.855  0.5481 -0.9315  1.3847
   10CHTO   C12 4216   6.711   9.955   4.091 -0.6971  0.1875  0.4775
   10CHTO   H25 4217   6.643   9.892   4.029  1.9138 -0.9378 -1.3647
   10CHTO    N3 4218   6.854   9.910   4.058  0.1760 -0.8483  0.3072
   10CHTO   H12 4219   6.924   9.944   4.133  1.2699 -2.2715 -0.0533
   10CHTO   H13 4220   6.856   9.805   4.035  0.1242 -0.7867  0.0221
   10CHTO   C15 4221   6.667   9.929   4.237  0.5430 -0.1940 -0.6466
   10CHTO   H28 4222   6.731   9.960   4.319 -1.7540  0.7669  0.8185
   10CHTO   O10 4223   6.624   9.765   4.263 -0.2562 -0.2316 -0.3141
   10CHTO    H4 4224   6.549   9.750   4.209 -0.5844 -0.7898  0.3043
   10CHTO    O5 4225   6.534   9.989   4.261 -0.1233 -0.6441  0.3015
   10CHTO   C10 4226   6.529  10.129   4.229 -0.1430 -0.0696 -0.2943
   10CHTO   H23 4227   6.614  10.173   4.281  0.1499 -2.5612  1.4242
   10CHTO   C17 4228   6.410  10.194   4.290 -0.1398  0.3100 -0.4361
   10CHTO   O12 4229   6.415  10.220   4.427 -0.3735 -0.6216 -0.0322
   10CHTO    H6 4230   6.332  10.196   4.465 -1.9413  1.8591 -1.7356
   11CHTO  H203 4231   7.046   4.823   2.905  0.7902 -1.3872 -0.3903
   11CHTO   O82 4232   7.114   4.862   2.854 -0.1471  0.4963 -0.2201
   11CHTO  C123 4233   7.135   5.002   2.890  0.3036 -0.3414  0.4663
   11CHTO  H227 4234   7.226   5.033   2.836 -0.9576  1.6065 -0.5978
   11CHTO   O77 4235   7.016   5.080   2.854  0.5745 -0.3841  0.4051
   11CHTO  C118 4236   7.049   5.221   2.863  0.2395 -0.3603 -0.3032
   11CHTO  H222 4237   7.143   5.238   2.809  1.1132 -1.3236  0.9024
   11CHTO  C125 4238   6.938   5.303   2.785  0.1507 -0.4786 -0.4955
   11CHTO   O84 4239   6.989   5.437   2.759 -0.3191  0.0459  0.0961
   11CHTO  H205 4240   6.983   5.458   2.668  0.7267  1.2466  0.2890
   11CHTO  C114 4241   7.050   5.257   3.016 -0.0975 -0.0573  0.3559
   11CHTO  H218 4242   6.961   5.213   3.060  0.0560 -1.9430 -1.1607
   11CHTO  C116 4243   7.174   5.186   3.075  0.2630 -0.2421 -0.1698
   11CHTO  H220 4244   7.264   5.246   3.052 -1.0283  2.0186  0.5863
   11CHTO   O79 4245   7.159   5.198   3.221 -0.2536  0.0867  0.0993
   11CHTO  H201 4246   7.236   5.171   3.268 -1.6995 -0.8286  1.9958
   11CHTO  C120 4247   7.177   5.031   3.043  0.2063  0.4403  0.4136
   11CHTO  H224 4248   7.100   4.982   3.107 -0.8440 -0.6624 -1.6300
   11CHTO   N21 4249   7.308   4.968   3.076 -0.4400  0.1348 -0.0099
   11CHTO  H211 4250   7.281   4.868   3.106  1.0359  0.2664  1.7768
   11CHTO  H212 4251   7.381   4.968   2.996 -0.3123 -0.2654  0.1094
   11CHTO   O75 4252   7.045   5.400   3.032  0.3618 -0.7533 -0.1829
   11CHTO  C112 4253   6.965   5.452   3.154 -0.2513  0.3173 -0.4388
   11CHTO  H216 4254   6.992   5.397   3.245  3.5460  2.5027 -0.1522
   11CHTO   O73 4255   6.822   5.439   3.122  0.1272  0.1167 -1.0662
   11CHTO  C113 4256   6.733   5.499   3.216  0.4384  0.5684  0.1955
   11CHTO  H217 4257   6.743   5.447   3.314  0.9866  1.5083  0.6425
   11CHTO  C124 4258   6.586   5.476   3.177 -0.4960 -0.1129  0.2881
   11CHTO   O83 4259   6.487   5.526   3.262 -0.3397  0.0249  0.5778
   11CHTO  H204 4260   6.403   5.494   3.237 -0.7258  0.2550  1.5819
   11CHTO  C109 4261   6.763   5.648   3.232 -0.7213 -0.6143  0.4561
   11CHTO  H213 4262   6.769   5.695   3.132 -0.8518  0.3016  0.8738
   11CHTO  C110 4263   6.910   5.675   3.289  0.5196  0.4477 -0.0115
   11CHTO  H214 4264   6.929   5.628   3.385 -2.2787 -0.6018  0.0908
   11CHTO   O78 4265   6.935   5.814   3.301  0.2972  0.8406 -0.2866
   11CHTO  H200 4266   6.886   5.848   3.374 -1.4043 -4.8805  1.5072
   11CHTO  C111 4267   7.010   5.607   3.186  1.1169 -0.1265 -0.2980
   11CHTO  H215 4268   6.997   5.663   3.092 -0.1086 -1.6417 -1.0662
   11CHTO   N19 4269   7.154   5.611   3.226 -0.1525  0.1269 -0.0450
   11CHTO  H207 4270   7.179   5.546   3.308 -0.9619 -0.8630 -0.5635
   11CHTO  H208 4271   7.172   5.711   3.264  2.6067 -0.2859 -0.2123
   11CHTO   O74 4272   6.668   5.725   3.314 -0.5397  0.4456  0.2286
   11CHTO  C115 4273   6.621   5.866   3.240  0.2391  0.5233 -0.7727
   11CHTO  H219 4274   6.688   5.892   3.157  0.5763 -0.7738 -0.9157
   11CHTO   O76 4275   6.472   5.856   3.164  0.2103  0.1792 -0.1251
   11CHTO  C122 4276   6.360   5.839   3.252 -0.3180  0.0818  0.5593
   11CHTO  H226 4277   6.378   5.755   3.319  2.3731  0.6884  0.6811
   11CHTO  C126 4278   6.235   5.802   3.169 -0.1895 -0.2818 -0.0095
   11CHTO   O85 4279   6.185   5.898   3.077  0.2110 -0.4951  0.2205
   11CHTO  H206 4280   6.091   5.896   3.077  0.2370 -2.2162  0.4221
   11CHTO  C121 4281   6.343   5.969   3.345  0.0495  0.2058  0.2842
   11CHTO  H225 4282   6.256   6.027   3.308 -1.0226 -1.1376  0.6635
   11CHTO   O81 4283   6.316   5.922   3.477 -0.4404  0.2334  0.1244
   11CHTO  H202 4284   6.264   5.985   3.523  1.3328  0.7676  1.4558
   11CHTO  C119 4285   6.475   6.060   3.343  0.3036 -0.9536 -0.2715
   11CHTO  H223 4286   6.473   6.108   3.245  0.0948 -2.4519 -1.0117
   11CHTO  C117 4287   6.611   5.972   3.360  0.2208  0.1093  0.3342
   11CHTO  H221 4288   6.626   5.917   3.452  0.6739 -2.6235 -1.3231
   11CHTO   N20 4289   6.730   6.066   3.350 -0.3766  0.3024 -0.8521
   11CHTO  H209 4290   6.740   6.127   3.438 -2.3863 -0.4399 -0.0946
   11CHTO  H210 4291   6.828   6.019   3.345  0.1306  1.3699 -1.2792
   11CHTO   O80 4292   6.462   6.194   3.448  0.0693  0.1775 -0.0401
   11CHTO  C103 4293   6.444   6.175   3.615  0.2139 -0.0926  0.3292
   11CHTO  H190 4294   6.417   6.072   3.638 -1.6792  0.3471  0.1928
   11CHTO  C101 4295   6.562   6.223   3.714  0.0781 -0.0249  0.0850
   11CHTO  H188 4296   6.615   6.304   3.663  3.6061 -2.2135  0.0967
   11CHTO   O68 4297   6.646   6.124   3.705  0.2908 -0.1663 -0.1405
   11CHTO  H168 4298   6.625   6.037   3.735 -1.6882  0.1621 -0.4883
   11CHTO   C99 4299   6.524   6.265   3.863  0.1129 -0.2244 -0.5469
   11CHTO  H186 4300   6.494   6.171   3.914  0.1187 -0.7774 -1.5642
   11CHTO   N17 4301   6.642   6.329   3.932 -0.0919  0.3290 -0.2989
   11CHTO  H174 4302   6.615   6.383   4.022  2.1161  2.2969 -0.7721
   11CHTO  H175 4303   6.697   6.393   3.865  2.6240 -1.4540  0.1613
   11CHTO   C97 4304   6.400   6.363   3.857 -0.2959 -0.1714 -0.6360
   11CHTO  H184 4305   6.426   6.455   3.802  2.8746 -0.2163  0.7318
   11CHTO   O64 4306   6.297   6.286   3.791  0.1074  0.2214 -0.3756
   11CHTO  C104 4307   6.319   6.265   3.651 -0.0220 -0.2279 -0.5010
   11CHTO  H191 4308   6.331   6.361   3.600  1.8458 -1.2375 -2.0638
   11CHTO  C108 4309   6.195   6.200   3.589 -0.2149 -0.4651 -0.2761
   11CHTO   O71 4310   6.120   6.125   3.681 -0.5150 -0.3885 -0.2126
   11CHTO  H171 4311   6.038   6.104   3.641 -0.6538  2.6680 -1.7365
   11CHTO   O62 4312   6.342   6.400   3.987  0.3486 -0.3366  0.7272
   11CHTO   C91 4313   6.240   6.505   3.986 -0.2964  0.5643  0.6559
   11CHTO  H178 4314   6.195   6.494   3.888 -0.8099  1.0229  0.8425
   11CHTO   C92 4315   6.303   6.644   4.005  0.5513 -0.0575  0.5217
   11CHTO  H179 4316   6.402   6.645   3.957 -0.4187  2.1539 -1.5244
   11CHTO   O66 4317   6.217   6.745   3.942  0.1764  0.3734 -0.4733
   11CHTO  H166 4318   6.125   6.725   3.941  0.2468 -0.0452  0.4785
   11CHTO   C93 4319   6.321   6.699   4.152  0.0711  0.5411  0.0342
   11CHTO  H180 4320   6.339   6.807   4.162  0.7412  0.3033  1.4688
   11CHTO   N16 4321   6.445   6.644   4.216  0.5233  0.1544 -0.0083
   11CHTO  H172 4322   6.410   6.552   4.259  1.1349 -0.5074 -0.9019
   11CHTO  H173 4323   6.521   6.627   4.141  1.0995  0.5614  0.4740
   11CHTO   C94 4324   6.188   6.672   4.230 -0.3688  0.1230  0.0652
   11CHTO  H181 4325   6.203   6.607   4.316  0.7249  0.9313  0.4922
   11CHTO   O61 4326   6.090   6.606   4.153  0.3908 -0.4501  0.8254
   11CHTO   C95 4327   6.122   6.481   4.091  0.1972  0.0925 -0.1351
   11CHTO  H182 4328   6.155   6.416   4.172 -0.5952  0.7985  0.7630
   11CHTO  C106 4329   6.006   6.413   4.013 -0.6145 -0.1945 -0.0595
   11CHTO   O69 4330   5.905   6.383   4.105 -0.1354  0.0576 -0.2030
   11CHTO  H169 4331   5.846   6.317   4.073  0.8037 -0.3643 -1.0932
   11CHTO   O63 4332   6.120   6.813   4.256  0.0898 -0.2586  0.5758
   11CHTO   C96 4333   6.124   6.841   4.411 -0.0844 -0.0045 -0.8111
   11CHTO  H183 4334   6.128   6.743   4.458  0.0038  0.8953  1.1066
   11CHTO   C98 4335   6.003   6.924   4.460  0.3044 -0.3331 -0.1325
   11CHTO  H185 4336   5.981   7.012   4.397  0.8079  0.3087  0.5785
   11CHTO   O67 4337   5.889   6.838   4.447  0.7594 -0.2247 -0.0833
   11CHTO  H167 4338   5.906   6.765   4.504  0.9083 -0.0372  0.1135
   11CHTO  C102 4339   6.027   6.977   4.611 -0.3133  0.5835 -0.9856
   11CHTO  H189 4340   6.033   6.883   4.668 -0.9649  0.3807 -1.2419
   11CHTO   N18 4341   5.915   7.047   4.673  0.3979  0.1671  0.0363
   11CHTO  H176 4342   5.821   7.000   4.648  0.7096 -0.3363 -0.1864
   11CHTO  H177 4343   5.922   7.068   4.779 -0.5400  1.1289 -0.0885
   11CHTO  C105 4344   6.155   7.073   4.613 -0.3988 -0.1175  0.0657
   11CHTO  H192 4345   6.127   7.178   4.613  0.6975  0.1961  1.9575
   11CHTO   O65 4346   6.247   7.054   4.503 -0.1891  0.1537 -0.0253
   11CHTO  C100 4347   6.261   6.915   4.455 -0.1712  0.0974  0.4063
   11CHTO  H187 4348   6.321   6.922   4.363 -1.0570  0.0333 -0.1815
   11CHTO  C107 4349   6.356   6.829   4.546 -0.3349  0.8217  0.0458
   11CHTO   O70 4350   6.490   6.872   4.548 -0.2907  0.1264 -0.1363
   11CHTO  H170 4351   6.543   6.814   4.599  1.0811  2.7090  1.4911
   11CHTO   O57 4352   6.224   7.037   4.770 -0.2448  0.1174 -0.2694
   11CHTO   C85 4353   6.264   7.152   4.848  0.1882  0.2322  0.0260
   11CHTO  H157 4354   6.179   7.221   4.864 -1.1425 -1.7924  2.1412
   11CHTO   C83 4355   6.370   7.227   4.766 -0.5716  0.0397  0.3430
   11CHTO  H155 4356   6.324   7.258   4.672 -2.4709 -0.4186  1.0981
   11CHTO   O56 4357   6.474   7.128   4.731 -0.3161 -0.2849  0.7156
   11CHTO  H135 4358   6.546   7.143   4.789  1.2408  0.2735 -1.3181
   11CHTO   C81 4359   6.427   7.353   4.842 -0.2046 -0.4964  0.0916
   11CHTO  H153 4360   6.346   7.426   4.846  3.4603  3.7771 -0.3965
   11CHTO   N14 4361   6.537   7.418   4.761 -0.0070  0.1938  0.1693
   11CHTO  H141 4362   6.515   7.510   4.711 -1.3296  1.0531  2.2812
   11CHTO  H142 4363   6.573   7.345   4.691  0.2321 -0.8180  1.3451
   11CHTO   C79 4364   6.476   7.319   4.996 -0.0424 -0.7809 -0.1339
   11CHTO  H151 4365   6.465   7.411   5.053 -0.2322  0.7972 -2.6486
   11CHTO   O52 4366   6.380   7.230   5.057  0.2071 -0.5847 -0.3318
   11CHTO   C86 4367   6.332   7.112   4.983  0.0451  0.5709  0.4016
   11CHTO  H158 4368   6.420   7.049   4.963 -0.8775 -0.1879 -1.3311
   11CHTO   C90 4369   6.235   7.024   5.071 -0.1809  0.0978  0.4878
   11CHTO   O60 4370   6.308   6.960   5.178  0.3424 -0.0817  0.5045
   11CHTO  H138 4371   6.248   6.930   5.244 -1.0639  1.6706  0.0679
   11CHTO   O50 4372   6.612   7.266   4.995  0.4117 -0.7622  0.2974
   11CHTO   C73 4373   6.718   7.241   5.090  0.3166 -0.0451 -0.0434
   11CHTO  H145 4374   6.680   7.204   5.186  0.3543 -0.7272 -0.2908
   11CHTO   C74 4375   6.784   7.372   5.124  0.4337  0.3488  0.2309
   11CHTO  H146 4376   6.703   7.442   5.149  0.4932  0.0502  1.3013
   11CHTO   O54 4377   6.864   7.365   5.244 -0.2984 -0.1412  0.0649
   11CHTO  H133 4378   6.875   7.452   5.278 -1.2520 -0.4341  1.1452
   11CHTO   C75 4379   6.862   7.415   4.994 -0.0770  1.0398  0.0429
   11CHTO  H147 4380   6.788   7.430   4.915  0.4984 -0.0506 -0.7053
   11CHTO   N13 4381   6.929   7.542   5.011  0.0227 -0.1939  0.6779
   11CHTO  H139 4382   6.856   7.620   5.032  2.1472  1.6278  1.5526
   11CHTO  H140 4383   6.999   7.533   5.093 -0.4329 -1.9577  0.8887
   11CHTO   C76 4384   6.969   7.303   4.950 -0.1425  0.4148 -0.0518
   11CHTO  H148 4385   7.041   7.286   5.030  0.2406 -0.1635 -0.5157
   11CHTO   O49 4386   6.892   7.183   4.921  0.2057 -0.3529 -0.0693
   11CHTO   C77 4387   6.811   7.131   5.029 -0.1180 -0.1850 -0.9247
   11CHTO  H149 4388   6.879   7.097   5.107 -0.3993 -1.1932 -1.1189
   11CHTO   C88 4389   6.744   7.000   4.986 -0.3645 -0.3370 -0.0307
   11CHTO   O58 4390   6.657   6.936   5.082 -0.2130  0.1551 -0.2503
   11CHTO  H136 4391   6.680   6.845   5.091  0.6764  0.5047  1.2252
   11CHTO   O51 4392   7.038   7.325   4.807  0.5432  0.1350 -0.5593
   11CHTO   C78 4393   7.139   7.232   4.762 -0.2131  0.1828  0.2411
   11CHTO  H150 4394   7.139   7.137   4.821  1.0832  0.6555  1.0276
   11CHTO   C80 4395   7.276   7.299   4.785 -0.6049  0.6806 -0.3265
   11CHTO  H152 4396   7.275   7.395   4.730 -0.3094  0.9872  0.1972
   11CHTO   O55 4397   7.292   7.322   4.926 -0.0148  0.4121 -0.2883
   11CHTO  H134 4398   7.374   7.288   4.959 -0.4106 -0.0863  0.1957
   11CHTO   C84 4399   7.395   7.205   4.727 -0.8572 -0.9062 -0.3384
   11CHTO  H156 4400   7.410   7.116   4.789 -0.6267  0.2991  1.3468
   11CHTO   N15 4401   7.528   7.274   4.726  0.3867  0.1925  0.5055
   11CHTO  H143 4402   7.610   7.206   4.737  1.5948  1.1401 -2.2201
   11CHTO  H144 4403   7.539   7.353   4.797 -1.5819  0.5401  0.4621
   11CHTO   C87 4404   7.365   7.157   4.587 -0.2884  1.3782  0.0587
   11CHTO  H159 4405   7.394   7.225   4.506  3.0495 -1.3553 -1.1368
   11CHTO   O53 4406   7.214   7.099   4.573  0.0622 -0.0993 -0.2480
   11CHTO   C82 4407   7.115   7.193   4.618 -1.2245  0.2013  0.9983
   11CHTO  H154 4408   7.106   7.287   4.563 -4.9668  0.1091  1.3031
   11CHTO   C89 4409   6.975   7.123   4.612  0.0268  0.3617  0.6658
   11CHTO   O59 4410   6.869   7.223   4.591  0.1911  0.0680 -0.5157
   11CHTO  H137 4411   6.810   7.209   4.661  1.9744 -2.1405  0.6315
   11CHTO   O45 4412   7.455   7.013   4.544  0.0151 -0.1921  0.7055
   11CHTO   C67 4413   7.437   6.969   4.406  0.3605 -0.9741  0.1924
   11CHTO  H124 4414   7.364   7.036   4.360 -1.6224 -2.7462  0.6799
   11CHTO   C65 4415   7.572   6.976   4.318 -0.1807  0.5758  0.6400
   11CHTO  H122 4416   7.651   7.013   4.384 -0.9831 -0.4987  2.2286
   11CHTO   O44 4417   7.556   7.076   4.216  0.5821 -0.0434  0.7084
   11CHTO  H102 4418   7.484   7.040   4.168  0.8245 -0.1878  0.4512
   11CHTO   C63 4419   7.628   6.834   4.279 -0.0463  0.3657 -0.5731
   11CHTO  H120 4420   7.654   6.782   4.371  0.2341 -0.8430 -1.3320
   11CHTO   N11 4421   7.762   6.840   4.220 -0.1069 -0.8676  0.0192
   11CHTO  H108 4422   7.798   6.754   4.168 -1.0774 -0.6291 -1.0729
   11CHTO  H109 4423   7.759   6.921   4.150 -1.7315 -1.3393 -0.4909
   11CHTO   C61 4424   7.519   6.758   4.194 -0.2992  0.5494  0.1608
   11CHTO  H118 4425   7.558   6.656   4.183 -1.0946  0.1633  0.8696
   11CHTO   O40 4426   7.394   6.750   4.269 -0.3196 -0.3929 -0.1370
   11CHTO   C68 4427   7.374   6.823   4.397  0.4238  0.2587 -0.0439
   11CHTO  H125 4428   7.416   6.765   4.482 -1.2734  1.9364  2.0254
   11CHTO   C72 4429   7.219   6.826   4.425 -0.1253  0.4988  0.1162
   11CHTO   O48 4430   7.142   6.894   4.336  0.0753  0.4955  0.4044
   11CHTO  H105 4431   7.117   6.977   4.371  0.1256 -0.3306  2.4754
   11CHTO   O38 4432   7.493   6.829   4.069  0.4362 -0.6630 -0.0560
   11CHTO   C55 4433   7.441   6.761   3.955  0.5551  0.0317  0.3108
   11CHTO  H112 4434   7.374   6.681   3.989  1.0936 -0.2335  0.7559
   11CHTO   C56 4435   7.561   6.698   3.870 -0.1017  0.4356  0.6558
   11CHTO  H113 4436   7.635   6.774   3.843 -2.7378  3.5768  1.8552
   11CHTO   O42 4437   7.626   6.612   3.966 -0.5815  0.0481  0.3147
   11CHTO  H100 4438   7.719   6.610   3.951 -0.6991  1.3023 -0.6758
   11CHTO   C57 4439   7.503   6.614   3.750  0.3202  0.7676  0.0237
   11CHTO  H114 4440   7.430   6.545   3.791 -1.3874  1.9609 -0.9668
   11CHTO   N10 4441   7.603   6.534   3.678 -0.8073 -0.0033  0.1345
   11CHTO  H106 4442   7.696   6.588   3.691 -1.3862  0.7456  1.2402
   11CHTO  H107 4443   7.611   6.441   3.732  1.3735  1.0153  1.6634
   11CHTO   C58 4444   7.412   6.707   3.666  0.7830  0.4176 -0.0214
   11CHTO  H115 4445   7.473   6.794   3.636  1.8235 -0.5402 -0.6849
   11CHTO   O37 4446   7.304   6.760   3.755 -0.0806 -0.0146 -0.9121
   11CHTO   C59 4447   7.360   6.848   3.856  0.1739 -0.0028  0.0457
   11CHTO  H116 4448   7.421   6.923   3.805  0.5580  0.5149  1.2601
   11CHTO   C70 4449   7.250   6.927   3.935 -0.2629 -0.5444  0.4292
   11CHTO   O46 4450   7.164   6.850   4.022  0.1438 -0.0529 -0.0223
   11CHTO  H103 4451   7.215   6.829   4.098  2.4529  0.4157 -1.4022
   11CHTO   O39 4452   7.347   6.642   3.529  0.4518 -0.5891 -0.6158
   11CHTO   C60 4453   7.219   6.693   3.497 -0.4637  0.3027  0.4733
   11CHTO  H117 4454   7.151   6.671   3.579  0.1620  0.3337  1.0044
   11CHTO   C62 4455   7.206   6.848   3.479  0.1041 -0.8473  0.3453
   11CHTO  H119 4456   7.230   6.886   3.581 -1.6768 -0.7251  0.7286
   11CHTO   O43 4457   7.308   6.905   3.392  0.2021 -0.3051 -0.5275
   11CHTO  H101 4458   7.319   6.998   3.391 -0.2130 -0.2377  0.5448
   11CHTO   C66 4459   7.057   6.896   3.444 -0.0713  0.0999 -0.6440
   11CHTO  H123 4460   6.989   6.869   3.525  1.5779  1.2565  1.1664
   11CHTO   N12 4461   7.037   7.040   3.429 -0.2031 -0.4410  0.0446
   11CHTO  H110 4462   6.981   7.081   3.512 -1.7052 -1.4163 -0.4487
   11CHTO  H111 4463   6.989   7.072   3.337  0.4497 -0.1343 -0.1929
   11CHTO   C69 4464   7.008   6.827   3.314 -0.5519 -0.6626  0.0982
   11CHTO  H126 4465   7.063   6.871   3.228  0.3297 -0.1760  0.8916
   11CHTO   O41 4466   7.026   6.672   3.317  0.2276  0.0119 -0.3506
   11CHTO   C64 4467   7.158   6.619   3.372 -0.2051 -0.4072  0.4968
   11CHTO  H121 4468   7.230   6.617   3.287 -1.3140  0.6913 -0.4847
   11CHTO   C71 4469   7.147   6.465   3.408 -0.1104  0.2231 -0.8106
   11CHTO   O47 4470   7.094   6.392   3.294 -1.2401  0.1494  0.0551
   11CHTO  H104 4471   7.166   6.364   3.241 -1.8488 -2.4862  0.5229
   11CHTO   O34 4472   6.840   6.865   3.286  0.4259  0.3754 -0.1495
   11CHTO   C49 4473   6.727   6.777   3.232 -0.2733  0.0511  0.3637
   11CHTO   H91 4474   6.769   6.722   3.148 -0.2734 -1.0603  1.0787
   11CHTO   C47 4475   6.609   6.854   3.172  0.2388  0.2039  0.2482
   11CHTO   H89 4476   6.552   6.778   3.114  0.5682 -0.7015  1.0850
   11CHTO   O33 4477   6.659   6.947   3.077 -0.0942 -0.2522  0.3224
   11CHTO   H70 4478   6.590   6.996   3.035  0.1515 -1.2739 -1.3092
   11CHTO   C45 4479   6.516   6.923   3.290 -0.6171 -0.2209  0.0172
   11CHTO   H87 4480   6.569   6.997   3.351 -0.8974 -0.2521  0.3047
   11CHTO    N8 4481   6.394   6.988   3.235  0.4863 -0.2011  0.6177
   11CHTO   H75 4482   6.311   6.970   3.302 -0.3744  2.4059  0.3062
   11CHTO   H76 4483   6.408   7.095   3.229 -0.4564 -0.2458 -3.6422
   11CHTO   C43 4484   6.477   6.813   3.403  0.8510 -0.2191  0.9048
   11CHTO   H85 4485   6.436   6.865   3.489  3.0173 -0.6474  2.2318
   11CHTO   O29 4486   6.593   6.742   3.439  0.0799  0.9236 -0.1052
   11CHTO   C50 4487   6.679   6.683   3.336 -0.1025 -0.1269 -0.2213
   11CHTO   H92 4488   6.763   6.639   3.391  0.8524 -0.6200 -2.0446
   11CHTO   C54 4489   6.618   6.551   3.270  0.6854  0.1992  0.0978
   11CHTO   O36 4490   6.628   6.436   3.360  0.3816  0.2804  0.2608
   11CHTO   H72 4491   6.583   6.451   3.441 -0.9143 -1.3402 -0.1209
   11CHTO   O27 4492   6.369   6.719   3.365 -0.0912 -0.5628  0.2458
   11CHTO   C37 4493   6.275   6.629   3.425  0.2406  0.1176  0.5854
   11CHTO   H79 4494   6.331   6.542   3.463  2.8256  1.1032 -0.8455
   11CHTO   C38 4495   6.188   6.684   3.542 -0.0536 -0.8875  0.4050
   11CHTO   H80 4496   6.138   6.773   3.501 -1.9316 -1.4753  1.3941
   11CHTO   O31 4497   6.284   6.716   3.650  0.2964  0.5373 -0.7174
   11CHTO   H68 4498   6.241   6.757   3.723 -1.3217 -1.3725 -0.5699
   11CHTO   C39 4499   6.079   6.585   3.594  0.6272 -0.5778 -0.1090
   11CHTO   H81 4500   6.131   6.505   3.647  0.7208  0.0047  0.6928
   11CHTO    N7 4501   5.992   6.653   3.700 -0.1746  0.2173 -0.2419
   11CHTO   H73 4502   6.059   6.663   3.784 -0.0135 -0.5526 -0.2712
   11CHTO   H74 4503   5.958   6.752   3.673  1.8176  0.8513 -0.5169
   11CHTO   C40 4504   5.989   6.535   3.477 -0.4075 -0.8461  0.3567
   11CHTO   H82 4505   5.920   6.613   3.446  0.9292 -0.2365 -1.0971
   11CHTO   O26 4506   6.069   6.490   3.370 -0.6032 -0.0315  0.1896
   11CHTO   C41 4507   6.177   6.576   3.320  0.5118 -0.2745  0.6271
   11CHTO   H83 4508   6.132   6.662   3.268  1.7151 -0.0102  0.0206
   11CHTO   C52 4509   6.249   6.478   3.222  0.6619 -0.1191  0.0120
   11CHTO   O35 4510   6.293   6.353   3.275  0.1977  0.2260  0.0634
   11CHTO   H71 4511   6.386   6.347   3.265  0.3981 -0.5766  2.0496
   11CHTO   O28 4512   5.925   6.415   3.518 -0.2639 -0.3594  0.4121
   11CHTO   C42 4513   5.792   6.382   3.479 -0.1843 -0.4783  0.1799
   11CHTO   H84 4514   5.790   6.400   3.371  1.7111  1.1389  0.3815
   11CHTO   C44 4515   5.677   6.469   3.537  0.2103  0.0156 -0.6431
   11CHTO   H86 4516   5.690   6.474   3.645 -2.0292 -1.3818 -0.2805
   11CHTO   O32 4517   5.676   6.594   3.478  0.5479 -0.4297  0.4448
   11CHTO   H69 4518   5.730   6.655   3.524 -0.6017  2.5975 -2.0367
   11CHTO   C48 4519   5.532   6.401   3.518 -0.0992  0.6859  0.1688
   11CHTO   H90 4520   5.508   6.414   3.412  1.1457  0.7934 -0.1058
   11CHTO    N9 4521   5.415   6.465   3.582  0.2307  0.0694 -0.3583
   11CHTO   H77 4522   5.406   6.572   3.588 -0.3533  0.1300 -2.1485
   11CHTO   H78 4523   5.319   6.425   3.552  0.2193  0.4041 -0.7586
   11CHTO   C51 4524   5.542   6.249   3.561  0.2299  0.0379  0.1703
   11CHTO   H93 4525   5.568   6.244   3.667  0.8988  3.6344  0.2428
   11CHTO   O30 4526   5.634   6.179   3.475  0.8335  0.0219 -0.6304
   11CHTO   C46 4527   5.777   6.231   3.499 -0.2301 -0.5708 -0.2776
   11CHTO   H88 4528   5.805   6.214   3.603 -0.9363 -2.4106 -0.3813
   11CHTO   C53 4529   5.865   6.147   3.416  0.3624 -0.2042 -0.4154
   11CHTO   O72 4530   5.870   6.008   3.453  0.3853  0.8190 -0.6471
   11CHTO  H199 4531   5.786   5.969   3.464  0.7853 -0.4865 -2.0755
   11CHTO   O22 4532   5.425   6.165   3.538 -0.3082  0.3741 -0.2036
   11CHTO   C31 4533   5.401   6.047   3.629  0.1577  0.6257 -0.0982
   11CHTO   H59 4534   5.502   6.007   3.655 -0.4672 -1.3307 -0.6063
   11CHTO   C29 4535   5.322   6.063   3.765  0.4460 -0.4026  0.1575
   11CHTO   H57 4536   5.224   6.101   3.734  0.0628 -2.9427 -1.8803
   11CHTO   O21 4537   5.392   6.159   3.840  0.8638  0.0261  0.1589
   11CHTO   H37 4538   5.331   6.190   3.904  0.3008  0.5609 -0.6166
   11CHTO   C27 4539   5.304   5.917   3.838 -0.0309  0.0796 -0.2587
   11CHTO   H55 4540   5.401   5.873   3.865 -0.4662  0.2240  1.5867
   11CHTO    N5 4541   5.224   5.931   3.953  0.3494  0.1529  0.7531
   11CHTO   H43 4542   5.209   6.032   3.990 -2.1221  0.3428 -0.6043
   11CHTO   H44 4543   5.233   5.848   4.021 -0.8622  0.5950  1.4775
   11CHTO   C25 4544   5.251   5.814   3.735 -0.5643 -0.7513  0.0520
   11CHTO   H53 4545   5.148   5.843   3.712  0.0295 -0.1449 -1.8874
   11CHTO   O17 4546   5.328   5.811   3.611 -0.0451  0.3174  0.1261
   11CHTO   C32 4547   5.332   5.933   3.542  0.0699 -0.3131  0.1723
   11CHTO   H60 4548   5.228   5.960   3.521  0.3448  0.4590 -0.2049
   11CHTO   C36 4549   5.411   5.910   3.409 -0.1254 -0.3930  0.7790
   11CHTO   O25 4550   5.335   5.824   3.326  0.5521  0.1647  0.0795
   11CHTO   H40 4551   5.377   5.756   3.279 -0.3831 -0.2947 -0.0994
   11CHTO   O15 4552   5.256   5.659   3.806 -0.0649  0.5887  0.5946
   11CHTO   C19 4553   5.144   5.563   3.805  0.5093  0.4037  0.9724
   11CHTO   H47 4554   5.176   5.492   3.883  0.2392 -1.2294 -0.4017
   11CHTO   C20 4555   5.003   5.607   3.834 -0.1189 -0.0019  0.7734
   11CHTO   H48 4556   4.963   5.670   3.753 -0.3299  0.1103  0.9638
   11CHTO   O19 4557   5.001   5.673   3.960  0.1294  0.8450 -0.4746
   11CHTO   H35 4558   5.065   5.741   3.959  0.2812  0.7144  0.2228
   11CHTO   C21 4559   4.904   5.479   3.840  0.4772  0.3274 -0.2593
   11CHTO   H49 4560   4.931   5.421   3.928 -1.2314  1.3407  0.9492
   11CHTO    N4 4561   4.760   5.512   3.853  0.0523  0.0955 -0.4977
   11CHTO   H41 4562   4.729   5.460   3.943 -0.9525  0.2398 -0.7565
   11CHTO   H42 4563   4.747   5.618   3.871  1.7112 -0.1835  2.8460
   11CHTO   C22 4564   4.909   5.398   3.707  0.2199  0.6167 -0.1591
   11CHTO   H50 4565   4.876   5.456   3.622  0.3409 -0.3186 -0.8489
   11CHTO   O14 4566   5.047   5.364   3.690  0.0975  0.0717 -0.1111
   11CHTO   C23 4567   5.138   5.474   3.673  0.7352  0.0572  0.2534
   11CHTO   H51 4568   5.106   5.530   3.584  1.2619 -0.5911 -0.3519
   11CHTO   C34 4569   5.272   5.414   3.645 -0.3961 -0.3330 -1.3457
   11CHTO   O23 4570   5.272   5.368   3.509  0.7048  0.4125  0.1166
   11CHTO   H38 4571   5.209   5.299   3.501 -0.5643  1.4280  1.0639
   11CHTO   O16 4572   4.843   5.269   3.714 -0.0594 -0.4028  0.1952
   11CHTO   C24 4573   4.767   5.241   3.569 -0.1333  0.2529 -0.0473
   11CHTO   H52 4574   4.796   5.314   3.493 -0.2304  0.1562 -0.1783
   11CHTO   C26 4575   4.616   5.230   3.591  0.5433 -0.3495 -0.6737
   11CHTO   H54 4576   4.587   5.169   3.680 -1.9903 -1.0883 -1.9399
   11CHTO   O20 4577   4.566   5.361   3.617  0.6644  0.2059  0.6436
   11CHTO   H36 4578   4.487   5.359   3.667 -1.5935 -4.1921 -2.7567
   11CHTO   C30 4579   4.541   5.165   3.477  0.2752  0.2162  0.0929
   11CHTO   H58 4580   4.525   5.249   3.408  2.2483 -1.3553 -2.3527
   11CHTO    N6 4581   4.402   5.122   3.500  0.1070 -0.2277 -0.6834
   11CHTO   H45 4582   4.398   5.072   3.595  0.2641  1.7550  0.3944
   11CHTO   H46 4583   4.356   5.066   3.419  1.1563  0.5898 -1.8561
   11CHTO   C33 4584   4.621   5.049   3.410 -0.0298 -0.1444  0.7534
   11CHTO   H61 4585   4.611   4.954   3.465  1.9920  0.2290  1.8209
   11CHTO   O18 4586   4.763   5.070   3.401  0.4415 -0.3194 -0.3881
   11CHTO   C28 4587   4.828   5.104   3.523  0.2800 -0.0719  0.1391
   11CHTO   H56 4588   4.807   5.025   3.595 -0.6026 -0.4807 -0.5605
   11CHTO   C35 4589   4.986   5.106   3.500  0.1616 -0.0302  0.2629
   11CHTO   O24 4590   5.040   4.977   3.486 -0.1382  0.2783  0.6545
   11CHTO   H39 4591   5.126   4.972   3.521 -0.6052  0.6409  1.8826
   11CHTO    O9 4592   4.571   5.018   3.281 -0.0439  0.1959 -0.0324
   11CHTO   C13 4593   4.614   5.138   3.167  0.5192 -0.2683 -0.5432
   11CHTO   H26 4594   4.653   5.224   3.225 -0.3473 -0.1498 -0.1336
   11CHTO   C11 4595   4.484   5.179   3.091  0.6074  0.0428  0.1656
   11CHTO   H24 4596   4.416   5.221   3.165  0.3997  0.8623 -0.4806
   11CHTO    O8 4597   4.418   5.052   3.050  0.3124 -0.4502 -0.1924
   11CHTO    H3 4598   4.440   5.041   2.960  1.2237  0.1528 -0.0551
   11CHTO    C9 4599   4.521   5.291   2.996  0.0247 -0.7969  0.3514
   11CHTO   H22 4600   4.510   5.382   3.057 -0.7851  0.6553 -1.8750
   11CHTO    N2 4601   4.423   5.294   2.887  0.1351 -0.5366 -0.1283
   11CHTO   H10 4602   4.355   5.376   2.908 -0.0415 -1.1604  1.7702
   11CHTO   H11 4603   4.367   5.204   2.869  1.2886 -0.6809 -3.3280
   11CHTO    C7 4604   4.668   5.293   2.947 -0.3258  0.0144 -0.8312
   11CHTO   H20 4605   4.712   5.347   3.033  0.2169 -1.8492  0.0955
   11CHTO    O4 4606   4.719   5.155   2.936 -0.2379  0.5409  0.6061
   11CHTO   C14 4607   4.728   5.088   3.061 -0.7399 -0.0284  0.0238
   11CHTO   H27 4608   4.831   5.100   3.103 -0.6722  3.0940 -0.9329
   11CHTO   C18 4609   4.715   4.936   3.020 -0.1324 -0.0543 -0.2863
   11CHTO   O13 4610   4.731   4.847   3.130  0.1910  0.0460 -0.0592
   11CHTO    H7 4611   4.665   4.867   3.194  1.8776  2.3541  1.0682
   11CHTO    O2 4612   4.712   5.365   2.819  0.7588 -0.0835 -0.0766
   11CHTO    C1 4613   4.850   5.411   2.834  0.1856 -0.3748 -0.0058
   11CHTO   H14 4614   4.902   5.354   2.913  0.0248 -1.1094 -0.4240
   11CHTO    C2 4615   4.850   5.570   2.877 -0.2233  0.0477  0.3375
   11CHTO   H15 4616   4.787   5.618   2.801  0.5534  2.0343  0.8870
   11CHTO    O6 4617   4.791   5.589   3.009 -0.3068  0.0350 -0.0939
   11CHTO    H1 4618   4.823   5.674   3.030 -0.8912  0.1544  0.2983
   11CHTO    C3 4619   5.000   5.627   2.869  0.5611  0.8482  1.0488
   11CHTO   H16 4620   5.059   5.594   2.956 -0.3755  1.4405  1.9362
   11CHTO    N1 4621   4.997   5.780   2.880 -1.0034  0.6315 -0.3455
   11CHTO    H8 4622   5.083   5.830   2.922 -0.7939  0.8324 -1.0089
   11CHTO    H9 4623   4.909   5.827   2.920 -1.2500  0.1540 -0.3148
   11CHTO    C4 4624   5.070   5.568   2.738  0.3066 -0.5586  0.0739
   11CHTO   H17 4625   5.023   5.612   2.650 -0.4223 -0.6144  0.4240
   11CHTO    O1 4626   5.058   5.425   2.735  0.2086 -0.1935  0.1524
   11CHTO    C5 4627   4.922   5.388   2.700  0.0141  0.3762  0.0233
   11CHTO   H18 4628   4.881   5.447   2.618  0.5778  2.0159  0.8823
   11CHTO   C16 4629   4.929   5.229   2.662 -0.0002  0.7549  0.6382
   11CHTO   O11 4630   4.964   5.140   2.767 -0.1577 -0.3162 -0.4056
   11CHTO    H5 4631   4.902   5.143   2.838 -0.2267  1.1155 -0.5009
   11CHTO    O3 4632   5.208   5.605   2.747 -0.5420 -0.7695 -0.1973
   11CHTO    C6 4633   5.283   5.634   2.622  0.4735 -0.1182 -0.7560
   11CHTO   H19 4634   5.237   5.600   2.530 -2.5366 -0.2338  0.7566
   11CHTO    C8 4635   5.297   5.784   2.595  0.2949 -0.4475  0.3012
   11CHTO   H21 4636   5.329   5.830   2.689  2.6633  2.2668 -1.7442
   11CHTO    O7 4637   5.158   5.829   2.567  0.3785 -0.2583 -0.8451
   11CHTO    H2 4638   5.108   5.775   2.509  0.0042 -2.0124  1.0307
   11CHTO   C12 4639   5.392   5.812   2.476 -0.1400 -0.2299 -0.9020
   11CHTO   H25 4640   5.341   5.766   2.388 -0.2506  0.8583 -1.4141
   11CHTO    N3 4641   5.405   5.955   2.451 -0.1730 -0.1828 -0.1767
   11CHTO   H12 4642   5.442   5.988   2.355  1.3097  0.9778  0.7673
   11CHTO   H13 4643   5.313   6.010   2.468 -0.1508  0.5046 -2.1284
   11CHTO   C15 4644   5.527   5.741   2.499  0.7140  0.1005 -0.1007
   11CHTO   H28 4645   5.565   5.772   2.596 -2.8794  0.7947  1.1199
   11CHTO   O10 4646   5.633   5.754   2.379  0.3765  0.3253 -0.5623
   11CHTO    H4 4647   5.648   5.844   2.360  0.7471 -0.2068 -3.0074
   11CHTO    O5 4648   5.506   5.599   2.512  0.1692 -0.0499 -0.4777
   11CHTO   C10 4649   5.427   5.563   2.627  0.6547 -0.1162  0.4686
   11CHTO   H23 4650   5.480   5.598   2.715 -0.9831 -0.5779  1.6483
   11CHTO   C17 4651   5.426   5.410   2.625  0.0972  1.0912 -0.1119
   11CHTO   O12 4652   5.558   5.349   2.621  0.3292  0.3401  0.1175
   11CHTO    H6 4653   5.541   5.261   2.593 -0.5856  0.7143 -0.5362
   12CHTO  H203 4654   4.535   1.808   1.739  0.2029 -0.1102 -0.2180
   12CHTO   O82 4655   4.543   1.880   1.800  0.3545  0.1134 -0.5022
   12CHTO  C123 4656   4.632   1.857   1.909  0.3232 -0.1893 -0.9754
   12CHTO  H227 4657   4.698   1.945   1.920  0.5337 -0.3747 -0.7338
   12CHTO   O77 4658   4.554   1.865   2.031 -0.1447  0.1183  0.7015
   12CHTO  C118 4659   4.633   1.858   2.147  0.8239 -0.3733 -0.4785
   12CHTO  H222 4660   4.709   1.937   2.155 -0.2763  0.4487  2.3726
   12CHTO  C125 4661   4.533   1.882   2.265  0.0484  0.0166 -0.2211
   12CHTO   O84 4662   4.504   2.022   2.282 -0.0316 -0.6200 -0.3627
   12CHTO  H205 4663   4.424   2.035   2.328 -0.3437 -1.8055 -0.5386
   12CHTO  C114 4664   4.707   1.722   2.158  0.2715 -0.0510 -0.4987
   12CHTO  H218 4665   4.637   1.639   2.160 -1.6674  1.5573 -0.1340
   12CHTO  C116 4666   4.796   1.690   2.030  0.1744  0.5384  0.0040
   12CHTO  H220 4667   4.894   1.742   2.040  2.3649 -3.5173  0.5508
   12CHTO   O79 4668   4.832   1.559   2.044 -0.1242  0.4914 -0.0983
   12CHTO  H201 4669   4.871   1.537   2.126 -2.1180  0.4080  0.8530
   12CHTO  C120 4670   4.714   1.718   1.895  0.2040  0.4181 -0.2188
   12CHTO  H224 4671   4.650   1.627   1.892  2.3204 -1.1146 -0.8676
   12CHTO   N21 4672   4.804   1.711   1.773 -0.9002  0.0988 -0.3143
   12CHTO  H211 4673   4.791   1.607   1.747 -1.6202 -0.8443  3.4589
   12CHTO  H212 4674   4.777   1.776   1.691 -0.2650  0.6023 -0.1255
   12CHTO   O75 4675   4.788   1.736   2.273 -0.1621 -0.1473 -0.5096
   12CHTO  C112 4676   4.753   1.644   2.386  0.2405  0.7003  0.4923
   12CHTO  H216 4677   4.704   1.559   2.337  2.1007 -0.6066  0.8860
   12CHTO   O73 4678   4.670   1.710   2.480 -0.5897 -0.2238  0.4952
   12CHTO  C113 4679   4.602   1.613   2.557 -0.0827  0.3628  0.1683
   12CHTO  H217 4680   4.563   1.527   2.498  3.1675 -0.4460 -0.8935
   12CHTO  C124 4681   4.479   1.679   2.624  0.2750  0.7435  0.6270
   12CHTO   O83 4682   4.386   1.588   2.689 -0.2212  0.3316  0.2158
   12CHTO  H204 4683   4.351   1.532   2.622  0.3990  0.0930  0.0857
   12CHTO  C109 4684   4.701   1.553   2.657  0.5015 -0.2889  0.0385
   12CHTO  H213 4685   4.730   1.633   2.726  3.5921 -0.1179 -1.3536
   12CHTO  C110 4686   4.830   1.502   2.581 -0.1305 -0.1707 -0.4948
   12CHTO  H214 4687   4.799   1.409   2.535 -3.4295 -0.9614  3.0878
   12CHTO   O78 4688   4.936   1.483   2.681  0.0913  0.2042  0.0041
   12CHTO  H200 4689   4.900   1.455   2.763  0.3172  1.7038  0.6401
   12CHTO  C111 4690   4.879   1.595   2.468  0.0879  0.4412  0.4880
   12CHTO  H215 4691   4.933   1.682   2.506  1.9536  0.2406 -1.6220
   12CHTO   N19 4692   4.972   1.513   2.384  0.0767  0.0559  0.3190
   12CHTO  H207 4693   5.018   1.593   2.327  0.2315 -0.0620  0.2777
   12CHTO  H208 4694   4.903   1.453   2.327  0.0564  0.5218 -0.1592
   12CHTO   O74 4695   4.636   1.448   2.734 -0.3501  0.1412 -0.0317
   12CHTO  C115 4696   4.703   1.424   2.889 -0.2835 -0.8251  0.8539
   12CHTO  H219 4697   4.773   1.504   2.913  0.9821 -1.3721 -0.8662
   12CHTO   O76 4698   4.591   1.435   2.997  0.2440  0.1471 -0.7864
   12CHTO  C122 4699   4.489   1.335   2.991  0.3078 -0.2916 -0.5902
   12CHTO  H226 4700   4.416   1.378   2.923  0.3007 -1.4504 -1.3257
   12CHTO  C126 4701   4.406   1.312   3.133 -0.4405 -0.1320  0.6351
   12CHTO   O85 4702   4.321   1.204   3.123  0.1417  0.3590 -0.4688
   12CHTO  H206 4703   4.376   1.131   3.148  1.4215  1.8058  1.1020
   12CHTO  C121 4704   4.537   1.198   2.925  0.2894 -1.1273  0.5214
   12CHTO  H225 4705   4.474   1.118   2.969 -0.6225 -0.0833  1.1612
   12CHTO   O81 4706   4.492   1.199   2.787 -0.4842 -0.1674 -0.3020
   12CHTO  H202 4707   4.398   1.193   2.787 -0.3586 -2.5190 -0.4438
   12CHTO  C119 4708   4.684   1.171   2.958 -0.0270 -0.4825  0.0698
   12CHTO  H223 4709   4.678   1.182   3.066 -1.3293 -0.3465 -0.0118
   12CHTO  C117 4710   4.773   1.281   2.896 -0.7628  0.1557 -0.4954
   12CHTO  H221 4711   4.805   1.263   2.793 -1.5525  0.0201 -0.7189
   12CHTO   N20 4712   4.900   1.290   2.971 -0.0655 -0.1618 -0.6134
   12CHTO  H209 4713   4.952   1.197   2.985  1.0775  0.6037  0.3606
   12CHTO  H210 4714   4.886   1.340   3.065  1.4423  0.1820 -0.5487
   12CHTO   O80 4715   4.722   1.026   2.948 -0.2169 -0.0082 -0.4522
   12CHTO  C103 4716   4.697   0.938   2.817  0.0168  0.0893 -0.4994
   12CHTO  H190 4717   4.617   0.980   2.756  0.1014 -0.4598 -0.9858
   12CHTO  C101 4718   4.828   0.920   2.725 -0.2581  0.2795 -0.4065
   12CHTO  H188 4719   4.919   0.911   2.786 -0.3602 -1.7541 -0.5256
   12CHTO   O68 4720   4.834   1.050   2.635  0.0210  0.0541  0.6462
   12CHTO  H168 4721   4.746   1.075   2.615 -0.3551 -0.7506  1.2608
   12CHTO   C99 4722   4.812   0.792   2.637 -0.2328 -0.4326 -0.2904
   12CHTO  H186 4723   4.717   0.814   2.583 -0.0342 -0.5554 -0.6939
   12CHTO   N17 4724   4.923   0.765   2.538  0.4587  0.1515  0.1948
   12CHTO  H174 4725   4.958   0.664   2.555 -0.3187  0.2723  2.5577
   12CHTO  H175 4726   4.886   0.792   2.440  4.2570 -1.0503 -1.6627
   12CHTO   C97 4727   4.785   0.675   2.728  0.2211 -0.4021 -0.0359
   12CHTO  H184 4728   4.861   0.672   2.808  0.2442 -0.2403 -0.0511
   12CHTO   O64 4729   4.658   0.708   2.776  0.1492  0.2269 -0.5835
   12CHTO  C104 4730   4.646   0.807   2.880  0.1279 -0.6582 -0.3639
   12CHTO  H191 4731   4.713   0.778   2.961  2.2929 -1.5258 -2.3867
   12CHTO  C108 4732   4.507   0.788   2.931  0.4990  0.0314  0.4684
   12CHTO   O71 4733   4.471   0.879   3.036  0.8985  0.2836  0.6080
   12CHTO  H171 4734   4.379   0.886   3.053  0.8234  0.3359  0.1979
   12CHTO   O62 4735   4.747   0.559   2.652  0.4898  0.0136 -0.3244
   12CHTO   C91 4736   4.803   0.431   2.698 -0.7298  0.2696  0.0920
   12CHTO  H178 4737   4.875   0.449   2.777 -0.0296 -0.9532 -0.2575
   12CHTO   C92 4738   4.889   0.360   2.592  0.3120 -0.8867  0.2252
   12CHTO  H179 4739   4.848   0.376   2.491  0.8277  0.5182  0.2407
   12CHTO   O66 4740   5.012   0.427   2.591  0.2068  0.4605  0.3248
   12CHTO  H166 4741   5.006   0.518   2.568 -2.0406  0.4869  0.8829
   12CHTO   C93 4742   4.919   0.206   2.609  0.1580  0.4116 -0.7543
   12CHTO  H180 4743   4.995   0.197   2.688  1.0755 -0.3863 -1.7136
   12CHTO   N16 4744   4.991   0.137   2.495  0.3961  0.0163 -0.2040
   12CHTO  H172 4745   5.003   0.031   2.508 -0.2106  0.1706  1.8106
   12CHTO  H173 4746   4.958   0.167   2.397  1.5360  0.3473 -0.4925
   12CHTO   C94 4747   4.789   0.137   2.656  0.6424  0.7461 -0.4506
   12CHTO  H181 4748   4.710   0.149   2.582  0.0287 -1.9755 -0.2890
   12CHTO   O61 4749   4.740   0.204   2.775 -0.4920 -0.2981 -0.3488
   12CHTO   C95 4750   4.687   0.332   2.745 -0.1605 -1.2518  1.9093
   12CHTO  H182 4751   4.608   0.321   2.671  1.7003 -1.3091 -0.1290
   12CHTO  C106 4752   4.614   0.376   2.876  1.0830  0.8539  0.0170
   12CHTO   O69 4753   4.489   0.309   2.875  0.3445  0.2524  0.3873
   12CHTO  H169 4754   4.433   0.328   2.948  0.1591  1.0243  0.0494
   12CHTO   O63 4755   4.796  -0.013   2.699 -0.5059  0.1769  0.7253
   12CHTO   C96 4756   4.927  -0.051   2.807 -0.1175  0.1215 -0.3474
   12CHTO  H183 4757   4.988   0.036   2.830 -1.3377  0.8862  0.0484
   12CHTO   C98 4758   5.007  -0.160   2.743 -1.2941 -0.0143  0.1687
   12CHTO  H185 4759   4.937  -0.232   2.697 -0.3298 -1.1312  0.4200
   12CHTO   O67 4760   5.096  -0.110   2.636 -0.0737 -0.3288 -0.4790
   12CHTO  H167 4761   5.063  -0.117   2.548  0.3657  0.4085 -0.6979
   12CHTO  C102 4762   5.098  -0.245   2.856 -0.9983 -0.2731 -0.3216
   12CHTO  H189 4763   5.183  -0.181   2.884 -0.0531 -1.4448 -0.4590
   12CHTO   N18 4764   5.160  -0.367   2.797 -0.2816 -0.5594 -0.0111
   12CHTO  H176 4765   5.204  -0.339   2.703 -1.1307 -1.0627 -0.5735
   12CHTO  H177 4766   5.238  -0.391   2.868  2.8178  0.5697 -2.9366
   12CHTO  C105 4767   5.019  -0.280   2.980 -0.1890 -0.0801 -0.3830
   12CHTO  H192 4768   4.951  -0.361   2.951  0.9305 -1.1613 -0.0450
   12CHTO   O65 4769   4.949  -0.164   3.029  0.1601  0.2282  0.0499
   12CHTO  C100 4770   4.858  -0.098   2.941 -0.3710  0.0479 -0.1329
   12CHTO  H187 4771   4.774  -0.162   2.913  0.3893 -0.5855 -1.0378
   12CHTO  C107 4772   4.796   0.013   3.029 -0.4228 -0.8641 -0.3561
   12CHTO   O70 4773   4.886   0.124   3.041  0.4012  0.7510 -0.6792
   12CHTO  H170 4774   4.954   0.104   3.102 -0.0285  0.4018 -0.3065
   12CHTO   O57 4775   5.133  -0.314   3.102  0.2315 -0.1172  0.0660
   12CHTO   C85 4776   5.079  -0.401   3.202 -0.2063 -0.5674  0.5028
   12CHTO  H157 4777   4.993  -0.449   3.151  1.6728 -2.2387 -1.1531
   12CHTO   C83 4778   5.035  -0.323   3.329 -1.0761  0.2676  0.6356
   12CHTO  H155 4779   4.956  -0.254   3.295 -1.6600  0.4514  2.3197
   12CHTO   O56 4780   5.138  -0.237   3.379 -0.7051  0.1317 -0.3536
   12CHTO  H135 4781   5.168  -0.171   3.320  1.5615  0.8678  1.5559
   12CHTO   C81 4782   4.974  -0.424   3.429  0.6859 -0.2927 -0.2349
   12CHTO  H153 4783   4.906  -0.495   3.381  0.6312 -2.3180  2.6501
   12CHTO   N14 4784   4.901  -0.354   3.539  0.8266 -0.4902 -0.0356
   12CHTO  H141 4785   4.805  -0.400   3.536  0.6669 -0.1098 -0.6647
   12CHTO  H142 4786   4.884  -0.249   3.532 -1.3558 -0.9463 -2.1760
   12CHTO   C79 4787   5.091  -0.509   3.488  0.2763  0.4748  0.4606
   12CHTO  H151 4788   5.047  -0.574   3.564 -0.5592 -1.5857 -1.7158
   12CHTO   O52 4789   5.148  -0.588   3.377  0.1628 -0.0549 -0.1265
   12CHTO   C86 4790   5.183  -0.513   3.254 -0.1215  0.1818  0.2521
   12CHTO  H158 4791   5.278  -0.465   3.284 -0.2926  0.2671  0.6645
   12CHTO   C90 4792   5.213  -0.610   3.137  0.0353 -0.3944  0.1579
   12CHTO   O60 4793   5.293  -0.553   3.036  0.0394 -0.3080  0.2641
   12CHTO  H138 4794   5.251  -0.562   2.952 -0.7002 -0.8651  0.6803
   12CHTO   O50 4795   5.191  -0.441   3.578  0.4260  0.0848  0.1772
   12CHTO   C73 4796   5.256  -0.444   3.703 -0.0141 -0.0444 -0.4294
   12CHTO  H145 4797   5.201  -0.491   3.786 -2.3326  1.0748 -1.2999
   12CHTO   C74 4798   5.273  -0.299   3.751 -0.3775 -1.0794  0.0989
   12CHTO  H146 4799   5.172  -0.256   3.758  0.3297  1.0661 -2.1238
   12CHTO   O54 4800   5.325  -0.300   3.883 -0.0451 -0.6527  0.4647
   12CHTO  H133 4801   5.391  -0.235   3.898 -2.0070  1.7150 -0.9342
   12CHTO   C75 4802   5.364  -0.221   3.652  0.0774  0.1585 -0.0427
   12CHTO  H147 4803   5.308  -0.218   3.557 -1.3063  1.2278  0.7934
   12CHTO   N13 4804   5.396  -0.077   3.675  0.5630  0.1744 -0.7841
   12CHTO  H139 4805   5.477  -0.036   3.616 -0.5006  1.3347 -1.4656
   12CHTO  H140 4806   5.305  -0.023   3.654  1.8353  2.7428  0.1595
   12CHTO   C76 4807   5.501  -0.305   3.626  0.0475  0.4766 -0.0857
   12CHTO  H148 4808   5.561  -0.293   3.716  0.6883 -1.3465 -0.2520
   12CHTO   O49 4809   5.468  -0.440   3.596 -0.0954 -0.3068  0.5217
   12CHTO   C77 4810   5.393  -0.510   3.692 -0.8075 -0.0800  0.0515
   12CHTO  H149 4811   5.446  -0.517   3.787  0.0587  0.4247 -0.3815
   12CHTO   C88 4812   5.371  -0.655   3.647  0.4094 -0.4931  0.3866
   12CHTO   O58 4813   5.513  -0.721   3.648 -0.5772  0.0485  0.4082
   12CHTO  H136 4814   5.519  -0.769   3.567 -0.6157  0.3637  0.2165
   12CHTO   O51 4815   5.576  -0.264   3.497 -0.5283 -0.5627  0.4410
   12CHTO   C78 4816   5.719  -0.343   3.488 -0.8668 -0.4797  0.0694
   12CHTO  H150 4817   5.726  -0.431   3.555  0.4737 -1.5641 -1.4389
   12CHTO   C80 4818   5.839  -0.245   3.501  0.4463  0.2612  1.1217
   12CHTO  H152 4819   5.816  -0.156   3.439 -0.6573 -0.9231 -0.1782
   12CHTO   O55 4820   5.835  -0.188   3.635  0.6025 -0.2531  0.1020
   12CHTO  H134 4821   5.910  -0.133   3.648 -0.0843  0.3709  1.4479
   12CHTO   C84 4822   5.974  -0.321   3.459 -0.3293  0.0304 -0.1506
   12CHTO  H156 4823   6.000  -0.389   3.540  1.5892  1.0508  0.1248
   12CHTO   N15 4824   6.082  -0.218   3.449 -0.0596 -0.3976 -0.1879
   12CHTO  H143 4825   6.178  -0.262   3.429  0.1535 -0.0832  0.1518
   12CHTO  H144 4826   6.052  -0.152   3.370  2.4153  0.3597 -0.5512
   12CHTO   C87 4827   5.958  -0.400   3.328  0.2972  0.1746 -0.5041
   12CHTO  H159 4828   5.956  -0.332   3.243 -2.2768 -0.7095 -1.2003
   12CHTO   O53 4829   5.839  -0.479   3.326 -0.3133  0.4887  0.0409
   12CHTO   C82 4830   5.722  -0.399   3.348 -0.0863  0.3297  0.8851
   12CHTO  H154 4831   5.719  -0.319   3.274 -0.3680  0.1630  0.7170
   12CHTO   C89 4832   5.602  -0.486   3.327  0.6663  0.4430 -0.2747
   12CHTO   O59 4833   5.556  -0.474   3.194 -0.0284  0.2427 -0.2579
   12CHTO  H137 4834   5.475  -0.522   3.189 -0.6291  0.9964  1.6616
   12CHTO   O45 4835   6.100  -0.488   3.321 -0.2850 -0.2834  0.3270
   12CHTO   C67 4836   6.095  -0.602   3.232  0.1794  0.3680  0.1613
   12CHTO  H124 4837   6.011  -0.664   3.264 -0.6302  0.2296 -2.1648
   12CHTO   C65 4838   6.073  -0.562   3.082 -0.2108  0.1993  0.7449
   12CHTO  H122 4839   5.999  -0.481   3.082 -0.7885 -0.3201  0.8893
   12CHTO   O44 4840   6.021  -0.677   3.000 -0.5615 -0.2638  0.0466
   12CHTO  H102 4841   6.080  -0.749   3.013  0.2276 -0.1430 -2.6252
   12CHTO   C63 4842   6.194  -0.496   3.024 -0.4197 -0.4651  0.7840
   12CHTO  H120 4843   6.214  -0.408   3.086 -0.8193  0.7408 -0.7545
   12CHTO   N11 4844   6.177  -0.429   2.898 -0.6015  0.0377 -0.3183
   12CHTO  H108 4845   6.260  -0.367   2.874  0.4863 -1.1660  0.2536
   12CHTO  H109 4846   6.160  -0.504   2.824 -3.2937 -0.6465  0.9233
   12CHTO   C61 4847   6.319  -0.579   3.041 -0.2606 -0.2867 -0.1805
   12CHTO  H118 4848   6.401  -0.507   3.024  0.1885 -0.4722  1.1454
   12CHTO   O40 4849   6.340  -0.632   3.183  0.2857  0.6326  0.3240
   12CHTO   C68 4850   6.223  -0.687   3.251  0.8625 -0.1046 -0.6784
   12CHTO  H125 4851   6.246  -0.687   3.359  0.3177  0.3150 -0.5590
   12CHTO   C72 4852   6.198  -0.831   3.219 -0.0179  0.4063  0.3584
   12CHTO   O48 4853   6.292  -0.920   3.273 -0.1638 -0.7284 -0.2186
   12CHTO  H105 4854   6.289  -0.999   3.221  1.6049  0.2460 -1.8463
   12CHTO   O38 4855   6.337  -0.696   2.964  0.3566  0.1139 -0.5857
   12CHTO   C55 4856   6.465  -0.720   2.904  0.3125  1.0212  0.1443
   12CHTO  H112 4857   6.536  -0.651   2.952  0.2105  0.9230  0.4422
   12CHTO   C56 4858   6.463  -0.706   2.746  0.3891 -0.3715  0.6140
   12CHTO  H113 4859   6.368  -0.753   2.717  0.8180 -1.7065  1.3090
   12CHTO   O42 4860   6.455  -0.567   2.706  1.1092  0.0878  0.5586
   12CHTO  H100 4861   6.382  -0.555   2.648  0.4059 -0.0281  1.4126
   12CHTO   C57 4862   6.590  -0.777   2.676 -0.0659 -0.2249 -0.0120
   12CHTO  H114 4863   6.665  -0.698   2.679 -0.1359 -0.1458 -0.2730
   12CHTO   N10 4864   6.548  -0.811   2.535  0.2502 -0.2237 -0.1470
   12CHTO  H106 4865   6.622  -0.798   2.456  0.7496  1.7592  0.6368
   12CHTO  H107 4866   6.457  -0.762   2.507  0.2133 -0.6100 -0.7278
   12CHTO   C58 4867   6.634  -0.903   2.753 -0.1775 -0.1913  0.5728
   12CHTO  H115 4868   6.564  -0.986   2.731  1.2596 -1.4551  0.6893
   12CHTO   O37 4869   6.642  -0.884   2.893 -0.5468 -0.2054  0.7012
   12CHTO   C59 4870   6.520  -0.861   2.954 -0.3447 -0.4301  0.4718
   12CHTO  H116 4871   6.453  -0.942   2.928  2.8206 -3.4924  1.4622
   12CHTO   C70 4872   6.556  -0.872   3.103 -0.5368 -1.0588 -0.2478
   12CHTO   O46 4873   6.663  -0.791   3.159  0.5852 -0.3639 -0.3023
   12CHTO  H103 4874   6.648  -0.699   3.144  1.0014  0.2941  3.0888
   12CHTO   O39 4875   6.790  -0.947   2.693  0.7585  0.2418 -0.4066
   12CHTO   C60 4876   6.820  -1.084   2.721 -0.2624 -0.0135 -0.3205
   12CHTO  H117 4877   6.766  -1.117   2.809 -1.0393 -2.2366 -1.5838
   12CHTO   C62 4878   6.771  -1.166   2.598  0.0619  0.4944 -0.3180
   12CHTO  H119 4879   6.663  -1.138   2.592 -0.3073 -0.1403  2.4801
   12CHTO   O43 4880   6.838  -1.117   2.480 -0.5638 -0.1054  0.1085
   12CHTO  H101 4881   6.814  -1.030   2.453  0.3474 -0.0803 -0.6405
   12CHTO   C66 4882   6.785  -1.328   2.619  0.3818  0.1690 -0.0482
   12CHTO  H123 4883   6.725  -1.362   2.703  0.9670 -0.7541  0.0061
   12CHTO   N12 4884   6.745  -1.406   2.503  0.1396 -0.2195 -0.1399
   12CHTO  H110 4885   6.645  -1.375   2.476  0.2547  0.2555 -0.0348
   12CHTO  H111 4886   6.751  -1.510   2.530  2.1303 -0.3931 -1.1406
   12CHTO   C69 4887   6.929  -1.367   2.670  0.0862  0.4711 -0.0053
   12CHTO  H126 4888   6.997  -1.365   2.583 -1.1251  1.8887 -0.9693
   12CHTO   O41 4889   6.981  -1.271   2.780  0.3011  0.3284  0.1120
   12CHTO   C64 4890   6.965  -1.118   2.742  0.3485 -0.0070  0.3515
   12CHTO  H121 4891   7.015  -1.086   2.649 -1.0791 -0.3420 -0.5359
   12CHTO   C71 4892   7.017  -1.029   2.863  0.3749  0.3215  0.7679
   12CHTO   O47 4893   6.944  -1.053   2.982 -0.4248  0.2558  0.2907
   12CHTO  H104 4894   6.998  -1.105   3.038  0.4351 -0.5435 -1.2562
   12CHTO   O34 4895   6.932  -1.525   2.717  0.5547 -0.1453 -0.5262
   12CHTO   C49 4896   7.043  -1.610   2.741  0.6840  0.4228 -0.1377
   12CHTO   H91 4897   7.088  -1.640   2.646  1.3416 -1.7722  0.8174
   12CHTO   C47 4898   6.980  -1.739   2.801 -0.0588  0.6503 -0.3752
   12CHTO   H89 4899   7.055  -1.820   2.791 -1.8782 -1.1620  0.0345
   12CHTO   O33 4900   6.867  -1.787   2.726 -0.2208 -0.2182  0.2163
   12CHTO   H70 4901   6.900  -1.812   2.642  0.1185 -2.3089  0.9481
   12CHTO   C45 4902   6.941  -1.705   2.953  0.3307  0.5434  0.3123
   12CHTO   H87 4903   6.831  -1.694   2.954  0.2913  0.0512  1.3713
   12CHTO    N8 4904   6.969  -1.825   3.036 -0.2392 -0.5193 -0.0056
   12CHTO   H75 4905   7.073  -1.851   3.027 -0.2892 -0.1656 -1.9870
   12CHTO   H76 4906   6.944  -1.804   3.139 -2.3703 -0.1130 -0.5834
   12CHTO   C43 4907   7.006  -1.566   3.018  1.0590  0.4241 -0.7253
   12CHTO   H85 4908   6.942  -1.489   2.975 -1.8433  0.1439  2.7895
   12CHTO   O29 4909   7.143  -1.551   2.972 -0.2411 -0.4717 -0.0534
   12CHTO   C50 4910   7.150  -1.542   2.832  1.2912  0.5558  0.4819
   12CHTO   H92 4911   7.156  -1.438   2.796  1.0770  0.7706  1.0650
   12CHTO   C54 4912   7.286  -1.597   2.792  0.1548  0.2391 -0.6155
   12CHTO   O36 4913   7.323  -1.720   2.860 -0.3134  0.1493  0.1317
   12CHTO   H72 4914   7.319  -1.702   2.952 -1.0054  2.3344 -0.3013
   12CHTO   O27 4915   7.002  -1.554   3.159  0.3377  0.3434  0.4631
   12CHTO   C37 4916   6.937  -1.493   3.267 -0.2647  0.0722 -0.2466
   12CHTO   H79 4917   7.009  -1.483   3.349  0.5171  1.5298 -1.0828
   12CHTO   C38 4918   6.909  -1.341   3.245  1.0474 -0.5055 -0.3131
   12CHTO   H80 4919   6.852  -1.333   3.152  1.2545 -1.0408 -0.4838
   12CHTO   O31 4920   7.039  -1.284   3.229 -0.4914 -0.1966 -0.6438
   12CHTO   H68 4921   7.039  -1.193   3.208  0.0659 -0.4688 -1.8905
   12CHTO   C39 4922   6.826  -1.271   3.365 -0.2592  0.3153  0.3568
   12CHTO   H81 4923   6.889  -1.267   3.454 -1.0641 -0.6063  0.9792
   12CHTO    N7 4924   6.794  -1.132   3.338  0.2286 -0.0888 -0.2665
   12CHTO   H73 4925   6.769  -1.079   3.429  0.7695 -0.0355 -0.1498
   12CHTO   H74 4926   6.718  -1.125   3.261 -0.3201 -0.3247  0.2505
   12CHTO   C40 4927   6.704  -1.368   3.399  0.0488 -0.7854 -0.1792
   12CHTO   H82 4928   6.631  -1.356   3.319  0.1160  0.8611 -0.0218
   12CHTO   O26 4929   6.737  -1.506   3.423  0.5603  0.2992  0.3857
   12CHTO   C41 4930   6.808  -1.563   3.313  0.2203  0.0478  0.3099
   12CHTO   H83 4931   6.749  -1.583   3.222  1.2971 -1.0634 -0.1720
   12CHTO   C52 4932   6.831  -1.704   3.356 -0.3065 -0.0253 -0.2581
   12CHTO   O35 4933   6.711  -1.780   3.373 -0.2170 -1.0807 -0.3451
   12CHTO   H71 4934   6.706  -1.808   3.462 -1.7900 -0.2184 -0.1344
   12CHTO   O28 4935   6.648  -1.337   3.529 -0.6265  0.3712  0.3500
   12CHTO   C42 4936   6.507  -1.341   3.546 -0.2973  0.4020 -0.6226
   12CHTO   H84 4937   6.508  -1.359   3.654 -0.6468  0.5838 -0.5889
   12CHTO   C44 4938   6.435  -1.470   3.485  0.1810 -0.1875  0.0950
   12CHTO   H86 4939   6.466  -1.468   3.381 -2.3182  0.8717 -0.6570
   12CHTO   O32 4940   6.485  -1.589   3.552 -0.4212 -0.1513  0.2378
   12CHTO   H69 4941   6.456  -1.595   3.641 -3.4739 -2.5120 -0.8354
   12CHTO   C48 4942   6.271  -1.461   3.489 -0.1846  0.0437 -0.1023
   12CHTO   H90 4943   6.239  -1.458   3.593  1.4303  2.4490  0.3744
   12CHTO    N9 4944   6.206  -1.572   3.408  0.4287  0.6387  0.2230
   12CHTO   H77 4945   6.110  -1.538   3.370 -0.4370 -1.1422  0.7642
   12CHTO   H78 4946   6.195  -1.665   3.461 -0.9702 -0.6130 -2.2239
   12CHTO   C51 4947   6.227  -1.317   3.446  0.6011  0.1543  0.3884
   12CHTO   H93 4948   6.240  -1.305   3.338 -1.5654 -2.2672 -0.1939
   12CHTO   O30 4949   6.287  -1.212   3.522  0.1257  0.0407  0.5270
   12CHTO   C46 4950   6.432  -1.205   3.512 -0.0214 -0.6146  0.2023
   12CHTO   H88 4951   6.464  -1.166   3.416  1.4223  0.2185  1.0070
   12CHTO   C53 4952   6.477  -1.104   3.616  0.2528  0.1650  0.6080
   12CHTO   O72 4953   6.409  -0.982   3.594 -0.0464  0.3424  0.1495
   12CHTO  H199 4954   6.459  -0.903   3.585  0.3018  0.3767  2.1522
   12CHTO   O22 4955   6.088  -1.301   3.477 -0.0661 -0.0741  0.0430
   12CHTO   C31 4956   5.990  -1.204   3.464  0.6161  0.2613 -0.3114
   12CHTO   H59 4957   5.892  -1.249   3.491  0.7734  1.4289  2.3692
   12CHTO   C29 4958   5.998  -1.080   3.557 -0.6674 -0.2368 -0.8068
   12CHTO   H57 4959   6.089  -1.024   3.532 -0.0791 -1.5252 -1.5785
   12CHTO   O21 4960   6.025  -1.126   3.693  0.0914 -0.6502 -0.1825
   12CHTO   H37 4961   6.073  -1.061   3.741  0.6299 -0.8345 -0.4802
   12CHTO   C27 4962   5.869  -0.991   3.539  0.1716 -0.1880  0.1922
   12CHTO   H55 4963   5.776  -1.049   3.551  0.8406 -0.9041  1.9748
   12CHTO    N5 4964   5.864  -0.866   3.620 -0.0091 -0.2646  0.3612
   12CHTO   H43 4965   5.876  -0.883   3.726  0.7324 -0.0978  0.3024
   12CHTO   H44 4966   5.933  -0.790   3.589 -1.6959  1.3268  0.4182
   12CHTO   C25 4967   5.860  -0.947   3.388 -0.8459  0.0252 -0.0558
   12CHTO   H53 4968   5.949  -0.884   3.373 -1.1203  0.1608 -1.0861
   12CHTO   O17 4969   5.867  -1.068   3.302  0.0345  0.1751 -0.0041
   12CHTO   C32 4970   5.975  -1.161   3.318  0.0140  0.2644 -0.7277
   12CHTO   H60 4971   6.069  -1.114   3.292  0.9460 -0.2310  1.6665
   12CHTO   C36 4972   5.954  -1.280   3.220 -0.2848  0.1830  0.2656
   12CHTO   O25 4973   5.963  -1.240   3.083  0.1888 -0.0551  0.0994
   12CHTO   H40 4974   5.997  -1.312   3.033 -0.2786  0.0271 -0.3351
   12CHTO   O15 4975   5.724  -0.872   3.359 -0.0494 -0.3537 -0.1373
   12CHTO   C19 4976   5.628  -0.851   3.264 -0.0921  0.2348  0.9315
   12CHTO   H47 4977   5.561  -0.775   3.307 -0.8336  0.2955 -0.3313
   12CHTO   C20 4978   5.693  -0.807   3.131  0.4918  0.0416  0.1114
   12CHTO   H48 4979   5.764  -0.882   3.094  0.8750  1.1166 -1.3944
   12CHTO   O19 4980   5.771  -0.695   3.162  0.0249  0.3283 -0.3348
   12CHTO   H35 4981   5.852  -0.728   3.197 -0.6566 -0.8313  0.1909
   12CHTO   C21 4982   5.595  -0.778   3.011 -0.0716  0.5890 -0.2887
   12CHTO   H49 4983   5.540  -0.687   3.036 -2.1773 -0.0802 -2.3355
   12CHTO    N4 4984   5.664  -0.760   2.885  0.4524  0.2034  0.3768
   12CHTO   H41 4985   5.771  -0.775   2.888  0.2306 -1.2215  1.9204
   12CHTO   H42 4986   5.633  -0.672   2.831 -1.8184  0.4572  2.0197
   12CHTO   C22 4987   5.486  -0.891   3.005 -0.6094 -0.3422 -1.2280
   12CHTO   H50 4988   5.543  -0.978   2.970  1.3246  0.0051  0.9828
   12CHTO   O14 4989   5.440  -0.932   3.137 -0.1546 -0.2345  0.0073
   12CHTO   C23 4990   5.535  -0.979   3.233  0.0049 -0.3219  0.3728
   12CHTO   H51 4991   5.594  -1.061   3.191  0.8228  0.1096  0.6821
   12CHTO   C34 4992   5.458  -1.023   3.360  0.4829  0.4655  0.5016
   12CHTO   O23 4993   5.557  -1.082   3.442  0.2241 -0.2590  1.0725
   12CHTO   H38 4994   5.525  -1.162   3.480 -0.0062  0.1129  1.6817
   12CHTO   O16 4995   5.374  -0.849   2.926  0.6017 -0.4784  0.2856
   12CHTO   C24 4996   5.309  -0.969   2.825  0.5012  0.1918 -0.2578
   12CHTO   H52 4997   5.352  -1.066   2.849  2.1487  1.1079  0.5330
   12CHTO   C26 4998   5.338  -0.943   2.680  0.1903  0.7586 -0.3520
   12CHTO   H54 4999   5.299  -0.845   2.648 -1.1254  0.7655  1.2614
   12CHTO   O20 5000   5.476  -0.935   2.657 -0.0691 -0.7180 -0.1157
   12CHTO   H36 5001   5.492  -0.845   2.679 -0.7753 -0.8361  0.8906
   12CHTO   C30 5002   5.274  -1.050   2.587  0.1916 -0.0957  0.4402
   12CHTO   H58 5003   5.321  -1.148   2.604 -0.9997 -1.0603 -1.5677
   12CHTO    N6 5004   5.299  -1.014   2.444 -0.2416 -0.1696 -0.5956
   12CHTO   H45 5005   5.368  -0.932   2.427 -0.9205  0.4526 -0.3678
   12CHTO   H46 5006   5.211  -1.000   2.384 -1.8256 -2.9607  1.0110
   12CHTO   C33 5007   5.123  -1.072   2.619  0.3460  0.3145  0.1624
   12CHTO   H61 5008   5.069  -0.982   2.585 -1.0614 -0.3724  0.5184
   12CHTO   O18 5009   5.093  -1.079   2.759  0.4954 -0.3709  0.0105
   12CHTO   C28 5010   5.153  -0.982   2.852  0.0206  0.0143  0.8419
   12CHTO   H56 5011   5.107  -0.887   2.822  0.9764 -0.4271 -2.1151
   12CHTO   C35 5012   5.124  -1.019   3.001  0.0047  0.2124 -0.3439
   12CHTO   O24 5013   4.988  -1.048   3.036 -0.1145  0.2043  0.8391
   12CHTO   H39 5014   4.984  -1.079   3.124 -1.5719 -3.6314 -0.4460
   12CHTO    O9 5015   5.053  -1.182   2.545 -0.5567  0.0746  0.1804
   12CHTO   C13 5016   5.116  -1.341   2.591 -0.5378 -0.0181  0.1111
   12CHTO   H26 5017   5.221  -1.333   2.626 -1.0093  1.2966  1.2481
   12CHTO   C11 5018   5.091  -1.443   2.471 -0.2825 -0.0052 -0.6421
   12CHTO   H24 5019   5.164  -1.412   2.395  0.3197 -0.1189 -0.1225
   12CHTO    O8 5020   4.964  -1.421   2.409  0.7262  0.4466  0.7603
   12CHTO    H3 5021   4.949  -1.330   2.394 -0.4679 -0.0126 -1.0668
   12CHTO    C9 5022   5.126  -1.585   2.522 -0.5280 -0.2763  0.8232
   12CHTO   H22 5023   5.229  -1.586   2.560 -0.5920 -0.6650  0.9997
   12CHTO    N2 5024   5.132  -1.690   2.420 -0.7214 -0.0472  0.5069
   12CHTO   H10 5025   5.228  -1.718   2.380 -0.0965  2.9440 -0.2288
   12CHTO   H11 5026   5.068  -1.771   2.450  0.0167 -0.8258  0.0014
   12CHTO    C7 5027   5.033  -1.620   2.646 -0.3347 -0.2606  0.2132
   12CHTO   H20 5028   5.063  -1.717   2.689  0.7553  0.2531  0.6235
   12CHTO    O4 5029   5.054  -1.528   2.754  0.2326 -0.3650 -0.0779
   12CHTO   C14 5030   5.035  -1.385   2.727  0.7767  0.1013 -0.6282
   12CHTO   H27 5031   5.091  -1.341   2.812  2.6913  1.8447 -2.7184
   12CHTO   C18 5032   4.883  -1.336   2.732  0.2806 -0.5155  0.3244
   12CHTO   O13 5033   4.819  -1.353   2.860 -0.1027 -0.2085 -0.5491
   12CHTO    H7 5034   4.827  -1.444   2.881 -0.6354 -0.6204 -2.0675
   12CHTO    O2 5035   4.865  -1.606   2.599 -0.8645 -0.3558 -0.0050
   12CHTO    C1 5036   4.781  -1.725   2.599  0.3717 -0.1181  0.0771
   12CHTO   H14 5037   4.847  -1.813   2.614 -1.1108 -1.0881  1.1195
   12CHTO    C2 5038   4.692  -1.740   2.467 -0.0387  0.3971 -0.2366
   12CHTO   H15 5039   4.630  -1.650   2.457  1.2330  1.1959 -1.1067
   12CHTO    O6 5040   4.784  -1.754   2.351 -0.5958 -0.6821  0.0917
   12CHTO    H1 5041   4.851  -1.816   2.371 -1.1267 -0.6365  2.1117
   12CHTO    C3 5042   4.597  -1.872   2.481  0.8885  0.5697  0.6860
   12CHTO   H16 5043   4.656  -1.964   2.477 -1.6503 -1.0244 -1.2093
   12CHTO    N1 5044   4.504  -1.883   2.363 -0.0367  0.1359  0.3122
   12CHTO    H8 5045   4.445  -1.794   2.347  0.0892  0.1590 -0.0435
   12CHTO    H9 5046   4.555  -1.912   2.272  0.8892  2.5306  0.0235
   12CHTO    C4 5047   4.520  -1.876   2.616  0.1958 -0.1357  0.4001
   12CHTO   H17 5048   4.436  -1.807   2.619 -0.4208 -0.9149  1.3701
   12CHTO    O1 5049   4.612  -1.855   2.721 -0.5706  0.0634 -0.2254
   12CHTO    C5 5050   4.685  -1.723   2.724 -0.5742 -0.4906 -0.5835
   12CHTO   H18 5051   4.622  -1.636   2.705  2.3111  1.7712 -0.2848
   12CHTO   C16 5052   4.752  -1.710   2.868  0.2054  0.2942 -0.2455
   12CHTO   O11 5053   4.650  -1.649   2.952 -0.2688  0.4228 -0.2556
   12CHTO    H5 5054   4.582  -1.712   2.967 -0.7917  1.8028  3.6483
   12CHTO    O3 5055   4.496  -2.015   2.647  0.3382  0.2604  0.1751
   12CHTO    C6 5056   4.369  -2.048   2.707 -0.0922 -0.5170 -0.3107
   12CHTO   H19 5057   4.323  -1.956   2.744  1.9473  0.6465 -0.5743
   12CHTO    C8 5058   4.265  -2.113   2.619 -0.3207 -0.1387 -0.2403
   12CHTO   H21 5059   4.315  -2.198   2.573  1.6354  0.4312  0.7961
   12CHTO    O7 5060   4.225  -2.010   2.521  0.2883  0.1502  0.2334
   12CHTO    H2 5061   4.178  -2.051   2.450  0.2249 -0.5405  0.6715
   12CHTO   C12 5062   4.135  -2.158   2.699 -0.2149  0.5870  0.1252
   12CHTO   H25 5063   4.080  -2.064   2.720 -0.6618  0.2192  0.6057
   12CHTO    N3 5064   4.048  -2.240   2.608 -0.6760 -0.2118  0.5439
   12CHTO   H12 5065   3.955  -2.187   2.589 -0.5237 -0.3114 -0.4816
   12CHTO   H13 5066   4.032  -2.340   2.646  1.6132 -0.0612  2.0007
   12CHTO   C15 5067   4.171  -2.224   2.839 -0.2687  0.0102  0.0690
   12CHTO   H28 5068   4.209  -2.325   2.827 -0.1200  0.2080 -1.2694
   12CHTO   O10 5069   4.035  -2.222   2.948 -1.1298  0.9056 -0.4284
   12CHTO    H4 5070   4.071  -2.260   3.026 -0.6281 -1.0028 -1.5440
   12CHTO    O5 5071   4.264  -2.137   2.910 -0.4137 -0.0256  0.0563
   12CHTO   C10 5072   4.390  -2.136   2.838  0.3046 -0.4891 -0.2411
   12CHTO   H23 5073   4.421  -2.238   2.817 -0.1050 -0.5043 -0.7867
   12CHTO   C17 5074   4.487  -2.070   2.938 -0.3872 -0.2301 -0.2741
   12CHTO   O12 5075   4.624  -2.070   2.894 -0.0441  0.4084  0.1550
   12CHTO    H6 5076   4.637  -2.055   2.802  1.4354 -0.7922  0.1382
   13CHTO  H203 5077   7.599   3.933   0.958 -0.7660 -1.7087 -0.4419
   13CHTO   O82 5078   7.548   3.979   1.022  0.2811 -0.5817 -0.3903
   13CHTO  C123 5079   7.588   4.114   1.040 -0.0011 -0.0075  0.2113
   13CHTO  H227 5080   7.658   4.141   0.960  1.6104 -1.0890  1.2373
   13CHTO   O77 5081   7.463   4.190   1.019 -0.0856 -0.4857 -0.8937
   13CHTO  C118 5082   7.480   4.331   1.041 -0.2217 -0.5482 -0.4131
   13CHTO  H222 5083   7.566   4.355   0.976 -0.7980  1.9095 -0.3098
   13CHTO  C125 5084   7.343   4.401   0.997  0.4168 -0.2617 -0.2272
   13CHTO   O84 5085   7.248   4.362   1.088 -0.0789  0.0909 -0.2765
   13CHTO  H205 5086   7.164   4.358   1.045  0.4670  0.5361 -1.4094
   13CHTO  C114 5087   7.523   4.371   1.177  0.1249  0.0123 -0.2474
   13CHTO  H218 5088   7.445   4.342   1.248 -1.2948  2.4219 -0.7715
   13CHTO  C116 5089   7.650   4.291   1.218 -0.8536  0.4813  0.7099
   13CHTO  H220 5090   7.740   4.323   1.162  0.2163  0.0287  2.1318
   13CHTO   O79 5091   7.680   4.312   1.357  0.3484  0.1353  0.0161
   13CHTO  H201 5092   7.605   4.283   1.406 -0.4315  1.3337 -0.4631
   13CHTO  C120 5093   7.640   4.140   1.187 -0.4602  0.3323 -0.4091
   13CHTO  H224 5094   7.555   4.107   1.250 -0.8524  1.1384 -0.5053
   13CHTO   N21 5095   7.761   4.060   1.221 -0.6648 -0.0245 -0.1197
   13CHTO  H211 5096   7.758   3.964   1.171 -1.4722  1.8638 -3.8907
   13CHTO  H212 5097   7.852   4.113   1.195 -1.0448  0.9755  0.5785
   13CHTO   O75 5098   7.534   4.513   1.172  0.0077  0.2658 -0.6263
   13CHTO  C112 5099   7.464   4.592   1.288 -0.7801 -0.4553 -0.9587
   13CHTO  H216 5100   7.509   4.560   1.383  1.2435  2.0726 -1.0203
   13CHTO   O73 5101   7.324   4.562   1.279  0.4500 -0.0911 -0.1624
   13CHTO  C113 5102   7.254   4.604   1.395 -0.1863  0.7459  0.3451
   13CHTO  H217 5103   7.299   4.583   1.494  1.1000 -1.3483 -0.6400
   13CHTO  C124 5104   7.121   4.524   1.379 -0.3838 -0.3215 -0.0473
   13CHTO   O83 5105   7.034   4.533   1.493 -0.2261 -0.7175  0.2447
   13CHTO  H204 5106   7.056   4.467   1.556 -0.2825 -0.0917  0.9287
   13CHTO  C109 5107   7.244   4.759   1.384  0.1988 -0.2707 -0.1004
   13CHTO  H213 5108   7.186   4.782   1.293 -1.6068  1.4653  1.4304
   13CHTO  C110 5109   7.390   4.820   1.371  0.6462  0.5206 -0.3742
   13CHTO  H214 5110   7.432   4.819   1.472  3.0660  2.2850 -1.3162
   13CHTO   O78 5111   7.377   4.957   1.341 -0.2431 -0.2868 -0.3746
   13CHTO  H200 5112   7.335   4.999   1.413 -0.1115 -0.8045  0.0115
   13CHTO  C111 5113   7.480   4.752   1.266  0.4785 -0.3418 -0.7108
   13CHTO  H215 5114   7.440   4.779   1.167  0.6952  0.5038 -0.5716
   13CHTO   N19 5115   7.623   4.797   1.271  0.3208 -0.0609  0.1757
   13CHTO  H207 5116   7.644   4.902   1.253 -3.1639  1.1459  2.4619
   13CHTO  H208 5117   7.658   4.770   1.370  1.4252 -0.3287 -0.2801
   13CHTO   O74 5118   7.178   4.819   1.499 -0.2949 -0.1855  0.2197
   13CHTO  C115 5119   7.036   4.894   1.456  0.0276 -0.2730  0.6513
   13CHTO  H219 5120   7.041   4.926   1.352  0.5797  2.8195  1.5793
   13CHTO   O76 5121   6.917   4.795   1.460  0.0893  0.1206  0.0663
   13CHTO  C122 5122   6.805   4.854   1.396 -0.0599  0.1260  0.1535
   13CHTO  H226 5123   6.725   4.786   1.425 -1.5413  0.6398 -2.5489
   13CHTO  C126 5124   6.814   4.865   1.239  0.0272  0.2670  0.1905
   13CHTO   O85 5125   6.806   4.733   1.180  0.2219  0.1272  0.1515
   13CHTO  H206 5126   6.877   4.675   1.201  0.9811  1.7808  2.4052
   13CHTO  C121 5127   6.755   4.984   1.466  0.2407 -0.5452  0.8205
   13CHTO  H225 5128   6.677   5.029   1.401 -0.4802 -2.1509  0.5572
   13CHTO   O81 5129   6.701   4.944   1.594 -0.1163 -0.2705  0.0531
   13CHTO  H202 5130   6.636   4.999   1.632  1.3094  1.7180 -0.2950
   13CHTO  C119 5131   6.873   5.090   1.484 -0.3029 -0.5644 -1.2423
   13CHTO  H223 5132   6.900   5.115   1.381  3.3205 -0.7494 -0.3996
   13CHTO  C117 5133   7.001   5.017   1.543  0.0696  0.1990 -0.0256
   13CHTO  H221 5134   7.006   4.978   1.644  0.3188  0.4981  0.0766
   13CHTO   N20 5135   7.119   5.115   1.535  0.5919 -0.1062  0.3616
   13CHTO  H209 5136   7.103   5.196   1.604  1.0346 -0.0743  0.4265
   13CHTO  H210 5137   7.207   5.057   1.557 -0.5182 -1.5712  0.9908
   13CHTO   O80 5138   6.830   5.244   1.548  0.1857  0.1460 -0.5700
   13CHTO  C103 5139   6.714   5.332   1.462  0.3597  0.2348  0.2455
   13CHTO  H190 5140   6.723   5.440   1.477  0.9322  0.2418 -0.1174
   13CHTO  C101 5141   6.719   5.321   1.296  0.8639  0.2488 -0.1882
   13CHTO  H188 5142   6.710   5.220   1.255 -0.9597  0.6236 -0.7626
   13CHTO   O68 5143   6.863   5.380   1.259  0.1068  0.7714  0.0442
   13CHTO  H168 5144   6.866   5.474   1.258 -0.2679  0.7840 -1.6913
   13CHTO   C99 5145   6.607   5.412   1.234  0.2312 -0.5550 -0.5039
   13CHTO  H186 5146   6.623   5.519   1.258 -0.5709 -0.7225  0.7972
   13CHTO   N17 5147   6.591   5.416   1.088  0.4305  0.1353  0.5132
   13CHTO  H174 5148   6.682   5.455   1.043 -0.0194 -0.0628 -0.5949
   13CHTO  H175 5149   6.586   5.314   1.055  1.5399  0.0019  0.7326
   13CHTO   C97 5150   6.468   5.372   1.295 -0.3726 -0.5154 -0.4942
   13CHTO  H184 5151   6.439   5.273   1.256  0.0283 -0.2794 -1.4222
   13CHTO   O64 5152   6.473   5.377   1.438 -0.2881 -0.1515  0.3799
   13CHTO  C104 5153   6.565   5.289   1.510  0.7305  0.2339 -0.0732
   13CHTO  H191 5154   6.549   5.182   1.499 -0.3528  0.3707  0.2001
   13CHTO  C108 5155   6.548   5.321   1.660 -0.2499  0.1634  0.1052
   13CHTO   O71 5156   6.425   5.266   1.719  0.3268 -0.4651  0.3887
   13CHTO  H171 5157   6.433   5.174   1.732 -2.4586 -1.1341 -1.9805
   13CHTO   O62 5158   6.359   5.465   1.276  0.7063 -0.6601  0.1510
   13CHTO   C91 5159   6.220   5.416   1.243  0.9905  0.6248 -0.4386
   13CHTO  H178 5160   6.226   5.309   1.226  2.2109  0.5736  0.2745
   13CHTO   C92 5161   6.172   5.478   1.110 -0.3515  0.2225 -0.2651
   13CHTO  H179 5162   6.157   5.587   1.119  0.5821  0.1872  2.4379
   13CHTO   O66 5163   6.273   5.456   1.014 -0.0069 -0.2018 -0.0106
   13CHTO  H166 5164   6.287   5.538   0.970  0.8331  0.0043  0.6222
   13CHTO   C93 5165   6.038   5.404   1.067  0.0804  0.0318  0.4119
   13CHTO  H180 5166   6.053   5.299   1.036  0.0172  0.3434 -0.6830
   13CHTO   N16 5167   5.976   5.466   0.941  0.6467  0.1711 -0.3424
   13CHTO  H172 5168   6.033   5.442   0.853  0.4220  1.1762 -0.7748
   13CHTO  H173 5169   5.967   5.573   0.957 -0.2575 -0.2476  2.2915
   13CHTO   C94 5170   5.937   5.409   1.185 -0.1861 -0.3454  0.3490
   13CHTO  H181 5171   5.910   5.511   1.210  0.4303  0.1954 -1.1261
   13CHTO   O61 5172   5.995   5.352   1.307 -0.3902 -0.1177  0.1433
   13CHTO   C95 5173   6.106   5.429   1.349  0.6037 -0.0818 -0.0320
   13CHTO  H182 5174   6.075   5.533   1.363  3.1949  0.4309  2.3231
   13CHTO  C106 5175   6.147   5.376   1.496  0.7859 -0.0800  0.4814
   13CHTO   O69 5176   6.046   5.403   1.591 -0.3484  0.0165 -0.2944
   13CHTO  H169 5177   5.966   5.357   1.576  0.0281 -0.8260  0.2645
   13CHTO   O63 5178   5.793   5.339   1.160 -0.3323  0.1072 -0.2015
   13CHTO   C96 5179   5.663   5.422   1.227 -0.0429 -0.2306 -0.1404
   13CHTO  H183 5180   5.675   5.525   1.192 -0.8506 -0.7614 -2.0033
   13CHTO   C98 5181   5.659   5.419   1.383 -0.4339 -0.5110 -0.6958
   13CHTO  H185 5182   5.759   5.440   1.425 -0.2222 -3.7832  0.5441
   13CHTO   O67 5183   5.574   5.526   1.434 -0.8598  0.2189 -0.1760
   13CHTO  H167 5184   5.609   5.611   1.412  2.2577 -0.7344  0.8354
   13CHTO  C102 5185   5.602   5.278   1.440  0.2942  0.1809  0.3128
   13CHTO  H189 5186   5.573   5.297   1.545 -0.2179 -0.8970  0.3783
   13CHTO   N18 5187   5.695   5.168   1.450  0.1965 -0.0878 -0.3191
   13CHTO  H176 5188   5.796   5.197   1.425 -0.1987  0.1133 -1.6948
   13CHTO  H177 5189   5.699   5.115   1.544 -0.9843  1.0971  0.4187
   13CHTO  C105 5190   5.477   5.229   1.352 -0.0004  0.0735 -0.1325
   13CHTO  H192 5191   5.510   5.148   1.287  0.0498  0.3144 -0.4080
   13CHTO   O65 5192   5.423   5.327   1.265 -0.0828  0.0166  0.0659
   13CHTO  C100 5193   5.522   5.370   1.171 -0.2463 -0.0381 -0.2314
   13CHTO  H187 5194   5.545   5.280   1.112 -0.7788 -0.9364  0.9136
   13CHTO  C107 5195   5.462   5.480   1.081 -0.2150 -0.0253 -0.4874
   13CHTO   O70 5196   5.554   5.533   0.987 -0.2263 -0.1174 -0.3085
   13CHTO  H170 5197   5.594   5.463   0.940  1.7966  0.4434  0.5065
   13CHTO   O57 5198   5.361   5.179   1.459 -0.0617 -0.3930  0.2702
   13CHTO   C85 5199   5.276   5.072   1.414  0.6682 -0.0397 -0.5581
   13CHTO  H157 5200   5.276   5.079   1.303  0.0010 -0.6729 -0.6073
   13CHTO   C83 5201   5.122   5.109   1.441  0.0717 -0.0240  0.2166
   13CHTO  H155 5202   5.104   5.191   1.372  1.2324 -0.3014 -0.4262
   13CHTO   O56 5203   5.105   5.163   1.577  0.6561  0.0294 -0.5204
   13CHTO  H135 5204   5.137   5.251   1.574 -0.8189  0.5934 -0.4933
   13CHTO   C81 5205   5.023   4.993   1.408 -0.5146 -0.2785  0.3737
   13CHTO  H153 5206   5.042   4.964   1.305 -1.1119 -2.2719  0.8049
   13CHTO   N14 5207   4.885   5.042   1.416 -0.0943 -0.1756  0.0956
   13CHTO  H141 5208   4.820   4.960   1.435 -0.7516  0.0056 -1.3003
   13CHTO  H142 5209   4.859   5.098   1.328 -1.3293  1.6014  1.5684
   13CHTO   C79 5210   5.063   4.873   1.500  0.0547 -0.0614  0.0552
   13CHTO  H151 5211   4.993   4.794   1.473  0.2106 -0.2467  0.1892
   13CHTO   O52 5212   5.193   4.825   1.450 -0.3043  0.1515  0.3011
   13CHTO   C86 5213   5.306   4.924   1.465 -0.3395 -0.5121  0.1265
   13CHTO  H158 5214   5.332   4.918   1.572 -2.0845 -2.8321  0.4650
   13CHTO   C90 5215   5.431   4.869   1.392  0.3661  0.1618  0.3381
   13CHTO   O60 5216   5.410   4.868   1.253 -0.0163  0.0074 -0.0026
   13CHTO  H138 5217   5.446   4.787   1.221  0.4240  1.0092 -2.1198
   13CHTO   O50 5218   5.062   4.904   1.639  0.0039  0.5142 -0.2330
   13CHTO   C73 5219   5.019   4.866   1.773 -0.5846  0.2141  0.4257
   13CHTO  H145 5220   5.020   4.756   1.777 -2.7098  0.1783  0.8682
   13CHTO   C74 5221   4.882   4.923   1.797 -0.1090  0.3307 -0.0524
   13CHTO  H146 5222   4.815   4.883   1.720  0.1510  0.1992 -0.2110
   13CHTO   O54 5223   4.844   4.866   1.922 -0.0574  0.3036 -0.1069
   13CHTO  H133 5224   4.884   4.909   1.995  1.8912  0.4196 -1.2133
   13CHTO   C75 5225   4.877   5.085   1.800  0.1555  0.6840 -0.4038
   13CHTO  H147 5226   4.876   5.123   1.696 -0.1424  1.8410  0.0081
   13CHTO   N13 5227   4.750   5.148   1.849  0.3311 -0.4273  0.2818
   13CHTO  H139 5228   4.703   5.096   1.931 -1.0560 -1.3055 -1.0610
   13CHTO  H140 5229   4.678   5.151   1.768 -0.5310  3.0457  1.0786
   13CHTO   C76 5230   5.008   5.136   1.880 -0.6015 -0.0744  0.8550
   13CHTO  H148 5231   5.005   5.117   1.987  3.1316  1.4999  1.3259
   13CHTO   O49 5232   5.122   5.065   1.836  0.1036  0.0038  0.2392
   13CHTO   C77 5233   5.122   4.923   1.871  0.5871 -0.0092 -0.2417
   13CHTO  H149 5234   5.090   4.918   1.975  0.0405  1.9859 -0.2875
   13CHTO   C88 5235   5.265   4.877   1.855 -0.1887 -0.0774  0.3831
   13CHTO   O58 5236   5.356   4.942   1.948 -0.3739 -0.1351 -0.4763
   13CHTO  H136 5237   5.410   4.877   1.987  2.4843  1.7637 -1.0730
   13CHTO   O51 5238   5.031   5.280   1.847 -0.1256 -0.3039 -0.0105
   13CHTO   C78 5239   5.162   5.334   1.931  0.3103 -0.2325 -0.1927
   13CHTO  H150 5240   5.228   5.247   1.951  1.7688  0.3173 -2.3069
   13CHTO   C80 5241   5.127   5.395   2.068  0.0675  0.4780  0.0764
   13CHTO  H152 5242   5.058   5.479   2.048  1.9506  1.7399 -1.3298
   13CHTO   O55 5243   5.064   5.288   2.135  0.0442  0.1478 -0.3424
   13CHTO  H134 5244   4.971   5.281   2.120 -0.0329 -0.9441  0.5120
   13CHTO   C84 5245   5.250   5.449   2.143 -0.1848  0.0784 -0.5065
   13CHTO  H156 5246   5.311   5.361   2.164 -3.5518 -2.8910 -2.5916
   13CHTO   N15 5247   5.216   5.502   2.278  0.2002 -0.1838 -0.1819
   13CHTO  H143 5248   5.120   5.549   2.281  1.0700  1.7963 -1.9077
   13CHTO  H144 5249   5.220   5.423   2.350 -0.8343 -0.4217 -0.3744
   13CHTO   C87 5250   5.342   5.545   2.064  0.8861  0.7816  0.3987
   13CHTO  H159 5251   5.309   5.648   2.067  0.6457  0.8114 -2.0385
   13CHTO   O53 5252   5.357   5.500   1.912  0.3844  0.2125  0.7519
   13CHTO   C82 5253   5.247   5.432   1.849  0.0584  0.1529  0.3175
   13CHTO  H154 5254   5.176   5.507   1.814  0.1728  1.0081  1.8883
   13CHTO   C89 5255   5.310   5.368   1.723  0.1466  0.7833 -0.2427
   13CHTO   O59 5256   5.403   5.261   1.771 -0.3232  0.2793 -0.0818
   13CHTO  H137 5257   5.357   5.192   1.816  1.1422 -0.3819  0.4352
   13CHTO   O45 5258   5.491   5.533   2.125  0.3246 -0.3611  0.6490
   13CHTO   C67 5259   5.566   5.409   2.107 -0.8071 -0.5562  1.2881
   13CHTO  H124 5260   5.508   5.338   2.047 -1.6819  0.7965  0.5232
   13CHTO   C65 5261   5.705   5.437   2.037  0.7519 -0.2216  0.1442
   13CHTO  H122 5262   5.689   5.493   1.945 -2.7410 -0.6391  0.4362
   13CHTO   O44 5263   5.767   5.312   2.003  0.0440  0.4458  0.0754
   13CHTO  H102 5264   5.739   5.285   1.918  0.6734  1.1736 -0.3714
   13CHTO   C63 5265   5.799   5.517   2.135  0.3066  0.4787 -0.3018
   13CHTO  H120 5266   5.748   5.609   2.165 -0.8724  0.0658 -1.0197
   13CHTO   N11 5267   5.923   5.579   2.080 -0.2130 -0.4408 -0.0555
   13CHTO  H108 5268   5.927   5.682   2.109  0.0168 -0.3892 -0.2778
   13CHTO  H109 5269   5.924   5.573   1.974  0.5279  0.4284 -0.1054
   13CHTO   C61 5270   5.811   5.438   2.269 -0.2132 -0.3990 -0.0394
   13CHTO  H118 5271   5.860   5.507   2.339 -0.2134  0.1372 -0.5611
   13CHTO   O40 5272   5.683   5.406   2.332 -0.1689  0.2295  0.0003
   13CHTO   C68 5273   5.584   5.346   2.253 -0.4190 -0.2104 -0.5298
   13CHTO  H125 5274   5.487   5.369   2.303 -0.3622 -0.5019 -0.2801
   13CHTO   C72 5275   5.602   5.189   2.247  0.0754 -0.3012 -0.0500
   13CHTO   O48 5276   5.495   5.127   2.175  0.2531  0.0170 -0.2897
   13CHTO  H105 5277   5.482   5.038   2.201  1.6978  0.8623  3.6546
   13CHTO   O38 5278   5.878   5.312   2.269  0.0863 -0.2850  0.0217
   13CHTO   C55 5279   5.975   5.288   2.374  0.2558 -0.2179 -0.4359
   13CHTO  H112 5280   6.010   5.185   2.356  0.1092 -0.3973  0.2851
   13CHTO   C56 5281   5.919   5.304   2.523 -0.2769  0.1128 -0.4433
   13CHTO  H113 5282   5.871   5.403   2.517 -0.3521  0.0836 -0.3029
   13CHTO   O42 5283   5.820   5.204   2.538  0.1058  0.4379 -0.3812
   13CHTO  H100 5284   5.766   5.220   2.613 -1.0098  0.0692 -1.0966
   13CHTO   C57 5285   6.030   5.294   2.635  0.4671 -0.1411  0.3358
   13CHTO  H114 5286   6.052   5.188   2.647  1.5140 -0.0919 -1.0420
   13CHTO   N10 5287   5.979   5.337   2.772 -0.3443  0.8197 -0.2691
   13CHTO  H106 5288   6.067   5.366   2.828  0.3162  1.3168 -1.5561
   13CHTO  H107 5289   5.935   5.251   2.820  1.2760 -0.3988 -0.9088
   13CHTO   C58 5290   6.157   5.370   2.585 -0.3503  0.7823 -0.2250
   13CHTO  H115 5291   6.148   5.481   2.596  0.2333  0.7071  1.1015
   13CHTO   O37 5292   6.196   5.332   2.451 -0.6048  0.8748  0.0115
   13CHTO   C59 5293   6.104   5.368   2.349  0.0746 -0.5999 -0.0977
   13CHTO  H116 5294   6.087   5.476   2.345 -1.0988 -0.8270 -1.7196
   13CHTO   C70 5295   6.173   5.336   2.217 -0.4628 -0.4065 -0.0041
   13CHTO   O46 5296   6.262   5.441   2.176  0.3225  0.2761 -0.2122
   13CHTO  H103 5297   6.218   5.523   2.164 -1.4997 -0.9226 -1.9450
   13CHTO   O39 5298   6.297   5.334   2.691  0.6697  0.2677  0.3971
   13CHTO   C60 5299   6.399   5.433   2.710 -0.3442  0.0911 -0.0665
   13CHTO  H117 5300   6.437   5.464   2.613 -0.1482  0.5718  0.1648
   13CHTO   C62 5301   6.348   5.568   2.763  0.1218 -0.3215  0.5830
   13CHTO  H119 5302   6.264   5.600   2.697  0.1174 -1.6382 -0.0731
   13CHTO   O43 5303   6.300   5.541   2.898  0.4218  0.3217 -0.3044
   13CHTO  H101 5304   6.303   5.623   2.944 -0.5487 -0.3074  0.9157
   13CHTO   C66 5305   6.463   5.680   2.763  0.2849  0.1480 -0.7038
   13CHTO  H123 5306   6.493   5.706   2.662 -0.3952 -1.5290 -1.3688
   13CHTO   N12 5307   6.408   5.806   2.819  0.0106  0.6788  0.1299
   13CHTO  H110 5308   6.360   5.802   2.915  0.9693  1.1657  0.6452
   13CHTO  H111 5309   6.475   5.891   2.815  0.8342  0.0998  1.3192
   13CHTO   C69 5310   6.579   5.630   2.851 -0.9006  0.2258 -0.3623
   13CHTO  H126 5311   6.557   5.627   2.960  0.8362  0.1116 -0.0032
   13CHTO   O41 5312   6.626   5.492   2.799 -0.2577 -0.1472  0.3515
   13CHTO   C64 5313   6.515   5.387   2.789  0.2131  0.1645 -0.5275
   13CHTO  H121 5314   6.478   5.341   2.883  1.5785  0.1585  0.0239
   13CHTO   C71 5315   6.573   5.260   2.716 -0.1228  0.1382  0.4516
   13CHTO   O47 5316   6.611   5.298   2.579  0.2263  0.2862 -0.5080
   13CHTO  H104 5317   6.591   5.232   2.515 -1.2038  0.9478 -0.7785
   13CHTO   O34 5318   6.689   5.721   2.834  0.6075 -0.0644 -0.2202
   13CHTO   C49 5319   6.817   5.789   2.729  0.0731 -0.5369  0.3321
   13CHTO   H91 5320   6.834   5.721   2.646  1.3205  1.0654 -0.7629
   13CHTO   C47 5321   6.943   5.823   2.814 -0.3430  0.2030  0.0472
   13CHTO   H89 5322   7.017   5.879   2.753 -0.6260  0.0540 -0.4304
   13CHTO   O33 5323   7.005   5.701   2.860  0.2527 -0.2797 -0.3995
   13CHTO   H70 5324   7.070   5.718   2.926 -0.0661  1.0132 -0.4190
   13CHTO   C45 5325   6.901   5.912   2.944 -0.3609  0.4585 -0.3038
   13CHTO   H87 5326   6.859   5.850   3.023 -0.3741 -0.3738 -0.9587
   13CHTO    N8 5327   7.026   5.981   2.987 -0.2096 -0.1295 -0.1300
   13CHTO   H75 5328   7.047   6.072   2.932 -1.1780  0.0377 -0.2204
   13CHTO   H76 5329   7.023   6.007   3.092  1.2071 -0.1844 -0.0588
   13CHTO   C43 5330   6.776   6.002   2.903  0.4152 -0.5471 -0.4535
   13CHTO   H85 5331   6.694   5.933   2.920 -0.4454  0.7047  0.6030
   13CHTO   O29 5332   6.790   6.037   2.764 -0.1281  0.3933  0.3234
   13CHTO   C50 5333   6.759   5.924   2.676  0.2280 -1.1735 -0.0714
   13CHTO   H92 5334   6.650   5.914   2.671 -0.1018  1.5007  1.0108
   13CHTO   C54 5335   6.805   5.948   2.525 -0.4139  0.2011 -0.0924
   13CHTO   O36 5336   6.752   6.077   2.492  0.1315  0.4159 -0.0831
   13CHTO   H72 5337   6.745   6.061   2.400 -2.3436 -2.9127  0.5657
   13CHTO   O27 5338   6.738   6.105   2.994 -0.2297 -0.4004  0.0413
   13CHTO   C37 5339   6.714   6.239   3.009 -0.3040 -0.0408  0.0158
   13CHTO   H79 5340   6.696   6.263   3.115 -0.5145 -1.0305  0.2005
   13CHTO   C38 5341   6.831   6.329   2.956  0.2693 -1.1390 -0.4613
   13CHTO   H80 5342   6.858   6.290   2.857  0.4974 -1.9587 -0.0812
   13CHTO   O31 5343   6.946   6.308   3.037  0.4634 -0.6963  0.5089
   13CHTO   H68 5344   6.946   6.220   3.070 -1.0916 -1.5176 -1.5646
   13CHTO   C39 5345   6.797   6.485   2.952 -0.4608 -0.6848  0.4997
   13CHTO   H81 5346   6.776   6.516   3.054  0.6814 -2.9107  1.4431
   13CHTO    N7 5347   6.919   6.570   2.902 -0.1221 -0.0401  0.0110
   13CHTO   H73 5348   6.897   6.649   2.832  2.0283  0.2486 -0.3733
   13CHTO   H74 5349   6.989   6.590   2.982 -1.2534  0.5004  0.8854
   13CHTO   C40 5350   6.664   6.509   2.879  0.1672 -0.3006  0.3537
   13CHTO   H82 5351   6.681   6.489   2.773 -1.0564  0.4542  0.0017
   13CHTO   O26 5352   6.563   6.423   2.937 -0.2666  0.5788  0.1514
   13CHTO   C41 5353   6.582   6.280   2.928 -0.3394 -0.2952 -0.0015
   13CHTO   H83 5354   6.596   6.255   2.822  0.6061 -1.3394  0.3593
   13CHTO   C52 5355   6.457   6.215   2.989  0.2881  0.0097 -0.3402
   13CHTO   O35 5356   6.332   6.266   2.920  0.2231 -0.2102 -0.4047
   13CHTO   H71 5357   6.324   6.230   2.834 -0.0959 -0.2589 -0.3557
   13CHTO   O28 5358   6.607   6.640   2.890 -0.8446 -0.6022  0.2534
   13CHTO   C42 5359   6.531   6.697   2.774 -0.7038  0.7861 -0.6318
   13CHTO   H84 5360   6.504   6.612   2.711  1.9577  0.5317 -1.4713
   13CHTO   C44 5361   6.604   6.796   2.679 -0.2511  0.4704 -0.3310
   13CHTO   H86 5362   6.641   6.880   2.738  4.6259 -1.2272 -0.7074
   13CHTO   O32 5363   6.719   6.737   2.611 -0.2651  0.1289  0.5648
   13CHTO   H69 5364   6.796   6.791   2.617 -0.0885 -0.0737  0.0912
   13CHTO   C48 5365   6.499   6.854   2.576 -0.2340 -0.0686  0.0488
   13CHTO   H90 5366   6.463   6.770   2.516 -2.0855  0.0895  0.8932
   13CHTO    N9 5367   6.553   6.950   2.476  0.2316 -0.3067  0.8458
   13CHTO   H77 5368   6.578   7.047   2.516  0.4883  0.1328 -0.3785
   13CHTO   H78 5369   6.629   6.912   2.411 -1.5726 -1.0406 -0.8768
   13CHTO   C51 5370   6.382   6.918   2.654 -0.1421  0.0501 -0.4938
   13CHTO   H93 5371   6.424   6.995   2.719 -1.0597  0.2360 -0.0980
   13CHTO   O30 5372   6.320   6.812   2.727 -0.1849 -0.7782 -0.2931
   13CHTO   C46 5373   6.393   6.747   2.829  0.5746 -0.2406  0.1093
   13CHTO   H88 5374   6.415   6.821   2.907  1.5258  1.5616 -1.8141
   13CHTO   C53 5375   6.290   6.650   2.880  0.0233  0.2049 -0.2812
   13CHTO   O72 5376   6.216   6.714   2.987 -0.5071 -0.0641 -0.1954
   13CHTO  H199 5377   6.272   6.716   3.063  0.0677 -0.5793 -0.6017
   13CHTO   O22 5378   6.271   6.971   2.572  0.2499 -0.3142  0.0843
   13CHTO   C31 5379   6.185   7.072   2.634 -0.4872 -0.1514  0.3175
   13CHTO   H59 5380   6.099   7.082   2.565 -0.4941  1.4894  0.5425
   13CHTO   C29 5381   6.124   7.029   2.767 -0.2186 -0.2687 -0.0272
   13CHTO   H57 5382   6.202   7.007   2.841  0.9214 -1.1304 -1.4556
   13CHTO   O21 5383   6.051   6.910   2.739 -0.2041 -0.0619 -0.3904
   13CHTO   H37 5384   6.061   6.858   2.816 -1.4607 -0.2546 -0.3354
   13CHTO   C27 5385   6.025   7.144   2.816  0.1448  0.1376 -0.3526
   13CHTO   H55 5386   5.934   7.140   2.754  0.9082 -1.2955 -1.4177
   13CHTO    N5 5387   5.983   7.117   2.951  0.5487  0.3193  0.0132
   13CHTO   H43 5388   5.903   7.181   2.983  1.1713  0.8988  0.4197
   13CHTO   H44 5389   6.068   7.136   3.016 -0.1938 -0.0198  1.0955
   13CHTO   C25 5390   6.094   7.288   2.807 -0.4499 -0.1587 -0.4271
   13CHTO   H53 5391   6.176   7.301   2.879 -0.4154  3.6187 -1.0755
   13CHTO   O17 5392   6.147   7.321   2.674 -0.0179  0.3411 -0.1355
   13CHTO   C32 5393   6.246   7.219   2.631  1.0659 -0.2420 -1.4440
   13CHTO   H60 5394   6.325   7.221   2.707 -0.2282  0.9466 -0.0934
   13CHTO   C36 5395   6.317   7.250   2.496 -0.1150  0.2379 -0.5240
   13CHTO   O25 5396   6.367   7.385   2.497  0.3112 -0.2572 -0.3912
   13CHTO   H40 5397   6.417   7.407   2.573 -1.4070  1.0627  0.3767
   13CHTO   O15 5398   6.000   7.396   2.834  0.1890 -0.1095  0.4192
   13CHTO   C19 5399   5.895   7.483   2.775 -0.3903 -0.3380  0.3774
   13CHTO   H47 5400   5.909   7.575   2.832 -0.3365  0.3631 -0.7562
   13CHTO   C20 5401   5.896   7.518   2.625 -0.4131  1.1316  0.0535
   13CHTO   H48 5402   5.894   7.427   2.563 -0.3525 -0.1748  1.9207
   13CHTO   O19 5403   6.013   7.593   2.617 -0.3872 -0.3106  0.3838
   13CHTO   H35 5404   6.051   7.595   2.532  2.0214 -0.3950  1.4245
   13CHTO   C21 5405   5.775   7.604   2.584  0.2381 -0.6951 -0.1750
   13CHTO   H49 5406   5.785   7.703   2.628 -1.6978  0.4095 -2.1143
   13CHTO    N4 5407   5.775   7.630   2.437  0.1192 -0.1081  0.4509
   13CHTO   H41 5408   5.801   7.540   2.383  2.1146 -0.0376  1.2380
   13CHTO   H42 5409   5.839   7.711   2.405 -2.6785  2.3754  0.9256
   13CHTO   C22 5410   5.641   7.539   2.636  0.1536  0.3090  0.4075
   13CHTO   H50 5411   5.628   7.447   2.580 -1.5286  0.6785  0.1552
   13CHTO   O14 5412   5.650   7.518   2.782 -0.6380  0.8592  0.1206
   13CHTO   C23 5413   5.755   7.431   2.818 -0.1467 -0.1388 -0.0265
   13CHTO   H51 5414   5.730   7.334   2.774  0.8425  0.3658 -1.7060
   13CHTO   C34 5415   5.752   7.408   2.969  0.2384 -0.9079  0.2170
   13CHTO   O23 5416   5.624   7.359   3.008 -0.1519 -0.1032 -0.3818
   13CHTO   H38 5417   5.564   7.428   3.026 -0.9762  0.3329 -4.3191
   13CHTO   O16 5418   5.522   7.622   2.616 -0.7064  0.1828  0.1733
   13CHTO   C24 5419   5.379   7.549   2.678 -0.1133  0.0116 -0.0345
   13CHTO   H52 5420   5.397   7.502   2.775 -0.3424 -0.4438 -0.2110
   13CHTO   C26 5421   5.325   7.441   2.579 -0.4642  0.4300 -0.0974
   13CHTO   H54 5422   5.320   7.486   2.478 -2.9645 -1.2197 -0.7507
   13CHTO   O20 5423   5.413   7.328   2.572 -0.2444  0.1861 -0.2729
   13CHTO   H36 5424   5.487   7.354   2.522  0.5620  0.7672  1.1942
   13CHTO   C30 5425   5.183   7.390   2.612 -0.8227 -0.3934  0.6284
   13CHTO   H58 5426   5.186   7.333   2.707  0.3825 -2.1533 -0.4146
   13CHTO    N6 5427   5.127   7.300   2.506 -0.4108 -0.3810  0.2880
   13CHTO   H45 5428   5.111   7.202   2.549  1.1592 -2.0714 -2.7737
   13CHTO   H46 5429   5.031   7.339   2.476 -0.7583 -0.9561  0.6311
   13CHTO   C33 5430   5.094   7.517   2.636 -0.3375 -0.0518 -0.0231
   13CHTO   H61 5431   5.106   7.577   2.545  2.4224  0.7872  0.8490
   13CHTO   O18 5432   5.155   7.592   2.742  0.7945  0.0354  0.5625
   13CHTO   C28 5433   5.276   7.654   2.700 -0.0933  0.5208  0.1942
   13CHTO   H56 5434   5.258   7.705   2.605  0.4958  1.4493  0.5755
   13CHTO   C35 5435   5.326   7.745   2.820  0.0695 -0.3109  0.0784
   13CHTO   O24 5436   5.226   7.843   2.845 -0.1112  0.0258 -0.2041
   13CHTO   H39 5437   5.155   7.794   2.882 -1.0975  0.8318 -0.9817
   13CHTO    O9 5438   4.952   7.502   2.664 -0.1620  0.0576  0.2172
   13CHTO   C13 5439   4.922   7.397   2.791 -0.4865  0.0757 -0.4326
   13CHTO   H26 5440   5.014   7.395   2.852 -0.1611 -0.4388 -0.9431
   13CHTO   C11 5441   4.882   7.244   2.744  0.3893  0.3536 -0.0104
   13CHTO   H24 5442   4.958   7.194   2.682  0.5246  0.3581  0.1514
   13CHTO    O8 5443   4.767   7.258   2.657 -0.7587  0.1045  0.0616
   13CHTO    H3 5444   4.735   7.179   2.618 -0.8216  0.5445 -0.7963
   13CHTO    C9 5445   4.853   7.158   2.870  0.5869  0.4090  0.0450
   13CHTO   H22 5446   4.948   7.157   2.925  0.5805 -0.5573  0.0476
   13CHTO    N2 5447   4.835   7.017   2.845 -0.0194  0.0863  0.6234
   13CHTO   H10 5448   4.933   6.978   2.821  0.0363  0.4913  0.1738
   13CHTO   H11 5449   4.772   7.009   2.757  0.6913  0.1486  0.1049
   13CHTO    C7 5450   4.749   7.229   2.964  0.4899 -0.1734 -0.1648
   13CHTO   H20 5451   4.815   7.245   3.052  1.0060 -0.0301 -0.5821
   13CHTO    O4 5452   4.714   7.358   2.925 -0.0191  0.5377 -0.0048
   13CHTO   C14 5453   4.810   7.457   2.884 -0.3209 -0.4531 -0.1803
   13CHTO   H27 5454   4.866   7.495   2.972  0.2466  0.7266 -1.0373
   13CHTO   C18 5455   4.736   7.574   2.821  0.1238  0.0049 -0.3379
   13CHTO   O13 5456   4.649   7.529   2.715  0.4975 -0.2474 -0.0220
   13CHTO    H7 5457   4.696   7.489   2.645  1.1367  1.0746 -0.3541
   13CHTO    O2 5458   4.611   7.148   3.000 -0.1185 -0.3732  0.1619
   13CHTO    C1 5459   4.591   7.118   3.143 -0.5740  0.3962 -0.3574
   13CHTO   H14 5460   4.660   7.176   3.207 -1.1987  0.8643 -0.0992
   13CHTO    C2 5461   4.622   6.969   3.179 -0.5281  0.2699 -0.3829
   13CHTO   H15 5462   4.568   6.897   3.115  0.4965  0.0538 -1.0025
   13CHTO    O6 5463   4.758   6.944   3.145 -0.4884  1.2429 -0.0996
   13CHTO    H1 5464   4.766   6.931   3.053 -0.7553  1.5044 -0.1599
   13CHTO    C3 5465   4.591   6.940   3.338 -0.1071 -0.1120  1.0460
   13CHTO   H16 5466   4.657   6.992   3.409  0.3134 -2.4427  2.3996
   13CHTO    N1 5467   4.591   6.791   3.369  0.1567  0.1749 -0.1607
   13CHTO    H8 5468   4.546   6.782   3.467 -1.9148  2.2587 -0.8899
   13CHTO    H9 5469   4.522   6.741   3.303  1.2085 -0.6592 -0.6497
   13CHTO    C4 5470   4.443   6.995   3.366 -0.0147  0.3731 -1.0208
   13CHTO   H17 5471   4.370   6.931   3.316 -0.6358 -0.7363  1.2445
   13CHTO    O1 5472   4.424   7.133   3.328 -0.2477 -0.0569  1.0470
   13CHTO    C5 5473   4.445   7.148   3.188 -0.5077 -0.5380  0.5309
   13CHTO   H18 5474   4.379   7.088   3.125 -0.0126 -0.0823 -0.4207
   13CHTO   C16 5475   4.425   7.296   3.166 -0.0227 -0.5021 -0.1079
   13CHTO   O11 5476   4.372   7.332   3.034  0.1932 -0.3401  0.7876
   13CHTO    H5 5477   4.368   7.426   3.042 -0.4631 -0.5652  3.9602
   13CHTO    O3 5478   4.411   6.995   3.506 -0.2532  0.4102 -0.0778
   13CHTO    C6 5479   4.271   7.011   3.544  0.5016 -0.1415  0.3109
   13CHTO   H19 5480   4.214   7.061   3.466 -1.0741 -1.2422  0.7224
   13CHTO    C8 5481   4.199   6.881   3.580 -0.2347  0.9853 -0.3166
   13CHTO   H21 5482   4.265   6.830   3.650 -0.3928  2.2064  0.7420
   13CHTO    O7 5483   4.186   6.792   3.466 -0.3879  0.0186  0.2337
   13CHTO    H2 5484   4.255   6.802   3.403 -0.6220  2.6977  0.3449
   13CHTO   C12 5485   4.059   6.899   3.647 -0.1836  0.3501  0.2311
   13CHTO   H25 5486   3.994   6.933   3.563 -0.6608 -1.2967 -0.0791
   13CHTO    N3 5487   4.002   6.769   3.698  0.3643 -0.1520 -0.2392
   13CHTO   H12 5488   3.954   6.787   3.794  0.1830 -0.2346 -0.3131
   13CHTO   H13 5489   3.930   6.719   3.635  0.6537  1.6744 -2.0724
   13CHTO   C15 5490   4.062   7.009   3.756  0.2788  0.2474  0.4731
   13CHTO   H28 5491   4.103   6.971   3.850  0.4543  0.9303  0.6808
   13CHTO   O10 5492   3.932   7.053   3.786  0.2651 -0.5043 -0.7559
   13CHTO    H4 5493   3.936   7.140   3.821  2.8938 -1.1372  0.6476
   13CHTO    O5 5494   4.132   7.127   3.708  0.3849 -0.3125 -0.0264
   13CHTO   C10 5495   4.269   7.105   3.667 -0.4180  0.8063  0.0828
   13CHTO   H23 5496   4.321   7.079   3.759 -0.4675 -0.8205 -0.3441
   13CHTO   C17 5497   4.325   7.246   3.641  0.1760 -0.1525 -0.3013
   13CHTO   O12 5498   4.289   7.300   3.513 -0.3817 -0.3510  0.4976
   13CHTO    H6 5499   4.213   7.262   3.475 -0.6460  1.4550 -0.8397
   14CHTO  H203 5500   6.102   5.057   2.146 -2.4406  1.6631  0.7893
   14CHTO   O82 5501   6.066   5.007   2.076 -0.1186  0.1576  0.6202
   14CHTO  C123 5502   5.926   4.994   2.092 -0.7388  0.0587 -0.0746
   14CHTO  H227 5503   5.891   5.095   2.121  2.1609  0.9357  0.5742
   14CHTO   O77 5504   5.868   4.961   1.961 -0.1265 -0.1859  0.2392
   14CHTO  C118 5505   5.730   4.919   1.960  0.2923 -0.0058 -0.3578
   14CHTO  H222 5506   5.668   4.998   2.006 -2.3038 -0.4567 -2.9134
   14CHTO  C125 5507   5.685   4.906   1.814  0.1251  0.2179  0.1008
   14CHTO   O84 5508   5.662   5.031   1.752 -0.0011 -0.2927 -0.4730
   14CHTO  H205 5509   5.604   5.080   1.806  0.7246 -0.1804  0.2160
   14CHTO  C114 5510   5.714   4.794   2.048 -0.3994 -0.1858 -0.0034
   14CHTO  H218 5511   5.782   4.716   2.015 -1.8579 -0.7429 -1.7737
   14CHTO  C116 5512   5.754   4.832   2.194  0.0624  0.3197 -0.1842
   14CHTO  H220 5513   5.689   4.911   2.238 -1.5868 -1.6121  0.9072
   14CHTO   O79 5514   5.730   4.719   2.273 -0.0005  0.4838  0.1707
   14CHTO  H201 5515   5.689   4.649   2.226 -0.9076  1.6797 -0.8394
   14CHTO  C120 5516   5.907   4.877   2.202 -0.2733 -0.3960  0.2674
   14CHTO  H224 5517   5.967   4.786   2.175  0.8604  0.0709  1.1825
   14CHTO   N21 5518   5.954   4.916   2.337  0.3492 -0.2790 -0.3982
   14CHTO  H211 5519   5.937   5.018   2.370  0.3501 -0.2155 -0.5907
   14CHTO  H212 5520   6.053   4.888   2.369 -0.0342 -2.0392 -0.7207
   14CHTO   O75 5521   5.576   4.748   2.024 -0.2241 -0.1142  0.6967
   14CHTO  C112 5522   5.552   4.578   1.971 -0.0067  0.1919 -0.1811
   14CHTO  H216 5523   5.646   4.526   1.996  0.6208  0.8662 -1.1123
   14CHTO   O73 5524   5.530   4.576   1.827 -0.0410  0.0506  0.0214
   14CHTO  C113 5525   5.463   4.464   1.772  0.5256 -0.4280 -0.1297
   14CHTO  H217 5526   5.539   4.386   1.792  4.0210  2.5825 -0.9492
   14CHTO  C124 5527   5.464   4.487   1.627 -0.2782  0.2478  0.6172
   14CHTO   O83 5528   5.384   4.597   1.583 -0.0868  0.5277 -0.0292
   14CHTO  H204 5529   5.429   4.675   1.607 -1.1836  1.4033 -0.7782
   14CHTO  C109 5530   5.328   4.439   1.828  0.2459 -0.2156 -0.0139
   14CHTO  H213 5531   5.274   4.533   1.809  0.1754 -0.1295  0.5965
   14CHTO  C110 5532   5.342   4.414   1.983 -0.2722 -0.3590 -0.3047
   14CHTO  H214 5533   5.401   4.322   1.985  0.9591  0.3936 -1.6613
   14CHTO   O78 5534   5.206   4.411   2.042 -0.3659 -0.0961  0.4776
   14CHTO  H200 5535   5.156   4.344   1.999  0.2976 -0.1180 -0.2594
   14CHTO  C111 5536   5.420   4.527   2.052  0.2942 -0.0959 -0.1542
   14CHTO  H215 5537   5.350   4.611   2.067  0.4920 -0.0631  0.6177
   14CHTO   N19 5538   5.464   4.487   2.187 -0.7777  0.6390  0.3076
   14CHTO  H207 5539   5.566   4.522   2.197  0.1938 -2.1788  0.7385
   14CHTO  H208 5540   5.397   4.522   2.264 -2.2173  0.7351 -0.9616
   14CHTO   O74 5541   5.263   4.329   1.744 -0.2015 -0.6947  0.3724
   14CHTO  C115 5542   5.154   4.386   1.610  0.1594 -0.3155 -0.0028
   14CHTO  H219 5543   5.159   4.494   1.596  0.5862 -0.4979 -1.2487
   14CHTO   O76 5544   5.194   4.318   1.462  0.5165  0.3150  0.2222
   14CHTO  C122 5545   5.120   4.204   1.421 -0.4020 -0.5438  0.2038
   14CHTO  H226 5546   5.135   4.125   1.495 -2.3563 -2.4560 -1.3596
   14CHTO  C126 5547   5.184   4.149   1.292 -0.3629  0.2070 -0.1591
   14CHTO   O85 5548   5.140   4.011   1.281  0.0147  0.3226 -0.3184
   14CHTO  H206 5549   5.219   3.962   1.291  1.0649  1.5456 -2.2236
   14CHTO  C121 5550   4.965   4.248   1.408 -0.3918 -0.0447 -0.2770
   14CHTO  H225 5551   4.938   4.294   1.310  0.1581  0.5287 -0.1634
   14CHTO   O81 5552   4.874   4.138   1.413 -0.0402 -0.0219 -0.5112
   14CHTO  H202 5553   4.917   4.078   1.355  1.7726 -0.1517  0.9150
   14CHTO  C119 5554   4.916   4.347   1.516 -0.7255 -0.0947 -0.0947
   14CHTO  H223 5555   4.945   4.440   1.467  1.0766  0.5089  2.0744
   14CHTO  C117 5556   5.006   4.349   1.650  0.3902 -0.1070 -0.1065
   14CHTO  H221 5557   5.004   4.252   1.699 -3.1385  0.8208  1.7904
   14CHTO   N20 5558   4.964   4.446   1.755  0.0167  0.6190 -0.0695
   14CHTO  H209 5559   4.997   4.544   1.724  1.4230  0.3005  0.3698
   14CHTO  H210 5560   5.002   4.407   1.848 -3.1737  0.4981  1.2314
   14CHTO   O80 5561   4.758   4.360   1.529 -0.3541 -0.1624  0.4487
   14CHTO  C103 5562   4.690   4.435   1.426  0.9405  0.0674  0.2073
   14CHTO  H190 5563   4.757   4.476   1.350  0.6716 -0.9894 -0.5991
   14CHTO  C101 5564   4.581   4.351   1.349  0.5662  0.6477  0.7297
   14CHTO  H188 5565   4.519   4.295   1.418 -0.6336  0.5483 -0.4124
   14CHTO   O68 5566   4.637   4.249   1.276  0.0371  0.0116 -0.2574
   14CHTO  H168 5567   4.730   4.255   1.266  0.1839 -0.3773  0.8459
   14CHTO   C99 5568   4.497   4.450   1.261  0.6767 -1.1064 -0.5422
   14CHTO  H186 5569   4.556   4.493   1.177  0.7930 -2.1476 -0.9957
   14CHTO   N17 5570   4.381   4.384   1.193 -0.3938 -0.1704  0.4473
   14CHTO  H174 5571   4.419   4.308   1.126  2.0108  1.7806 -0.4942
   14CHTO  H175 5572   4.315   4.334   1.262  1.9930  1.1243  3.8088
   14CHTO   C97 5573   4.438   4.572   1.342 -0.1333 -0.1137 -0.3235
   14CHTO  H184 5574   4.362   4.536   1.412  0.5519  1.8319  1.4823
   14CHTO   O64 5575   4.543   4.640   1.412  0.2270 -0.7297 -0.2111
   14CHTO  C104 5576   4.623   4.560   1.499  0.0021  0.1597  0.0085
   14CHTO  H191 5577   4.552   4.523   1.573 -0.7649  0.0948 -0.7622
   14CHTO  C108 5578   4.711   4.652   1.582  0.0070 -0.2096 -0.0097
   14CHTO   O71 5579   4.627   4.726   1.676 -0.1810  0.1826 -0.2725
   14CHTO  H171 5580   4.563   4.776   1.628 -0.7391 -0.5754 -0.3368
   14CHTO   O62 5581   4.385   4.678   1.258 -0.5208  0.0524 -0.0919
   14CHTO   C91 5582   4.262   4.741   1.289  0.7792 -1.0644 -0.1094
   14CHTO  H178 5583   4.189   4.661   1.296  0.6688 -1.0126 -0.6360
   14CHTO   C92 5584   4.200   4.823   1.167 -0.3141  0.9685 -0.8335
   14CHTO  H179 5585   4.208   4.774   1.069  0.6645 -2.4165  0.8729
   14CHTO   O66 5586   4.062   4.858   1.189  0.3822 -0.2006 -0.0270
   14CHTO  H166 5587   4.028   4.900   1.113  2.1732  1.6685  0.1596
   14CHTO   C93 5588   4.276   4.959   1.145  0.7218 -0.1951 -0.5317
   14CHTO  H180 5589   4.208   5.014   1.079  0.7769  1.0993  0.4573
   14CHTO   N16 5590   4.402   4.947   1.067 -0.2183  0.3639 -1.0234
   14CHTO  H172 5591   4.383   4.899   0.972  0.7762  1.5815 -1.8452
   14CHTO  H173 5592   4.461   5.037   1.076  0.9243 -0.5177  0.5803
   14CHTO   C94 5593   4.293   5.039   1.278  0.7314 -0.2852 -0.3039
   14CHTO  H181 5594   4.397   5.042   1.312  0.8657 -1.1186 -0.6304
   14CHTO   O61 5595   4.221   4.975   1.385 -0.2038  0.3125 -0.4001
   14CHTO   C95 5596   4.275   4.843   1.416 -0.5299  0.7451  0.0028
   14CHTO  H182 5597   4.378   4.862   1.444 -1.2480  0.5395  2.9650
   14CHTO  C106 5598   4.211   4.793   1.553  0.3671  0.5382  0.1238
   14CHTO   O69 5599   4.072   4.825   1.569 -1.0132  1.1944  0.1380
   14CHTO  H169 5600   4.022   4.783   1.502  0.4243  0.6232 -0.5901
   14CHTO   O63 5601   4.245   5.178   1.240  0.0286  0.7888  0.3213
   14CHTO   C96 5602   4.341   5.295   1.297 -0.8120  0.0851  0.1196
   14CHTO  H183 5603   4.288   5.386   1.268 -1.9392 -0.2029  1.2288
   14CHTO   C98 5604   4.492   5.294   1.248 -0.6574 -0.6585  0.6180
   14CHTO  H185 5605   4.536   5.195   1.267 -0.6861 -1.0945 -1.4177
   14CHTO   O67 5606   4.482   5.306   1.105  0.3364  0.2587 -0.0816
   14CHTO  H167 5607   4.492   5.393   1.073  1.6659  0.1263 -0.0737
   14CHTO  C102 5608   4.586   5.409   1.317 -0.5331  0.5038  0.2024
   14CHTO  H189 5609   4.548   5.508   1.286 -1.9940 -0.8817 -2.6777
   14CHTO   N18 5610   4.729   5.409   1.280  0.2453 -0.0384  0.2660
   14CHTO  H176 5611   4.753   5.317   1.228  0.0381  0.4868 -0.7717
   14CHTO  H177 5612   4.778   5.397   1.376 -1.6307  1.0800  1.3950
   14CHTO  C105 5613   4.561   5.401   1.471 -0.3065 -1.0710 -0.2562
   14CHTO  H192 5614   4.588   5.302   1.509 -1.2480 -1.4377 -0.5205
   14CHTO   O65 5615   4.421   5.416   1.504 -0.0623  0.0383  0.4689
   14CHTO  C100 5616   4.345   5.299   1.460 -0.3285  0.7294 -0.2331
   14CHTO  H187 5617   4.391   5.204   1.492 -1.7274  0.4043  0.8570
   14CHTO  C107 5618   4.205   5.295   1.528  0.4115  0.9049  0.7034
   14CHTO   O70 5619   4.212   5.306   1.671  0.6118 -0.4032  0.4107
   14CHTO  H170 5620   4.237   5.225   1.712 -0.1972 -0.9124 -0.0878
   14CHTO   O57 5621   4.638   5.522   1.539  0.1181 -0.0695 -0.2862
   14CHTO   C85 5622   4.688   5.508   1.675 -0.2108 -0.2594 -0.5784
   14CHTO  H157 5623   4.670   5.401   1.697 -1.0322  0.0637  0.3864
   14CHTO   C83 5624   4.593   5.580   1.776  0.1597 -0.3529  0.3357
   14CHTO  H155 5625   4.497   5.529   1.772  0.2555 -0.4498 -0.9513
   14CHTO   O56 5626   4.566   5.719   1.730  0.0005  0.4457 -0.1613
   14CHTO  H135 5627   4.540   5.714   1.640  1.6277  5.4616 -1.0170
   14CHTO   C81 5628   4.641   5.561   1.922  0.1069  0.6863  0.4124
   14CHTO  H153 5629   4.653   5.454   1.938 -0.0314  0.6206  0.0736
   14CHTO   N14 5630   4.549   5.607   2.023 -0.0565  0.4834 -0.3991
   14CHTO  H141 5631   4.593   5.604   2.120  1.5031  0.5067 -1.0844
   14CHTO  H142 5632   4.514   5.705   1.998  0.1020  0.1183 -2.1375
   14CHTO   C79 5633   4.787   5.622   1.931 -0.1573  0.0948  0.0573
   14CHTO  H151 5634   4.823   5.608   2.032  1.6460  0.2328 -0.5555
   14CHTO   O52 5635   4.878   5.548   1.847  0.2840  0.3128  0.2933
   14CHTO   C86 5636   4.837   5.550   1.705  0.0205 -0.2704 -0.5192
   14CHTO  H158 5637   4.847   5.657   1.679  1.2592  0.0055  0.9736
   14CHTO   C90 5638   4.916   5.462   1.602 -0.1858  0.4687 -0.3348
   14CHTO   O60 5639   5.056   5.479   1.601 -0.7716 -0.0022 -0.0706
   14CHTO  H138 5640   5.088   5.547   1.545  0.2729 -2.0422 -1.9704
   14CHTO   O50 5641   4.801   5.760   1.908 -0.0220  0.2428  0.3208
   14CHTO   C73 5642   4.836   5.901   1.927 -0.7031  0.4562 -0.1909
   14CHTO  H145 5643   4.803   5.935   2.026  1.7922  1.2796  0.3866
   14CHTO   C74 5644   4.774   5.998   1.816  0.1525  0.2208 -0.2221
   14CHTO  H146 5645   4.665   5.986   1.824  0.1013  1.4226  0.9251
   14CHTO   O54 5646   4.806   6.138   1.848  0.0536  0.0817 -0.2503
   14CHTO  H133 5647   4.754   6.192   1.791 -0.3567  0.7732  0.7651
   14CHTO   C75 5648   4.831   5.950   1.675 -0.2882 -0.4413  0.3178
   14CHTO  H147 5649   4.803   5.846   1.655  1.7370 -1.2912  1.6916
   14CHTO   N13 5650   4.769   6.017   1.558 -0.1051 -0.0452 -0.6346
   14CHTO  H139 5651   4.809   5.989   1.461 -0.6062  1.6330 -1.3484
   14CHTO  H140 5652   4.777   6.125   1.552 -0.8281 -0.0431 -1.8869
   14CHTO   C76 5653   4.994   5.952   1.680  0.1402  0.3182  0.3189
   14CHTO  H148 5654   5.028   6.055   1.694  1.2976 -0.1237  0.8420
   14CHTO   O49 5655   5.039   5.868   1.792  0.1538  0.1612  0.0318
   14CHTO   C77 5656   4.992   5.906   1.921  0.5250  0.6498 -0.0342
   14CHTO  H149 5657   5.026   6.008   1.940  0.8012  0.2390  1.7762
   14CHTO   C88 5658   5.068   5.829   2.031  0.1501 -0.0919 -0.5222
   14CHTO   O58 5659   5.200   5.885   2.039  0.3364  0.0580  0.9058
   14CHTO  H136 5660   5.258   5.829   2.087  2.1186 -0.2646 -1.5227
   14CHTO   O51 5661   5.051   5.888   1.550 -0.1990  0.0781 -0.7374
   14CHTO   C78 5662   5.224   5.941   1.522 -0.9290 -0.1312  0.4591
   14CHTO  H150 5663   5.276   5.973   1.615  0.0540 -0.7827  0.1381
   14CHTO   C80 5664   5.222   6.060   1.421  0.5202 -0.3746  0.4965
   14CHTO  H152 5665   5.174   6.021   1.329  2.3245 -1.2445 -0.1069
   14CHTO   O55 5666   5.157   6.169   1.486 -0.3533  0.0022  0.1529
   14CHTO  H134 5667   5.115   6.222   1.421 -0.0751 -1.7335 -1.5196
   14CHTO   C84 5668   5.369   6.106   1.380 -0.1323 -0.1889  0.4488
   14CHTO  H156 5669   5.426   6.146   1.463  0.7579 -1.0798  0.2647
   14CHTO   N15 5670   5.371   6.209   1.266  0.1484  0.0728 -0.8258
   14CHTO  H143 5671   5.316   6.179   1.180  0.4563  1.0248 -1.3623
   14CHTO  H144 5672   5.343   6.304   1.307  3.6414  0.4488  0.8854
   14CHTO   C87 5673   5.450   5.982   1.334  0.5769 -0.1156 -0.0481
   14CHTO  H159 5674   5.412   5.943   1.240  0.2471  1.6268 -0.6606
   14CHTO   O53 5675   5.443   5.871   1.425 -0.1699 -0.3404 -0.2539
   14CHTO   C82 5676   5.312   5.827   1.464 -0.3356 -0.1511  0.3795
   14CHTO  H154 5677   5.272   5.783   1.372  0.0867 -0.9782  0.5865
   14CHTO   C89 5678   5.322   5.708   1.567 -0.5876 -0.2961  0.2317
   14CHTO   O59 5679   5.396   5.735   1.694  0.2019  0.3924  0.0481
   14CHTO  H137 5680   5.438   5.656   1.722 -1.7781 -0.0957  1.8016
   14CHTO   O45 5681   5.604   6.009   1.313  0.4203  0.0601 -0.0072
   14CHTO   C67 5682   5.671   5.901   1.259 -1.2207  0.2702  0.3929
   14CHTO  H124 5683   5.627   5.808   1.297  0.0524 -1.6147 -2.5627
   14CHTO   C65 5684   5.672   5.897   1.105 -0.6859  0.0338 -0.2710
   14CHTO  H122 5685   5.570   5.906   1.066 -1.1075 -4.0944 -0.4058
   14CHTO   O44 5686   5.714   5.763   1.071 -0.4888 -0.6742 -0.3403
   14CHTO  H102 5687   5.797   5.741   1.108 -0.5255 -0.1044  0.0926
   14CHTO   C63 5688   5.757   6.019   1.048  0.1064 -0.4031 -0.3862
   14CHTO  H120 5689   5.706   6.112   1.075  1.7849  0.4328 -0.0109
   14CHTO   N11 5690   5.760   6.030   0.900  0.7491 -0.9237  0.9545
   14CHTO  H108 5691   5.702   5.956   0.850 -2.1547  2.3416 -0.7225
   14CHTO  H109 5692   5.859   6.038   0.861  0.1858  1.0588 -0.1179
   14CHTO   C61 5693   5.904   6.027   1.110 -1.0256 -0.0705 -0.9572
   14CHTO  H118 5694   5.943   6.128   1.091 -2.3801  1.2053  2.6944
   14CHTO   O40 5695   5.896   6.016   1.257  0.1780  0.0185  0.4312
   14CHTO   C68 5696   5.808   5.910   1.318  0.0428 -0.2543  0.4971
   14CHTO  H125 5697   5.780   5.937   1.422  1.2821 -1.2508  1.1046
   14CHTO   C72 5698   5.882   5.776   1.335 -0.1872  0.1271 -0.1108
   14CHTO   O48 5699   6.002   5.785   1.415 -0.3667 -0.0605  0.0284
   14CHTO  H105 5700   5.985   5.758   1.503 -0.1307 -1.1635 -0.2519
   14CHTO   O38 5701   5.995   5.918   1.063  0.3218 -0.0148 -0.0358
   14CHTO   C55 5702   6.127   5.943   1.011  0.3810 -0.5546 -0.3795
   14CHTO  H112 5703   6.122   6.040   0.959  0.7513 -0.8536 -0.9677
   14CHTO   C56 5704   6.168   5.823   0.914 -0.2815  0.1952 -0.2641
   14CHTO  H113 5705   6.141   5.727   0.959  0.8040 -0.3300 -0.7079
   14CHTO   O42 5706   6.078   5.838   0.802 -0.1227 -0.1312  0.0371
   14CHTO  H100 5707   6.114   5.902   0.743 -0.9711  0.3802  0.0604
   14CHTO   C57 5708   6.319   5.828   0.871 -0.1437 -0.1246 -0.2478
   14CHTO  H114 5709   6.324   5.910   0.800  0.3689  0.7870  0.8369
   14CHTO   N10 5710   6.372   5.702   0.807  0.3645  0.4374  0.5915
   14CHTO  H106 5711   6.480   5.700   0.808  0.4632 -1.3450 -3.3141
   14CHTO  H107 5712   6.336   5.709   0.706 -0.0387 -1.1530  0.6048
   14CHTO   C58 5713   6.406   5.861   0.993 -0.0727 -0.2042 -0.5863
   14CHTO  H115 5714   6.412   5.775   1.062 -3.1463 -0.2851 -0.3335
   14CHTO   O37 5715   6.358   5.976   1.056 -0.1228 -0.3462 -0.3466
   14CHTO   C59 5716   6.235   5.954   1.127 -0.9447 -0.8234 -0.3024
   14CHTO  H116 5717   6.240   5.865   1.190 -3.8612 -0.1500  0.9773
   14CHTO   C70 5718   6.217   6.071   1.222  0.1049  0.4079  0.1152
   14CHTO   O46 5719   6.291   6.054   1.349  0.1108  0.4902 -0.1362
   14CHTO  H103 5720   6.252   6.118   1.405 -0.4927  1.1264 -1.2709
   14CHTO   O39 5721   6.570   5.903   0.949  0.4316 -0.0172 -0.4380
   14CHTO   C60 5722   6.667   5.799   0.960 -0.7189 -0.3002 -0.3136
   14CHTO  H117 5723   6.616   5.705   0.981  1.0969 -1.1708  0.3368
   14CHTO   C62 5724   6.745   5.778   0.832 -0.5925 -0.6539 -0.3469
   14CHTO  H119 5725   6.664   5.759   0.757 -1.4722  1.4494  0.0344
   14CHTO   O43 5726   6.816   5.895   0.782  0.0337 -0.2527  0.6818
   14CHTO  H101 5727   6.859   5.869   0.702  0.4976  0.1087  0.8107
   14CHTO   C66 5728   6.835   5.651   0.852 -0.2343 -0.5111  0.2265
   14CHTO  H123 5729   6.771   5.572   0.891 -0.8481  0.0841  0.4482
   14CHTO   N12 5730   6.906   5.606   0.729  0.3628 -0.5882 -0.0730
   14CHTO  H110 5731   6.851   5.525   0.684 -1.4866  1.0356 -0.8041
   14CHTO  H111 5732   6.937   5.689   0.667 -0.2120  0.9270  1.6132
   14CHTO   C69 5733   6.939   5.677   0.963 -0.4163 -0.0313  0.3096
   14CHTO  H126 5734   7.010   5.760   0.941  0.4828 -0.8007  0.2860
   14CHTO   O41 5735   6.865   5.712   1.096  0.7447 -0.2218  0.2829
   14CHTO   C64 5736   6.761   5.830   1.082  0.1783 -0.5882 -0.1467
   14CHTO  H121 5737   6.809   5.929   1.076 -0.6257 -0.0936  1.3658
   14CHTO   C71 5738   6.692   5.826   1.213  0.4093 -0.1118 -0.2764
   14CHTO   O47 5739   6.605   5.935   1.244  0.1642  0.6058  0.2675
   14CHTO  H104 5740   6.565   5.921   1.327  0.5300  0.2859  0.3925
   14CHTO   O34 5741   7.028   5.544   1.000  0.4809  0.5632 -0.0308
   14CHTO   C49 5742   7.175   5.522   0.997 -0.5700  0.0291  0.6832
   14CHTO   H91 5743   7.203   5.470   0.906 -1.4665 -1.8098  1.4453
   14CHTO   C47 5744   7.227   5.436   1.118  0.4283  0.2486  0.7883
   14CHTO   H89 5745   7.335   5.417   1.101  0.3398 -0.1045  0.6217
   14CHTO   O33 5746   7.163   5.310   1.117  0.0629  0.1758 -1.1196
   14CHTO   H70 5747   7.071   5.322   1.132  0.4929  1.9119  0.2651
   14CHTO   C45 5748   7.206   5.515   1.257 -0.2429 -0.0971  0.4685
   14CHTO   H87 5749   7.109   5.480   1.295 -0.1400 -0.7457  0.1403
   14CHTO    N8 5750   7.311   5.476   1.355  0.0093  0.5040 -0.1969
   14CHTO   H75 5751   7.309   5.369   1.364 -0.3058  0.6370  1.3289
   14CHTO   H76 5752   7.296   5.529   1.447  1.8704  0.0381  0.3977
   14CHTO   C43 5753   7.177   5.663   1.226 -0.6040  0.3665 -0.4736
   14CHTO   H85 5754   7.077   5.677   1.184 -2.1902 -3.4898  1.7691
   14CHTO   O29 5755   7.280   5.706   1.138  0.0650 -0.2270 -0.6663
   14CHTO   C50 5756   7.266   5.652   1.003  0.3908  0.3625 -0.0706
   14CHTO   H92 5757   7.220   5.731   0.942  2.9857  0.6763 -1.6763
   14CHTO   C54 5758   7.404   5.637   0.932  0.2210  1.3510  0.0784
   14CHTO   O36 5759   7.414   5.588   0.793  0.3601  0.2769  0.1885
   14CHTO   H72 5760   7.427   5.495   0.791  0.1687  0.2661 -1.5971
   14CHTO   O27 5761   7.163   5.743   1.346 -0.3970 -0.5465 -0.7426
   14CHTO   C37 5762   7.128   5.871   1.392  0.1979  0.1019  0.0376
   14CHTO   H79 5763   7.210   5.941   1.414  0.4360  0.0965 -0.8040
   14CHTO   C38 5764   7.064   5.954   1.267  0.3719 -0.1930 -0.6153
   14CHTO   H80 5765   6.974   5.900   1.234 -0.0623  1.3450 -2.0140
   14CHTO   O31 5766   7.157   5.970   1.160 -0.3333 -0.6667 -0.3687
   14CHTO   H68 5767   7.234   6.013   1.192  0.1811  1.7116 -4.4049
   14CHTO   C39 5768   6.996   6.089   1.315 -0.0387  0.3880  0.2202
   14CHTO   H81 5769   7.079   6.154   1.343 -1.9857  1.7228  3.1102
   14CHTO    N7 5770   6.918   6.168   1.218  0.2039  0.4578  0.5435
   14CHTO   H73 5771   6.855   6.239   1.269 -0.7002 -0.4693  0.7518
   14CHTO   H74 5772   6.961   6.203   1.125  0.9848  2.9116  1.7779
   14CHTO   C40 5773   6.917   6.071   1.448 -0.2171  0.1105 -0.1512
   14CHTO   H82 5774   6.824   6.016   1.432 -0.2379  0.0558  0.1505
   14CHTO   O26 5775   6.993   6.006   1.547  0.0295  0.5384 -0.1981
   14CHTO   C41 5776   7.030   5.864   1.518  0.3477  0.0185 -0.1588
   14CHTO   H83 5777   6.944   5.798   1.503 -0.6571  1.1967  0.3437
   14CHTO   C52 5778   7.100   5.809   1.643  0.3487 -0.0242 -0.6692
   14CHTO   O35 5779   7.015   5.825   1.787  0.2929 -0.1008 -0.2988
   14CHTO   H71 5780   7.056   5.771   1.852 -2.4055 -0.0239  1.5305
   14CHTO   O28 5781   6.890   6.198   1.509 -0.1080  0.0074  0.6056
   14CHTO   C42 5782   6.775   6.230   1.593  0.0848  0.6032  0.1108
   14CHTO   H84 5783   6.781   6.336   1.619 -1.1240  0.8665 -0.6290
   14CHTO   C44 5784   6.776   6.147   1.729  0.1488 -0.1338 -0.0275
   14CHTO   H86 5785   6.803   6.045   1.703  1.0688 -0.3244  1.6193
   14CHTO   O32 5786   6.886   6.207   1.803 -0.2696  0.1670  0.3199
   14CHTO   H69 5787   6.896   6.169   1.888  1.5918 -1.1342 -0.4632
   14CHTO   C48 5788   6.640   6.154   1.815  0.0257  0.1911  0.0401
   14CHTO   H90 5789   6.646   6.251   1.866  1.6510  0.0045  0.2268
   14CHTO    N9 5790   6.643   6.058   1.927 -0.0771  0.0988  0.0919
   14CHTO   H77 5791   6.708   6.089   2.007 -2.9193  2.5885  1.5241
   14CHTO   H78 5792   6.550   6.022   1.967  0.3019  0.4337  1.2854
   14CHTO   C51 5793   6.516   6.135   1.720 -0.1072  0.2898 -0.4700
   14CHTO   H93 5794   6.517   6.034   1.680  1.7404 -0.0888  0.4990
   14CHTO   O30 5795   6.531   6.230   1.616 -0.2865  0.1078 -0.2442
   14CHTO   C46 5796   6.635   6.208   1.529 -0.1255 -0.2133  0.2422
   14CHTO   H88 5797   6.634   6.105   1.492 -0.9728 -0.7327  1.6341
   14CHTO   C53 5798   6.621   6.304   1.409 -0.3882 -0.3744 -0.1333
   14CHTO   O72 5799   6.528   6.260   1.309 -0.4231  0.1516 -0.1204
   14CHTO  H199 5800   6.567   6.208   1.242  0.9893  0.6286  0.3033
   14CHTO   O22 5801   6.390   6.149   1.793 -0.6759  0.0109 -0.1018
   14CHTO   C31 5802   6.271   6.122   1.716  0.0160 -0.0246  0.0122
   14CHTO   H59 5803   6.304   6.094   1.614  0.6050  0.1630  0.1498
   14CHTO   C29 5804   6.193   5.999   1.764  0.1005 -0.0584  0.1667
   14CHTO   H57 5805   6.171   6.020   1.869 -4.3868  0.0673 -0.7083
   14CHTO   O21 5806   6.278   5.882   1.750 -0.0388 -0.4101 -0.1453
   14CHTO   H37 5807   6.244   5.817   1.808  1.0732 -1.0569 -0.1973
   14CHTO   C27 5808   6.052   5.961   1.687 -0.5686  0.3274 -0.1361
   14CHTO   H55 5809   6.071   5.935   1.582  0.0625 -1.0241  0.2993
   14CHTO    N5 5810   5.960   5.863   1.750 -0.6492  0.0428 -0.1931
   14CHTO   H43 5811   6.019   5.815   1.826 -0.9764 -2.2763 -1.3854
   14CHTO   H44 5812   5.882   5.915   1.805  0.2955 -1.6744  2.8651
   14CHTO   C25 5813   5.975   6.104   1.672  0.0014  0.9235  0.5659
   14CHTO   H53 5814   5.925   6.141   1.763 -3.2233  0.2209 -0.8478
   14CHTO   O17 5815   6.068   6.208   1.615  0.0553  0.1229 -0.3843
   14CHTO   C32 5816   6.179   6.240   1.697  0.3360  0.1575 -0.2910
   14CHTO   H60 5817   6.138   6.280   1.790  1.3582  0.0331  0.2257
   14CHTO   C36 5818   6.251   6.365   1.642  0.2386  0.2145  0.0965
   14CHTO   O25 5819   6.162   6.480   1.647  0.3615 -0.0079  0.0550
   14CHTO   H40 5820   6.211   6.542   1.597  0.6250  0.7273  1.2240
   14CHTO   O15 5821   5.856   6.089   1.578  0.0725  0.0080  0.5974
   14CHTO   C19 5822   5.730   6.154   1.601 -0.0205 -0.3665 -0.2842
   14CHTO   H47 5823   5.663   6.143   1.514  0.9714  0.0588 -1.1053
   14CHTO   C20 5824   5.652   6.091   1.720 -0.1271  0.3501  0.0410
   14CHTO   H48 5825   5.711   6.096   1.812 -0.3046  1.7431  0.0932
   14CHTO   O19 5826   5.632   5.953   1.690  0.3738  0.3817  0.5412
   14CHTO   H35 5827   5.584   5.952   1.610  1.4566 -0.8312 -0.1127
   14CHTO   C21 5828   5.520   6.167   1.753 -0.0475  0.4106  0.5149
   14CHTO   H49 5829   5.448   6.152   1.673  1.6910  1.0238 -1.1982
   14CHTO    N4 5830   5.450   6.123   1.878 -0.2942  0.3739 -0.2503
   14CHTO   H41 5831   5.359   6.180   1.886  0.2624  1.1202  0.7925
   14CHTO   H42 5832   5.425   6.020   1.858  0.2755  0.3085 -0.6138
   14CHTO   C22 5833   5.538   6.316   1.744 -0.1502 -0.6468  0.7675
   14CHTO   H50 5834   5.597   6.342   1.832  1.1057 -2.7804  0.5960
   14CHTO   O14 5835   5.609   6.361   1.626 -0.7633 -0.1178  0.2530
   14CHTO   C23 5836   5.741   6.307   1.619  0.1373 -0.8766 -0.4903
   14CHTO   H51 5837   5.796   6.335   1.710  0.0733  0.9240 -0.9959
   14CHTO   C34 5838   5.809   6.374   1.504  0.1852  0.1094  0.0737
   14CHTO   O23 5839   5.858   6.508   1.528  0.3790 -0.0040  0.7725
   14CHTO   H38 5840   5.862   6.521   1.621  0.5013  0.8775  0.6402
   14CHTO   O16 5841   5.413   6.392   1.739  0.1221  0.1259  0.3322
   14CHTO   C24 5842   5.420   6.553   1.765 -0.5340 -0.2276 -0.0509
   14CHTO   H52 5843   5.414   6.612   1.674  1.0507 -0.9845 -0.6666
   14CHTO   C26 5844   5.547   6.602   1.843 -0.8336 -0.0418  0.4953
   14CHTO   H54 5845   5.550   6.548   1.940 -1.0231  0.3436  0.7166
   14CHTO   O20 5846   5.656   6.584   1.759 -0.2587 -0.5055  0.4678
   14CHTO   H36 5847   5.672   6.494   1.738 -1.1931 -0.7674  0.8410
   14CHTO   C30 5848   5.539   6.750   1.884 -0.4304 -0.2101 -0.1010
   14CHTO   H58 5849   5.536   6.811   1.792  2.8634  0.0624 -0.0639
   14CHTO    N6 5850   5.659   6.800   1.960 -0.5146 -0.0704  0.0781
   14CHTO   H45 5851   5.749   6.757   1.920 -1.9513 -2.4542 -0.7352
   14CHTO   H46 5852   5.664   6.908   1.951 -3.1579 -0.0234 -1.3588
   14CHTO   C33 5853   5.402   6.781   1.946 -0.3974  0.0435 -0.0946
   14CHTO   H61 5854   5.396   6.730   2.043  0.0227  2.4114  1.2004
   14CHTO   O18 5855   5.296   6.732   1.861  0.0834  0.4451  0.3982
   14CHTO   C28 5856   5.293   6.591   1.850  0.4916 -0.9021  0.3078
   14CHTO   H56 5857   5.300   6.554   1.952 -1.4909 -0.2076  0.7010
   14CHTO   C35 5858   5.173   6.543   1.772  0.1582  0.2676 -0.2003
   14CHTO   O24 5859   5.049   6.578   1.838  0.6564  0.2507  0.6919
   14CHTO   H39 5860   5.000   6.602   1.762  0.7802 -4.3883 -0.9854
   14CHTO    O9 5861   5.381   6.917   1.981  0.4675 -0.1259 -0.1531
   14CHTO   C13 5862   5.248   6.941   2.096 -0.0248  0.3861  0.4504
   14CHTO   H26 5863   5.273   6.878   2.183 -2.5865 -1.5449 -0.1488
   14CHTO   C11 5864   5.104   6.910   2.040  0.0890 -0.0088 -0.3644
   14CHTO   H24 5865   5.082   6.802   2.041 -1.9938  0.3913 -0.6287
   14CHTO    O8 5866   5.095   6.955   1.902 -0.2462  0.3914  0.1244
   14CHTO    H3 5867   5.114   7.047   1.899  4.1517 -0.3977  0.5598
   14CHTO    C9 5868   4.999   6.979   2.134 -0.3170  0.3200  0.0638
   14CHTO   H22 5869   5.021   6.938   2.234 -1.2081  0.8303  0.4742
   14CHTO    N2 5870   4.862   6.930   2.103  0.0303 -0.3316 -0.0106
   14CHTO   H10 5871   4.822   6.974   2.013 -0.1352 -1.9303 -0.7266
   14CHTO   H11 5872   4.799   6.936   2.191 -0.8395 -0.4764 -0.6275
   14CHTO    C7 5873   5.017   7.134   2.145  0.1956 -0.2179 -0.2272
   14CHTO   H20 5874   5.008   7.149   2.254 -0.1155  2.5523 -0.5931
   14CHTO    O4 5875   5.146   7.173   2.100  0.0441  0.1278  0.4931
   14CHTO   C14 5876   5.254   7.090   2.149 -0.1412  0.3801 -0.0347
   14CHTO   H27 5877   5.248   7.082   2.259  0.0185 -3.0966 -0.2283
   14CHTO   C18 5878   5.384   7.157   2.121  0.3234 -0.2608 -0.0832
   14CHTO   O13 5879   5.402   7.275   2.208  0.0568 -0.1002  0.4201
   14CHTO    H7 5880   5.329   7.333   2.215 -0.4542 -0.7048  0.2208
   14CHTO    O2 5881   4.892   7.227   2.069  0.1094 -0.2111  0.1238
   14CHTO    C1 5882   4.886   7.367   2.057 -0.0175  0.5737 -0.6252
   14CHTO   H14 5883   4.785   7.403   2.029  0.0856  0.5556 -1.0308
   14CHTO    C2 5884   4.991   7.432   1.956  0.0163 -1.3970  0.7184
   14CHTO   H15 5885   5.086   7.384   1.984  0.5306  0.0837  1.5839
   14CHTO    O6 5886   4.967   7.398   1.813 -0.0987 -0.7673 -0.5556
   14CHTO    H1 5887   4.889   7.439   1.782  0.5144 -1.1032 -2.5828
   14CHTO    C3 5888   4.997   7.596   1.980 -0.0776  0.0397  0.0928
   14CHTO   H16 5889   4.899   7.643   1.960 -0.0412 -0.5250 -1.4970
   14CHTO    N1 5890   5.093   7.661   1.888  0.7540  0.0081  0.5626
   14CHTO    H8 5891   5.196   7.656   1.920  1.2915 -0.1675 -1.1784
   14CHTO    H9 5892   5.079   7.609   1.795 -0.3090 -0.4676  0.9774
   14CHTO    C4 5893   5.034   7.626   2.128 -0.0057 -0.1402  0.6188
   14CHTO   H17 5894   5.117   7.561   2.155 -0.4793 -1.1998 -0.4174
   14CHTO    O1 5895   4.918   7.588   2.203  0.5667  0.1831 -0.0934
   14CHTO    C5 5896   4.907   7.441   2.195 -0.5371  0.6365 -0.4229
   14CHTO   H18 5897   5.004   7.403   2.229  0.0498 -0.6055 -3.3874
   14CHTO   C16 5898   4.795   7.394   2.296  0.2657 -0.4438 -0.4664
   14CHTO   O11 5899   4.814   7.413   2.436 -0.2358 -0.2969 -0.1289
   14CHTO    H5 5900   4.744   7.373   2.484  0.1308  1.3729  1.8734
   14CHTO    O3 5901   5.052   7.767   2.164 -0.3603  0.4356 -0.2538
   14CHTO    C6 5902   5.138   7.786   2.287 -0.8891 -0.3880  0.7080
   14CHTO   H19 5903   5.146   7.695   2.346 -0.6797 -0.2538  0.8906
   14CHTO    C8 5904   5.284   7.828   2.242  0.4811  0.7410  0.5418
   14CHTO   H21 5905   5.279   7.921   2.186 -0.5841 -0.7998 -1.9964
   14CHTO    O7 5906   5.338   7.723   2.159  0.1635  0.3348 -0.4903
   14CHTO    H2 5907   5.402   7.756   2.098  1.9648 -3.0667 -0.5801
   14CHTO   C12 5908   5.365   7.851   2.370 -0.0267 -0.3392 -0.2524
   14CHTO   H25 5909   5.365   7.757   2.429 -1.2561 -0.1099  0.1191
   14CHTO    N3 5910   5.504   7.876   2.339  0.0117  0.0189  0.1832
   14CHTO   H12 5911   5.519   7.923   2.242  1.3704  0.0358  0.3883
   14CHTO   H13 5912   5.546   7.945   2.411  2.3598 -0.2574 -0.8596
   14CHTO   C15 5913   5.294   7.969   2.454  0.0824 -0.4377  0.1362
   14CHTO   H28 5914   5.289   8.065   2.403 -2.4842 -0.6340 -0.0646
   14CHTO   O10 5915   5.354   7.992   2.595 -0.1449 -0.0620  0.1890
   14CHTO    H4 5916   5.308   8.061   2.639  0.5905 -0.1285  1.0761
   14CHTO    O5 5917   5.157   7.939   2.486  1.0070  0.3082  0.1463
   14CHTO   C10 5918   5.066   7.894   2.383 -0.4841  0.1749  0.2699
   14CHTO   H23 5919   5.032   7.977   2.321  0.1706  0.0532 -0.2494
   14CHTO   C17 5920   4.948   7.824   2.454  0.6650 -0.6219 -0.2812
   14CHTO   O12 5921   4.840   7.818   2.359  0.2177  0.2579  0.2130
   14CHTO    H6 5922   4.773   7.771   2.405  0.0590  1.8707  1.6675
   15CHTO  H203 5923   6.143   5.021   1.737  1.1787  1.7723 -2.4714
   15CHTO   O82 5924   6.069   4.983   1.694  0.3544  0.2317  0.2127
   15CHTO  C123 5925   6.116   4.878   1.607  0.4144 -0.4610  0.7361
   15CHTO  H227 5926   6.136   4.785   1.663 -1.3399 -0.2898  1.6648
   15CHTO   O77 5927   5.992   4.853   1.531 -0.5622  0.1609  0.3438
   15CHTO  C118 5928   5.998   4.745   1.440  0.3673  0.2525 -0.3263
   15CHTO  H222 5929   6.025   4.653   1.493 -3.1206 -0.9188 -0.4794
   15CHTO  C125 5930   5.860   4.714   1.374  0.7634 -0.1380  0.0454
   15CHTO   O84 5931   5.817   4.804   1.269 -0.2201 -1.0926 -0.1857
   15CHTO  H205 5932   5.786   4.755   1.195  0.7199 -0.5378 -0.9596
   15CHTO  C114 5933   6.116   4.771   1.343 -0.4283  0.8612  0.3182
   15CHTO  H218 5934   6.093   4.855   1.278 -0.7078 -0.1052 -0.8547
   15CHTO  C116 5935   6.246   4.791   1.415 -0.1833 -0.4913 -0.1317
   15CHTO  H220 5936   6.267   4.694   1.466  2.5271  1.2432  2.1548
   15CHTO   O79 5937   6.351   4.815   1.322  0.2978 -0.5429 -0.0446
   15CHTO  H201 5938   6.430   4.817   1.373  0.5925  1.6019 -0.5525
   15CHTO  C120 5939   6.236   4.910   1.518  0.3656  0.0596  0.3304
   15CHTO  H224 5940   6.206   4.996   1.455  1.3318 -0.3045 -0.6302
   15CHTO   N21 5941   6.360   4.939   1.591 -0.3090 -0.8119 -0.1951
   15CHTO  H211 5942   6.370   4.884   1.683  0.3866  1.1859  0.9379
   15CHTO  H212 5943   6.371   5.045   1.605 -1.6540 -0.7423  0.3551
   15CHTO   O75 5944   6.102   4.654   1.250 -0.3079  0.1713  0.0796
   15CHTO  C112 5945   6.201   4.524   1.253  0.1261  0.9834 -0.3828
   15CHTO  H216 5946   6.245   4.503   1.351  0.9428  1.1716 -0.7043
   15CHTO   O73 5947   6.301   4.553   1.151  0.2764 -0.5894  0.0334
   15CHTO  C113 5948   6.415   4.466   1.156  0.3715 -0.1737  0.7897
   15CHTO  H217 5949   6.457   4.463   1.259  0.1538 -0.3656  0.8756
   15CHTO  C124 5950   6.525   4.539   1.068 -0.0269  0.1901  0.0514
   15CHTO   O83 5951   6.493   4.593   0.935  0.1813  0.4525 -0.3954
   15CHTO  H204 5952   6.547   4.669   0.923 -0.3152  0.7516 -0.7891
   15CHTO  C109 5953   6.370   4.328   1.105 -0.3066 -0.1972 -0.0923
   15CHTO  H213 5954   6.337   4.344   1.002  0.7853 -1.6106 -0.6800
   15CHTO  C110 5955   6.261   4.277   1.203 -0.3293 -0.4482  0.3768
   15CHTO  H214 5956   6.314   4.278   1.298 -1.3883 -1.3253  0.9787
   15CHTO   O78 5957   6.214   4.149   1.157  0.0695 -0.3173 -0.7531
   15CHTO  H200 5958   6.185   4.138   1.068 -1.6303  1.8655 -0.5126
   15CHTO  C111 5959   6.143   4.382   1.210 -0.1089 -0.1848  0.8611
   15CHTO  H215 5960   6.091   4.385   1.113  0.4737  0.3017  0.5595
   15CHTO   N19 5961   6.040   4.338   1.310  0.0882  0.0210  0.3399
   15CHTO  H207 5962   6.001   4.238   1.297  1.8530 -0.3721 -2.3907
   15CHTO  H208 5963   5.963   4.410   1.333 -0.4158 -0.0625 -0.9995
   15CHTO   O74 5964   6.483   4.234   1.100  0.4135  0.1962 -0.2541
   15CHTO  C115 5965   6.478   4.149   0.958 -0.6347  0.1701 -0.3984
   15CHTO  H219 5966   6.375   4.127   0.929 -1.6454  1.9682  1.6618
   15CHTO   O76 5967   6.543   4.236   0.834  0.1896 -0.1418 -0.2460
   15CHTO  C122 5968   6.556   4.169   0.708  0.4145  0.4230 -0.4909
   15CHTO  H226 5969   6.622   4.222   0.639  0.3881  0.7837 -0.2399
   15CHTO  C126 5970   6.418   4.168   0.637 -0.3451  0.2561 -0.2891
   15CHTO   O85 5971   6.375   4.296   0.597 -0.2136  0.3365 -0.0855
   15CHTO  H206 5972   6.412   4.364   0.650  0.7781 -0.1908 -0.0839
   15CHTO  C121 5973   6.611   4.022   0.724 -0.4769  0.2559 -0.3403
   15CHTO  H225 5974   6.593   3.968   0.629  0.5918 -3.3748  1.4334
   15CHTO   O81 5975   6.753   4.037   0.757  0.3844 -0.4808  0.1458
   15CHTO  H202 5976   6.785   3.951   0.774  0.4141 -0.9587 -2.1061
   15CHTO  C119 5977   6.532   3.937   0.832 -0.7180 -0.2473  0.2437
   15CHTO  H223 5978   6.428   3.949   0.798 -0.4697 -0.2508 -0.5265
   15CHTO  C117 5979   6.547   4.009   0.968 -0.5148  0.9467 -0.0641
   15CHTO  H221 5980   6.649   4.039   0.992 -0.8265  2.2454 -0.3570
   15CHTO   N20 5981   6.501   3.926   1.080 -0.4191  0.1061  0.0995
   15CHTO  H209 5982   6.566   3.944   1.165  1.5606  1.0341 -1.5643
   15CHTO  H210 5983   6.396   3.936   1.100 -0.5167 -0.8362  0.0795
   15CHTO   O80 5984   6.551   3.770   0.819  0.4615 -0.8037  0.4955
   15CHTO  C103 5985   6.424   3.680   0.827 -0.5629  0.3189  0.2468
   15CHTO  H190 5986   6.401   3.641   0.926  1.1105  1.0416  0.9425
   15CHTO  C101 5987   6.283   3.727   0.766 -0.3324 -0.2346  0.3107
   15CHTO  H188 5988   6.308   3.773   0.671  0.8671  0.2204  0.8345
   15CHTO   O68 5989   6.216   3.830   0.859  0.1104  0.3458  0.0272
   15CHTO  H168 5990   6.142   3.869   0.816  0.6977 -0.3288 -1.6187
   15CHTO   C99 5991   6.177   3.613   0.739  0.1016 -0.0303 -0.1040
   15CHTO  H186 5992   6.131   3.562   0.826 -2.1139 -0.4314 -1.4415
   15CHTO   N17 5993   6.055   3.656   0.654  0.6662  0.2657 -0.0926
   15CHTO  H174 5994   5.961   3.636   0.704  1.1995  0.1292  0.8847
   15CHTO  H175 5995   6.061   3.764   0.642 -2.6409  0.5105  0.1050
   15CHTO   C97 5996   6.248   3.501   0.656  0.3676 -0.7101  0.2526
   15CHTO  H184 5997   6.271   3.544   0.557 -0.6126  1.2589  0.8724
   15CHTO   O64 5998   6.367   3.463   0.732  0.0858 -0.0205  0.0181
   15CHTO  C104 5999   6.474   3.555   0.744  0.4682  0.2682  0.5651
   15CHTO  H191 6000   6.514   3.586   0.648  0.1593  0.0017  0.3523
   15CHTO  C108 6001   6.590   3.489   0.812  0.0007  0.0910  0.6115
   15CHTO   O71 6002   6.637   3.383   0.727  0.0043  0.3213  0.0635
   15CHTO  H171 6003   6.689   3.331   0.784  0.8861  0.8731 -0.2308
   15CHTO   O62 6004   6.158   3.387   0.643  0.4047 -0.2621 -0.1546
   15CHTO   C91 6005   6.192   3.287   0.544  0.3671 -0.6080 -0.3644
   15CHTO  H178 6006   6.259   3.336   0.474  0.2479 -2.7636 -2.0201
   15CHTO   C92 6007   6.075   3.247   0.446 -0.6105  0.2289  0.6265
   15CHTO  H179 6008   6.020   3.336   0.412 -0.5511  0.4484  1.1043
   15CHTO   O66 6009   6.144   3.198   0.323  0.4237  0.2891 -0.1117
   15CHTO  H166 6010   6.101   3.129   0.277 -1.0277  0.6534  0.6624
   15CHTO   C93 6011   5.969   3.145   0.507 -0.1651 -0.7813  0.1719
   15CHTO  H180 6012   5.906   3.102   0.428 -0.7714  1.6422 -0.6983
   15CHTO   N16 6013   5.866   3.198   0.603 -0.2377 -0.3569 -0.4894
   15CHTO  H172 6014   5.791   3.265   0.564 -1.6446 -2.3732 -1.3237
   15CHTO  H173 6015   5.820   3.111   0.646  0.8254 -1.8619 -2.3341
   15CHTO   C94 6016   6.051   3.024   0.571  0.6657 -0.3217 -0.3512
   15CHTO  H181 6017   6.031   3.018   0.678 -0.8155 -0.6022 -0.6408
   15CHTO   O61 6018   6.197   3.029   0.560 -0.0026  0.1707 -0.5157
   15CHTO   C95 6019   6.246   3.150   0.615  0.0570  0.1201  0.2386
   15CHTO  H182 6020   6.212   3.160   0.718  0.1827  0.6924  0.2267
   15CHTO  C106 6021   6.403   3.148   0.617  0.3657  0.1757  0.0318
   15CHTO   O69 6022   6.460   3.029   0.677  0.3576  0.1109  0.3784
   15CHTO  H169 6023   6.397   2.961   0.693  1.4006 -0.8067  0.6705
   15CHTO   O63 6024   6.016   2.897   0.509  0.5192  0.1139  0.2029
   15CHTO   C96 6025   6.031   2.776   0.610  0.7827  0.2155  0.8792
   15CHTO  H183 6026   6.042   2.803   0.715  1.4302 -1.9738  1.3922
   15CHTO   C98 6027   6.154   2.690   0.569  0.0038 -0.9952 -0.8721
   15CHTO  H185 6028   6.149   2.678   0.460  0.8818 -0.9185 -0.9240
   15CHTO   O67 6029   6.269   2.773   0.594 -0.4745 -0.0877 -0.7857
   15CHTO  H167 6030   6.300   2.820   0.519 -0.6774  1.1466 -0.1129
   15CHTO  C102 6031   6.153   2.549   0.645 -0.1151  0.8151 -0.3203
   15CHTO  H189 6032   6.155   2.580   0.751 -1.1379  1.2616 -0.4288
   15CHTO   N18 6033   6.274   2.461   0.621 -0.0743  0.2548 -0.1957
   15CHTO  H176 6034   6.361   2.517   0.654 -0.6376  1.1091 -0.1567
   15CHTO  H177 6035   6.268   2.370   0.678 -0.4096 -0.4900 -1.4028
   15CHTO  C105 6036   6.013   2.480   0.615 -0.3828  0.5934 -0.1538
   15CHTO  H192 6037   6.004   2.459   0.509  1.3123 -0.1967 -0.1405
   15CHTO   O65 6038   5.898   2.559   0.634  0.1157 -0.0786  0.1281
   15CHTO  C100 6039   5.895   2.694   0.591 -0.2970 -0.7951  0.6705
   15CHTO  H187 6040   5.873   2.700   0.483  0.8789 -1.4006  0.3913
   15CHTO  C107 6041   5.780   2.768   0.672  0.2137  0.5138 -0.6175
   15CHTO   O70 6042   5.651   2.768   0.608 -0.6195  0.1135 -0.3553
   15CHTO  H170 6043   5.581   2.774   0.669  1.4194  1.7098  1.9201
   15CHTO   O57 6044   6.017   2.344   0.683  0.2769 -0.0655  0.7383
   15CHTO   C85 6045   5.987   2.316   0.819 -0.6750 -0.5876  0.1778
   15CHTO  H157 6046   5.974   2.412   0.872  1.7288 -0.4945  0.6569
   15CHTO   C83 6047   6.125   2.271   0.889  0.0564  0.8373 -0.0859
   15CHTO  H155 6048   6.198   2.352   0.877 -0.5383  1.4706  0.5971
   15CHTO   O56 6049   6.175   2.157   0.818 -0.3904 -0.0068  0.5799
   15CHTO  H135 6050   6.250   2.125   0.866  1.8081  1.8190 -1.5047
   15CHTO   C81 6051   6.099   2.240   1.040 -0.6703 -0.1220 -0.3392
   15CHTO  H153 6052   6.077   2.337   1.086  1.7709  1.3730 -2.1637
   15CHTO   N14 6053   6.220   2.199   1.114 -0.8255 -0.3492 -0.1504
   15CHTO  H141 6054   6.296   2.273   1.098  0.4496 -2.0240 -2.0083
   15CHTO  H142 6055   6.189   2.205   1.216  0.5585 -1.4298  0.3396
   15CHTO   C79 6056   5.975   2.143   1.060  0.4202  0.4275  0.4477
   15CHTO  H151 6057   5.971   2.117   1.166 -1.4694 -1.1842  0.0140
   15CHTO   O52 6058   5.853   2.198   1.001 -0.1827  0.2606 -0.5044
   15CHTO   C86 6059   5.869   2.215   0.853  0.4953  0.2628  0.4743
   15CHTO  H158 6060   5.886   2.115   0.809 -1.2383  1.2992 -2.7450
   15CHTO   C90 6061   5.744   2.276   0.789  0.1088  0.1182  0.5291
   15CHTO   O60 6062   5.636   2.184   0.802 -0.1292  0.0785 -0.3656
   15CHTO  H138 6063   5.612   2.143   0.721  0.7046  0.2245 -0.6838
   15CHTO   O50 6064   6.005   2.010   1.004 -0.3252 -0.4075  0.6844
   15CHTO   C73 6065   5.942   1.881   0.977 -0.1855 -0.1442 -0.5492
   15CHTO  H145 6066   5.841   1.890   0.935 -0.4096 -2.4872 -0.5782
   15CHTO   C74 6067   5.932   1.806   1.112 -0.5342 -0.0408 -0.1368
   15CHTO  H146 6068   5.875   1.870   1.181 -1.0414 -1.6284  0.9484
   15CHTO   O54 6069   5.848   1.689   1.092  0.0526 -0.8761 -0.0318
   15CHTO  H133 6070   5.825   1.665   1.179 -1.9333  0.1469 -0.2507
   15CHTO   C75 6071   6.076   1.780   1.167 -0.7575 -0.4727  0.1176
   15CHTO  H147 6072   6.120   1.877   1.196  0.6606 -1.2943  0.7522
   15CHTO   N13 6073   6.073   1.704   1.295 -0.2067  0.8023  0.0678
   15CHTO  H139 6074   6.173   1.669   1.314 -0.4120 -0.1863 -0.6762
   15CHTO  H140 6075   6.039   1.764   1.379 -1.2861 -0.9752  0.9430
   15CHTO   C76 6076   6.170   1.719   1.051 -0.2458  0.3037  1.5264
   15CHTO  H148 6077   6.129   1.620   1.027 -0.4984  0.6180  0.6534
   15CHTO   O49 6078   6.169   1.805   0.930 -0.1060  1.2246  0.4483
   15CHTO   C77 6079   6.035   1.805   0.879  0.6604  0.7082  0.1224
   15CHTO  H149 6080   5.997   1.705   0.862  0.2093  0.9293 -0.1534
   15CHTO   C88 6081   6.030   1.877   0.739  0.0967  0.7188  0.5033
   15CHTO   O58 6082   5.895   1.877   0.695 -0.3067  0.0445  0.4942
   15CHTO  H136 6083   5.846   1.930   0.755  0.8577 -0.9524  2.3957
   15CHTO   O51 6084   6.319   1.719   1.094 -0.1738  0.0032  0.1440
   15CHTO   C78 6085   6.400   1.606   1.023 -0.8064 -0.6634 -0.1795
   15CHTO  H150 6086   6.333   1.566   0.944 -3.0374 -0.5755  1.6112
   15CHTO   C80 6087   6.439   1.489   1.112 -0.2414 -0.2513 -0.0700
   15CHTO  H152 6088   6.508   1.528   1.189 -1.2709  0.6306  0.4223
   15CHTO   O55 6089   6.319   1.444   1.180 -0.7202 -0.3763  0.0083
   15CHTO  H134 6090   6.289   1.513   1.237  0.9703  1.1148 -0.8775
   15CHTO   C84 6091   6.515   1.365   1.040  0.7810 -0.3522 -0.6700
   15CHTO  H156 6092   6.432   1.314   0.989  0.7398 -0.4607 -0.4955
   15CHTO   N15 6093   6.575   1.258   1.125  0.0556  0.1812 -0.0897
   15CHTO  H143 6094   6.634   1.290   1.208  0.4869 -0.7982 -0.0158
   15CHTO  H144 6095   6.498   1.190   1.153  1.3958 -1.3379 -0.0706
   15CHTO   C87 6096   6.619   1.419   0.942  0.1332  0.3985  0.5992
   15CHTO  H159 6097   6.711   1.443   0.995  0.7950 -1.1675  0.1896
   15CHTO   O53 6098   6.564   1.553   0.871  0.1680 -0.0663  0.3913
   15CHTO   C82 6099   6.527   1.661   0.958  0.8622  0.1405 -0.0786
   15CHTO  H154 6100   6.603   1.671   1.036 -0.2993 -3.2409  1.5775
   15CHTO   C89 6101   6.516   1.794   0.888  0.6783 -0.4620 -0.0110
   15CHTO   O59 6102   6.645   1.821   0.835 -0.2340 -0.6990  0.0844
   15CHTO  H137 6103   6.634   1.883   0.766 -0.8866 -0.6644  0.2169
   15CHTO   O45 6104   6.647   1.302   0.833  0.1461  0.5297 -0.1320
   15CHTO   C67 6105   6.740   1.338   0.730 -0.4733 -0.4114  0.8801
   15CHTO  H124 6106   6.758   1.445   0.729  2.6231 -0.8813 -0.2096
   15CHTO   C65 6107   6.873   1.271   0.743 -0.0683  0.3169 -0.6461
   15CHTO  H122 6108   6.865   1.179   0.801  3.3493 -0.2526 -0.9528
   15CHTO   O44 6109   6.949   1.365   0.824 -0.4198 -0.3046  0.0113
   15CHTO  H102 6110   6.969   1.327   0.908 -2.6797  0.7783  1.0753
   15CHTO   C63 6111   6.941   1.232   0.600  0.1928  0.1873 -0.0338
   15CHTO  H120 6112   6.893   1.143   0.559 -0.6813  0.9040 -0.5870
   15CHTO   N11 6113   7.084   1.196   0.604 -0.1240 -0.1485  0.8866
   15CHTO  H108 6114   7.100   1.100   0.561  0.8382  0.7519 -0.7925
   15CHTO  H109 6115   7.116   1.204   0.706 -1.3136  1.9245  1.1541
   15CHTO   C61 6116   6.914   1.340   0.493 -0.3497 -0.4439 -0.2062
   15CHTO  H118 6117   6.952   1.304   0.396 -2.4246 -3.7390  0.1444
   15CHTO   O40 6118   6.769   1.346   0.478  0.3850  0.1058  0.6026
   15CHTO   C68 6119   6.682   1.309   0.586 -0.1304  0.2572  0.0323
   15CHTO  H125 6120   6.663   1.200   0.593  0.1043  0.2413  0.4685
   15CHTO   C72 6121   6.542   1.375   0.569 -0.6850  0.5489  0.0600
   15CHTO   O48 6122   6.493   1.378   0.431 -0.0788 -0.7334  0.0754
   15CHTO  H105 6123   6.550   1.431   0.378 -0.5565  0.0637  0.3528
   15CHTO   O38 6124   6.959   1.472   0.525  0.0343 -0.0825 -0.3611
   15CHTO   C55 6125   6.958   1.580   0.432  0.7188 -0.3786 -0.2480
   15CHTO  H112 6126   6.864   1.555   0.380 -1.1509  0.4402  2.6027
   15CHTO   C56 6127   7.085   1.592   0.330 -0.0668  0.3424 -0.0344
   15CHTO  H113 6128   7.173   1.603   0.394  1.2384 -1.5621 -1.4406
   15CHTO   O42 6129   7.116   1.469   0.261  0.7011  0.5684 -0.1834
   15CHTO  H100 6130   7.117   1.396   0.319 -1.5865  0.0151 -0.7928
   15CHTO   C57 6131   7.081   1.724   0.237 -0.4291 -0.0364  0.0085
   15CHTO  H114 6132   6.998   1.702   0.169 -0.5481  0.2953  0.0416
   15CHTO   N10 6133   7.210   1.750   0.173  0.8335 -0.0699 -0.1179
   15CHTO  H106 6134   7.277   1.801   0.241 -0.9533 -0.4886  2.0003
   15CHTO  H107 6135   7.205   1.805   0.080 -1.1395  1.0879  0.6384
   15CHTO   C58 6136   7.044   1.849   0.327 -0.1995 -0.1363  0.0359
   15CHTO  H115 6137   7.128   1.866   0.398 -0.2469  0.6303 -0.0897
   15CHTO   O37 6138   6.918   1.818   0.393 -0.3839 -0.0600 -0.4066
   15CHTO   C59 6139   6.936   1.719   0.499  0.0998 -0.0821 -0.2919
   15CHTO  H116 6140   7.023   1.748   0.558 -0.7147  1.3803  0.2138
   15CHTO   C70 6141   6.812   1.713   0.595 -0.4059 -0.4352  0.4592
   15CHTO   O46 6142   6.692   1.692   0.523 -0.0978  0.0504  0.7924
   15CHTO  H103 6143   6.622   1.673   0.582 -1.1165  3.0740  0.6639
   15CHTO   O39 6144   7.022   1.999   0.237 -0.7975  0.1760  0.1354
   15CHTO   C60 6145   7.016   2.113   0.326  0.8866 -0.2454  0.6190
   15CHTO  H117 6146   6.981   2.089   0.427  0.6423 -1.1931  0.3083
   15CHTO   C62 6147   7.158   2.163   0.356 -0.5148 -0.5233  0.0431
   15CHTO  H119 6148   7.208   2.074   0.400 -0.6978 -0.5229  0.2514
   15CHTO   O43 6149   7.228   2.198   0.237 -0.0401  0.0450 -0.3797
   15CHTO  H101 6150   7.236   2.291   0.225  1.1657 -0.1027 -0.8289
   15CHTO   C66 6151   7.153   2.287   0.466 -0.2721 -0.7710 -0.0456
   15CHTO  H123 6152   7.093   2.254   0.551 -1.0035 -2.5394 -1.2051
   15CHTO   N12 6153   7.284   2.336   0.516 -0.7049  0.1624 -0.7843
   15CHTO  H110 6154   7.355   2.274   0.568 -1.0068  0.8661  0.4771
   15CHTO  H111 6155   7.272   2.437   0.552 -1.4213  0.1761 -1.0375
   15CHTO   C69 6156   7.072   2.403   0.402 -0.3222  0.1526 -0.3616
   15CHTO  H126 6157   7.127   2.452   0.319  0.7023 -0.9183 -0.3278
   15CHTO   O41 6158   6.926   2.353   0.358  0.4746  0.1007  0.3365
   15CHTO   C64 6159   6.922   2.224   0.267 -0.2284 -0.4028 -0.6540
   15CHTO  H121 6160   6.954   2.239   0.162 -0.8962 -0.8247 -0.9172
   15CHTO   C71 6161   6.780   2.178   0.280  0.4820  0.1471  0.8146
   15CHTO   O47 6162   6.683   2.268   0.222  0.4443 -0.0038 -0.2485
   15CHTO  H104 6163   6.597   2.249   0.255  1.4002 -1.6704  1.3718
   15CHTO   O34 6164   7.044   2.516   0.508  0.0015  0.1313 -0.0728
   15CHTO   C49 6165   7.009   2.679   0.471  0.2573  0.8210  1.1125
   15CHTO   H91 6166   7.091   2.745   0.501 -0.2423  1.4295  1.1487
   15CHTO   C47 6167   6.878   2.719   0.545 -0.0725 -0.3060  0.0863
   15CHTO   H89 6168   6.863   2.826   0.518 -0.8891 -0.8194 -1.5698
   15CHTO   O33 6169   6.910   2.717   0.689 -0.2006  0.3010 -0.1211
   15CHTO   H70 6170   6.917   2.624   0.701  0.8252  0.5608  1.3305
   15CHTO   C45 6171   6.756   2.637   0.502 -0.4099  0.2430  0.4363
   15CHTO   H87 6172   6.781   2.532   0.527 -0.1314  0.2954  0.3751
   15CHTO    N8 6173   6.624   2.671   0.573 -0.0554  0.7111  0.1873
   15CHTO   H75 6174   6.617   2.618   0.667 -0.2651 -0.6498 -0.5805
   15CHTO   H76 6175   6.617   2.778   0.571 -0.1394  0.6971 -0.7690
   15CHTO   C43 6176   6.739   2.644   0.338  0.1581  0.7433  0.1210
   15CHTO   H85 6177   6.664   2.569   0.312  3.1499 -0.9999 -4.0326
   15CHTO   O29 6178   6.860   2.624   0.261 -0.6986  0.3917  0.9038
   15CHTO   C50 6179   6.982   2.684   0.314 -0.1768  0.5444 -0.2972
   15CHTO   H92 6180   7.062   2.624   0.270  0.0623  0.0353  0.8175
   15CHTO   C54 6181   7.004   2.820   0.257  0.4338 -0.1242 -0.4087
   15CHTO   O36 6182   7.143   2.840   0.235  0.6192 -0.3814 -0.1084
   15CHTO   H72 6183   7.146   2.930   0.211 -2.8085 -0.3459 -0.7219
   15CHTO   O27 6184   6.671   2.761   0.290  0.1556  0.0917 -0.3404
   15CHTO   C37 6185   6.570   2.775   0.188  0.4530 -0.0268 -0.3155
   15CHTO   H79 6186   6.572   2.686   0.125  1.4731  0.6787 -1.2946
   15CHTO   C38 6187   6.434   2.785   0.259  0.0073 -0.0780 -0.1217
   15CHTO   H80 6188   6.438   2.863   0.336 -3.1752  0.4959 -0.4546
   15CHTO   O31 6189   6.402   2.662   0.325 -0.3534 -0.4975  0.0058
   15CHTO   H68 6190   6.338   2.668   0.393 -0.8756 -1.1464 -0.4257
   15CHTO   C39 6191   6.314   2.826   0.168  1.1756 -0.2084  0.3211
   15CHTO   H81 6192   6.287   2.739   0.109  1.2395  0.7881 -1.2199
   15CHTO    N7 6193   6.184   2.863   0.229 -0.7879 -0.3342  0.1365
   15CHTO   H73 6194   6.179   2.830   0.332 -1.2135  1.1370  0.6010
   15CHTO   H74 6195   6.181   2.971   0.236  1.9409 -0.0383 -2.3903
   15CHTO   C40 6196   6.354   2.932   0.055 -0.7345  0.1277  0.4774
   15CHTO   H82 6197   6.339   3.035   0.089 -3.3987  0.0100 -0.2272
   15CHTO   O26 6198   6.490   2.910  -0.000  0.0608  0.9468 -0.3236
   15CHTO   C41 6199   6.593   2.896   0.095  0.9298  0.1700  0.0189
   15CHTO   H83 6200   6.609   2.991   0.147  1.7147 -1.5509  3.0538
   15CHTO   C52 6201   6.722   2.875   0.014 -0.4857  0.6391 -0.2822
   15CHTO   O35 6202   6.754   2.995  -0.059 -0.3155  0.1583 -0.4893
   15CHTO   H71 6203   6.787   2.982  -0.146  0.6144 -0.9650  0.0238
   15CHTO   O28 6204   6.279   2.919  -0.065 -0.4411 -0.1544 -0.3205
   15CHTO   C42 6205   6.287   3.021  -0.169 -0.0838 -0.1138  0.2776
   15CHTO   H84 6206   6.225   2.973  -0.245  1.0192  1.1478 -1.4612
   15CHTO   C44 6207   6.426   3.053  -0.235 -0.0747  0.0248  0.2851
   15CHTO   H86 6208   6.499   3.089  -0.163 -0.2566  2.6014 -0.7697
   15CHTO   O32 6209   6.475   2.934  -0.298  0.0692 -0.2559 -0.5458
   15CHTO   H69 6210   6.427   2.906  -0.373  0.2960 -1.3657 -0.2785
   15CHTO   C48 6211   6.422   3.171  -0.336 -0.4112  0.8632  0.3495
   15CHTO   H90 6212   6.367   3.132  -0.421  2.9195 -2.5884 -0.3292
   15CHTO    N9 6213   6.558   3.209  -0.388  0.0918 -0.1218 -0.1601
   15CHTO   H77 6214   6.633   3.133  -0.368  0.7123  0.4354 -0.3578
   15CHTO   H78 6215   6.601   3.303  -0.358 -0.1655 -0.3240  0.8851
   15CHTO   C51 6216   6.364   3.297  -0.271 -1.0408 -0.1433 -0.1730
   15CHTO   H93 6217   6.420   3.320  -0.180 -2.5590  1.2463  0.4528
   15CHTO   O30 6218   6.229   3.260  -0.238  0.2574  0.2218  0.3282
   15CHTO   C46 6219   6.213   3.151  -0.136  0.6191 -0.2807 -0.4634
   15CHTO   H88 6220   6.245   3.190  -0.040 -1.1258 -0.9381  0.3917
   15CHTO   C53 6221   6.056   3.123  -0.129 -0.8424 -0.1938  0.0489
   15CHTO   O72 6222   6.023   3.029  -0.020  0.6804 -0.0503  0.2732
   15CHTO  H199 6223   5.986   3.073   0.054  0.1647 -1.9564  1.1630
   15CHTO   O22 6224   6.342   3.409  -0.354 -0.4085  0.1724  0.2356
   15CHTO   C31 6225   6.309   3.551  -0.326  0.3666  0.1961  0.3064
   15CHTO   H59 6226   6.323   3.607  -0.421  2.0000 -0.7880 -0.0528
   15CHTO   C29 6227   6.159   3.566  -0.293 -0.1751 -1.0456  0.6019
   15CHTO   H57 6228   6.148   3.513  -0.197  1.9186 -1.0634  0.8661
   15CHTO   O21 6229   6.078   3.492  -0.393 -0.4896  0.0616 -0.0843
   15CHTO   H37 6230   6.066   3.547  -0.468  0.9592  1.1223  0.4453
   15CHTO   C27 6231   6.126   3.722  -0.276  0.0976  0.2106  0.5091
   15CHTO   H55 6232   6.142   3.773  -0.372  0.9067  2.1805  1.6443
   15CHTO    N5 6233   5.980   3.742  -0.234 -0.3573  0.2196  0.2058
   15CHTO   H43 6234   5.951   3.845  -0.252  1.4135  0.5503 -0.9110
   15CHTO   H44 6235   5.975   3.721  -0.129  0.4954  0.7961  0.3678
   15CHTO   C25 6236   6.220   3.787  -0.168  0.2586  0.9378 -0.4609
   15CHTO   H53 6237   6.209   3.747  -0.066 -0.7105  1.8513 -0.2001
   15CHTO   O17 6238   6.358   3.757  -0.192  0.2756  0.2676  0.1466
   15CHTO   C32 6239   6.401   3.620  -0.217  0.1489 -0.6412  0.4599
   15CHTO   H60 6240   6.413   3.554  -0.131 -2.0437 -1.6074  0.0505
   15CHTO   C36 6241   6.549   3.617  -0.263 -0.0093 -0.2356 -0.5066
   15CHTO   O25 6242   6.632   3.670  -0.157  0.1112 -0.0462 -0.7462
   15CHTO   H40 6243   6.609   3.759  -0.135  0.4505 -0.6275  2.2115
   15CHTO   O15 6244   6.214   3.931  -0.163 -0.1530  0.0664  0.5181
   15CHTO   C19 6245   6.250   4.062  -0.104  0.8130  0.1628  0.2938
   15CHTO   H47 6246   6.291   4.123  -0.187  0.4191  0.7113  0.5064
   15CHTO   C20 6247   6.139   4.149  -0.051  0.1276 -0.3276  0.0306
   15CHTO   H48 6248   6.085   4.097   0.030 -1.8596  0.6207 -0.6537
   15CHTO   O19 6249   6.044   4.159  -0.158  0.2470 -0.7269  0.3515
   15CHTO   H35 6250   6.083   4.186  -0.239 -0.1240 -0.7439  0.1673
   15CHTO   C21 6251   6.197   4.290  -0.003 -0.0308 -0.2993  0.0127
   15CHTO   H49 6252   6.244   4.337  -0.089 -1.4386 -0.0071 -0.6136
   15CHTO    N4 6253   6.092   4.381   0.035  0.4156 -0.1889  0.5186
   15CHTO   H41 6254   6.100   4.477  -0.015  0.5414 -0.1588  0.5967
   15CHTO   H42 6255   6.082   4.397   0.142 -0.1398  2.1127  0.1640
   15CHTO   C22 6256   6.303   4.272   0.111 -0.1990  0.8676  0.4017
   15CHTO   H50 6257   6.250   4.230   0.196 -1.6328  0.8738 -0.4684
   15CHTO   O14 6258   6.404   4.183   0.056 -0.1969  0.1834  0.1298
   15CHTO   C23 6259   6.368   4.053   0.002 -0.2317  0.3006  0.0258
   15CHTO   H51 6260   6.342   3.984   0.084  2.3677 -0.1521  0.5189
   15CHTO   C34 6261   6.504   3.995  -0.059  0.3227 -0.0494 -0.5903
   15CHTO   O23 6262   6.593   3.954   0.041  0.2650  0.1876  0.1160
   15CHTO   H38 6263   6.622   3.866   0.026  0.5037  0.6214 -2.0597
   15CHTO   O16 6264   6.376   4.391   0.151 -0.6146 -0.3395  0.3947
   15CHTO   C24 6265   6.422   4.401   0.298 -1.3150 -0.3058 -0.1815
   15CHTO   H52 6266   6.379   4.326   0.363 -0.4197  1.2604  2.2902
   15CHTO   C26 6267   6.384   4.544   0.356  0.6731 -0.1983  0.3613
   15CHTO   H54 6268   6.394   4.620   0.275  1.8920 -1.5358 -0.7625
   15CHTO   O20 6269   6.243   4.537   0.392 -0.3435 -0.4368 -0.0489
   15CHTO   H36 6270   6.231   4.504   0.479  1.2717 -2.7409 -0.6669
   15CHTO   C30 6271   6.466   4.578   0.483  0.2639  0.1753  1.1186
   15CHTO   H58 6272   6.443   4.513   0.568 -0.5281 -0.9417  0.0600
   15CHTO    N6 6273   6.436   4.720   0.522 -0.1567  0.3347  0.4820
   15CHTO   H45 6274   6.425   4.779   0.432 -1.0761  0.9506  0.9902
   15CHTO   H46 6275   6.510   4.767   0.585  0.6657  0.1168 -0.3099
   15CHTO   C33 6276   6.620   4.558   0.472 -0.2039  0.4061 -0.1946
   15CHTO   H61 6277   6.663   4.623   0.394  0.0434 -0.5388 -0.8537
   15CHTO   O18 6278   6.633   4.421   0.433 -0.7409 -0.5224  0.4411
   15CHTO   C28 6279   6.581   4.389   0.302  0.0753  0.5419 -0.7305
   15CHTO   H56 6280   6.631   4.459   0.235 -0.2132  0.2817 -1.2256
   15CHTO   C35 6281   6.616   4.253   0.257 -0.6238  0.2558 -0.0941
   15CHTO   O24 6282   6.571   4.144   0.341  0.0297  0.1027  0.5849
   15CHTO   H39 6283   6.603   4.061   0.314  1.2341  0.9608 -0.6996
   15CHTO    O9 6284   6.695   4.583   0.591 -0.0384 -0.8183  0.5307
   15CHTO   C13 6285   6.853   4.648   0.563  0.4862  0.1306  0.6389
   15CHTO   H26 6286   6.846   4.758   0.547  0.2235  0.1319  0.7586
   15CHTO   C11 6287   6.925   4.573   0.443 -0.6965 -0.3441 -0.3066
   15CHTO   H24 6288   6.875   4.602   0.349 -0.7695 -0.3789 -0.2790
   15CHTO    O8 6289   6.925   4.435   0.453 -0.3699 -0.1848  0.8762
   15CHTO    H3 6290   6.877   4.389   0.387  0.3586 -0.3654  0.4544
   15CHTO    C9 6291   7.073   4.624   0.452  0.7609  0.2334  0.8494
   15CHTO   H22 6292   7.070   4.733   0.470 -0.7008  0.0360  1.9224
   15CHTO    N2 6293   7.147   4.607   0.325  0.3197 -0.1174 -0.1933
   15CHTO   H10 6294   7.219   4.687   0.319  0.9821 -0.7746 -1.3083
   15CHTO   H11 6295   7.191   4.510   0.307  1.4183  0.2179  0.5655
   15CHTO    C7 6296   7.138   4.561   0.575  0.1126  0.0001 -0.1320
   15CHTO   H20 6297   7.226   4.625   0.597  0.4689 -0.5807  0.1309
   15CHTO    O4 6298   7.056   4.552   0.693  0.3306 -0.0510 -0.0154
   15CHTO   C14 6299   6.938   4.635   0.700  0.3255 -0.6317 -0.1906
   15CHTO   H27 6300   6.959   4.739   0.732 -1.1923 -0.0922 -0.9587
   15CHTO   C18 6301   6.846   4.572   0.812  0.0911  0.0927 -0.0728
   15CHTO   O13 6302   6.885   4.599   0.946 -0.3168  0.0267 -0.5033
   15CHTO    H7 6303   6.848   4.680   0.974 -0.3423 -0.6989  1.6294
   15CHTO    O2 6304   7.199   4.412   0.547  0.3311 -0.0883  0.1773
   15CHTO    C1 6305   7.297   4.362   0.638 -0.1814  0.2947  0.0260
   15CHTO   H14 6306   7.292   4.402   0.741  3.1180  0.2115  0.2928
   15CHTO    C2 6307   7.449   4.385   0.586  0.5200 -1.1070  0.2490
   15CHTO   H15 6308   7.444   4.388   0.476 -1.1317  1.1682  0.3412
   15CHTO    O6 6309   7.483   4.518   0.625 -0.8747  0.5048 -0.3412
   15CHTO    H1 6310   7.517   4.527   0.712 -0.0794 -1.1433 -0.4595
   15CHTO    C3 6311   7.556   4.279   0.632 -0.0705  0.0355  0.6431
   15CHTO   H16 6312   7.583   4.313   0.733  1.3036  0.4196  0.1504
   15CHTO    N1 6313   7.679   4.288   0.545 -0.3760  0.7137 -0.2448
   15CHTO    H8 6314   7.738   4.374   0.574  0.4623  0.0902 -0.1161
   15CHTO    H9 6315   7.650   4.296   0.441  0.2349 -1.8674 -0.6479
   15CHTO    C4 6316   7.500   4.127   0.632  0.0373  0.4162  0.4938
   15CHTO   H17 6317   7.480   4.093   0.530 -1.2827 -0.0306  0.8863
   15CHTO    O1 6318   7.378   4.130   0.703 -0.2208  0.3100 -0.1956
   15CHTO    C5 6319   7.273   4.203   0.639 -0.6087  0.0805  0.2896
   15CHTO   H18 6320   7.261   4.170   0.536 -0.5654  0.7413  0.0695
   15CHTO   C16 6321   7.134   4.174   0.705  0.3231  0.0565 -0.1847
   15CHTO   O11 6322   7.127   4.188   0.844 -0.2946 -0.1791  0.1484
   15CHTO    H5 6323   7.179   4.255   0.883  1.3861 -0.1625 -2.0209
   15CHTO    O3 6324   7.578   4.038   0.707 -0.0462 -0.2483 -0.4960
   15CHTO    C6 6325   7.601   3.907   0.653  0.2499  0.0022 -0.3722
   15CHTO   H19 6326   7.569   3.897   0.549 -2.1944 -1.2324  0.4453
   15CHTO    C8 6327   7.758   3.878   0.643  1.0929 -0.3228 -0.1512
   15CHTO   H21 6328   7.802   3.908   0.738 -2.1004 -0.7705  1.5455
   15CHTO    O7 6329   7.818   3.967   0.543 -0.3397  0.5116 -0.4533
   15CHTO    H2 6330   7.808   4.057   0.567 -2.2528  0.8365 -2.3786
   15CHTO   C12 6331   7.779   3.726   0.604  0.0483  0.3570  0.0141
   15CHTO   H25 6332   7.731   3.713   0.505 -0.6352  2.0541  0.1015
   15CHTO    N3 6333   7.920   3.680   0.596 -0.5737 -0.9914  0.1541
   15CHTO   H12 6334   7.994   3.757   0.614 -0.8015 -0.9506  0.9625
   15CHTO   H13 6335   7.932   3.626   0.504  0.9384  1.3117 -1.0405
   15CHTO   C15 6336   7.703   3.635   0.699 -0.1213  0.8369  0.6704
   15CHTO   H28 6337   7.729   3.630   0.805 -2.3892 -0.4294  1.1911
   15CHTO   O10 6338   7.695   3.472   0.653 -0.1331 -0.2553  0.5527
   15CHTO    H4 6339   7.781   3.438   0.633  0.2018 -0.3559  2.1238
   15CHTO    O5 6340   7.562   3.665   0.678  0.3059  0.3126  0.8290
   15CHTO   C10 6341   7.526   3.793   0.727 -0.6400  0.2625  0.0647
   15CHTO   H23 6342   7.563   3.800   0.829  1.8053  0.6621 -0.7957
   15CHTO   C17 6343   7.375   3.805   0.712  0.5583  0.3042 -0.3330
   15CHTO   O12 6344   7.334   3.876   0.828  0.3548 -0.5103 -0.5153
   15CHTO    H6 6345   7.248   3.845   0.847 -0.1850  1.8444  1.1223
   16CHTO  H203 6346   5.163   4.395   0.014  0.9076 -1.7594  0.0125
   16CHTO   O82 6347   5.237   4.445  -0.012  0.1583 -0.3997  0.4579
   16CHTO  C123 6348   5.348   4.425   0.075  0.5638  0.0801  0.2719
   16CHTO  H227 6349   5.324   4.464   0.175  0.9164 -1.0220  0.7913
   16CHTO   O77 6350   5.368   4.287   0.084 -0.3755  0.1805 -0.0120
   16CHTO  C118 6351   5.455   4.246   0.195  0.0028 -0.0185  0.4937
   16CHTO  H222 6352   5.408   4.294   0.282  1.6931  1.3632  0.6764
   16CHTO  C125 6353   5.442   4.088   0.217 -0.5237 -0.4681  0.2564
   16CHTO   O84 6354   5.514   4.034   0.324 -0.3058 -0.4296 -0.6697
   16CHTO  H205 6355   5.604   4.058   0.312 -0.1551 -0.3242  0.6281
   16CHTO  C114 6356   5.593   4.294   0.153 -0.1810 -0.2822 -0.2882
   16CHTO  H218 6357   5.621   4.246   0.059 -1.7684 -1.3715 -0.2222
   16CHTO  C116 6358   5.596   4.447   0.134  0.9684  0.5041  0.4321
   16CHTO  H220 6359   5.569   4.494   0.231 -0.0239 -1.1008  0.9551
   16CHTO   O79 6360   5.728   4.487   0.095  0.5047 -0.3645 -0.1100
   16CHTO  H201 6361   5.726   4.577   0.067  2.2164 -0.5647 -0.9104
   16CHTO  C120 6362   5.491   4.484   0.028  0.3871  0.1259 -0.0726
   16CHTO  H224 6363   5.532   4.433  -0.062  0.9902  0.2182  0.1486
   16CHTO   N21 6364   5.480   4.633   0.003 -0.0512  0.0806  0.1226
   16CHTO  H211 6365   5.407   4.671   0.073 -0.5631  0.0104 -0.3682
   16CHTO  H212 6366   5.447   4.639  -0.099 -1.2512 -2.2647  0.3469
   16CHTO   O75 6367   5.679   4.249   0.262  0.5673  0.2488  0.1988
   16CHTO  C112 6368   5.806   4.162   0.216 -0.4179 -0.1301  0.5376
   16CHTO  H216 6369   5.853   4.219   0.135 -0.2854  1.3198  1.6181
   16CHTO   O73 6370   5.758   4.040   0.171  0.4915  0.6194 -0.3407
   16CHTO  C113 6371   5.857   3.945   0.133 -0.4110  0.6659 -0.0798
   16CHTO  H217 6372   5.892   3.977   0.032 -0.3164 -0.8388 -0.5408
   16CHTO  C124 6373   5.789   3.806   0.108 -0.6069 -0.0592 -0.5420
   16CHTO   O83 6374   5.685   3.795   0.008 -0.2656  0.2153 -0.3847
   16CHTO  H204 6375   5.676   3.708  -0.025  0.3161 -0.5672  1.4794
   16CHTO  C109 6376   5.969   3.923   0.242 -0.0819 -0.0930 -0.3056
   16CHTO  H213 6377   5.933   3.846   0.312 -0.1046 -0.6972 -0.9815
   16CHTO  C110 6378   6.017   4.057   0.314 -0.3654 -0.3110  0.3909
   16CHTO  H214 6379   6.088   4.105   0.247 -1.9265  1.3153 -0.1260
   16CHTO   O78 6380   6.089   4.019   0.434  0.1676  0.0246  0.0758
   16CHTO  H200 6381   6.155   4.083   0.455  1.3108 -0.9076 -0.6371
   16CHTO  C111 6382   5.897   4.154   0.341  0.3068 -1.1994 -0.8374
   16CHTO  H215 6383   5.839   4.116   0.426  0.2251  0.1649 -0.2734
   16CHTO   N19 6384   5.944   4.292   0.378  0.2970 -0.1496 -0.6996
   16CHTO  H207 6385   5.856   4.349   0.405 -0.0464 -0.7706 -0.4910
   16CHTO  H208 6386   6.011   4.279   0.462  1.5810 -0.7516 -1.7916
   16CHTO   O74 6387   6.082   3.860   0.171  0.2139  0.6893 -0.0078
   16CHTO  C115 6388   6.154   3.748   0.273 -0.0496  0.0844  0.1985
   16CHTO  H219 6389   6.143   3.777   0.378 -1.1825 -0.6173  0.2793
   16CHTO   O76 6390   6.094   3.615   0.262 -0.0563 -0.2019 -0.0090
   16CHTO  C122 6391   6.141   3.540   0.149 -0.2681  0.4826  0.2564
   16CHTO  H226 6392   6.134   3.610   0.065  0.9718 -1.2326 -1.3456
   16CHTO  C126 6393   6.039   3.426   0.131  0.0051  0.3075  0.4833
   16CHTO   O85 6394   5.921   3.467   0.063 -0.2583  0.2566  0.1463
   16CHTO  H206 6395   5.891   3.551   0.092  2.4770  1.2503  0.2229
   16CHTO  C121 6396   6.289   3.491   0.190  0.4171  0.2527  0.2845
   16CHTO  H225 6397   6.289   3.398   0.250  1.9148 -0.2357 -0.4424
   16CHTO   O81 6398   6.350   3.461   0.064  0.2707 -0.4677 -0.0400
   16CHTO  H202 6399   6.434   3.424   0.083 -0.0015 -1.5759 -0.9210
   16CHTO  C119 6400   6.368   3.602   0.269  0.0081 -0.6726  0.2306
   16CHTO  H223 6401   6.345   3.573   0.371 -3.0073  0.4412 -0.0896
   16CHTO  C117 6402   6.315   3.747   0.244 -0.1718  0.1459  0.0800
   16CHTO  H221 6403   6.329   3.779   0.141 -1.4276  1.3267  0.2749
   16CHTO   N20 6404   6.395   3.842   0.328  0.1319 -0.2419  0.3719
   16CHTO  H209 6405   6.482   3.883   0.280  0.6280  0.1278  1.5628
   16CHTO  H210 6406   6.332   3.928   0.345  0.3836  0.0896 -0.3844
   16CHTO   O80 6407   6.531   3.590   0.264  0.1201  0.3148 -0.2472
   16CHTO  C103 6408   6.614   3.488   0.359  0.0048  0.3584  0.2406
   16CHTO  H190 6409   6.552   3.473   0.447 -1.6087 -0.9597 -1.0766
   16CHTO  C101 6410   6.655   3.358   0.293  0.0956  0.2873  0.3500
   16CHTO  H188 6411   6.714   3.377   0.203 -0.1816  0.6116  0.2349
   16CHTO   O68 6412   6.511   3.290   0.243  0.4648  0.0816 -0.0098
   16CHTO  H168 6413   6.499   3.317   0.154  2.1495 -0.6633 -0.4829
   16CHTO   C99 6414   6.735   3.260   0.386 -0.4043 -0.8265 -0.5434
   16CHTO  H186 6415   6.671   3.237   0.474  0.9812  0.3990  0.8113
   16CHTO   N17 6416   6.783   3.130   0.322 -0.1156  0.3976  0.0857
   16CHTO  H174 6417   6.848   3.138   0.236  0.1225 -0.5006  0.1710
   16CHTO  H175 6418   6.809   3.053   0.393 -2.2144 -1.5542 -1.1745
   16CHTO   C97 6419   6.858   3.335   0.450  0.1109  0.0845  0.1540
   16CHTO  H184 6420   6.938   3.340   0.375 -1.5268 -3.8856 -2.0001
   16CHTO   O64 6421   6.819   3.469   0.497  0.1045 -0.2013  0.0898
   16CHTO  C104 6422   6.749   3.557   0.408  0.0375 -0.3848 -0.5896
   16CHTO  H191 6423   6.816   3.571   0.323  0.3457 -0.8283 -0.4271
   16CHTO  C108 6424   6.719   3.695   0.464  0.0544 -0.1847  0.7883
   16CHTO   O71 6425   6.818   3.792   0.427 -0.2982 -0.1455  0.6223
   16CHTO  H171 6426   6.899   3.766   0.468  0.4041 -0.0565 -0.6900
   16CHTO   O62 6427   6.920   3.272   0.563 -0.3538 -0.1074  0.3011
   16CHTO   C91 6428   7.032   3.341   0.623  0.0179 -0.0013 -0.0329
   16CHTO  H178 6429   7.067   3.410   0.547 -1.6545 -0.3392 -1.1384
   16CHTO   C92 6430   7.153   3.236   0.643 -0.2784 -0.2189 -0.2799
   16CHTO  H179 6431   7.168   3.182   0.548 -2.4177 -0.8197 -0.2890
   16CHTO   O66 6432   7.263   3.322   0.677 -0.1486 -0.3648 -0.3347
   16CHTO  H166 6433   7.340   3.272   0.696  0.0853  0.1288  0.0196
   16CHTO   C93 6434   7.125   3.137   0.765 -0.3376 -0.1805 -0.2593
   16CHTO  H180 6435   7.218   3.139   0.824  0.9239  1.6831 -2.2596
   16CHTO   N16 6436   7.113   2.990   0.738  0.4628 -0.7861 -0.1015
   16CHTO  H172 6437   7.187   2.940   0.677 -0.0943 -1.4549 -0.2222
   16CHTO  H173 6438   7.094   2.931   0.826  1.6801  0.4606  1.0378
   16CHTO   C94 6439   7.007   3.194   0.857 -0.0805  0.3898 -0.0386
   16CHTO  H181 6440   6.909   3.191   0.808  0.7172  2.1347 -1.8074
   16CHTO   O61 6441   7.030   3.334   0.876 -0.4332 -0.5983  0.1357
   16CHTO   C95 6442   6.996   3.414   0.759  0.0740 -0.4265  0.3370
   16CHTO  H182 6443   6.888   3.429   0.759  0.2285  1.0461  2.2903
   16CHTO  C106 6444   7.073   3.555   0.775 -0.2795 -0.2626 -0.3104
   16CHTO   O69 6445   7.006   3.657   0.704 -0.2225  0.0108 -0.1377
   16CHTO  H169 6446   6.929   3.686   0.748 -1.4724 -2.9585 -0.2184
   16CHTO   O63 6447   7.006   3.135   1.003 -0.4930  0.2425 -0.0022
   16CHTO   C96 6448   6.858   3.081   1.057  0.0303  0.1489  0.2813
   16CHTO  H183 6449   6.874   3.040   1.157 -2.7747 -1.1540  0.2529
   16CHTO   C98 6450   6.797   2.962   0.982  0.0809  0.1234  0.2791
   16CHTO  H185 6451   6.795   2.979   0.873  0.4620  1.9481  0.5516
   16CHTO   O67 6452   6.887   2.847   1.003  0.2088 -0.2445  0.2657
   16CHTO  H167 6453   6.870   2.778   0.941 -1.4991 -0.8154  1.3319
   16CHTO  C102 6454   6.649   2.926   1.042  0.0191 -0.2814 -0.4814
   16CHTO  H189 6455   6.676   2.893   1.143  0.6649  1.4277 -0.0898
   16CHTO   N18 6456   6.571   2.810   0.978 -0.2499  0.7607 -0.3851
   16CHTO  H176 6457   6.531   2.742   1.052  2.8460 -0.0494  0.6552
   16CHTO  H177 6458   6.627   2.768   0.896  0.7699  1.0259  0.1675
   16CHTO  C105 6459   6.565   3.054   1.032 -0.1647 -0.4864  0.4419
   16CHTO  H192 6460   6.564   3.080   0.926 -0.6808 -0.0689  0.5467
   16CHTO   O65 6461   6.627   3.171   1.103  0.6002  0.4186  0.3335
   16CHTO  C100 6462   6.760   3.203   1.059  0.2932 -0.0236  0.3494
   16CHTO  H187 6463   6.752   3.239   0.956 -0.4316 -1.5109 -0.1420
   16CHTO  C107 6464   6.804   3.327   1.142  0.0824 -0.0156 -0.5882
   16CHTO   O70 6465   6.842   3.293   1.280 -0.0407 -0.4755 -0.1832
   16CHTO  H170 6466   6.917   3.236   1.280  0.2896 -0.0497 -1.4123
   16CHTO   O57 6467   6.407   3.026   1.092 -0.1330 -0.3632  0.4050
   16CHTO   C85 6468   6.309   3.112   1.034 -0.0443  0.3665 -0.2655
   16CHTO  H157 6469   6.357   3.140   0.938  2.3090 -2.6906 -0.0665
   16CHTO   C83 6470   6.300   3.247   1.119 -0.2485  0.1186 -0.1940
   16CHTO  H155 6471   6.401   3.286   1.132 -1.0706  1.9858  0.8617
   16CHTO   O56 6472   6.252   3.216   1.248  0.4059  0.1608  0.3873
   16CHTO  H135 6473   6.175   3.163   1.247  1.3833 -1.2819  0.8663
   16CHTO   C81 6474   6.225   3.357   1.040 -0.6132 -0.0699  0.7651
   16CHTO  H153 6475   6.285   3.378   0.952 -0.8570 -2.2934  0.0592
   16CHTO   N14 6476   6.218   3.493   1.106 -0.8014  0.6371  0.0555
   16CHTO  H141 6477   6.152   3.518   1.187 -1.0858  1.4249 -0.4088
   16CHTO  H142 6478   6.213   3.570   1.031 -0.5786  1.1329  0.5455
   16CHTO   C79 6479   6.084   3.298   0.991  0.3567 -0.1475 -0.1825
   16CHTO  H151 6480   6.047   3.366   0.914  1.3170  1.1834  0.5184
   16CHTO   O52 6481   6.094   3.167   0.928 -0.5425 -0.1079  0.7586
   16CHTO   C86 6482   6.166   3.068   1.013  0.6117 -0.2596  0.3100
   16CHTO  H158 6483   6.116   3.063   1.111 -0.0755 -3.9803 -0.1314
   16CHTO   C90 6484   6.148   2.931   0.945 -0.0190 -0.2862 -0.8285
   16CHTO   O60 6485   6.012   2.901   0.966  0.1292  0.4224 -0.1835
   16CHTO  H138 6486   5.984   2.827   0.917 -0.1485  1.4895 -1.6621
   16CHTO   O50 6487   5.991   3.279   1.097 -0.6309 -0.2415 -0.0714
   16CHTO   C73 6488   5.848   3.261   1.119  0.0829  0.5037 -0.6202
   16CHTO  H145 6489   5.828   3.153   1.130 -0.3974  0.4726 -1.6594
   16CHTO   C74 6490   5.766   3.313   0.998  0.5243 -0.3234 -0.5014
   16CHTO  H146 6491   5.802   3.259   0.909 -1.1901  1.1702 -2.1517
   16CHTO   O54 6492   5.629   3.271   1.013 -0.4708  0.4294  0.0486
   16CHTO  H133 6493   5.569   3.338   0.985 -0.0263  0.9721  0.3905
   16CHTO   C75 6494   5.782   3.465   0.978  0.1924 -0.1172 -0.2358
   16CHTO  H147 6495   5.884   3.491   0.946 -0.8447  1.5997 -2.2988
   16CHTO   N13 6496   5.700   3.525   0.874  0.2667 -0.0589  0.7036
   16CHTO  H139 6497   5.597   3.536   0.905  0.6905 -0.1375  2.1556
   16CHTO  H140 6498   5.688   3.449   0.798 -0.5326  0.2023  0.5623
   16CHTO   C76 6499   5.746   3.526   1.118 -0.6492 -0.2637 -0.4007
   16CHTO  H148 6500   5.640   3.516   1.142 -0.8392  0.2833 -0.9977
   16CHTO   O49 6501   5.828   3.472   1.226  0.1122  0.6915 -0.2047
   16CHTO   C77 6502   5.804   3.334   1.249  0.0660  0.4376  0.0666
   16CHTO  H149 6503   5.702   3.301   1.268  0.0277 -0.2513 -1.2695
   16CHTO   C88 6504   5.891   3.307   1.378 -0.0682  0.0103 -0.0934
   16CHTO   O58 6505   5.892   3.163   1.401 -0.3377 -0.0994  0.4542
   16CHTO  H136 6506   5.957   3.141   1.465 -0.7264 -0.5631  0.6914
   16CHTO   O51 6507   5.782   3.689   1.129  0.2974 -0.5125  0.0829
   16CHTO   C78 6508   5.766   3.752   1.287 -0.2807 -0.0263 -0.5220
   16CHTO  H150 6509   5.781   3.672   1.363 -1.2884  1.2162  1.0217
   16CHTO   C80 6510   5.627   3.813   1.310 -0.0779 -0.4413  0.1778
   16CHTO  H152 6511   5.611   3.897   1.239 -1.1746 -0.8135 -0.0281
   16CHTO   O55 6512   5.521   3.722   1.280  0.2311  0.0568  0.1307
   16CHTO  H134 6513   5.554   3.635   1.270 -2.1868 -1.0375  1.1995
   16CHTO   C84 6514   5.613   3.878   1.457  0.6106 -0.1595 -0.4816
   16CHTO  H156 6515   5.599   3.791   1.521 -1.3459 -0.1044 -0.7893
   16CHTO   N15 6516   5.488   3.958   1.476  0.4921 -0.5715  0.0193
   16CHTO  H143 6517   5.477   4.040   1.409 -1.7834  0.3122  1.4156
   16CHTO  H144 6518   5.398   3.901   1.486  1.1252 -1.5939 -0.0423
   16CHTO   C87 6519   5.733   3.972   1.487  0.3815 -0.1877  0.4170
   16CHTO  H159 6520   5.724   4.061   1.425  1.0443 -0.1673  0.3430
   16CHTO   O53 6521   5.869   3.895   1.456  0.6787 -0.0514 -0.0141
   16CHTO   C82 6522   5.874   3.858   1.320 -0.2232  0.2470  0.0960
   16CHTO  H154 6523   5.854   3.944   1.255 -0.0637  0.6170  0.5338
   16CHTO   C89 6524   6.011   3.804   1.282  0.2094 -0.0470  0.4435
   16CHTO   O59 6525   6.119   3.884   1.329 -0.4878  0.6449  0.5333
   16CHTO  H137 6526   6.194   3.859   1.277 -1.4116 -0.6592 -0.2030
   16CHTO   O45 6527   5.737   4.002   1.642  0.1447  0.3523  0.3284
   16CHTO   C67 6528   5.837   4.098   1.681 -0.0837 -0.4458 -0.6144
   16CHTO  H124 6529   5.925   4.084   1.619 -0.5080  0.2303 -1.3770
   16CHTO   C65 6530   5.790   4.249   1.663  0.2418  0.1280  0.9554
   16CHTO  H122 6531   5.684   4.250   1.690 -0.3537  0.9251 -1.3153
   16CHTO   O44 6532   5.805   4.280   1.528  0.7064 -0.0167 -0.1372
   16CHTO  H102 6533   5.785   4.369   1.507 -0.0463 -0.1729 -0.0724
   16CHTO   C63 6534   5.865   4.336   1.776 -0.2183 -0.5904  0.8287
   16CHTO  H120 6535   5.804   4.329   1.866  1.0278 -1.0126  1.6357
   16CHTO   N11 6536   5.870   4.483   1.756 -0.1200 -0.1115 -0.0304
   16CHTO  H108 6537   5.927   4.501   1.667 -0.7435 -0.1393 -0.4362
   16CHTO  H109 6538   5.924   4.530   1.835  1.0585 -0.0911 -0.8420
   16CHTO   C61 6539   6.013   4.281   1.802  0.1145  0.5003 -0.7272
   16CHTO  H118 6540   6.057   4.353   1.872 -0.9227 -0.6654  1.1684
   16CHTO   O40 6541   6.009   4.157   1.861  0.4585  0.4863  0.3079
   16CHTO   C68 6542   5.887   4.074   1.826 -0.1847  0.0238 -0.0371
   16CHTO  H125 6543   5.816   4.113   1.901  2.7218  0.6708  2.4898
   16CHTO   C72 6544   5.917   3.928   1.867  0.1817 -0.3417  1.0981
   16CHTO   O48 6545   5.795   3.850   1.880  0.2922  0.3224  0.5233
   16CHTO  H105 6546   5.810   3.758   1.878 -1.4185  0.0437 -0.4350
   16CHTO   O38 6547   6.096   4.269   1.680  0.8398  0.2030  0.2166
   16CHTO   C55 6548   6.240   4.266   1.690 -0.3111 -0.1852 -0.1941
   16CHTO  H112 6549   6.275   4.243   1.792  0.3762  0.0432 -0.3796
   16CHTO   C56 6550   6.296   4.403   1.645 -0.3188  0.3909  0.1732
   16CHTO  H113 6551   6.255   4.428   1.547  1.6980 -0.8826 -1.0230
   16CHTO   O42 6552   6.241   4.508   1.735  0.2888 -0.2698  0.1407
   16CHTO  H100 6553   6.171   4.558   1.699 -0.4458  0.6597  2.7155
   16CHTO   C57 6554   6.455   4.395   1.648  0.1924 -0.3443  0.1379
   16CHTO  H114 6555   6.477   4.379   1.753 -1.8440  1.3745  0.8657
   16CHTO   N10 6556   6.534   4.512   1.599  0.4098  0.4040 -0.2292
   16CHTO  H106 6557   6.623   4.484   1.546 -0.7768  0.3479 -2.2418
   16CHTO  H107 6558   6.563   4.572   1.684  0.0623  0.9887 -0.5182
   16CHTO   C58 6559   6.507   4.273   1.564 -0.1148 -0.5746  0.3943
   16CHTO  H115 6560   6.488   4.301   1.458 -0.0557  1.3274  0.8630
   16CHTO   O37 6561   6.435   4.155   1.595 -0.9179 -0.2511  0.3207
   16CHTO   C59 6562   6.291   4.158   1.602  0.6353  0.6417 -0.2578
   16CHTO  H116 6563   6.254   4.183   1.503  0.5801  3.8268  0.5165
   16CHTO   C70 6564   6.239   4.021   1.652 -0.6970  0.0408 -0.2339
   16CHTO   O46 6565   6.299   3.977   1.772 -0.0401  0.4634  0.5942
   16CHTO  H103 6566   6.273   4.033   1.842 -1.7005 -0.6529  0.8802
   16CHTO   O39 6567   6.683   4.261   1.584 -0.6417  0.1107  0.4977
   16CHTO   C60 6568   6.745   4.191   1.470  0.5866 -0.5110  0.0309
   16CHTO  H117 6569   6.681   4.105   1.448 -1.7919  0.5005  2.7495
   16CHTO   C62 6570   6.733   4.277   1.339  0.1809  0.0805  0.3285
   16CHTO  H119 6571   6.626   4.271   1.311 -0.0206  1.6970  0.7090
   16CHTO   O43 6572   6.767   4.415   1.366  0.0633  0.5644 -0.5450
   16CHTO  H101 6573   6.732   4.437   1.450  1.9545 -1.8974  0.9351
   16CHTO   C66 6574   6.818   4.208   1.222  0.5234  0.4044  0.2534
   16CHTO  H123 6575   6.777   4.108   1.207 -0.8212  0.8295  0.9824
   16CHTO   N12 6576   6.805   4.281   1.090 -0.0965  0.5684  0.1329
   16CHTO  H110 6577   6.703   4.286   1.055  0.4069  0.8386 -1.3693
   16CHTO  H111 6578   6.856   4.376   1.090  0.1421  0.4398  1.1624
   16CHTO   C69 6579   6.962   4.189   1.270 -0.4155 -0.0041 -0.0441
   16CHTO  H126 6580   6.989   4.292   1.303  0.7750 -0.9839  2.0928
   16CHTO   O41 6581   6.971   4.095   1.391  0.1065  0.1478  0.2294
   16CHTO   C64 6582   6.884   4.137   1.511 -0.3696 -0.1864 -0.2016
   16CHTO  H121 6583   6.943   4.213   1.567 -0.1724 -0.3450 -0.1952
   16CHTO   C71 6584   6.868   4.011   1.599 -0.0507  0.0445 -0.0035
   16CHTO   O47 6585   6.803   3.908   1.524 -0.4826 -0.1927 -0.2480
   16CHTO  H104 6586   6.755   3.854   1.583 -1.6398 -1.5054 -2.3514
   16CHTO   O34 6587   7.065   4.135   1.158  0.1098  0.3605 -0.5707
   16CHTO   C49 6588   7.154   3.991   1.116 -1.0061 -0.5479 -0.5561
   16CHTO   H91 6589   7.229   4.024   1.044 -0.9358  0.4457 -0.0399
   16CHTO   C47 6590   7.061   3.890   1.051  0.0244  0.3553 -0.0566
   16CHTO   H89 6591   7.123   3.805   1.016 -0.4243  0.3794 -0.9151
   16CHTO   O33 6592   7.001   3.948   0.935  0.1151  0.1585  0.0503
   16CHTO   H70 6593   6.971   3.887   0.871  1.4475  0.4564 -0.8681
   16CHTO   C45 6594   6.956   3.835   1.155  0.2925  0.2426  0.3944
   16CHTO   H87 6595   6.912   3.923   1.203  1.8965  0.3549  1.6852
   16CHTO    N8 6596   6.850   3.749   1.090 -0.3043 -0.6846  0.1032
   16CHTO   H75 6597   6.884   3.653   1.056 -0.0337 -0.3802 -0.4986
   16CHTO   H76 6598   6.774   3.726   1.164  0.0659  0.1622  0.7534
   16CHTO   C43 6599   7.048   3.764   1.274 -0.3529 -0.1531  0.1460
   16CHTO   H85 6600   6.967   3.724   1.335 -1.1214 -2.0356 -2.0323
   16CHTO   O29 6601   7.131   3.860   1.336 -0.5851  0.3208  0.0696
   16CHTO   C50 6602   7.220   3.936   1.248 -0.2890  0.5861  0.3926
   16CHTO   H92 6603   7.251   4.023   1.308 -0.8063  1.9626 -1.2911
   16CHTO   C54 6604   7.350   3.852   1.218 -0.1411  0.0093  0.5848
   16CHTO   O36 6605   7.417   3.809   1.338 -0.3925 -0.5891 -0.1069
   16CHTO   H72 6606   7.361   3.750   1.385 -1.7336  0.5548 -0.2233
   16CHTO   O27 6607   7.109   3.642   1.235 -0.2095  0.2199 -0.1182
   16CHTO   C37 6608   7.171   3.537   1.307  0.1464  0.4507 -0.1491
   16CHTO   H79 6609   7.268   3.575   1.343 -0.0219  1.5542 -0.8042
   16CHTO   C38 6610   7.091   3.481   1.428 -0.0857  0.7205 -0.5112
   16CHTO   H80 6611   6.999   3.439   1.385  0.2944  0.1861 -0.8062
   16CHTO   O31 6612   7.060   3.594   1.514 -0.0685  0.3633  0.2649
   16CHTO   H68 6613   7.034   3.571   1.601  1.0403 -1.2889  0.1846
   16CHTO   C39 6614   7.162   3.351   1.494 -0.0644  0.0196  0.7172
   16CHTO   H81 6615   7.252   3.385   1.544  1.7321 -0.4979 -2.0563
   16CHTO    N7 6616   7.087   3.288   1.606  0.1078  0.0991  0.7524
   16CHTO   H73 6617   7.069   3.353   1.690 -0.6051  0.6307  0.1944
   16CHTO   H74 6618   7.112   3.185   1.627  0.9637  0.2254  0.4046
   16CHTO   C40 6619   7.189   3.245   1.380 -0.2310  0.9377  0.0925
   16CHTO   H82 6620   7.101   3.194   1.343 -0.4083  2.3920 -1.6009
   16CHTO   O26 6621   7.257   3.314   1.269  0.0404  0.3602 -0.1811
   16CHTO   C41 6622   7.195   3.425   1.203  0.3015  0.0080 -0.0779
   16CHTO   H83 6623   7.097   3.400   1.161 -0.7377  2.2045  0.9751
   16CHTO   C52 6624   7.284   3.471   1.079 -0.7732 -1.1769 -0.2381
   16CHTO   O35 6625   7.300   3.360   0.984 -0.0876 -0.3728 -0.1787
   16CHTO   H71 6626   7.336   3.281   1.020  1.9777  1.4081  1.8498
   16CHTO   O28 6627   7.280   3.140   1.411 -0.5259  0.3436  0.2835
   16CHTO   C42 6628   7.270   3.001   1.366  0.3415 -0.8699 -0.3221
   16CHTO   H84 6629   7.371   2.967   1.389  0.2781  0.2027  1.6647
   16CHTO   C44 6630   7.252   2.969   1.215  0.4532 -0.1960 -0.3101
   16CHTO   H86 6631   7.150   2.997   1.186 -0.2773 -1.8045  0.5994
   16CHTO   O32 6632   7.357   3.038   1.149 -0.1046 -0.6275  0.0713
   16CHTO   H69 6633   7.327   3.052   1.061 -0.1706  2.1475  0.4865
   16CHTO   C48 6634   7.264   2.819   1.192 -0.8356  0.4301  0.2810
   16CHTO   H90 6635   7.365   2.796   1.224 -0.5566 -0.3475 -1.1119
   16CHTO    N9 6636   7.258   2.776   1.047 -0.5114  0.1385  0.3022
   16CHTO   H77 6637   7.344   2.812   0.993 -1.0988  1.9258  0.4983
   16CHTO   H78 6638   7.252   2.668   1.046 -0.0392  0.1084  0.5024
   16CHTO   C51 6639   7.150   2.752   1.275 -1.1304  0.6275  0.2118
   16CHTO   H93 6640   7.053   2.781   1.233 -1.5887 -1.6379 -0.3492
   16CHTO   O30 6641   7.158   2.781   1.416 -0.1287  0.1443  0.2717
   16CHTO   C46 6642   7.162   2.919   1.458 -0.7036  0.1278  0.1719
   16CHTO   H88 6643   7.057   2.947   1.448 -0.6203 -0.2268 -1.8327
   16CHTO   C53 6644   7.198   2.914   1.604  0.3107  0.5242  0.0177
   16CHTO   O72 6645   7.328   2.860   1.627  0.4030 -0.5665  0.0478
   16CHTO  H199 6646   7.358   2.897   1.708  0.2944  0.5715 -0.4091
   16CHTO   O22 6647   7.165   2.605   1.266 -0.7162 -0.0384 -0.7355
   16CHTO   C31 6648   7.060   2.514   1.320  0.1887 -0.0750 -0.8538
   16CHTO   H59 6649   7.012   2.567   1.405  0.8342 -1.5437  0.4493
   16CHTO   C29 6650   6.945   2.476   1.220  0.0713  0.3161 -0.0662
   16CHTO   H57 6651   6.978   2.430   1.126 -1.6862  0.4923 -0.7970
   16CHTO   O21 6652   6.887   2.604   1.185 -0.2435  0.3210  0.2289
   16CHTO   H37 6653   6.846   2.597   1.101  1.1551  1.4756 -0.5668
   16CHTO   C27 6654   6.843   2.376   1.289 -0.0551  0.1653  0.2195
   16CHTO   H55 6655   6.800   2.421   1.380 -0.3092 -2.8347  1.6558
   16CHTO    N5 6656   6.734   2.341   1.200 -0.2542 -0.1682  0.0996
   16CHTO   H43 6657   6.755   2.246   1.154  4.1741  0.5381  0.5243
   16CHTO   H44 6658   6.638   2.341   1.249 -0.2890 -0.2495  0.0324
   16CHTO   C25 6659   6.929   2.251   1.342 -0.0293  0.4762 -0.0272
   16CHTO   H53 6660   6.977   2.198   1.258  0.0985  1.4599 -0.5780
   16CHTO   O17 6661   7.030   2.295   1.432 -0.5877 -0.0791 -0.0793
   16CHTO   C32 6662   7.126   2.387   1.374 -0.0126  0.0630 -0.0497
   16CHTO   H60 6663   7.189   2.345   1.296  0.7982  1.0305  0.0806
   16CHTO   C36 6664   7.223   2.429   1.488 -1.1488 -0.8510 -0.0136
   16CHTO   O25 6665   7.290   2.310   1.533  0.6443  0.0356 -0.3688
   16CHTO   H40 6666   7.238   2.272   1.601  1.2898  1.5068  0.9764
   16CHTO   O15 6667   6.855   2.139   1.408  0.0415 -0.0498  0.1311
   16CHTO   C19 6668   6.748   2.116   1.508 -0.3828 -0.5859 -0.0680
   16CHTO   H47 6669   6.787   2.021   1.549  1.2080  0.3258  0.5980
   16CHTO   C20 6670   6.728   2.226   1.612  0.6010  0.1687  0.2396
   16CHTO   H48 6671   6.711   2.323   1.564  2.3775  0.5077  0.2652
   16CHTO   O19 6672   6.853   2.233   1.680  0.6524  0.0720 -0.1363
   16CHTO   H35 6673   6.855   2.166   1.746 -2.0610 -0.3696 -0.4475
   16CHTO   C21 6674   6.599   2.192   1.704  1.0334  0.8732 -0.9407
   16CHTO   H49 6675   6.621   2.103   1.763 -0.8870  2.2713  1.9895
   16CHTO    N4 6676   6.572   2.303   1.802 -0.3938 -0.2035  0.1068
   16CHTO   H41 6677   6.663   2.331   1.853 -0.0736  2.3246 -1.7575
   16CHTO   H42 6678   6.500   2.278   1.879  2.3666  1.0501  3.2554
   16CHTO   C22 6679   6.474   2.163   1.612 -0.2889  0.1302 -0.2313
   16CHTO   H50 6680   6.464   2.249   1.545  1.9592  0.1982 -0.5134
   16CHTO   O14 6681   6.509   2.049   1.531 -0.0194  0.2310  0.0347
   16CHTO   C23 6682   6.612   2.082   1.433  0.4900 -0.0824 -0.4769
   16CHTO   H51 6683   6.573   2.169   1.379 -2.7702 -0.7576  0.6794
   16CHTO   C34 6684   6.615   1.969   1.329 -0.3192  0.1131  0.1900
   16CHTO   O23 6685   6.499   1.956   1.249 -0.1637  0.5129  0.0051
   16CHTO   H38 6686   6.495   1.873   1.206  0.7538  1.2988 -1.6555
   16CHTO   O16 6687   6.355   2.134   1.684  0.1057  0.0914 -0.3016
   16CHTO   C24 6688   6.228   2.119   1.566  1.3102  0.5757  0.2057
   16CHTO   H52 6689   6.267   2.100   1.466 -2.3146 -0.5719 -1.0887
   16CHTO   C26 6690   6.143   2.247   1.561 -0.2852  0.5258 -0.5959
   16CHTO   H54 6691   6.110   2.270   1.664  0.4561 -0.4929 -0.1260
   16CHTO   O20 6692   6.232   2.355   1.530 -0.4083  0.2970  0.4597
   16CHTO   H36 6693   6.181   2.433   1.531  0.6490  1.0320 -0.9276
   16CHTO   C30 6694   6.021   2.232   1.464  0.7339  0.2945 -0.0427
   16CHTO   H58 6695   6.052   2.218   1.359  0.1037  0.1811 -0.2212
   16CHTO    N6 6696   5.932   2.348   1.477  0.9442 -0.4575  0.1354
   16CHTO   H45 6697   5.986   2.432   1.436 -0.4058  0.9172  1.1064
   16CHTO   H46 6698   5.841   2.326   1.423  0.4978  0.5288  0.4863
   16CHTO   C33 6699   5.935   2.101   1.494  0.5283 -0.9226  0.0977
   16CHTO   H61 6700   5.885   2.112   1.591  0.1298  0.8029 -0.2812
   16CHTO   O18 6701   6.023   1.992   1.507  0.5110  0.0958 -0.5705
   16CHTO   C28 6702   6.134   1.999   1.597  0.3485 -0.1384 -0.3367
   16CHTO   H56 6703   6.099   2.003   1.700  0.8282  0.4934 -0.1952
   16CHTO   C35 6704   6.221   1.875   1.592 -0.6275 -0.2033 -0.0989
   16CHTO   O24 6705   6.138   1.761   1.613 -0.1790  0.2942 -0.3515
   16CHTO   H39 6706   6.180   1.682   1.641 -1.5073 -0.0333  0.7659
   16CHTO    O9 6707   5.826   2.074   1.395  0.7265 -0.5701 -0.0950
   16CHTO   C13 6708   5.730   1.935   1.442 -0.0846  0.4105  0.4692
   16CHTO   H26 6709   5.803   1.851   1.432  0.9274  1.0788  2.0970
   16CHTO   C11 6710   5.606   1.916   1.339  0.4529 -0.4180 -0.2770
   16CHTO   H24 6711   5.638   1.919   1.234  1.4904  0.4048  0.0594
   16CHTO    O8 6712   5.508   2.030   1.359  0.1279  0.5061 -0.0930
   16CHTO    H3 6713   5.518   2.103   1.302 -0.0133  0.5196 -0.1011
   16CHTO    C9 6714   5.542   1.781   1.372  0.3004 -0.2292  0.4403
   16CHTO   H22 6715   5.623   1.708   1.355  1.5183  1.1840  0.1058
   16CHTO    N2 6716   5.437   1.748   1.277 -0.1410 -0.0746  0.3214
   16CHTO   H10 6717   5.442   1.645   1.243 -0.4164 -0.2549  0.8310
   16CHTO   H11 6718   5.342   1.771   1.321 -0.1336  1.4786 -0.4555
   16CHTO    C7 6719   5.494   1.772   1.527 -0.2959 -0.2804  0.3816
   16CHTO   H20 6720   5.468   1.666   1.544 -0.1882 -0.1643  1.3097
   16CHTO    O4 6721   5.601   1.805   1.614 -0.2997 -0.3052 -0.4309
   16CHTO   C14 6722   5.674   1.926   1.592 -0.5095  0.0353  0.1554
   16CHTO   H27 6723   5.770   1.924   1.647 -1.7061  1.1309  2.3739
   16CHTO   C18 6724   5.605   2.049   1.641  0.1785 -0.2491 -0.4809
   16CHTO   O13 6725   5.589   2.063   1.781 -0.1258  0.3299 -0.4228
   16CHTO    H7 6726   5.536   2.141   1.786 -0.6725  0.0517 -1.7524
   16CHTO    O2 6727   5.362   1.868   1.559 -0.3144 -0.1065 -0.5152
   16CHTO    C1 6728   5.264   1.803   1.639  0.5003  0.1618 -0.2775
   16CHTO   H14 6729   5.179   1.874   1.641  0.0418 -0.3999  0.5158
   16CHTO    C2 6730   5.303   1.774   1.792  0.4524 -0.7207  0.7219
   16CHTO   H15 6731   5.393   1.712   1.786  0.6570 -0.4451  0.9586
   16CHTO    O6 6732   5.326   1.901   1.853  0.4736 -0.1387  0.3335
   16CHTO    H1 6733   5.337   1.897   1.946 -0.5686  0.7154  0.5061
   16CHTO    C3 6734   5.187   1.696   1.869  0.0332  0.6210  0.3823
   16CHTO   H16 6735   5.093   1.753   1.858 -0.5270 -0.5126 -0.9548
   16CHTO    N1 6736   5.208   1.670   2.018  0.0719 -0.3396  0.5454
   16CHTO    H8 6737   5.304   1.705   2.051 -1.7391  3.7886  1.7947
   16CHTO    H9 6738   5.137   1.735   2.068  0.6724  0.4043  0.4365
   16CHTO    C4 6739   5.163   1.561   1.786 -0.0956  0.1753  0.3435
   16CHTO   H17 6740   5.249   1.495   1.784 -0.1332  0.1313  0.0694
   16CHTO    O1 6741   5.125   1.597   1.656  0.1225 -0.0299  0.2998
   16CHTO    C5 6742   5.211   1.679   1.570 -0.3095  0.0234 -0.7158
   16CHTO   H18 6743   5.293   1.617   1.534 -1.8720 -1.2220 -2.2054
   16CHTO   C16 6744   5.121   1.714   1.449  0.1295 -0.2395 -0.1603
   16CHTO   O11 6745   5.129   1.601   1.366  0.1627 -0.0859  0.2944
   16CHTO    H5 6746   5.077   1.607   1.288  2.0654  0.1134 -0.9860
   16CHTO    O3 6747   5.047   1.487   1.827 -0.5292  0.2088  0.2324
   16CHTO    C6 6748   5.045   1.345   1.832  0.0910  0.6389 -0.1294
   16CHTO   H19 6749   5.137   1.302   1.794  0.8889 -1.0907  3.5421
   16CHTO    C8 6750   5.017   1.297   1.978 -0.5522  0.3090 -0.4978
   16CHTO   H21 6751   4.929   1.348   2.018  0.3840  0.3266  1.6022
   16CHTO    O7 6752   5.134   1.327   2.059  0.5966 -0.2894 -0.1475
   16CHTO    H2 6753   5.114   1.338   2.150  1.3256 -2.8185  0.3581
   16CHTO   C12 6754   4.987   1.137   1.980 -0.2922  0.7314  0.3171
   16CHTO   H25 6755   5.081   1.083   1.956  0.1870  0.1257  3.2749
   16CHTO    N3 6756   4.948   1.094   2.117 -0.8166 -0.1077  0.0048
   16CHTO   H12 6757   5.027   1.068   2.186 -1.8144  0.6539  1.4600
   16CHTO   H13 6758   4.889   1.171   2.165 -0.9999 -0.6341  0.6306
   16CHTO   C15 6759   4.878   1.107   1.868 -0.5531 -1.3159  0.1596
   16CHTO   H28 6760   4.780   1.146   1.894  0.9088  1.2482  2.0353
   16CHTO   O10 6761   4.860   0.950   1.844  0.3225 -0.2042 -0.5050
   16CHTO    H4 6762   4.950   0.924   1.841  0.8903  1.7264 -0.8103
   16CHTO    O5 6763   4.927   1.151   1.743 -0.1674 -0.2335 -0.1636
   16CHTO   C10 6764   4.934   1.300   1.738  0.4172 -0.0360  0.5843
   16CHTO   H23 6765   4.838   1.339   1.771 -0.3555 -0.2504 -1.3582
   16CHTO   C17 6766   4.956   1.335   1.590 -0.4565  0.3270 -0.3276
   16CHTO   O12 6767   4.849   1.308   1.500  0.3468  0.0588 -0.4967
   16CHTO    H6 6768   4.839   1.217   1.480 -2.7145  0.1602  0.3057
   17CHTO  H203 6769   5.040   4.529   0.004 -1.7917 -1.7026 -0.3594
   17CHTO   O82 6770   4.998   4.569   0.078  0.1514 -0.3029  0.0227
   17CHTO  C123 6771   5.045   4.705   0.087 -0.2271  0.1252 -1.0028
   17CHTO  H227 6772   4.964   4.764   0.133 -1.0394 -0.4599 -1.6549
   17CHTO   O77 6773   5.161   4.689   0.181 -0.1114 -0.1248 -0.8934
   17CHTO  C118 6774   5.190   4.815   0.250  0.5248 -0.2994  0.7246
   17CHTO  H222 6775   5.101   4.843   0.309 -0.9202  0.7022 -1.8378
   17CHTO  C125 6776   5.307   4.798   0.347 -0.1126  0.9483  0.1641
   17CHTO   O84 6777   5.292   4.676   0.423 -0.3663  0.4850  0.0407
   17CHTO  H205 6778   5.355   4.655   0.489 -1.0547  0.2884  0.6392
   17CHTO  C114 6779   5.224   4.919   0.141  0.0108  0.4097 -0.1975
   17CHTO  H218 6780   5.323   4.896   0.103  0.2806  0.6565  0.3576
   17CHTO  C116 6781   5.134   4.916   0.006 -0.1100 -0.0276  0.0973
   17CHTO  H220 6782   5.043   4.978   0.020  0.1575  0.3563  0.1441
   17CHTO   O79 6783   5.209   4.985  -0.101  0.0167  0.0122 -0.0980
   17CHTO  H201 6784   5.300   4.965  -0.090 -0.4350 -0.4008  3.4554
   17CHTO  C120 6785   5.094   4.778  -0.040  0.2881  1.1358 -0.1881
   17CHTO  H224 6786   5.191   4.731  -0.066  0.2571 -0.0896  1.7520
   17CHTO   N21 6787   4.997   4.783  -0.153  0.3059  0.4519 -0.2898
   17CHTO  H211 6788   4.931   4.869  -0.146 -0.1203  0.0762  0.3728
   17CHTO  H212 6789   4.941   4.691  -0.158  1.0222 -0.1388  2.0475
   17CHTO   O75 6790   5.210   5.041   0.219  0.2334 -0.4211 -0.4098
   17CHTO  C112 6791   5.258   5.192   0.141  0.1951  0.5461 -0.3998
   17CHTO  H216 6792   5.222   5.183   0.037 -1.4632  0.4620  0.1555
   17CHTO   O73 6793   5.403   5.196   0.147 -0.3090  0.0590 -0.4062
   17CHTO  C113 6794   5.456   5.303   0.063 -0.1352  0.2496 -0.5077
   17CHTO  H217 6795   5.418   5.284  -0.040 -1.8039  1.1506 -0.0753
   17CHTO  C124 6796   5.605   5.278   0.048 -0.4782 -0.6438 -0.2079
   17CHTO   O83 6797   5.636   5.184  -0.053 -0.2574  0.6848 -0.0540
   17CHTO  H204 6798   5.725   5.156  -0.044  0.2649  1.8147 -1.3683
   17CHTO  C109 6799   5.411   5.445   0.115 -0.3710 -0.1782 -0.0303
   17CHTO  H213 6800   5.461   5.455   0.213 -0.0957  0.0959 -0.1978
   17CHTO  C110 6801   5.252   5.442   0.136 -0.1386 -0.4526 -0.3859
   17CHTO  H214 6802   5.206   5.443   0.038  0.2179  1.8752 -0.5791
   17CHTO   O78 6803   5.217   5.557   0.218  0.0768 -0.0680 -0.2823
   17CHTO  H200 6804   5.132   5.588   0.192 -0.5973 -1.5568  0.0852
   17CHTO  C111 6805   5.199   5.318   0.211  0.4426  0.1879  0.0941
   17CHTO  H215 6806   5.235   5.324   0.315 -2.6654 -0.0935  1.2549
   17CHTO   N19 6807   5.047   5.304   0.222  0.8098 -0.1244 -0.0266
   17CHTO  H207 6808   5.008   5.216   0.271  0.1143  0.9046  1.3068
   17CHTO  H208 6809   5.016   5.292   0.119  0.8616 -1.5824  0.1223
   17CHTO   O74 6810   5.463   5.546   0.022  0.6986 -0.5931 -0.0589
   17CHTO  C115 6811   5.540   5.668   0.107 -0.2073 -0.3230 -0.0178
   17CHTO  H219 6812   5.493   5.692   0.202  2.9028  0.1626  1.4691
   17CHTO   O76 6813   5.689   5.623   0.146  0.3292 -0.2465  0.1586
   17CHTO  C122 6814   5.785   5.674   0.060 -0.1941  0.1688  0.4047
   17CHTO  H226 6815   5.769   5.632  -0.039  1.0188  0.0852  0.2394
   17CHTO  C126 6816   5.925   5.610   0.100  0.5866 -0.1384  0.0529
   17CHTO   O85 6817   5.954   5.628   0.241  0.1332 -0.4402  0.4783
   17CHTO  H206 6818   5.912   5.573   0.303 -0.3268  0.2863  0.8233
   17CHTO  C121 6819   5.782   5.839   0.056  0.0914  0.6182 -0.3723
   17CHTO  H225 6820   5.848   5.882   0.134 -1.3987  0.4117  1.0231
   17CHTO   O81 6821   5.843   5.889  -0.064 -0.3769 -0.2825 -0.2086
   17CHTO  H202 6822   5.932   5.860  -0.059  0.3402  1.9119  0.1617
   17CHTO  C119 6823   5.638   5.899   0.076  0.0785  0.7725  0.4182
   17CHTO  H223 6824   5.626   5.916   0.183 -2.2934  2.1045 -0.0366
   17CHTO  C117 6825   5.527   5.804   0.025 -0.8133 -0.1403 -0.1851
   17CHTO  H221 6826   5.530   5.776  -0.080 -0.1181 -0.2045 -0.1519
   17CHTO   N20 6827   5.391   5.866   0.036 -0.0073 -0.6207 -0.5532
   17CHTO  H209 6828   5.316   5.800  -0.005  0.5759 -0.7817 -1.3702
   17CHTO  H210 6829   5.355   5.894   0.133  0.5752 -2.7571  0.3130
   17CHTO   O80 6830   5.631   6.046   0.024  0.2526  0.5761 -0.5319
   17CHTO  C103 6831   5.693   6.161   0.108 -0.6957 -0.0686  0.2168
   17CHTO  H190 6832   5.738   6.118   0.198 -0.0265 -2.4428 -1.1967
   17CHTO  C101 6833   5.792   6.249   0.027 -0.3397 -0.6682  0.2301
   17CHTO  H188 6834   5.732   6.279  -0.059 -1.0493  0.7615  1.2037
   17CHTO   O68 6835   5.935   6.162  -0.008 -0.0006  0.1905  0.4324
   17CHTO  H168 6836   5.977   6.205  -0.080 -0.5165  0.0837  0.0666
   17CHTO   C99 6837   5.820   6.386   0.105  0.6286 -0.4032  0.5274
   17CHTO  H186 6838   5.870   6.368   0.203  0.8976  1.3287  0.7222
   17CHTO   N17 6839   5.903   6.484   0.032 -0.3311  0.1177  0.1504
   17CHTO  H174 6840   5.996   6.431   0.014  0.4303  0.7423  2.1054
   17CHTO  H175 6841   5.918   6.568   0.098 -0.0886 -0.9703  1.5221
   17CHTO   C97 6842   5.684   6.452   0.140 -0.5740 -0.2191 -0.6470
   17CHTO  H184 6843   5.631   6.476   0.047  1.3410  0.1950 -1.6700
   17CHTO   O64 6844   5.608   6.362   0.228 -0.0795  0.0176 -0.2764
   17CHTO  C104 6845   5.567   6.247   0.153  0.3466 -0.2273  0.5417
   17CHTO  H191 6846   5.520   6.282   0.061  1.5036  1.1787  0.4525
   17CHTO  C108 6847   5.464   6.164   0.229  0.6057  0.1628  0.1877
   17CHTO   O71 6848   5.341   6.237   0.244  0.3651  0.2218 -0.4108
   17CHTO  H171 6849   5.301   6.252   0.161  1.2352 -0.8860 -1.0488
   17CHTO   O62 6850   5.693   6.576   0.219  0.3613  0.0632 -0.1451
   17CHTO   C91 6851   5.602   6.681   0.178  0.1687 -0.2455  0.9373
   17CHTO  H178 6852   5.538   6.643   0.099  1.2287 -1.4364  0.6350
   17CHTO   C92 6853   5.692   6.789   0.108  0.5023 -0.3167  0.2348
   17CHTO  H179 6854   5.774   6.748   0.048 -0.3616 -1.4960 -0.1487
   17CHTO   O66 6855   5.609   6.850   0.011  0.2980 -0.0530 -0.1989
   17CHTO  H166 6856   5.631   6.940  -0.001  1.8928 -0.4454 -0.2580
   17CHTO   C93 6857   5.747   6.897   0.214  0.2716 -0.5054  0.1579
   17CHTO  H180 6858   5.784   6.978   0.150 -0.4005 -0.8294 -0.6486
   17CHTO   N16 6859   5.859   6.842   0.289 -0.2830  0.5302  0.3743
   17CHTO  H172 6860   5.954   6.892   0.275 -0.1726 -0.8765 -4.9876
   17CHTO  H173 6861   5.862   6.734   0.279 -4.5196  0.4862 -1.5755
   17CHTO   C94 6862   5.633   6.948   0.314  0.5222  1.3913  0.2744
   17CHTO  H181 6863   5.652   6.916   0.416 -0.0686  0.5338  0.1233
   17CHTO   O61 6864   5.508   6.883   0.282 -0.5743  0.3104 -0.2939
   17CHTO   C95 6865   5.517   6.737   0.296  0.2455  0.1191  0.2946
   17CHTO  H182 6866   5.568   6.710   0.388 -0.8257  1.2955  1.2505
   17CHTO  C106 6867   5.376   6.673   0.314  0.4502 -0.0511  0.0332
   17CHTO   O69 6868   5.315   6.730   0.428  0.0505  0.1842 -0.0083
   17CHTO  H169 6869   5.314   6.668   0.499  1.8813  1.0216  0.7594
   17CHTO   O63 6870   5.611   7.091   0.302 -0.7765 -0.3065 -0.2021
   17CHTO   C96 6871   5.645   7.188   0.435  0.1207 -0.6057  0.4221
   17CHTO  H183 6872   5.646   7.122   0.523  2.3909 -0.6871  0.3581
   17CHTO   C98 6873   5.539   7.295   0.455 -0.4926  0.0822  0.4367
   17CHTO  H185 6874   5.525   7.360   0.367 -1.6803 -1.7342 -0.7362
   17CHTO   O67 6875   5.415   7.228   0.474  0.0365 -0.1879  0.3417
   17CHTO  H167 6876   5.352   7.296   0.489  1.1512  0.8572  0.3937
   17CHTO  C102 6877   5.564   7.376   0.590  0.4500 -0.5709  0.3226
   17CHTO  H189 6878   5.552   7.302   0.670 -2.6485 -2.2168 -1.6195
   17CHTO   N18 6879   5.464   7.483   0.629 -0.0582  0.3331  0.7096
   17CHTO  H176 6880   5.509   7.580   0.618 -1.6520  1.0816  0.7441
   17CHTO  H177 6881   5.375   7.476   0.570  0.6296  2.0533 -0.5631
   17CHTO  C105 6882   5.709   7.424   0.602  0.0950 -0.1544  0.3709
   17CHTO  H192 6883   5.714   7.533   0.599 -0.2188 -0.1050  1.4136
   17CHTO   O65 6884   5.795   7.390   0.492  0.1968  0.2382 -0.0140
   17CHTO  C100 6885   5.787   7.258   0.431  0.9926 -0.0003 -0.1641
   17CHTO  H187 6886   5.823   7.267   0.328  0.2878  0.2753 -0.3855
   17CHTO  C107 6887   5.893   7.167   0.496  0.1360  0.0655 -0.0527
   17CHTO   O70 6888   6.029   7.210   0.476  0.2246  0.3943  0.1298
   17CHTO  H170 6889   6.053   7.290   0.519 -1.6682  0.0670  1.8874
   17CHTO   O57 6890   5.777   7.376   0.744 -0.4455  0.3191 -0.2019
   17CHTO   C85 6891   5.823   7.468   0.844  0.3435 -0.5323 -0.1466
   17CHTO  H157 6892   5.775   7.568   0.841  0.8351 -0.2239  1.5089
   17CHTO   C83 6893   5.966   7.513   0.804  0.3655 -0.3135 -0.1686
   17CHTO  H155 6894   5.956   7.580   0.719 -2.6445  0.0651  0.4478
   17CHTO   O56 6895   6.038   7.397   0.758  0.2841  0.3378 -0.4697
   17CHTO  H135 6896   6.110   7.422   0.704 -0.1405 -0.7643 -1.5813
   17CHTO   C81 6897   6.034   7.582   0.924 -0.1608 -0.4518 -0.0875
   17CHTO  H153 6898   5.988   7.680   0.940 -0.4538 -0.5299 -0.4421
   17CHTO   N14 6899   6.176   7.630   0.903  0.1008  0.6671  0.2527
   17CHTO  H141 6900   6.248   7.551   0.905  0.4337  0.9902  1.0994
   17CHTO  H142 6901   6.207   7.705   0.972  0.4963 -0.8065  1.6914
   17CHTO   C79 6902   6.030   7.497   1.056 -0.6256  0.1361  0.4013
   17CHTO  H151 6903   6.073   7.559   1.134 -0.4235 -0.8503  1.0911
   17CHTO   O52 6904   5.887   7.484   1.093 -0.1213 -0.1018  0.4105
   17CHTO   C86 6905   5.823   7.409   0.986  0.2728  0.8574 -0.0054
   17CHTO  H158 6906   5.875   7.310   0.986 -0.9509  0.2107  1.3170
   17CHTO   C90 6907   5.686   7.377   1.039  0.1425  0.4538 -0.1172
   17CHTO   O60 6908   5.599   7.492   1.052  0.3792 -0.1691 -0.8474
   17CHTO  H138 6909   5.549   7.509   0.975 -0.7984  0.6143  0.0688
   17CHTO   O50 6910   6.095   7.365   1.062 -0.5473 -0.4351 -0.0667
   17CHTO   C73 6911   6.140   7.262   1.143 -0.2765  0.2722  0.3344
   17CHTO  H145 6912   6.220   7.288   1.214  0.7213  1.1603 -1.0985
   17CHTO   C74 6913   6.208   7.171   1.037 -0.0364 -0.0374  0.1218
   17CHTO  H146 6914   6.283   7.231   0.983  0.4986 -0.6013  0.2356
   17CHTO   O54 6915   6.280   7.067   1.107 -0.2373 -0.1878 -0.2584
   17CHTO  H133 6916   6.373   7.073   1.096 -0.1047 -2.0094 -0.2880
   17CHTO   C75 6917   6.103   7.109   0.946  0.2411  0.1611 -0.1340
   17CHTO  H147 6918   6.057   7.189   0.886 -0.3876 -0.9426 -1.1228
   17CHTO   N13 6919   6.157   7.020   0.840  0.2756 -0.0930 -1.3085
   17CHTO  H139 6920   6.209   6.939   0.889 -2.8212 -0.5430  1.4231
   17CHTO  H140 6921   6.075   6.983   0.780  0.8856  0.0518 -2.2482
   17CHTO   C76 6922   6.000   7.018   1.031 -0.0306 -0.4493  0.7457
   17CHTO  H148 6923   6.057   6.942   1.085  0.6777  0.0057  0.6380
   17CHTO   O49 6924   5.936   7.105   1.128 -0.2011 -0.4287  0.3200
   17CHTO   C77 6925   6.026   7.182   1.218 -0.6906 -0.5839 -0.1862
   17CHTO  H149 6926   6.070   7.109   1.286  0.2254  1.0132  0.9686
   17CHTO   C88 6927   5.953   7.273   1.309  0.3008 -0.0493  0.3100
   17CHTO   O58 6928   5.847   7.204   1.395 -0.3491 -0.0110 -0.6989
   17CHTO  H136 6929   5.874   7.121   1.430 -1.2366 -0.1386 -0.3101
   17CHTO   O51 6930   5.864   6.946   0.938 -0.2097 -0.3879 -0.1633
   17CHTO   C78 6931   5.741   6.898   1.000  0.1389 -0.2225  0.8003
   17CHTO  H150 6932   5.688   6.982   1.050 -1.6567 -0.9406  0.1337
   17CHTO   C80 6933   5.755   6.772   1.093  0.2964  0.2859 -0.1222
   17CHTO  H152 6934   5.793   6.686   1.034 -0.5752 -0.6307  0.6360
   17CHTO   O55 6935   5.844   6.812   1.199 -0.5629 -0.4065 -0.3304
   17CHTO  H134 6936   5.807   6.826   1.283 -0.5749  2.6201 -0.7729
   17CHTO   C84 6937   5.613   6.738   1.153 -0.0015  0.3779 -0.0877
   17CHTO  H156 6938   5.594   6.810   1.233  2.0227 -0.8294  1.5212
   17CHTO   N15 6939   5.621   6.612   1.235 -0.1207 -0.2005 -0.6400
   17CHTO  H143 6940   5.521   6.598   1.270 -0.7003 -0.4361 -2.3597
   17CHTO  H144 6941   5.690   6.624   1.316  0.3487 -0.2989 -1.0250
   17CHTO   C87 6942   5.510   6.724   1.034  0.9470 -0.1827 -0.8892
   17CHTO  H159 6943   5.520   6.630   0.979 -0.8443  0.5632 -2.5378
   17CHTO   O53 6944   5.519   6.835   0.933 -0.3680 -0.1156 -0.1726
   17CHTO   C82 6945   5.647   6.870   0.884  0.6198 -0.8951  0.0886
   17CHTO  H154 6946   5.691   6.787   0.829 -0.8842 -2.0058  0.5451
   17CHTO   C89 6947   5.633   6.987   0.782 -0.2975 -0.3144  0.4203
   17CHTO   O59 6948   5.572   6.937   0.661 -0.9584  0.4506  0.9437
   17CHTO  H137 6949   5.567   7.006   0.599  0.5543  0.0355  0.3410
   17CHTO   O45 6950   5.355   6.725   1.085 -0.1516 -0.2137 -0.9657
   17CHTO   C67 6951   5.282   6.618   1.137  0.6408  0.2349 -0.2356
   17CHTO  H124 6952   5.339   6.526   1.122  1.8094  1.0645 -0.9769
   17CHTO   C65 6953   5.253   6.622   1.292 -0.0090 -0.2899  0.6179
   17CHTO  H122 6954   5.315   6.701   1.332 -0.0757 -1.1512  2.4746
   17CHTO   O44 6955   5.300   6.506   1.358  0.3421  0.0679 -0.8230
   17CHTO  H102 6956   5.394   6.498   1.363  0.0780 -2.0521  3.2617
   17CHTO   C63 6957   5.104   6.657   1.311  0.6172 -0.4233 -0.1353
   17CHTO  H120 6958   5.085   6.751   1.259  3.9877 -0.8892 -2.3823
   17CHTO   N11 6959   5.069   6.706   1.452  0.1733 -0.0086 -0.3885
   17CHTO  H108 6960   5.153   6.690   1.517  1.7489 -1.2062 -2.6510
   17CHTO  H109 6961   4.978   6.668   1.493  0.3136 -1.1389 -1.0713
   17CHTO   C61 6962   5.016   6.546   1.248  0.6794 -0.3222  0.6362
   17CHTO  H118 6963   4.917   6.594   1.247  0.4336 -0.7973  1.4319
   17CHTO   O40 6964   5.051   6.512   1.111  0.1950  0.2362 -0.0029
   17CHTO   C68 6965   5.153   6.597   1.052 -0.4743 -0.1457 -0.4105
   17CHTO  H125 6966   5.106   6.696   1.033 -0.0933 -0.0360 -0.7763
   17CHTO   C72 6967   5.186   6.534   0.917 -0.4119  0.0724 -0.3161
   17CHTO   O48 6968   5.255   6.624   0.829 -0.0974  0.0693 -0.1843
   17CHTO  H105 6969   5.254   6.589   0.743 -1.8321 -0.1314 -0.1022
   17CHTO   O38 6970   5.006   6.415   1.317  0.4312 -0.2613  0.2517
   17CHTO   C55 6971   4.882   6.347   1.322 -0.0833  0.0831 -1.4198
   17CHTO  H112 6972   4.910   6.250   1.366 -0.0004  0.1741 -1.2707
   17CHTO   C56 6973   4.798   6.336   1.186  0.1510 -0.2199  0.2040
   17CHTO  H113 6974   4.797   6.440   1.150 -0.1798  0.3039  1.6887
   17CHTO   O42 6975   4.881   6.262   1.095  0.2909  0.0489 -0.2715
   17CHTO  H100 6976   4.908   6.179   1.129 -0.1124 -0.6194 -1.5553
   17CHTO   C57 6977   4.655   6.283   1.211  0.6778 -0.2010  0.5903
   17CHTO  H114 6978   4.663   6.178   1.238  1.4976 -0.3171 -0.1003
   17CHTO   N10 6979   4.565   6.286   1.093  0.1820  1.1454 -0.4736
   17CHTO  H106 6980   4.488   6.212   1.108  0.2359  1.0397 -0.7295
   17CHTO  H107 6981   4.613   6.276   0.997  0.2023  2.5565 -0.6226
   17CHTO   C58 6982   4.591   6.363   1.327  0.1729  0.6728 -0.5597
   17CHTO  H115 6983   4.584   6.472   1.306  0.6771  1.1576  1.6805
   17CHTO   O37 6984   4.662   6.355   1.453 -0.0771 -0.6563  0.2063
   17CHTO   C59 6985   4.797   6.403   1.446  0.3262  0.1411 -0.3482
   17CHTO  H116 6986   4.795   6.512   1.439 -1.2471  0.2958  2.0667
   17CHTO   C70 6987   4.880   6.371   1.575  0.3904 -0.5088 -0.0865
   17CHTO   O46 6988   4.822   6.447   1.681  0.1322  0.5872 -0.1345
   17CHTO  H103 6989   4.831   6.401   1.762 -1.6799  0.2298 -0.1239
   17CHTO   O39 6990   4.425   6.309   1.361 -0.1333 -0.6926  0.3151
   17CHTO   C60 6991   4.335   6.421   1.365  0.5117 -0.2303  0.3215
   17CHTO  H117 6992   4.379   6.507   1.417 -3.1514  0.9869  1.5345
   17CHTO   C62 6993   4.295   6.465   1.223 -0.0281 -0.2412 -0.3578
   17CHTO  H119 6994   4.386   6.490   1.165 -0.8822 -0.8751 -1.9859
   17CHTO   O43 6995   4.243   6.359   1.141 -0.2356 -0.2111 -0.0174
   17CHTO  H101 6996   4.222   6.397   1.058 -1.2877  2.4521  1.3995
   17CHTO   C66 6997   4.202   6.593   1.232 -0.7272 -0.1279  0.7591
   17CHTO  H123 6998   4.256   6.672   1.283  0.3832  0.4441 -1.2647
   17CHTO   N12 6999   4.173   6.645   1.097 -0.2925 -0.0568  0.1610
   17CHTO  H110 7000   4.106   6.730   1.102  1.3627  1.1901  1.9452
   17CHTO  H111 7001   4.135   6.575   1.025  0.6491  0.6999 -1.1037
   17CHTO   C69 7002   4.071   6.568   1.320 -0.1057 -0.1824  0.5234
   17CHTO  H126 7003   4.018   6.494   1.257 -0.2045 -0.5999  1.0863
   17CHTO   O41 7004   4.107   6.497   1.459 -0.0422 -0.4084  0.2003
   17CHTO   C64 7005   4.214   6.376   1.449  0.2353  0.8964  0.3270
   17CHTO  H121 7006   4.171   6.285   1.403 -1.9634  1.1323  1.8182
   17CHTO   C71 7007   4.267   6.340   1.592  0.2196 -0.3652  0.9764
   17CHTO   O47 7008   4.160   6.288   1.674 -0.9149  0.5467  0.2779
   17CHTO  H104 7009   4.081   6.339   1.666 -1.7222 -0.5652  1.0030
   17CHTO   O34 7010   4.001   6.696   1.347  0.4222  0.1065 -0.4330
   17CHTO   C49 7011   3.894   6.754   1.325  0.2140  0.1963  0.2345
   17CHTO   H91 7012   3.916   6.845   1.271 -0.7646  0.2896 -0.0285
   17CHTO   C47 7013   3.824   6.779   1.461 -0.8770 -0.2983 -0.3915
   17CHTO   H89 7014   3.747   6.850   1.425  0.4063  0.6236 -1.3935
   17CHTO   O33 7015   3.916   6.859   1.548 -0.2203 -0.1315 -0.4541
   17CHTO   H70 7016   3.974   6.795   1.584  0.0831  0.7627  0.6654
   17CHTO   C45 7017   3.769   6.640   1.533  0.7174  0.2965  0.4649
   17CHTO   H87 7018   3.854   6.600   1.590  0.4313 -0.7390  0.1827
   17CHTO    N8 7019   3.656   6.671   1.625  0.0635 -0.2301 -0.1731
   17CHTO   H75 7020   3.578   6.597   1.613 -0.2343 -0.1646  1.2809
   17CHTO   H76 7021   3.676   6.667   1.731  0.0709  2.3452 -0.0423
   17CHTO   C43 7022   3.753   6.528   1.423 -0.0450 -0.3994  0.4076
   17CHTO   H85 7023   3.854   6.491   1.404  0.1490  1.8682 -3.4007
   17CHTO   O29 7024   3.696   6.582   1.302 -0.1220  0.3395 -0.5078
   17CHTO   C50 7025   3.793   6.669   1.239 -0.3189 -0.3566 -0.1977
   17CHTO   H92 7026   3.843   6.614   1.157 -0.2917 -1.7894  0.7732
   17CHTO   C54 7027   3.715   6.754   1.134 -0.1793  0.0967 -0.2972
   17CHTO   O36 7028   3.627   6.681   1.049  0.1171  0.2889  0.2370
   17CHTO   H72 7029   3.538   6.687   1.078  0.3624 -2.3477  1.7749
   17CHTO   O27 7030   3.683   6.416   1.473 -0.2924  0.9293  0.3947
   17CHTO   C37 7031   3.705   6.282   1.439 -0.3389  0.5761 -0.9125
   17CHTO   H79 7032   3.614   6.226   1.466  0.5746  0.6102  2.5434
   17CHTO   C38 7033   3.743   6.264   1.283 -0.3103  0.0979  0.1281
   17CHTO   H80 7034   3.830   6.325   1.253 -0.4297 -0.2543 -0.9897
   17CHTO   O31 7035   3.636   6.319   1.206 -0.3244  0.0302  0.3766
   17CHTO   H68 7036   3.641   6.292   1.116 -0.6522  1.7542 -0.1762
   17CHTO   C39 7037   3.770   6.109   1.268  0.7706  0.1712  0.4035
   17CHTO   H81 7038   3.675   6.061   1.289  1.2179 -0.8934  0.0064
   17CHTO    N7 7039   3.805   6.071   1.124  0.4323 -0.2496  0.2895
   17CHTO   H73 7040   3.843   5.970   1.122 -0.2349 -0.4858 -1.3107
   17CHTO   H74 7041   3.729   6.097   1.052 -0.5063 -1.4442  0.8372
   17CHTO   C40 7042   3.882   6.042   1.364 -0.0039 -0.2029 -0.2225
   17CHTO   H82 7043   3.980   6.080   1.333 -0.2894  0.6485 -0.0833
   17CHTO   O26 7044   3.856   6.079   1.500  0.1760 -0.0392  0.3820
   17CHTO   C41 7045   3.820   6.216   1.527  0.3679 -0.5643  1.0577
   17CHTO   H83 7046   3.903   6.288   1.516  0.4253 -0.9402 -1.1874
   17CHTO   C52 7047   3.785   6.227   1.670 -0.4349  0.7568 -0.4032
   17CHTO   O35 7048   3.662   6.124   1.703 -0.1106  0.6636 -0.5133
   17CHTO   H71 7049   3.672   6.037   1.671  0.0740  1.0131 -1.4086
   17CHTO   O28 7050   3.869   5.899   1.359  0.0164  0.0013 -0.1211
   17CHTO   C42 7051   3.985   5.813   1.363  0.0237  0.3221 -0.5003
   17CHTO   H84 7052   3.944   5.721   1.405  1.2355  0.4933  1.0978
   17CHTO   C44 7053   4.096   5.854   1.461 -1.4431 -0.4203  0.6653
   17CHTO   H86 7054   4.121   5.960   1.448  2.3842 -1.3285 -0.1951
   17CHTO   O32 7055   4.049   5.818   1.589 -0.6585  0.2935  0.3684
   17CHTO   H69 7056   3.989   5.886   1.615 -1.7210 -0.4280 -0.1675
   17CHTO   C48 7057   4.228   5.776   1.431  0.0115  0.6682 -0.5558
   17CHTO   H90 7058   4.214   5.672   1.463  1.5808  0.7250  0.3968
   17CHTO    N9 7059   4.345   5.831   1.506 -0.3251  0.2668 -0.2134
   17CHTO   H77 7060   4.315   5.846   1.608  0.0167 -0.1020 -0.0550
   17CHTO   H78 7061   4.420   5.753   1.498 -0.5870 -0.0257  0.1703
   17CHTO   C51 7062   4.257   5.783   1.271 -0.0419 -0.1007 -0.5358
   17CHTO   H93 7063   4.256   5.884   1.231 -1.1174  0.3158  0.5067
   17CHTO   O30 7064   4.151   5.702   1.216 -0.1356 -0.4068  0.2182
   17CHTO   C46 7065   4.026   5.783   1.220  0.2597 -0.0982  0.6143
   17CHTO   H88 7066   4.051   5.876   1.168  3.2463 -1.0532  0.2415
   17CHTO   C53 7067   3.914   5.698   1.146 -0.2288 -0.3481  0.3621
   17CHTO   O72 7068   3.941   5.686   1.010 -0.1180 -0.5365 -0.3855
   17CHTO  H199 7069   3.863   5.694   0.959 -0.6502 -1.1124  0.3302
   17CHTO   O22 7070   4.374   5.710   1.239 -0.1123 -0.5562 -0.4316
   17CHTO   C31 7071   4.445   5.699   1.108 -0.3860  0.2862  0.0621
   17CHTO   H59 7072   4.507   5.607   1.116  0.2002  0.4042 -2.6014
   17CHTO   C29 7073   4.350   5.677   0.986 -0.1957 -0.0858  0.3818
   17CHTO   H57 7074   4.263   5.745   0.992  0.2199  0.6953 -1.9431
   17CHTO   O21 7075   4.296   5.539   1.003 -0.5399  0.0220 -0.0711
   17CHTO   H37 7076   4.233   5.523   0.936 -1.5054  1.9681  0.3404
   17CHTO   C27 7077   4.415   5.683   0.841 -0.1602 -0.2693  0.0867
   17CHTO   H55 7078   4.476   5.594   0.822 -0.3194 -0.4040  0.2065
   17CHTO    N5 7079   4.314   5.692   0.732  0.2162 -0.6034 -0.0961
   17CHTO   H43 7080   4.235   5.619   0.740  0.0662 -0.3791  0.5293
   17CHTO   H44 7081   4.261   5.786   0.726 -2.2906 -1.9676 -0.0270
   17CHTO   C25 7082   4.510   5.811   0.851 -0.1703 -0.2836 -0.0399
   17CHTO   H53 7083   4.451   5.902   0.864  0.7546  0.1414  1.3079
   17CHTO   O17 7084   4.611   5.800   0.956  0.5486  0.2522 -0.4188
   17CHTO   C32 7085   4.546   5.816   1.086 -0.2200  0.3990 -0.1645
   17CHTO   H60 7086   4.489   5.909   1.089 -0.2280  0.4444 -1.5583
   17CHTO   C36 7087   4.655   5.814   1.199  0.1105  0.5706  0.2284
   17CHTO   O25 7088   4.762   5.901   1.167 -0.4494 -0.0874  0.0233
   17CHTO   H40 7089   4.825   5.858   1.113 -0.3056 -1.3019  1.1463
   17CHTO   O15 7090   4.587   5.831   0.718  0.1715  0.4066 -0.5094
   17CHTO   C19 7091   4.601   5.968   0.667 -0.1839 -0.2978  0.4870
   17CHTO   H47 7092   4.648   5.945   0.571 -2.4860 -1.0885 -0.4856
   17CHTO   C20 7093   4.469   6.050   0.636 -0.5297 -0.2328  0.4992
   17CHTO   H48 7094   4.412   6.069   0.729 -0.9824 -0.6716  0.3095
   17CHTO   O19 7095   4.379   5.971   0.560  0.0536 -0.0730  0.6701
   17CHTO   H35 7096   4.290   6.001   0.554 -0.0683 -0.9373 -2.7013
   17CHTO   C21 7097   4.508   6.192   0.579 -0.1913 -0.0644  0.0870
   17CHTO   H49 7098   4.557   6.179   0.482  2.4573 -0.8100  1.4871
   17CHTO    N4 7099   4.388   6.279   0.557  0.4697  0.1970  0.1933
   17CHTO   H41 7100   4.365   6.346   0.639 -0.2992  0.5094 -0.2744
   17CHTO   H42 7101   4.304   6.213   0.546 -0.3563  1.4618 -1.1797
   17CHTO   C22 7102   4.607   6.265   0.679 -0.1624  0.1652 -0.5506
   17CHTO   H50 7103   4.562   6.288   0.775  0.9577 -1.2263  0.3293
   17CHTO   O14 7104   4.723   6.177   0.699 -0.1545  0.2407 -0.0987
   17CHTO   C23 7105   4.706   6.049   0.751 -0.3387  0.1562  0.3608
   17CHTO   H51 7106   4.672   6.067   0.854 -0.9047  1.2862 -0.0062
   17CHTO   C34 7107   4.845   5.988   0.757  0.2712 -0.1353 -0.5340
   17CHTO   O23 7108   4.930   6.032   0.872 -0.8504  0.1073 -0.1828
   17CHTO   H38 7109   4.914   5.971   0.941  2.5779 -1.2407 -0.4859
   17CHTO   O16 7110   4.651   6.388   0.626  0.0222  0.1799  0.1965
   17CHTO   C24 7111   4.706   6.486   0.733 -0.8034  0.7583  0.5059
   17CHTO   H52 7112   4.740   6.434   0.822 -1.5201 -0.3495  0.1398
   17CHTO   C26 7113   4.596   6.586   0.779  0.3233  0.4031  0.1255
   17CHTO   H54 7114   4.556   6.638   0.689  0.5812  2.5487  1.2138
   17CHTO   O20 7115   4.491   6.518   0.846  0.7054 -0.4911  0.5251
   17CHTO   H36 7116   4.445   6.572   0.908  0.9040  1.1132 -0.6936
   17CHTO   C30 7117   4.665   6.702   0.863  0.3295  0.2704  0.0016
   17CHTO   H58 7118   4.706   6.655   0.954  0.7752  1.6822  0.5450
   17CHTO    N6 7119   4.566   6.807   0.909 -0.3644  0.3018  0.3669
   17CHTO   H45 7120   4.473   6.810   0.853  1.1240 -1.0882 -2.2537
   17CHTO   H46 7121   4.552   6.801   1.016 -0.6292 -1.4909  0.2411
   17CHTO   C33 7122   4.791   6.764   0.787 -0.1306  0.4723 -0.1904
   17CHTO   H61 7123   4.756   6.813   0.695  0.1052  1.0992  0.0507
   17CHTO   O18 7124   4.881   6.657   0.763 -0.3653  0.2365 -0.3214
   17CHTO   C28 7125   4.831   6.563   0.670  0.1279 -0.1665 -0.5804
   17CHTO   H56 7126   4.798   6.606   0.575  0.3187  0.7104 -0.2528
   17CHTO   C35 7127   4.941   6.471   0.623 -0.6331 -0.0882 -0.3454
   17CHTO   O24 7128   5.035   6.531   0.529  0.3199  0.0130 -0.1683
   17CHTO   H39 7129   5.088   6.584   0.586 -2.5775  1.0540  1.7205
   17CHTO    O9 7130   4.857   6.866   0.862  0.2124  0.2271  0.1779
   17CHTO   C13 7131   4.953   6.953   0.780 -0.3365  0.5110  0.1117
   17CHTO   H26 7132   4.978   6.907   0.682  0.4932 -0.6081  0.8466
   17CHTO   C11 7133   5.076   6.994   0.866 -0.4740 -0.3188  0.5492
   17CHTO   H24 7134   5.132   6.900   0.865 -0.0682 -0.0731 -0.8114
   17CHTO    O8 7135   5.024   7.028   1.000  0.2058  0.3354  0.0633
   17CHTO    H3 7136   4.963   6.964   1.029 -2.3602  1.4524 -2.5546
   17CHTO    C9 7137   5.163   7.104   0.797 -0.2511 -0.0259  0.3076
   17CHTO   H22 7138   5.189   7.057   0.701 -1.5230  0.1258 -0.1194
   17CHTO    N2 7139   5.287   7.122   0.872  0.4319  0.6105 -0.0157
   17CHTO   H10 7140   5.382   7.080   0.845  0.8417  0.2070  1.9742
   17CHTO   H11 7141   5.305   7.217   0.921  1.5264  2.1288 -3.2059
   17CHTO    C7 7142   5.082   7.235   0.771  0.6249  0.5626  0.2620
   17CHTO   H20 7143   5.137   7.292   0.692  1.1615 -0.7208 -0.3137
   17CHTO    O4 7144   4.957   7.198   0.706  0.0671 -0.4902  0.0724
   17CHTO   C14 7145   4.875   7.083   0.737  0.3430  0.9452  0.8472
   17CHTO   H27 7146   4.822   7.052   0.645  3.2631 -0.3077 -0.4799
   17CHTO   C18 7147   4.763   7.129   0.837 -0.2855 -0.0231 -0.0698
   17CHTO   O13 7148   4.701   7.247   0.787  0.6601 -0.1517  0.4983
   17CHTO    H7 7149   4.622   7.266   0.834 -1.5209 -0.9560 -2.6942
   17CHTO    O2 7150   5.052   7.320   0.894 -0.3602  0.5375  0.0353
   17CHTO    C1 7151   5.000   7.453   0.878 -0.5485  0.4030 -0.0977
   17CHTO   H14 7152   4.916   7.455   0.805 -1.0356  0.4236  0.4630
   17CHTO    C2 7153   5.113   7.556   0.826  0.3614 -0.1442 -0.0720
   17CHTO   H15 7154   5.202   7.545   0.889 -1.1214  0.7046  2.2718
   17CHTO    O6 7155   5.142   7.523   0.689 -0.2877  0.0317  0.0866
   17CHTO    H1 7156   5.226   7.547   0.656 -0.7849 -0.5683 -1.7256
   17CHTO    C3 7157   5.060   7.711   0.833  0.1734  0.6757 -0.5505
   17CHTO   H16 7158   4.970   7.718   0.769 -0.2385 -2.7687 -0.4610
   17CHTO    N1 7159   5.157   7.813   0.782 -0.0395 -0.3427  0.1791
   17CHTO    H8 7160   5.255   7.806   0.828  0.9876 -0.0837 -1.8965
   17CHTO    H9 7161   5.153   7.819   0.675 -2.7617  2.2616  0.3648
   17CHTO    C4 7162   5.004   7.734   0.984  0.7024  0.0045 -0.0671
   17CHTO   H17 7163   5.090   7.725   1.051  1.7834  2.5002 -1.0450
   17CHTO    O1 7164   4.897   7.642   1.002  0.0766  0.0869 -0.1380
   17CHTO    C5 7165   4.938   7.506   1.005  0.7377  0.2168  0.4488
   17CHTO   H18 7166   5.020   7.500   1.077 -0.3808 -1.3510  1.6253
   17CHTO   C16 7167   4.821   7.418   1.062  0.4475  0.2886 -0.3229
   17CHTO   O11 7168   4.766   7.476   1.185 -0.2735 -0.0762 -0.3377
   17CHTO    H5 7169   4.841   7.517   1.223  0.6011 -0.4223 -1.6587
   17CHTO    O3 7170   4.943   7.864   0.997  0.1157 -0.1617  0.3594
   17CHTO    C6 7171   4.911   7.912   1.136  0.0727 -0.1550 -0.3822
   17CHTO   H19 7172   4.850   8.000   1.121  3.0151  1.9543 -0.4383
   17CHTO    C8 7173   4.835   7.816   1.232 -0.6628  0.1344  0.4225
   17CHTO   H21 7174   4.891   7.723   1.230  0.0326  0.4878  2.4032
   17CHTO    O7 7175   4.703   7.792   1.173 -0.1767  0.6526  0.1338
   17CHTO    H2 7176   4.710   7.727   1.106  0.5703  0.8285  0.0279
   17CHTO   C12 7177   4.827   7.883   1.376  0.2506  0.2483  0.6731
   17CHTO   H25 7178   4.765   7.971   1.350  0.7747  0.3092 -0.3885
   17CHTO    N3 7179   4.739   7.801   1.472 -0.2247 -0.8318  0.4083
   17CHTO   H12 7180   4.730   7.856   1.564  0.0257  0.8151 -0.5358
   17CHTO   H13 7181   4.779   7.703   1.493  1.6461  0.0490  1.0155
   17CHTO   C15 7182   4.965   7.924   1.424 -0.2635  0.0274  0.2741
   17CHTO   H28 7183   5.037   7.843   1.441 -0.5919 -0.1221  0.9944
   17CHTO   O10 7184   4.960   7.997   1.561 -0.4762 -0.0014  0.1056
   17CHTO    H4 7185   5.048   8.013   1.591  0.2583  0.6602 -2.3057
   17CHTO    O5 7186   5.026   8.018   1.335 -0.1912 -0.3606 -0.2897
   17CHTO   C10 7187   5.040   7.966   1.201  0.2609  0.6264  0.2194
   17CHTO   H23 7188   5.106   7.880   1.199  0.2358  0.6152 -0.0442
   17CHTO   C17 7189   5.114   8.080   1.121  0.2147 -0.0821 -0.6684
   17CHTO   O12 7190   5.042   8.205   1.128 -0.3747 -0.1624 -1.1439
   17CHTO    H6 7191   4.972   8.214   1.066 -0.4031  1.6577 -0.8972
   18CHTO  H203 7192   6.229   7.792   2.102  1.1429 -0.2310 -0.6888
   18CHTO   O82 7193   6.197   7.717   2.055  0.0836  0.0274 -0.3926
   18CHTO  C123 7194   6.237   7.728   1.918 -0.2650 -0.1145  0.2723
   18CHTO  H227 7195   6.345   7.709   1.907 -0.1193  1.1845 -0.5965
   18CHTO   O77 7196   6.152   7.618   1.872  0.0622 -0.0161  0.2339
   18CHTO  C118 7197   6.186   7.583   1.734  0.6534  0.2684 -0.7750
   18CHTO  H222 7198   6.290   7.549   1.727  0.7991  0.5788 -0.0657
   18CHTO  C125 7199   6.088   7.461   1.703  0.5461  0.2379  0.0086
   18CHTO   O84 7200   6.119   7.390   1.582 -0.1746  0.2183 -0.1344
   18CHTO  H205 7201   6.055   7.323   1.569 -0.5158  0.6817 -0.8713
   18CHTO  C114 7202   6.169   7.706   1.643  0.3045 -0.0454 -0.1987
   18CHTO  H218 7203   6.062   7.728   1.640  0.5277  1.6226  2.0342
   18CHTO  C116 7204   6.223   7.843   1.694 -0.0099  0.4556  0.0882
   18CHTO  H220 7205   6.334   7.843   1.687 -0.0564 -1.6407 -0.9477
   18CHTO   O79 7206   6.165   7.956   1.625  0.1557 -0.0566  0.0092
   18CHTO  H201 7207   6.072   7.948   1.628  0.1056  0.2090 -0.7556
   18CHTO  C120 7208   6.192   7.861   1.849 -0.5115 -0.1237 -0.1312
   18CHTO  H224 7209   6.083   7.868   1.868 -0.7535 -1.0250 -1.1731
   18CHTO   N21 7210   6.253   7.988   1.905  0.5932  0.0865  0.4268
   18CHTO  H211 7211   6.352   7.964   1.943  0.1177  1.8615  2.8488
   18CHTO  H212 7212   6.201   8.019   1.994  0.8893 -0.8978  0.9484
   18CHTO   O75 7213   6.217   7.664   1.516 -0.6112  0.1498 -0.3185
   18CHTO  C112 7214   6.374   7.706   1.454  0.1823 -0.2860 -0.7301
   18CHTO  H216 7215   6.447   7.702   1.537  0.0148  1.3138 -0.5008
   18CHTO   O73 7216   6.366   7.836   1.397 -0.3299  0.3968  0.1049
   18CHTO  C113 7217   6.484   7.887   1.332 -0.0964  0.6480 -0.2216
   18CHTO  H217 7218   6.568   7.885   1.404  2.0179  1.6234 -2.5920
   18CHTO  C124 7219   6.449   8.029   1.283 -0.3344 -0.2663  0.3766
   18CHTO   O83 7220   6.556   8.085   1.205 -0.2641 -0.6847 -0.1648
   18CHTO  H204 7221   6.542   8.166   1.160 -0.3792 -0.5555  0.1009
   18CHTO  C109 7222   6.536   7.789   1.218  0.1568 -0.1011  0.3078
   18CHTO  H213 7223   6.463   7.794   1.136  1.2147  2.1681 -0.5409
   18CHTO  C110 7224   6.553   7.642   1.283 -0.0179  0.0027  0.7011
   18CHTO  H214 7225   6.637   7.647   1.353  0.2827  2.2244  0.2198
   18CHTO   O78 7226   6.599   7.541   1.183 -0.4401 -0.0811 -0.5608
   18CHTO  H200 7227   6.691   7.535   1.171 -0.3847  0.1050 -0.2376
   18CHTO  C111 7228   6.425   7.591   1.348  0.8945 -0.0420 -0.0921
   18CHTO  H215 7229   6.355   7.566   1.267 -0.4907 -0.0869  1.0949
   18CHTO   N19 7230   6.450   7.471   1.430  0.1028  0.2382 -0.0981
   18CHTO  H207 7231   6.518   7.501   1.508  1.9547 -2.6510 -0.5167
   18CHTO  H208 7232   6.369   7.414   1.473  1.5259 -0.7480  1.3269
   18CHTO   O74 7233   6.666   7.838   1.167 -0.3297  0.4400 -0.0862
   18CHTO  C115 7234   6.682   7.817   1.007 -0.0419  0.2156 -0.6024
   18CHTO  H219 7235   6.630   7.727   0.974 -0.5662  0.0996  0.5210
   18CHTO   O76 7236   6.611   7.938   0.924  0.5275  0.4387 -0.2550
   18CHTO  C122 7237   6.694   8.053   0.903 -0.1423 -0.4680 -0.0092
   18CHTO  H226 7238   6.708   8.090   1.005 -1.0014 -1.7515  0.5960
   18CHTO  C126 7239   6.601   8.165   0.826 -0.1490 -0.5416 -0.5487
   18CHTO   O85 7240   6.553   8.122   0.698 -0.4755  0.3304  0.0586
   18CHTO  H206 7241   6.491   8.182   0.661  0.8251  0.0315 -2.7962
   18CHTO  C121 7242   6.831   8.014   0.835  0.2967 -0.3955 -0.1020
   18CHTO  H225 7243   6.827   8.058   0.733  0.4106 -0.9775 -0.3579
   18CHTO   O81 7244   6.939   8.078   0.899 -0.5706 -0.4593 -0.0990
   18CHTO  H202 7245   7.016   8.051   0.854  1.7007  1.5237  2.4181
   18CHTO  C119 7246   6.853   7.860   0.823  0.3019  0.2395 -0.8476
   18CHTO  H223 7247   6.775   7.816   0.761  0.4558 -0.9395 -0.2315
   18CHTO  C117 7248   6.829   7.806   0.973 -0.5723 -0.0512  0.2017
   18CHTO  H221 7249   6.872   7.859   1.058 -1.8135  0.5684  0.4657
   18CHTO   N20 7250   6.871   7.661   0.988  0.3938 -0.2860 -0.0412
   18CHTO  H209 7251   6.830   7.597   0.911  1.1371 -2.4020  1.2851
   18CHTO  H210 7252   6.850   7.626   1.088 -1.7703  0.5625 -0.1870
   18CHTO   O80 7253   6.986   7.825   0.743  0.2329  0.0984  0.4754
   18CHTO  C103 7254   6.976   7.745   0.607 -0.1495  0.0415 -0.3117
   18CHTO  H190 7255   7.077   7.737   0.567  0.4291  1.4383  0.8387
   18CHTO  C101 7256   6.913   7.600   0.608  0.1658  0.5060 -0.3212
   18CHTO  H188 7257   6.817   7.600   0.658 -0.2329 -0.6764 -1.0709
   18CHTO   O68 7258   6.999   7.516   0.684 -0.6017  0.1923 -0.3453
   18CHTO  H168 7259   6.968   7.427   0.677  0.8131 -0.2714 -0.9298
   18CHTO   C99 7260   6.894   7.542   0.461  0.1400 -0.3258 -0.4398
   18CHTO  H186 7261   6.993   7.547   0.412  0.1583  0.1653 -0.3524
   18CHTO   N17 7262   6.835   7.405   0.451  0.8183 -0.1785 -0.0315
   18CHTO  H174 7263   6.811   7.363   0.547 -0.7201  0.9228  0.0903
   18CHTO  H175 7264   6.748   7.401   0.386 -0.0275  0.3985  1.0384
   18CHTO   C97 7265   6.805   7.649   0.393 -0.1561 -0.6507  0.2582
   18CHTO  H184 7266   6.714   7.665   0.453 -0.4808  1.1160 -0.6586
   18CHTO   O64 7267   6.876   7.773   0.377 -0.1694  0.3139 -0.8121
   18CHTO  C104 7268   6.894   7.840   0.506  0.6976  0.1672 -0.4285
   18CHTO  H191 7269   6.798   7.869   0.550  0.8881  2.2461 -1.2930
   18CHTO  C108 7270   6.963   7.967   0.468 -0.2082  0.0586 -0.7074
   18CHTO   O71 7271   7.085   7.954   0.403 -0.0183 -0.4215 -0.1210
   18CHTO  H171 7272   7.131   7.882   0.442 -1.0171  0.0316  1.9564
   18CHTO   O62 7273   6.772   7.628   0.256  0.1484  0.0736 -0.1266
   18CHTO   C91 7274   6.633   7.642   0.212 -0.0303  0.6515 -0.3548
   18CHTO  H178 7275   6.566   7.626   0.297 -1.4115  1.1693 -1.3385
   18CHTO   C92 7276   6.626   7.538   0.099  0.0492  0.7207 -0.2690
   18CHTO  H179 7277   6.699   7.557   0.019 -0.1214 -2.6571 -1.3303
   18CHTO   O66 7278   6.670   7.403   0.141  0.0611 -0.4300  0.0604
   18CHTO  H166 7279   6.642   7.392   0.230 -0.3639 -1.9992 -0.2676
   18CHTO   C93 7280   6.483   7.530   0.036  0.4600 -0.0829 -0.2259
   18CHTO  H180 7281   6.419   7.498   0.119 -0.1856 -0.1481 -0.7476
   18CHTO   N16 7282   6.471   7.434  -0.080  0.3341 -0.1895 -0.4227
   18CHTO  H172 7283   6.559   7.422  -0.142  1.4120  0.0450  1.0391
   18CHTO  H173 7284   6.376   7.437  -0.132  0.6840  0.9660 -1.0162
   18CHTO   C94 7285   6.436   7.674  -0.005  0.2560 -0.0822  0.6032
   18CHTO  H181 7286   6.490   7.711  -0.092  0.1558 -0.3245  0.4382
   18CHTO   O61 7287   6.459   7.772   0.095  0.2595 -0.1768  0.1027
   18CHTO   C95 7288   6.594   7.778   0.152  0.1468  0.4312  0.1088
   18CHTO  H182 7289   6.666   7.811   0.077  0.3922  0.1225  0.2089
   18CHTO  C106 7290   6.592   7.894   0.265 -0.2721 -0.2301 -0.0040
   18CHTO   O69 7291   6.554   8.023   0.194  0.1455  0.6805  0.3533
   18CHTO  H169 7292   6.572   8.099   0.246  1.9800  1.6987 -1.6471
   18CHTO   O63 7293   6.280   7.675  -0.021 -0.2042 -0.0687 -0.2595
   18CHTO   C96 7294   6.221   7.781  -0.130  0.0356  0.6363 -0.0119
   18CHTO  H183 7295   6.116   7.756  -0.145 -0.4618  2.2707  0.5934
   18CHTO   C98 7296   6.287   7.784  -0.275 -0.0097 -0.6161  0.0631
   18CHTO  H185 7297   6.395   7.795  -0.259 -0.0757  0.4103 -0.1563
   18CHTO   O67 7298   6.273   7.662  -0.345  0.3692 -0.2867 -0.0060
   18CHTO  H167 7299   6.337   7.599  -0.316  0.4376 -0.0461  0.3735
   18CHTO  C102 7300   6.226   7.899  -0.377 -0.0631  0.3541 -0.5660
   18CHTO  H189 7301   6.128   7.863  -0.410  0.4092  0.4749 -2.1791
   18CHTO   N18 7302   6.299   7.920  -0.503 -1.0239  0.4947 -0.7806
   18CHTO  H176 7303   6.300   7.831  -0.564  0.7959 -1.3670  1.8638
   18CHTO  H177 7304   6.252   7.998  -0.561  0.4803  1.1407 -1.1505
   18CHTO  C105 7305   6.213   8.028  -0.296 -0.1276 -0.5841  0.1709
   18CHTO  H192 7306   6.311   8.070  -0.276 -0.3941  0.4661 -0.6657
   18CHTO   O65 7307   6.145   8.012  -0.173  0.2718  0.1640 -0.2873
   18CHTO  C100 7308   6.213   7.926  -0.078 -0.5053 -0.3103 -0.5499
   18CHTO  H187 7309   6.317   7.961  -0.072  0.0427 -1.8415 -0.8648
   18CHTO  C107 7310   6.149   7.942   0.061  0.2312 -0.5935  0.2000
   18CHTO   O70 7311   6.164   8.080   0.112  0.0788  0.1267  0.2124
   18CHTO  H170 7312   6.212   8.133   0.051 -0.3246  0.6690  0.3722
   18CHTO   O57 7313   6.122   8.128  -0.395 -0.5479 -0.3229 -0.4501
   18CHTO   C85 7314   6.125   8.269  -0.362  0.0425 -0.4848 -0.6008
   18CHTO  H157 7315   6.230   8.299  -0.346 -0.2476 -0.1604  0.7880
   18CHTO   C83 7316   6.055   8.299  -0.223  0.5777 -0.2653  0.4235
   18CHTO  H155 7317   6.119   8.256  -0.145  1.9735  0.2478 -0.4332
   18CHTO   O56 7318   5.930   8.233  -0.214 -0.2643 -0.0420  0.5223
   18CHTO  H135 7319   5.873   8.265  -0.146  1.6188  2.2725  1.0687
   18CHTO   C81 7320   6.056   8.454  -0.201 -0.1286  0.2791 -0.1405
   18CHTO  H153 7321   6.159   8.490  -0.197 -0.9956  2.7148  2.2012
   18CHTO   N14 7322   6.021   8.494  -0.064  0.7943 -0.4793 -0.0304
   18CHTO  H141 7323   6.002   8.406  -0.005 -0.7517  0.8364  1.4858
   18CHTO  H142 7324   5.931   8.552  -0.061  1.2101  0.2527 -1.5318
   18CHTO   C79 7325   5.977   8.525  -0.316  0.0175 -0.3345 -0.2011
   18CHTO  H151 7326   5.979   8.632  -0.296 -0.6777 -0.2216 -0.7225
   18CHTO   O52 7327   6.035   8.494  -0.447  0.1446 -0.0472 -0.0157
   18CHTO   C86 7328   6.058   8.353  -0.478  0.2874  0.2732 -0.9199
   18CHTO  H158 7329   5.958   8.317  -0.509 -0.3394 -1.3229  2.6901
   18CHTO   C90 7330   6.151   8.344  -0.601 -0.1409  0.8095  0.2135
   18CHTO   O60 7331   6.269   8.420  -0.599  0.4097  0.5097  0.6924
   18CHTO  H138 7332   6.313   8.411  -0.681 -0.8138 -0.3600  0.1148
   18CHTO   O50 7333   5.842   8.476  -0.320 -0.5052 -0.4574 -0.5897
   18CHTO   C73 7334   5.705   8.511  -0.344  0.2245  0.3100 -0.6269
   18CHTO  H145 7335   5.684   8.490  -0.450  1.1885 -0.2333 -0.7233
   18CHTO   C74 7336   5.665   8.659  -0.311  0.0341 -0.2799 -0.2584
   18CHTO  H146 7337   5.726   8.723  -0.376 -0.0518 -0.4470 -0.5057
   18CHTO   O54 7338   5.524   8.681  -0.349  0.5925 -0.0755  0.1721
   18CHTO  H133 7339   5.488   8.724  -0.273  1.4460 -0.2708  0.6877
   18CHTO   C75 7340   5.694   8.685  -0.161 -0.1825  0.0448  0.1505
   18CHTO  H147 7341   5.801   8.666  -0.143  0.4404  1.2654 -2.0344
   18CHTO   N13 7342   5.678   8.828  -0.127 -0.1380 -0.1959  0.3664
   18CHTO  H139 7343   5.673   8.833  -0.020  1.4536 -0.1169  0.4446
   18CHTO  H140 7344   5.579   8.853  -0.162 -0.5282 -1.9731  0.1302
   18CHTO   C76 7345   5.609   8.581  -0.071 -0.1528  0.4182 -0.0342
   18CHTO  H148 7346   5.504   8.605  -0.086 -0.1900 -0.1275 -0.6417
   18CHTO   O49 7347   5.635   8.436  -0.108 -0.1335  0.4848 -0.6243
   18CHTO   C77 7348   5.616   8.419  -0.249  0.4333 -0.2863 -0.0701
   18CHTO  H149 7349   5.509   8.432  -0.266  0.4857 -1.1690 -1.0660
   18CHTO   C88 7350   5.634   8.278  -0.275  0.1244  0.5830 -0.8056
   18CHTO   O58 7351   5.555   8.219  -0.398  0.3521 -0.2278  0.2031
   18CHTO  H136 7352   5.604   8.141  -0.415 -1.2454 -0.9601 -1.1788
   18CHTO   O51 7353   5.667   8.590   0.078 -0.7368 -0.1279  0.4588
   18CHTO   C78 7354   5.557   8.521   0.175  0.1771  0.1554  0.1411
   18CHTO  H150 7355   5.519   8.424   0.135  0.7601  0.5187 -1.3470
   18CHTO   C80 7356   5.439   8.615   0.208  0.3548 -0.6202  0.0869
   18CHTO  H152 7357   5.476   8.712   0.246 -2.0110  0.5757 -0.5790
   18CHTO   O55 7358   5.361   8.656   0.092  0.1444 -0.2451 -0.2719
   18CHTO  H134 7359   5.400   8.630   0.011 -0.5066  0.2639 -0.7605
   18CHTO   C84 7360   5.348   8.557   0.321 -0.1682 -0.2306  0.4192
   18CHTO  H156 7361   5.302   8.469   0.276 -1.2351 -0.4905  2.0027
   18CHTO   N15 7362   5.238   8.641   0.373  0.1010  0.0472  0.2333
   18CHTO  H143 7363   5.261   8.746   0.368 -1.8146  0.5258  1.0531
   18CHTO  H144 7364   5.152   8.625   0.312  1.0101  0.7626 -1.2579
   18CHTO   C87 7365   5.434   8.505   0.438  0.2292  0.3908 -0.0501
   18CHTO  H159 7366   5.474   8.590   0.493 -0.4762  0.5810  0.1764
   18CHTO   O53 7367   5.551   8.419   0.395  0.4195  0.6593 -0.5209
   18CHTO   C82 7368   5.634   8.487   0.302 -0.6095  0.3340 -0.2527
   18CHTO  H154 7369   5.678   8.581   0.333  1.2507 -1.0339  1.4146
   18CHTO   C89 7370   5.761   8.399   0.259 -0.0594 -0.0531 -0.7881
   18CHTO   O59 7371   5.849   8.386   0.368 -0.3075 -0.1030 -0.1903
   18CHTO  H137 7372   5.800   8.336   0.431 -0.8716  1.1133  0.3522
   18CHTO   O45 7373   5.354   8.406   0.547 -0.1462 -0.2546 -0.4299
   18CHTO   C67 7374   5.402   8.429   0.680  0.2741 -0.8110 -0.5076
   18CHTO  H124 7375   5.504   8.466   0.679  0.2284 -0.6875 -0.6377
   18CHTO   C65 7376   5.312   8.543   0.740  0.6680  0.3851 -0.0913
   18CHTO  H122 7377   5.219   8.554   0.684  0.0513  1.1657  1.0621
   18CHTO   O44 7378   5.374   8.670   0.725 -0.2481 -0.3279 -0.4270
   18CHTO  H102 7379   5.428   8.689   0.799 -0.6269 -1.0334  0.0270
   18CHTO   C63 7380   5.271   8.514   0.891 -0.0152 -0.1478  0.2574
   18CHTO  H120 7381   5.202   8.430   0.892 -1.3399  0.8714 -1.5578
   18CHTO   N11 7382   5.194   8.620   0.957  0.4430 -0.5874 -0.2698
   18CHTO  H108 7383   5.113   8.641   0.891  0.4373  1.7187  0.4508
   18CHTO  H109 7384   5.243   8.708   0.992  0.4504  0.0235 -1.7878
   18CHTO   C61 7385   5.391   8.451   0.959 -0.3699 -0.7705  0.3565
   18CHTO  H118 7386   5.365   8.435   1.064 -0.5317 -1.1217  0.2618
   18CHTO   O40 7387   5.426   8.327   0.905  0.1708  0.1615 -0.3335
   18CHTO   C68 7388   5.398   8.302   0.766 -0.6611 -0.1303 -0.5389
   18CHTO  H125 7389   5.297   8.255   0.765 -0.8547  0.2486  0.2767
   18CHTO   C72 7390   5.497   8.199   0.707 -0.0431  0.1180 -0.2184
   18CHTO   O48 7391   5.633   8.219   0.724 -0.1683  0.5525  0.4993
   18CHTO  H105 7392   5.684   8.146   0.696  0.1868  0.2903  1.7836
   18CHTO   O38 7393   5.509   8.547   0.964 -0.0368  0.3808 -0.2407
   18CHTO   C55 7394   5.625   8.501   1.033 -0.5463 -0.6338  0.1223
   18CHTO  H112 7395   5.634   8.392   1.024 -1.0988 -0.8524  1.9404
   18CHTO   C56 7396   5.633   8.557   1.183 -0.1472 -0.0942  0.1064
   18CHTO  H113 7397   5.619   8.666   1.175 -1.9350 -0.2592  0.8494
   18CHTO   O42 7398   5.516   8.526   1.259 -0.0250  0.1071  0.3784
   18CHTO  H100 7399   5.509   8.582   1.333 -2.4819 -0.1886  0.4229
   18CHTO   C57 7400   5.777   8.508   1.243 -0.3076  0.2869  0.3602
   18CHTO  H114 7401   5.775   8.401   1.260 -1.8197  0.6114  2.4129
   18CHTO   N10 7402   5.810   8.568   1.377  0.8763 -0.0591 -0.0127
   18CHTO  H106 7403   5.860   8.663   1.360  1.4716  0.0328  2.0885
   18CHTO  H107 7404   5.881   8.499   1.421  1.0185 -0.8008 -1.3995
   18CHTO   C58 7405   5.894   8.535   1.143  0.4686 -0.6418 -0.1524
   18CHTO  H115 7406   5.916   8.644   1.143 -1.3441 -0.2642 -0.4944
   18CHTO   O37 7407   5.867   8.491   1.008  0.3699 -0.3283 -0.1270
   18CHTO   C59 7408   5.751   8.553   0.953  0.5585  0.4126 -0.1030
   18CHTO  H116 7409   5.753   8.662   0.959 -2.2255  0.4133  1.7130
   18CHTO   C70 7410   5.746   8.516   0.806 -0.4192 -0.1319 -0.0478
   18CHTO   O46 7411   5.850   8.568   0.730 -0.0883 -0.3022  0.2635
   18CHTO  H103 7412   5.887   8.489   0.695 -0.3919  0.4456 -1.8198
   18CHTO   O39 7413   6.040   8.439   1.193 -0.5943  0.9645 -0.1592
   18CHTO   C60 7414   6.031   8.298   1.186  0.4276  0.4384  1.0203
   18CHTO  H117 7415   5.924   8.275   1.193  0.4447 -0.4671 -1.0978
   18CHTO   C62 7416   6.068   8.230   1.044 -0.4735  0.2371 -0.0298
   18CHTO  H119 7417   6.004   8.286   0.972 -0.0348 -0.4101 -0.9192
   18CHTO   O43 7418   6.206   8.249   1.027  0.2323 -0.0229 -0.7154
   18CHTO  H101 7419   6.213   8.333   0.987 -0.6072 -0.1037 -1.0469
   18CHTO   C66 7420   6.022   8.081   1.042 -0.4374 -0.1190 -0.5790
   18CHTO  H123 7421   5.914   8.070   1.033 -0.4943  0.7373 -1.0196
   18CHTO   N12 7422   6.057   8.002   0.921  0.0435 -0.1183 -0.9753
   18CHTO  H110 7423   6.028   7.897   0.919 -0.7648  0.1171 -1.9957
   18CHTO  H111 7424   6.026   8.051   0.830 -0.0095 -1.2879 -1.6034
   18CHTO   C69 7425   6.077   8.001   1.161 -0.0828 -0.0502 -0.2013
   18CHTO  H126 7426   6.183   7.971   1.145  0.7980  2.6483  0.1884
   18CHTO   O41 7427   6.074   8.084   1.305  1.4392  0.2955  0.3757
   18CHTO   C64 7428   6.104   8.218   1.299  0.0655  0.5206  0.0137
   18CHTO  H121 7429   6.212   8.228   1.278  0.3500  1.3640  1.8110
   18CHTO   C71 7430   6.104   8.276   1.444 -0.0159  0.0234 -0.5349
   18CHTO   O47 7431   5.978   8.255   1.516  0.1538 -0.1262  0.4825
   18CHTO  H104 7432   5.968   8.322   1.581  0.2739  0.0687  0.3013
   18CHTO   O34 7433   5.985   7.870   1.191 -0.7103 -0.5563 -0.5440
   18CHTO   C49 7434   5.878   7.811   1.291  0.4566  0.9888  0.7703
   18CHTO   H91 7435   5.906   7.707   1.312 -0.0149  0.9883  1.4079
   18CHTO   C47 7436   5.741   7.810   1.216  0.1992 -0.2033  0.4621
   18CHTO   H89 7437   5.664   7.757   1.276 -0.7530 -0.5582 -1.0376
   18CHTO   O33 7438   5.759   7.749   1.090  0.4498  0.7182  0.4415
   18CHTO   H70 7439   5.682   7.764   1.038 -1.2567 -0.2785  2.6128
   18CHTO   C45 7440   5.687   7.966   1.199  0.6685  0.9564  0.2830
   18CHTO   H87 7441   5.759   8.012   1.130 -1.3327  1.0101 -1.8310
   18CHTO    N8 7442   5.556   7.968   1.134  0.7385 -0.3756  0.0058
   18CHTO   H75 7443   5.556   7.912   1.041 -1.9217 -0.4870  0.0399
   18CHTO   H76 7444   5.528   8.070   1.112 -0.5259 -0.4277  1.2855
   18CHTO   C43 7445   5.708   8.051   1.335  0.2835 -0.0863 -0.3729
   18CHTO   H85 7446   5.698   8.155   1.304 -1.4650  0.6944  2.5888
   18CHTO   O29 7447   5.831   8.025   1.402  0.5768  0.4186  0.4478
   18CHTO   C50 7448   5.884   7.889   1.422 -0.4564  0.8776 -0.0166
   18CHTO   H92 7449   5.991   7.896   1.446 -0.3638  0.7404 -0.3801
   18CHTO   C54 7450   5.813   7.817   1.540  0.5949 -0.7106  0.2613
   18CHTO   O36 7451   5.814   7.899   1.657 -0.3518 -0.3036 -0.2932
   18CHTO   H72 7452   5.764   7.863   1.727  0.9934  1.1199  1.4321
   18CHTO   O27 7453   5.599   8.025   1.430 -0.0852 -0.6355 -0.5054
   18CHTO   C37 7454   5.532   8.101   1.532  0.8438 -0.1848  0.9305
   18CHTO   H79 7455   5.537   8.044   1.626  1.1638 -0.6645  0.6253
   18CHTO   C38 7456   5.609   8.231   1.576 -1.0191 -0.9213 -0.0798
   18CHTO   H80 7457   5.635   8.281   1.481  0.5345  1.2067  1.4263
   18CHTO   O31 7458   5.722   8.193   1.656 -0.3617 -0.1549  0.1873
   18CHTO   H68 7459   5.788   8.154   1.603 -1.4643 -0.2501 -1.1392
   18CHTO   C39 7460   5.514   8.336   1.649  0.3693  0.4307 -0.0223
   18CHTO   H81 7461   5.492   8.293   1.747  0.9777  2.1621  0.8935
   18CHTO    N7 7462   5.584   8.472   1.676  0.2527 -0.0953 -0.1369
   18CHTO   H73 7463   5.672   8.442   1.731 -2.4170 -0.2835  4.2539
   18CHTO   H74 7464   5.587   8.538   1.591 -0.2646  1.0258  0.7018
   18CHTO   C40 7465   5.376   8.354   1.572  0.1904  0.2112 -0.2712
   18CHTO   H82 7466   5.393   8.393   1.472 -0.6715  1.8989  0.2234
   18CHTO   O26 7467   5.321   8.222   1.572 -0.3907  0.3869 -0.4379
   18CHTO   C41 7468   5.386   8.117   1.493  0.4081 -0.2964 -0.1695
   18CHTO   H83 7469   5.377   8.151   1.389  2.9586  0.5683 -0.1447
   18CHTO   C52 7470   5.306   7.991   1.527  0.3219  0.9644 -0.1160
   18CHTO   O35 7471   5.339   7.864   1.460 -0.5060  0.0062  0.0905
   18CHTO   H71 7472   5.348   7.791   1.518 -1.9962  0.9024  1.5082
   18CHTO   O28 7473   5.286   8.438   1.643  0.0514 -0.3924 -0.0593
   18CHTO   C42 7474   5.152   8.478   1.598 -0.3409 -0.1259 -0.1485
   18CHTO   H84 7475   5.110   8.552   1.666  1.4693 -1.6366  2.7272
   18CHTO   C44 7476   5.046   8.362   1.592 -0.6421  0.1095  0.0344
   18CHTO   H86 7477   5.078   8.290   1.517  0.0503  1.3299 -0.8669
   18CHTO   O32 7478   5.048   8.300   1.725 -0.5678  0.2461 -0.2842
   18CHTO   H69 7479   5.117   8.237   1.716 -0.9230 -0.6740  2.7999
   18CHTO   C48 7480   4.912   8.420   1.552  0.0231  0.3322  0.0420
   18CHTO   H90 7481   4.892   8.502   1.621  0.5551  0.6864 -0.2187
   18CHTO    N9 7482   4.802   8.323   1.568 -0.6286 -0.5850  0.2345
   18CHTO   H77 7483   4.811   8.246   1.643  1.7971  0.1845  0.8012
   18CHTO   H78 7484   4.705   8.369   1.573 -0.2850  0.0966  0.8212
   18CHTO   C51 7485   4.917   8.471   1.404 -0.7784 -0.1459  1.0111
   18CHTO   H93 7486   4.942   8.386   1.339  0.7681 -1.6157  3.4495
   18CHTO   O30 7487   5.016   8.575   1.389  0.2920  0.1619 -0.1928
   18CHTO   C46 7488   5.159   8.542   1.456 -0.0284 -0.0193 -0.2888
   18CHTO   H88 7489   5.207   8.470   1.390 -0.8591  1.0052 -2.0414
   18CHTO   C53 7490   5.242   8.673   1.454  0.0924 -0.0350 -0.8994
   18CHTO   O72 7491   5.255   8.740   1.331 -0.6430 -0.0275  0.1515
   18CHTO  H199 7492   5.236   8.674   1.267  1.2822  0.0145 -0.5181
   18CHTO   O22 7493   4.798   8.527   1.358 -0.4492  0.2993  0.2978
   18CHTO   C31 7494   4.746   8.527   1.219  0.2736  0.1630  0.0276
   18CHTO   H59 7495   4.643   8.567   1.226 -0.0475 -0.5942 -0.3611
   18CHTO   C29 7496   4.813   8.623   1.125 -0.1333 -0.5637  0.0664
   18CHTO   H57 7497   4.922   8.610   1.117  0.1155 -0.1202  2.4095
   18CHTO   O21 7498   4.796   8.752   1.190  0.3105  0.4620  0.3900
   18CHTO   H37 7499   4.830   8.820   1.135 -0.6088  1.0393  0.5103
   18CHTO   C27 7500   4.749   8.615   0.979 -0.4096 -0.0399  0.1734
   18CHTO   H55 7501   4.640   8.627   0.988 -0.3964 -0.9312  1.7454
   18CHTO    N5 7502   4.803   8.720   0.882 -0.1678 -0.3387 -0.5651
   18CHTO   H43 7503   4.739   8.806   0.887 -0.6803 -0.6772 -1.2423
   18CHTO   H44 7504   4.907   8.735   0.910  0.1101 -2.7449 -0.2057
   18CHTO   C25 7505   4.771   8.471   0.922 -0.1096  0.4631 -0.1850
   18CHTO   H53 7506   4.874   8.439   0.940 -0.6754 -0.2519  1.8347
   18CHTO   O17 7507   4.692   8.387   1.017  0.3547  0.2695  0.0513
   18CHTO   C32 7508   4.732   8.380   1.159 -0.0474 -0.6132  0.1463
   18CHTO   H60 7509   4.832   8.336   1.168  0.5776  0.8703  0.7467
   18CHTO   C36 7510   4.624   8.303   1.245 -0.1944  0.0972 -0.2728
   18CHTO   O25 7511   4.594   8.174   1.186 -0.1846 -0.2745 -0.5265
   18CHTO   H40 7512   4.665   8.114   1.197  0.2285  0.5531  1.7070
   18CHTO   O15 7513   4.719   8.457   0.785 -0.2686  0.7585 -0.0433
   18CHTO   C19 7514   4.735   8.397   0.652 -0.4628  0.5252  0.2886
   18CHTO   H47 7515   4.638   8.348   0.634 -0.0552 -1.0991  2.3608
   18CHTO   C20 7516   4.770   8.506   0.546  0.2977 -0.9610 -0.5597
   18CHTO   H48 7517   4.868   8.553   0.564 -0.3076  0.3224 -0.5418
   18CHTO   O19 7518   4.664   8.606   0.549 -0.2315  0.0161  0.5494
   18CHTO   H35 7519   4.652   8.643   0.634 -1.0388 -0.8688  0.8336
   18CHTO   C21 7520   4.792   8.435   0.405 -0.2378 -0.5156  0.4418
   18CHTO   H49 7521   4.699   8.387   0.373 -1.9204  2.2724  0.9696
   18CHTO    N4 7522   4.821   8.532   0.288  0.3958 -0.8314 -0.5633
   18CHTO   H41 7523   4.923   8.566   0.289 -0.1471  0.8092  0.2951
   18CHTO   H42 7524   4.753   8.616   0.290  1.0528 -0.3168  0.3237
   18CHTO   C22 7525   4.898   8.328   0.421 -0.5292 -0.5238  0.3192
   18CHTO   H50 7526   4.988   8.369   0.467  0.4623  0.5131 -2.4169
   18CHTO   O14 7527   4.847   8.230   0.515 -0.9329  0.7037 -0.4923
   18CHTO   C23 7528   4.834   8.280   0.651 -0.4529  0.3991 -0.6634
   18CHTO   H51 7529   4.936   8.309   0.680  0.1759 -0.6309 -1.8304
   18CHTO   C34 7530   4.789   8.163   0.743 -0.4091 -0.7429 -0.3190
   18CHTO   O23 7531   4.901   8.073   0.750 -0.3263 -0.5389  0.0705
   18CHTO   H38 7532   4.917   8.047   0.839 -1.4705 -3.5409 -0.5402
   18CHTO   O16 7533   4.934   8.249   0.308  0.3734  0.4403  0.1057
   18CHTO   C24 7534   5.093   8.231   0.289 -0.6740 -0.6026 -0.2556
   18CHTO   H52 7535   5.152   8.307   0.340  0.4187  0.1098 -2.5060
   18CHTO   C26 7536   5.132   8.255   0.139  0.1710 -0.3338 -0.4493
   18CHTO   H54 7537   5.077   8.180   0.078  0.7936 -0.6723 -0.6009
   18CHTO   O20 7538   5.092   8.391   0.105  0.4137  0.4588  0.0581
   18CHTO   H36 7539   5.112   8.446   0.179 -2.0592 -2.1829  2.8075
   18CHTO   C30 7540   5.286   8.231   0.105  0.0453  0.5792 -0.2196
   18CHTO   H58 7541   5.344   8.303   0.165 -1.1414  0.9282  0.5311
   18CHTO    N6 7542   5.312   8.253  -0.038 -0.8128 -0.2673 -0.0658
   18CHTO   H45 7543   5.395   8.323  -0.042 -2.1177  1.2326 -2.3117
   18CHTO   H46 7544   5.229   8.304  -0.085  1.2068  1.0423 -2.3201
   18CHTO   C33 7545   5.328   8.095   0.163 -0.4325 -0.0565  0.3654
   18CHTO   H61 7546   5.273   8.015   0.112 -2.1925  0.5939  1.1909
   18CHTO   O18 7547   5.290   8.087   0.302  0.5040 -0.2451  0.3806
   18CHTO   C28 7548   5.151   8.090   0.335 -0.8559  0.4146  0.3801
   18CHTO   H56 7549   5.106   8.009   0.278  0.6897 -0.3053  0.1716
   18CHTO   C35 7550   5.120   8.065   0.478  0.0186 -0.4410 -0.5958
   18CHTO   O24 7551   5.181   8.160   0.569  0.8760  0.3669  0.4768
   18CHTO   H39 7552   5.139   8.143   0.651  0.9641  1.4196  0.7424
   18CHTO    O9 7553   5.467   8.068   0.145  0.0492  0.0946 -0.5575
   18CHTO   C13 7554   5.510   7.920   0.210  0.2764  0.9829  0.3620
   18CHTO   H26 7555   5.423   7.851   0.206  1.1814 -0.1169 -0.4994
   18CHTO   C11 7556   5.563   7.946   0.352 -0.2409 -0.0384 -0.3953
   18CHTO   H24 7557   5.478   7.982   0.412 -0.9250  1.5514 -2.2467
   18CHTO    O8 7558   5.660   8.050   0.338  0.2505 -0.0015 -0.0690
   18CHTO    H3 7559   5.701   8.072   0.419 -2.9216  1.3830  1.2463
   18CHTO    C9 7560   5.606   7.819   0.429 -0.4024 -0.3388 -0.0434
   18CHTO   H22 7561   5.515   7.758   0.427  0.1015 -1.0993 -0.3913
   18CHTO    N2 7562   5.636   7.840   0.570 -0.0444 -0.1237 -0.4100
   18CHTO   H10 7563   5.665   7.943   0.585 -1.2016  0.2346 -0.5781
   18CHTO   H11 7564   5.714   7.772   0.599 -0.0205  0.8570  1.8543
   18CHTO    C7 7565   5.715   7.748   0.342  0.4891  0.5042  0.7475
   18CHTO   H20 7566   5.726   7.649   0.392  1.6147  0.4879  0.4775
   18CHTO    O4 7567   5.672   7.731   0.201 -0.0810 -0.7220 -0.1649
   18CHTO   C14 7568   5.619   7.843   0.123  0.5156  0.0973 -0.3814
   18CHTO   H27 7569   5.560   7.798   0.041  0.3458 -2.0383  0.8732
   18CHTO   C18 7570   5.732   7.934   0.057  0.3394  0.2519 -0.2753
   18CHTO   O13 7571   5.798   7.859  -0.041 -0.4335  0.6977 -0.5565
   18CHTO    H7 7572   5.889   7.878  -0.052  0.2304 -1.5818  0.6705
   18CHTO    O2 7573   5.853   7.825   0.341  0.6183  0.0650 -0.0357
   18CHTO    C1 7574   5.985   7.773   0.346  0.9779  0.2443  1.1226
   18CHTO   H14 7575   6.050   7.848   0.298  0.5498  0.2013  0.4651
   18CHTO    C2 7576   6.000   7.631   0.272 -0.2974  0.4894 -0.6482
   18CHTO   H15 7577   5.919   7.573   0.319  0.2478 -0.6208 -1.0629
   18CHTO    O6 7578   5.972   7.639   0.131  0.1351 -0.4695 -0.5525
   18CHTO    H1 7579   5.903   7.586   0.096 -0.6910  0.0290  0.2966
   18CHTO    C3 7580   6.149   7.573   0.295 -0.9267 -0.3853  0.4625
   18CHTO   H16 7581   6.211   7.642   0.235 -0.9650 -1.9122 -1.3761
   18CHTO    N1 7582   6.171   7.437   0.236  0.2313 -0.1239 -0.3081
   18CHTO    H8 7583   6.227   7.376   0.305  1.0538  0.0932 -0.7658
   18CHTO    H9 7584   6.083   7.383   0.205  0.1842  0.6016 -1.4869
   18CHTO    C4 7585   6.191   7.582   0.442  0.1398 -0.3853 -0.4502
   18CHTO   H17 7586   6.136   7.508   0.500 -0.6095  0.6463  0.1742
   18CHTO    O1 7587   6.159   7.717   0.487  0.0690 -0.1364 -0.4238
   18CHTO    C5 7588   6.031   7.761   0.491  0.0778 -0.9960  0.0188
   18CHTO   H18 7589   5.974   7.682   0.539  0.1735  0.2630  2.2975
   18CHTO   C16 7590   6.024   7.898   0.574 -0.2956 -0.2066  0.6139
   18CHTO   O11 7591   6.078   8.007   0.499  0.1092 -0.8349 -0.0852
   18CHTO    H5 7592   6.017   8.047   0.441 -1.5533 -3.1290  0.0022
   18CHTO    O3 7593   6.334   7.559   0.453 -0.2600  0.1266 -0.1194
   18CHTO    C6 7594   6.368   7.514   0.589  0.5787 -0.4939  0.1623
   18CHTO   H19 7595   6.282   7.513   0.655  1.3164  0.6569  1.1466
   18CHTO    C8 7596   6.422   7.368   0.580  0.0709 -0.0224 -0.5531
   18CHTO   H21 7597   6.497   7.364   0.502 -0.0964  1.3141 -0.7939
   18CHTO    O7 7598   6.319   7.273   0.539  0.0005 -0.0761  0.2742
   18CHTO    H2 7599   6.269   7.317   0.472  0.4955 -2.4823 -1.7297
   18CHTO   C12 7600   6.491   7.322   0.715  0.1101  0.4743  0.0285
   18CHTO   H25 7601   6.410   7.299   0.787  0.1364  3.3072  1.0278
   18CHTO    N3 7602   6.562   7.187   0.691 -0.1356 -0.3637 -0.4288
   18CHTO   H12 7603   6.542   7.116   0.770 -0.0454 -1.4634 -1.3919
   18CHTO   H13 7604   6.522   7.144   0.601  0.1814 -0.1828 -0.6554
   18CHTO   C15 7605   6.579   7.430   0.781  0.2826 -0.4788  0.2026
   18CHTO   H28 7606   6.679   7.437   0.738  1.0091  0.0759  1.9454
   18CHTO   O10 7607   6.587   7.403   0.942  0.5587  0.1449  0.1508
   18CHTO    H4 7608   6.535   7.332   0.976 -0.2769  0.0366 -1.3255
   18CHTO    O5 7609   6.526   7.560   0.774  0.7659  0.4262 -0.8050
   18CHTO   C10 7610   6.472   7.609   0.649  0.4405 -0.2243 -0.2826
   18CHTO   H23 7611   6.552   7.611   0.575  2.5941 -1.2356  1.9721
   18CHTO   C17 7612   6.432   7.754   0.663 -0.5168  0.3169  0.3301
   18CHTO   O12 7613   6.537   7.851   0.634  0.6213  0.1319 -0.2847
   18CHTO    H6 7614   6.543   7.907   0.710 -0.6242  0.5186 -0.4666
   19CHTO  H203 7615   5.740   9.718   2.290 -0.3314 -0.0654 -1.0692
   19CHTO   O82 7616   5.785   9.637   2.276  0.5820  0.2879 -0.1821
   19CHTO  C123 7617   5.707   9.539   2.217 -0.0023  0.4524  0.0939
   19CHTO  H227 7618   5.651   9.580   2.131 -1.5749  0.2450  1.0091
   19CHTO   O77 7619   5.798   9.437   2.181  0.0348  0.3232  0.2277
   19CHTO  C118 7620   5.752   9.332   2.095  0.2683 -0.1120 -0.3552
   19CHTO  H222 7621   5.703   9.384   2.012 -0.6478 -0.3947 -0.0072
   19CHTO  C125 7622   5.865   9.244   2.034 -0.4026 -0.3503  0.7686
   19CHTO   O84 7623   5.938   9.171   2.128 -0.1649  0.0362 -1.0407
   19CHTO  H205 7624   5.996   9.229   2.173  1.1531 -1.9072 -0.1800
   19CHTO  C114 7625   5.659   9.241   2.179  0.2735  0.6178 -0.2116
   19CHTO  H218 7626   5.718   9.191   2.255 -0.0141 -2.0181 -1.6664
   19CHTO  C116 7627   5.549   9.335   2.245 -0.2088 -0.1469 -0.4592
   19CHTO  H220 7628   5.480   9.362   2.163 -0.7069  1.3113  0.4150
   19CHTO   O79 7629   5.467   9.265   2.341 -0.3491 -0.3314 -0.0283
   19CHTO  H201 7630   5.412   9.196   2.310 -0.8443 -0.1578  0.4384
   19CHTO  C120 7631   5.609   9.470   2.314  0.1031 -0.5727  0.0529
   19CHTO  H224 7632   5.662   9.437   2.407  1.1392  1.6887  0.2924
   19CHTO   N21 7633   5.506   9.571   2.365  0.1769  0.3250  0.6748
   19CHTO  H211 7634   5.553   9.633   2.440  2.0817 -0.0372 -0.1932
   19CHTO  H212 7635   5.452   9.629   2.291  1.6518 -0.1892 -0.8474
   19CHTO   O75 7636   5.611   9.144   2.084 -0.3309 -0.0711 -0.5093
   19CHTO  C112 7637   5.593   8.994   2.136  0.3818  0.1033  0.0476
   19CHTO  H216 7638   5.527   8.996   2.224  0.9185  1.6874  0.4228
   19CHTO   O73 7639   5.722   8.934   2.163  0.1973  1.0927 -0.5119
   19CHTO  C113 7640   5.715   8.804   2.227 -0.1926 -0.4063 -0.1455
   19CHTO  H217 7641   5.642   8.809   2.310  0.7934  0.2490  0.6951
   19CHTO  C124 7642   5.850   8.766   2.285  0.2441  0.9570 -0.3503
   19CHTO   O83 7643   5.901   8.862   2.386 -0.0599  0.4631  0.3946
   19CHTO  H204 7644   5.957   8.921   2.339 -0.0767 -0.1912 -0.4505
   19CHTO  C109 7645   5.659   8.706   2.114 -1.0731  0.4365 -0.1827
   19CHTO  H213 7646   5.735   8.689   2.037 -0.1283  0.5047  0.7212
   19CHTO  C110 7647   5.521   8.755   2.062  0.4333  0.0716  0.1804
   19CHTO  H214 7648   5.446   8.736   2.139  0.1682 -0.7084 -0.2691
   19CHTO   O78 7649   5.485   8.670   1.953  0.7639  0.0316  0.8139
   19CHTO  H200 7650   5.424   8.602   1.975 -0.8859  1.4633  0.6901
   19CHTO  C111 7651   5.527   8.911   2.020  0.3043  0.1436 -1.3973
   19CHTO  H215 7652   5.588   8.922   1.929 -0.0008  1.0457 -1.4874
   19CHTO   N19 7653   5.389   8.965   1.992 -0.5265 -0.4576 -0.1256
   19CHTO  H207 7654   5.390   9.063   2.037  0.4688 -0.9281  0.8922
   19CHTO  H208 7655   5.368   8.968   1.886 -1.5954  0.7465  0.1132
   19CHTO   O74 7656   5.634   8.575   2.181 -0.1269  0.5359  0.0592
   19CHTO  C115 7657   5.705   8.452   2.103 -0.1226 -0.0630  0.6472
   19CHTO  H219 7658   5.685   8.453   1.996  1.5819 -0.0581  0.3180
   19CHTO   O76 7659   5.859   8.458   2.111  0.0294 -0.5399  0.3923
   19CHTO  C122 7660   5.943   8.362   2.036  0.3780  0.3413  0.2373
   19CHTO  H226 7661   6.048   8.370   2.064  0.7811  0.7398 -1.3190
   19CHTO  C126 7662   5.926   8.399   1.880  0.2599 -0.3003 -0.7018
   19CHTO   O85 7663   6.015   8.324   1.795  0.5536  0.1728  0.4787
   19CHTO  H206 7664   6.022   8.354   1.706  2.0450 -0.5792  0.3112
   19CHTO  C121 7665   5.894   8.207   2.070 -0.3011 -0.1591  0.8413
   19CHTO  H225 7666   5.936   8.133   1.999 -0.7877  0.1600  0.2100
   19CHTO   O81 7667   5.947   8.165   2.200  0.1679  0.2997  1.0464
   19CHTO  H202 7668   6.039   8.166   2.186 -0.2417  1.0612 -1.8393
   19CHTO  C119 7669   5.738   8.197   2.064  0.2629 -0.2293 -0.0475
   19CHTO  H223 7670   5.704   8.209   1.961  0.0924 -2.9474 -0.3596
   19CHTO  C117 7671   5.667   8.308   2.150  0.2711  0.1478  0.0691
   19CHTO  H221 7672   5.700   8.312   2.254  0.8446 -0.4731 -0.0855
   19CHTO   N20 7673   5.516   8.288   2.150 -0.1690  0.1062 -0.1090
   19CHTO  H209 7674   5.484   8.268   2.251  1.0835  0.4981  0.3692
   19CHTO  H210 7675   5.473   8.211   2.087  2.0632 -2.2890  1.2141
   19CHTO   O80 7676   5.682   8.045   2.096 -0.6653  0.1465 -0.1815
   19CHTO  C103 7677   5.719   7.917   2.014 -0.4627 -0.0545  0.3465
   19CHTO  H190 7678   5.778   7.940   1.926 -1.3588 -0.9755 -0.4954
   19CHTO  C101 7679   5.794   7.802   2.084  1.2994 -0.1239  0.3369
   19CHTO  H188 7680   5.730   7.774   2.168 -0.6076  0.6569 -0.8129
   19CHTO   O68 7681   5.912   7.846   2.142  0.5743  0.3099 -0.2657
   19CHTO  H168 7682   5.964   7.852   2.064  1.4057  1.1203  0.3407
   19CHTO   C99 7683   5.812   7.677   1.983 -0.2797 -0.1000 -0.2622
   19CHTO  H186 7684   5.883   7.711   1.905 -1.5157  1.3208 -0.7939
   19CHTO   N17 7685   5.852   7.544   2.052 -0.6118 -0.1439 -0.2579
   19CHTO  H174 7686   5.797   7.520   2.142  1.5368 -1.0281  0.8559
   19CHTO  H175 7687   5.959   7.543   2.070 -0.7452  1.4137  0.7812
   19CHTO   C97 7688   5.679   7.642   1.911  0.5333 -0.2654  0.2749
   19CHTO  H184 7689   5.610   7.588   1.978 -1.6458  0.9698 -0.9193
   19CHTO   O64 7690   5.617   7.760   1.862 -1.1367  0.1330  0.0478
   19CHTO  C104 7691   5.586   7.856   1.966 -0.1487  0.5104  0.1684
   19CHTO  H191 7692   5.538   7.807   2.050 -0.5982  2.4032  1.0437
   19CHTO  C108 7693   5.490   7.957   1.916 -0.2024  0.2565  0.1017
   19CHTO   O71 7694   5.372   7.895   1.863  0.2086 -0.2826 -0.0141
   19CHTO  H171 7695   5.294   7.947   1.865 -0.5898 -1.5040  1.1919
   19CHTO   O62 7696   5.703   7.573   1.788  0.2368 -0.3356  0.2553
   19CHTO   C91 7697   5.601   7.491   1.733  0.1519  0.7257  0.0802
   19CHTO  H178 7698   5.505   7.522   1.774 -0.2818 -1.3130  0.6953
   19CHTO   C92 7699   5.612   7.347   1.790  0.0180 -0.0850 -0.3718
   19CHTO  H179 7700   5.713   7.316   1.761  0.7340  1.0468  0.8356
   19CHTO   O66 7701   5.601   7.355   1.934 -0.1130 -0.4102  0.6105
   19CHTO  H166 7702   5.654   7.288   1.974  0.3856 -0.5496 -0.2865
   19CHTO   C93 7703   5.498   7.253   1.733  0.0474  0.0767  0.2853
   19CHTO  H180 7704   5.403   7.286   1.777 -0.6294 -0.6812 -0.5732
   19CHTO   N16 7705   5.512   7.111   1.758  0.5421 -0.1722 -0.4188
   19CHTO  H172 7706   5.522   7.096   1.864  0.0026 -1.0399 -0.4810
   19CHTO  H173 7707   5.605   7.075   1.718  1.3423 -0.6782  1.8322
   19CHTO   C94 7708   5.494   7.265   1.574  0.3697  0.0218 -0.2087
   19CHTO  H181 7709   5.510   7.171   1.520  0.4272  0.4047 -0.8720
   19CHTO   O61 7710   5.586   7.364   1.520 -0.4678 -0.3626  0.5066
   19CHTO   C95 7711   5.599   7.493   1.578  0.1375 -0.3272 -0.2124
   19CHTO  H182 7712   5.695   7.532   1.544 -0.9314  1.6363 -1.0727
   19CHTO  C106 7713   5.485   7.597   1.532 -0.5418  0.2100 -0.2228
   19CHTO   O69 7714   5.493   7.623   1.392  0.1040 -0.1941 -0.0507
   19CHTO  H169 7715   5.432   7.689   1.368  0.8181  1.0532  1.5196
   19CHTO   O63 7716   5.340   7.336   1.523 -0.5482  0.2861 -0.2402
   19CHTO   C96 7717   5.308   7.277   1.389 -0.6423  0.1135  0.5857
   19CHTO  H183 7718   5.397   7.281   1.327  0.6349  1.4793  2.4754
   19CHTO   C98 7719   5.204   7.360   1.302 -0.3655  0.3442  0.0444
   19CHTO  H185 7720   5.242   7.461   1.276  1.4974 -0.7564 -1.6466
   19CHTO   O67 7721   5.182   7.291   1.177 -0.6860  0.1695 -0.4124
   19CHTO  H167 7722   5.245   7.304   1.109 -1.0218 -1.1137 -0.9895
   19CHTO  C102 7723   5.057   7.367   1.374 -0.1819  0.2592 -0.5447
   19CHTO  H189 7724   4.983   7.370   1.293  0.4507  1.5495 -1.1032
   19CHTO   N18 7725   5.036   7.488   1.455 -0.0402 -0.1416 -0.2528
   19CHTO  H176 7726   4.962   7.545   1.401  0.2583  0.1231 -0.3833
   19CHTO  H177 7727   5.013   7.470   1.559  2.4737  0.7624  0.4995
   19CHTO  C105 7728   5.033   7.234   1.452 -0.7529  0.5602  0.3818
   19CHTO  H192 7729   5.062   7.241   1.557 -0.7935 -0.6940  0.4920
   19CHTO   O65 7730   5.106   7.119   1.394  0.1949  0.3311  0.2950
   19CHTO  C100 7731   5.245   7.127   1.419 -0.5549  0.0315  0.1919
   19CHTO  H187 7732   5.252   7.109   1.527 -2.3486  0.0337  0.3131
   19CHTO  C107 7733   5.319   7.005   1.345  0.3015 -0.0325 -0.2347
   19CHTO   O70 7734   5.271   7.000   1.210  0.2622 -0.1923  0.2458
   19CHTO  H170 7735   5.320   7.059   1.156  0.4446  0.1242  0.7601
   19CHTO   O57 7736   4.891   7.209   1.440  0.2801 -0.1201  0.5439
   19CHTO   C85 7737   4.835   7.089   1.495  0.2480 -0.4328 -0.1606
   19CHTO  H157 7738   4.905   7.033   1.561  0.6936 -2.1180 -2.0314
   19CHTO   C83 7739   4.801   6.990   1.382 -0.2103 -0.2116  0.1397
   19CHTO  H155 7740   4.894   6.957   1.335 -0.3783  1.9674 -1.8314
   19CHTO   O56 7741   4.746   7.056   1.274  0.5279  0.1741 -0.2030
   19CHTO  H135 7742   4.783   7.141   1.260  2.7819 -0.0494  3.7170
   19CHTO   C81 7743   4.719   6.867   1.436  0.4490 -0.5893  0.0270
   19CHTO  H153 7744   4.783   6.813   1.506  0.6480 -0.7435 -0.2737
   19CHTO   N14 7745   4.688   6.771   1.322 -0.8134 -0.5773 -0.1267
   19CHTO  H141 7746   4.674   6.819   1.228 -1.1775 -0.2025  0.1163
   19CHTO  H142 7747   4.597   6.724   1.352 -0.9720 -0.0990  0.1537
   19CHTO   C79 7748   4.584   6.918   1.510  0.3859 -0.2713 -0.8761
   19CHTO  H151 7749   4.538   6.831   1.558  0.9745  0.6310  1.4084
   19CHTO   O52 7750   4.619   7.022   1.612 -0.0279  0.2454  0.7517
   19CHTO   C86 7751   4.701   7.127   1.562 -0.1848  0.2208  0.4609
   19CHTO  H158 7752   4.634   7.183   1.494 -1.0209 -1.9095 -0.5354
   19CHTO   C90 7753   4.725   7.219   1.683  0.3447 -0.0657  0.0030
   19CHTO   O60 7754   4.782   7.152   1.794  0.2793 -0.1016  0.1286
   19CHTO  H138 7755   4.820   7.215   1.852  2.4249  0.4546 -1.7977
   19CHTO   O50 7756   4.482   6.975   1.421  0.1695  0.3214 -0.0799
   19CHTO   C73 7757   4.351   6.996   1.370  0.1593 -0.2317 -0.2526
   19CHTO  H145 7758   4.297   6.900   1.380 -0.0457 -0.5803 -3.9811
   19CHTO   C74 7759   4.351   7.041   1.220  0.1020 -0.6999  0.1369
   19CHTO  H146 7760   4.406   6.966   1.161 -0.6244 -1.1122 -0.0165
   19CHTO   O54 7761   4.216   7.055   1.177 -0.5596 -0.3451 -0.4326
   19CHTO  H133 7762   4.162   7.105   1.234  0.4825 -2.3206  2.3805
   19CHTO   C75 7763   4.415   7.187   1.205 -0.5580 -0.2969  0.1420
   19CHTO  H147 7764   4.521   7.178   1.234  0.0385  1.8917 -1.2480
   19CHTO   N13 7765   4.421   7.242   1.064  0.5505  0.4634  0.2968
   19CHTO  H139 7766   4.472   7.337   1.061 -1.2860  1.4706  0.0254
   19CHTO  H140 7767   4.478   7.168   1.010  0.8903 -0.9414  2.4887
   19CHTO   C76 7768   4.348   7.291   1.309  0.4755  0.0585  0.1270
   19CHTO  H148 7769   4.246   7.307   1.273  1.1035  0.7618 -1.3871
   19CHTO   O49 7770   4.354   7.233   1.437  0.4200 -0.2991 -0.1942
   19CHTO   C77 7771   4.279   7.110   1.453 -0.4606 -0.8726 -0.0716
   19CHTO  H149 7772   4.173   7.107   1.429 -0.6869 -1.8995  1.0287
   19CHTO   C88 7773   4.279   7.084   1.602  0.6050  0.8312 -0.3361
   19CHTO   O58 7774   4.211   6.956   1.632  0.2563  0.2091  0.2981
   19CHTO  H136 7775   4.262   6.898   1.686 -0.7764 -0.0646  0.9942
   19CHTO   O51 7776   4.433   7.436   1.324 -0.4160 -0.3154 -0.6931
   19CHTO   C78 7777   4.334   7.568   1.312 -0.1486 -1.2909 -0.6140
   19CHTO  H150 7778   4.230   7.548   1.282 -0.7212  2.2850 -1.2663
   19CHTO   C80 7779   4.388   7.665   1.207  0.6355 -0.5217  0.1416
   19CHTO  H152 7780   4.494   7.683   1.235  0.3714 -1.7673  2.0922
   19CHTO   O55 7781   4.391   7.607   1.077 -0.1261 -0.0155 -0.1471
   19CHTO  H134 7782   4.405   7.665   1.005  1.2310 -0.9847 -0.7046
   19CHTO   C84 7783   4.310   7.805   1.196 -0.1735  0.2657  0.1188
   19CHTO  H156 7784   4.209   7.785   1.160 -0.6969  0.0450  1.6842
   19CHTO   N15 7785   4.374   7.900   1.097 -0.3057 -0.4380 -0.6921
   19CHTO  H143 7786   4.299   7.965   1.058  1.2705  0.5445 -2.1674
   19CHTO  H144 7787   4.460   7.955   1.128 -1.9389  1.1944  1.0911
   19CHTO   C87 7788   4.312   7.866   1.341  0.2134  0.5403 -0.3731
   19CHTO  H159 7789   4.418   7.886   1.355  0.4620 -0.6407 -0.4996
   19CHTO   O53 7790   4.242   7.764   1.439 -0.2200 -0.6617  0.0826
   19CHTO   C82 7791   4.319   7.648   1.445 -0.2175  0.0295 -0.0529
   19CHTO  H154 7792   4.416   7.672   1.489 -0.7615 -0.4851  1.4733
   19CHTO   C89 7793   4.248   7.554   1.542 -0.0462  0.5055  0.2541
   19CHTO   O59 7794   4.336   7.457   1.598  0.4688 -0.0666  0.0945
   19CHTO  H137 7795   4.397   7.423   1.536 -0.4240  1.4791 -1.6925
   19CHTO   O45 7796   4.232   8.015   1.340 -0.4004  0.5110  0.2387
   19CHTO   C67 7797   4.200   8.052   1.474 -0.3860 -0.0090  0.4926
   19CHTO  H124 7798   4.211   7.964   1.537  2.6744 -0.8698 -1.1329
   19CHTO   C65 7799   4.308   8.153   1.528  0.3844 -0.1948  0.5733
   19CHTO  H122 7800   4.354   8.193   1.437 -0.3200 -1.8663 -0.5476
   19CHTO   O44 7801   4.403   8.079   1.596  0.4080 -0.2471 -0.0999
   19CHTO  H102 7802   4.362   8.033   1.667 -0.9563 -1.7250 -1.7981
   19CHTO   C63 7803   4.241   8.279   1.593  0.6441 -0.1491  0.1061
   19CHTO  H120 7804   4.201   8.346   1.517  0.5448  1.1453  1.2786
   19CHTO   N11 7805   4.345   8.370   1.655 -0.5923  1.0180  0.3189
   19CHTO  H108 7806   4.365   8.349   1.758 -0.5286  1.9688  0.5071
   19CHTO  H109 7807   4.308   8.470   1.647 -1.2874  0.6556 -1.1537
   19CHTO   C61 7808   4.113   8.238   1.677 -0.0851  0.7738 -0.5884
   19CHTO  H118 7809   4.058   8.328   1.709 -2.7099 -1.5496  1.6798
   19CHTO   O40 7810   4.010   8.156   1.609 -0.5207  0.4042 -0.0942
   19CHTO   C68 7811   4.052   8.102   1.483 -0.6874 -0.3007 -0.5583
   19CHTO  H125 7812   4.039   8.188   1.413 -0.2867 -1.5002 -2.1215
   19CHTO   C72 7813   3.940   7.997   1.437 -0.2917 -0.1710  0.6127
   19CHTO   O48 7814   3.925   7.892   1.527 -0.2246 -0.5501 -0.2086
   19CHTO  H105 7815   4.007   7.848   1.538 -0.7841 -1.3081  1.0089
   19CHTO   O38 7816   4.167   8.160   1.790 -0.0886  0.1923  0.1478
   19CHTO   C55 7817   4.087   8.071   1.874 -0.2201 -0.2394 -0.3370
   19CHTO  H112 7818   4.019   8.007   1.816 -0.6196 -0.9417  0.8875
   19CHTO   C56 7819   4.013   8.154   1.979  0.4570  0.8833  0.1314
   19CHTO  H113 7820   4.093   8.194   2.043  1.1119 -2.1563  1.2813
   19CHTO   O42 7821   3.935   8.260   1.922  0.5180 -0.2378  0.5832
   19CHTO  H100 7822   3.876   8.290   1.989 -0.1783 -1.6054  0.5970
   19CHTO   C57 7823   3.921   8.056   2.071 -0.2837 -0.4254 -0.6099
   19CHTO  H114 7824   3.832   8.027   2.015 -0.7314 -0.3887  0.0731
   19CHTO   N10 7825   3.870   8.123   2.193  0.0242 -0.1798  0.1813
   19CHTO  H106 7826   3.871   8.230   2.181 -2.6837 -0.1594 -0.1983
   19CHTO  H107 7827   3.772   8.083   2.218  0.0846 -0.4368  0.0159
   19CHTO   C58 7828   4.008   7.935   2.118  0.1464 -0.0271 -0.0531
   19CHTO  H115 7829   4.068   7.957   2.209  0.8280 -0.2711 -0.4352
   19CHTO   O37 7830   4.102   7.887   2.018 -0.1633  0.1913  0.0849
   19CHTO   C59 7831   4.186   7.978   1.945  0.0459 -0.5721  0.7902
   19CHTO  H116 7832   4.260   8.036   2.000  0.3468 -0.3204  0.1179
   19CHTO   C70 7833   4.273   7.892   1.851  0.0300  0.6062  0.2924
   19CHTO   O46 7834   4.196   7.804   1.773 -0.3308  0.4723  0.6894
   19CHTO  H103 7835   4.196   7.720   1.816 -1.0208  0.1535  0.0830
   19CHTO   O39 7836   3.910   7.802   2.151  0.3890 -0.1939 -0.1929
   19CHTO   C60 7837   3.878   7.715   2.042  0.9964 -0.1197  0.1065
   19CHTO  H117 7838   3.901   7.763   1.947 -0.8323  2.7836  1.0480
   19CHTO   C62 7839   3.955   7.575   2.045  0.2137  0.1738 -0.1088
   19CHTO  H119 7840   4.061   7.598   2.066  0.2548 -0.4510  0.3771
   19CHTO   O43 7841   3.897   7.495   2.153 -0.0021 -0.0732  0.2080
   19CHTO  H101 7842   3.945   7.511   2.232  1.2170 -0.1151 -0.5163
   19CHTO   C66 7843   3.937   7.509   1.901  0.2873 -0.2526 -0.0566
   19CHTO  H123 7844   3.931   7.586   1.824  0.5681 -1.9286 -1.7847
   19CHTO   N12 7845   4.044   7.410   1.870  0.0396 -0.7259  0.4145
   19CHTO  H110 7846   4.089   7.438   1.776  2.4210  0.1216  1.7628
   19CHTO  H111 7847   4.117   7.406   1.949  0.3154 -0.7081  0.1587
   19CHTO   C69 7848   3.796   7.446   1.897 -0.1650 -0.4806  1.4676
   19CHTO  H126 7849   3.790   7.359   1.966 -2.0537 -1.0906  0.5749
   19CHTO   O41 7850   3.686   7.554   1.927 -0.4992 -0.6922  0.3438
   19CHTO   C64 7851   3.728   7.690   2.036  0.1279  0.1252 -0.6047
   19CHTO  H121 7852   3.684   7.671   2.137 -3.7197  0.4838 -2.1141
   19CHTO   C71 7853   3.643   7.810   1.976 -0.2503  0.0298  0.0357
   19CHTO   O47 7854   3.663   7.845   1.838  0.1042  0.7807 -0.2172
   19CHTO  H104 7855   3.630   7.777   1.781 -0.7874  1.9071 -1.0720
   19CHTO   O34 7856   3.757   7.396   1.760 -0.1149  0.4357  0.3659
   19CHTO   C49 7857   3.681   7.430   1.640 -0.1428  0.4768  0.0082
   19CHTO   H91 7858   3.577   7.430   1.671  0.2740  0.6235  1.4539
   19CHTO   C47 7859   3.709   7.321   1.535 -0.5655 -0.4614 -0.8365
   19CHTO   H89 7860   3.654   7.350   1.443 -0.6300 -2.1887 -1.3568
   19CHTO   O33 7861   3.674   7.194   1.585 -0.7354  0.2507 -0.2113
   19CHTO   H70 7862   3.588   7.163   1.562 -1.1101  0.5792  0.7309
   19CHTO   C45 7863   3.870   7.329   1.495 -0.1067  0.1222  0.5202
   19CHTO   H87 7864   3.924   7.331   1.590 -0.7549  0.5132  0.8834
   19CHTO    N8 7865   3.918   7.217   1.410  0.0737 -0.4507 -0.4801
   19CHTO   H75 7866   3.998   7.161   1.456  1.6718  0.0096 -2.6050
   19CHTO   H76 7867   3.840   7.144   1.394  0.7478 -1.3199  0.1792
   19CHTO   C43 7868   3.893   7.475   1.425  0.3689 -0.5766  1.2562
   19CHTO   H85 7869   3.996   7.482   1.391 -0.5722 -0.7594 -1.8098
   19CHTO   O29 7870   3.848   7.578   1.514  0.2484  0.5155  0.3818
   19CHTO   C50 7871   3.722   7.567   1.588 -0.1725 -0.4871  0.2403
   19CHTO   H92 7872   3.745   7.628   1.677 -1.0574  1.4563 -0.8334
   19CHTO   C54 7873   3.601   7.639   1.519 -0.0744  0.5359 -0.2034
   19CHTO   O36 7874   3.610   7.781   1.534 -0.2183 -0.7471  0.7716
   19CHTO   H72 7875   3.545   7.808   1.595 -1.4544  1.9569 -1.6369
   19CHTO   O27 7876   3.822   7.485   1.301  0.0595  0.4501  0.1703
   19CHTO   C37 7877   3.818   7.546   1.167 -0.0947  0.4701  0.1671
   19CHTO   H79 7878   3.763   7.484   1.094  0.2523 -0.3220  0.5693
   19CHTO   C38 7879   3.745   7.684   1.169  0.1472 -0.5003  0.6743
   19CHTO   H80 7880   3.794   7.744   1.247 -1.8600  1.3814  0.5631
   19CHTO   O31 7881   3.606   7.685   1.209 -0.1029 -0.2007  0.8435
   19CHTO   H68 7882   3.579   7.774   1.225  0.1273  0.0377 -0.0969
   19CHTO   C39 7883   3.770   7.759   1.029 -0.7196  0.3131 -0.3429
   19CHTO   H81 7884   3.720   7.702   0.950 -1.2450  2.0943 -1.3097
   19CHTO    N7 7885   3.709   7.902   1.016 -0.2665 -0.0161 -0.4704
   19CHTO   H73 7886   3.630   7.927   1.085  0.1026  0.2910 -0.1620
   19CHTO   H74 7887   3.786   7.976   1.003  1.1379 -1.7459 -2.4010
   19CHTO   C40 7888   3.920   7.759   0.992  0.3587 -0.3124  0.5711
   19CHTO   H82 7889   3.978   7.830   1.053 -0.6659  2.0602 -1.1411
   19CHTO   O26 7890   3.975   7.628   0.997 -0.7630 -0.0880 -0.0568
   19CHTO   C41 7891   3.964   7.565   1.127  0.5522  0.0332  0.3332
   19CHTO   H83 7892   4.014   7.623   1.206 -2.3322  0.9535  1.5477
   19CHTO   C52 7893   4.046   7.433   1.110  0.1385 -0.1267 -0.3178
   19CHTO   O35 7894   3.983   7.297   1.046 -0.1924 -0.3458 -0.3681
   19CHTO   H71 7895   3.912   7.325   0.992  0.8107 -1.0392 -2.1034
   19CHTO   O28 7896   3.948   7.783   0.856 -0.9686 -0.4963 -0.0481
   19CHTO   C42 7897   4.078   7.841   0.825  0.3034 -0.1842  0.2104
   19CHTO   H84 7898   4.143   7.811   0.908 -0.3531  1.7422  1.4429
   19CHTO   C44 7899   4.088   8.000   0.816 -0.4249  0.2480 -0.2368
   19CHTO   H86 7900   4.018   8.028   0.737 -2.3241 -1.1524  0.8779
   19CHTO   O32 7901   4.039   8.059   0.936  0.6654  0.0662  0.2207
   19CHTO   H69 7902   3.946   8.045   0.945  0.6859  0.1355  0.5629
   19CHTO   C48 7903   4.231   8.035   0.779  0.5657 -0.2179  0.2702
   19CHTO   H90 7904   4.284   8.025   0.874  0.2673 -1.4868  0.3139
   19CHTO    N9 7905   4.253   8.184   0.752  0.3475  0.1361  0.1421
   19CHTO   H77 7906   4.320   8.186   0.668 -2.8527 -2.0657 -2.5929
   19CHTO   H78 7907   4.161   8.225   0.715 -0.4827  0.0236  2.0389
   19CHTO   C51 7908   4.301   7.945   0.665  0.0714 -0.0956 -0.0491
   19CHTO   H93 7909   4.259   7.972   0.568  0.1071  1.0769  0.2535
   19CHTO   O30 7910   4.270   7.807   0.696  0.0501 -0.2779 -0.0183
   19CHTO   C46 7911   4.134   7.767   0.697 -0.1199 -0.0818 -0.5473
   19CHTO   H88 7912   4.078   7.798   0.609 -3.1751 -0.8404  1.0715
   19CHTO   C53 7913   4.130   7.615   0.701 -0.3007 -0.0810  0.2879
   19CHTO   O72 7914   4.007   7.553   0.722 -0.0525 -0.1477  0.6616
   19CHTO  H199 7915   3.976   7.502   0.650 -0.5484  0.5271  0.3822
   19CHTO   O22 7916   4.445   7.947   0.661  0.3402  0.1942 -0.4644
   19CHTO   C31 7917   4.535   7.867   0.571  0.6381 -0.4104  0.1190
   19CHTO   H59 7918   4.477   7.783   0.527  0.1252 -0.1520  0.3006
   19CHTO   C29 7919   4.601   7.944   0.456  0.2677  0.5718 -0.4085
   19CHTO   H57 7920   4.642   8.038   0.494 -0.3402  0.9205 -0.6008
   19CHTO   O21 7921   4.507   7.971   0.358  0.1933 -0.4250  0.1157
   19CHTO   H37 7922   4.491   8.063   0.369  1.5135 -0.4078  2.1723
   19CHTO   C27 7923   4.717   7.865   0.389  0.0876 -0.5174  0.0162
   19CHTO   H55 7924   4.670   7.777   0.342 -0.6026 -0.9541  1.5198
   19CHTO    N5 7925   4.797   7.933   0.283  0.3131  0.1132 -0.3625
   19CHTO   H43 7926   4.901   7.908   0.295  0.8150  3.1021  2.1672
   19CHTO   H44 7927   4.758   7.915   0.183 -0.6104  2.0647 -0.3777
   19CHTO   C25 7928   4.816   7.819   0.506  0.8875  0.2846  0.4675
   19CHTO   H53 7929   4.855   7.907   0.559 -0.8123  1.1638  0.2975
   19CHTO   O17 7930   4.754   7.731   0.605  0.4079 -0.1249  0.3085
   19CHTO   C32 7931   4.648   7.810   0.665 -0.1261 -0.2915 -0.2836
   19CHTO   H60 7932   4.692   7.891   0.723  1.0202 -0.7154 -0.5330
   19CHTO   C36 7933   4.579   7.739   0.778  0.2476  0.4107 -0.5976
   19CHTO   O25 7934   4.501   7.625   0.739 -0.2891 -0.4961 -0.4359
   19CHTO   H40 7935   4.493   7.573   0.817  1.2928  0.5352  0.4455
   19CHTO   O15 7936   4.941   7.727   0.445  0.2075 -0.0888 -0.3166
   19CHTO   C19 7937   4.981   7.617   0.360  0.1132 -0.4873  0.0262
   19CHTO   H47 7938   4.916   7.643   0.275  0.1249 -0.0381  0.1544
   19CHTO   C20 7939   5.135   7.630   0.317  0.4792  0.5817  0.3490
   19CHTO   H48 7940   5.201   7.630   0.405  2.6644 -0.3889 -1.2576
   19CHTO   O19 7941   5.146   7.762   0.260 -0.2260  0.4908  0.2417
   19CHTO   H35 7942   5.226   7.770   0.211 -1.1251  1.7776 -1.0623
   19CHTO   C21 7943   5.181   7.521   0.219  0.1689 -0.9535 -0.2038
   19CHTO   H49 7944   5.131   7.538   0.124 -1.2853 -0.5348  0.6078
   19CHTO    N4 7945   5.326   7.523   0.186 -0.5433  0.0529  0.6230
   19CHTO   H41 7946   5.341   7.534   0.079  0.5653 -0.4163  0.7272
   19CHTO   H42 7947   5.367   7.429   0.219 -0.9827 -1.1759 -2.1444
   19CHTO   C22 7948   5.131   7.385   0.269 -0.2096 -0.3786  0.1733
   19CHTO   H50 7949   5.195   7.356   0.353 -2.0718 -1.1752  1.3401
   19CHTO   O14 7950   4.995   7.387   0.311  0.7487  0.8325 -0.6052
   19CHTO   C23 7951   4.942   7.476   0.408 -0.1909  0.2835  0.5562
   19CHTO   H51 7952   4.996   7.452   0.501  1.6705 -0.1730 -0.6223
   19CHTO   C34 7953   4.792   7.447   0.418  0.1058 -0.5985 -0.1732
   19CHTO   O23 7954   4.764   7.326   0.491  0.3446 -0.3987  0.3059
   19CHTO   H38 7955   4.737   7.261   0.429  1.3095  2.0223 -2.8370
   19CHTO   O16 7956   5.120   7.293   0.160 -0.3756  0.4585 -0.2405
   19CHTO   C24 7957   5.215   7.155   0.159 -0.1770 -1.3173  0.4725
   19CHTO   H52 7958   5.302   7.171   0.222  0.3272 -0.0098 -0.5360
   19CHTO   C26 7959   5.254   7.139   0.013 -0.7251  0.9109  0.6938
   19CHTO   H54 7960   5.160   7.151  -0.043  0.3830  0.5939 -1.2667
   19CHTO   O20 7961   5.348   7.234  -0.031  0.7883  0.1197 -0.0168
   19CHTO   H36 7962   5.423   7.250   0.023 -0.0155 -1.8629  1.7342
   19CHTO   C30 7963   5.300   6.990  -0.016  0.3823  0.0371 -0.0285
   19CHTO   H58 7964   5.401   6.976   0.024  0.2205  0.3497  0.4925
   19CHTO    N6 7965   5.311   6.959  -0.169 -0.7249  0.1033  0.3108
   19CHTO   H45 7966   5.394   7.019  -0.203  1.5970 -2.4822  1.2373
   19CHTO   H46 7967   5.219   7.002  -0.206 -0.6472  1.7661  1.9052
   19CHTO   C33 7968   5.199   6.888   0.050  0.1569  0.1819  0.4896
   19CHTO   H61 7969   5.099   6.915   0.013  0.1092 -0.1515  0.3749
   19CHTO   O18 7970   5.198   6.913   0.193  0.4122 -0.2004  0.1531
   19CHTO   C28 7971   5.128   7.036   0.224  0.0297  0.6453 -0.0565
   19CHTO   H56 7972   5.031   7.030   0.176 -0.5642 -0.1569  1.2283
   19CHTO   C35 7973   5.113   7.045   0.372 -0.2329  0.1899 -0.0426
   19CHTO   O24 7974   5.012   7.132   0.433  0.3337  0.4536  0.2467
   19CHTO   H39 7975   5.021   7.152   0.524 -3.7674 -0.8791  1.0244
   19CHTO    O9 7976   5.211   6.744   0.022  0.4038  0.2003  0.2736
   19CHTO   C13 7977   5.090   6.672  -0.026  0.6618 -0.8046  0.0025
   19CHTO   H26 7978   5.052   6.722  -0.117 -4.1515 -0.2804  2.1579
   19CHTO   C11 7979   4.979   6.674   0.092 -0.4223 -0.1191 -0.1956
   19CHTO   H24 7980   4.928   6.771   0.100 -0.5516 -0.3801  2.5207
   19CHTO    O8 7981   5.043   6.645   0.217 -0.0959  0.4633 -0.1137
   19CHTO    H3 7982   5.135   6.627   0.214 -0.3346 -0.6959 -2.6838
   19CHTO    C9 7983   4.869   6.572   0.067 -0.4776 -0.1462 -0.8138
   19CHTO   H22 7984   4.832   6.608  -0.030  0.5183  1.5320 -0.5878
   19CHTO    N2 7985   4.754   6.588   0.163 -0.3620 -0.0933 -0.5936
   19CHTO   H10 7986   4.721   6.691   0.171  0.6772  0.2988 -1.3025
   19CHTO   H11 7987   4.772   6.547   0.262 -1.3555  0.8500  0.0018
   19CHTO    C7 7988   4.931   6.423   0.053  0.5978  0.4176  0.1114
   19CHTO   H20 7989   4.889   6.365  -0.032 -0.2539 -0.8257  1.3636
   19CHTO    O4 7990   5.070   6.432   0.040  0.8290 -0.0229 -0.2921
   19CHTO   C14 7991   5.120   6.519  -0.063  0.5950 -0.3612 -0.1302
   19CHTO   H27 7992   5.066   6.489  -0.155 -1.0674 -1.1594  1.0887
   19CHTO   C18 7993   5.272   6.488  -0.083 -0.1971 -0.0942 -0.3477
   19CHTO   O13 7994   5.309   6.354  -0.138  0.4088 -0.0323 -0.3974
   19CHTO    H7 7995   5.255   6.282  -0.112  0.2950 -0.1525 -0.9724
   19CHTO    O2 7996   4.905   6.320   0.188 -0.0456  0.8433  0.1530
   19CHTO    C1 7997   4.841   6.196   0.157 -0.5176 -0.6817  0.1209
   19CHTO   H14 7998   4.892   6.139   0.077 -1.1720 -0.2290 -0.6258
   19CHTO    C2 7999   4.688   6.219   0.112  0.7454 -0.1924 -0.6633
   19CHTO   H15 8000   4.653   6.277   0.198  1.0354 -1.6305  0.4381
   19CHTO    O6 8001   4.677   6.295  -0.012  0.3166  0.3112 -0.4793
   19CHTO    H1 8002   4.683   6.387   0.004 -0.9198  0.6069 -1.5790
   19CHTO    C3 8003   4.606   6.079   0.109 -0.3798 -0.5988  0.5125
   19CHTO   H16 8004   4.641   6.020   0.023  0.2808  0.4402  0.0684
   19CHTO    N1 8005   4.462   6.111   0.081  0.2537  0.6231  0.4942
   19CHTO    H8 8006   4.444   6.113  -0.025  0.6136 -0.2103  0.4115
   19CHTO    H9 8007   4.398   6.040   0.131  2.1373 -1.6422 -0.2122
   19CHTO    C4 8008   4.642   5.989   0.239  0.5941 -0.3224  0.4941
   19CHTO   H17 8009   4.586   6.022   0.326  1.0838 -0.2452  0.7833
   19CHTO    O1 8010   4.789   5.981   0.255  0.0658  0.2756  0.5536
   19CHTO    C5 8011   4.852   6.105   0.287 -0.8341 -0.2850  0.3365
   19CHTO   H18 8012   4.799   6.155   0.369 -0.2556 -0.6930  0.9658
   19CHTO   C16 8013   5.000   6.071   0.338  0.0275 -0.4740 -0.5385
   19CHTO   O11 8014   5.080   6.183   0.381  0.3438  0.4139  0.0760
   19CHTO    H5 8015   5.100   6.235   0.305 -0.2686  0.2944 -0.1738
   19CHTO    O3 8016   4.592   5.860   0.207 -0.2521  0.4383 -0.3752
   19CHTO    C6 8017   4.511   5.785   0.305  0.7152 -0.5437  0.1339
   19CHTO   H19 8018   4.503   5.820   0.408  1.5420 -0.1057  0.0528
   19CHTO    C8 8019   4.364   5.789   0.260  0.9271 -0.5787  0.0953
   19CHTO   H21 8020   4.360   5.773   0.153  1.9186  2.2987 -0.4093
   19CHTO    O7 8021   4.313   5.925   0.285 -0.3053 -0.1528 -0.1582
   19CHTO    H2 8022   4.243   5.950   0.229  0.7539 -0.0963 -1.4814
   19CHTO   C12 8023   4.280   5.670   0.325 -0.6631  0.1426 -0.4372
   19CHTO   H25 8024   4.272   5.700   0.432 -1.7174 -0.9493 -0.1972
   19CHTO    N3 8025   4.139   5.662   0.274 -0.3904 -0.4182 -0.9358
   19CHTO   H12 8026   4.115   5.571   0.221 -0.9224 -0.8335 -0.0001
   19CHTO   H13 8027   4.060   5.672   0.347  0.0491  3.2927 -0.8822
   19CHTO   C15 8028   4.352   5.535   0.318 -0.8019  0.4647  0.0014
   19CHTO   H28 8029   4.370   5.506   0.214 -2.0839 -2.3016  0.5140
   19CHTO   O10 8030   4.287   5.421   0.383  0.5397  1.1862 -0.2365
   19CHTO    H4 8031   4.232   5.439   0.457  0.6356  1.3052 -0.1952
   19CHTO    O5 8032   4.476   5.553   0.385 -0.0077  0.4146  0.4371
   19CHTO   C10 8033   4.562   5.643   0.315 -0.1378 -1.0990  0.6809
   19CHTO   H23 8034   4.572   5.601   0.215 -0.4202 -0.0730  0.2228
   19CHTO   C17 8035   4.707   5.628   0.369 -0.1905 -0.3101  0.6691
   19CHTO   O12 8036   4.749   5.496   0.357  0.2011 -0.0615 -0.6752
   19CHTO    H6 8037   4.842   5.498   0.357  0.1907  0.6260  0.3428
   20CHTO  H203 8038   4.979   0.459   1.818  0.7305 -1.1557  0.0459
   20CHTO   O82 8039   5.022   0.491   1.741 -0.2125  0.5606  0.2027
   20CHTO  C123 8040   4.974   0.619   1.691  0.3072  0.5027  0.0283
   20CHTO  H227 8041   4.928   0.674   1.774  0.5840 -1.3782  1.4520
   20CHTO   O77 8042   5.097   0.683   1.651  0.1719  0.5477  0.3248
   20CHTO  C118 8043   5.080   0.822   1.603 -0.4114 -0.3511 -0.3383
   20CHTO  H222 8044   5.033   0.884   1.681  0.1058 -2.4221  1.6617
   20CHTO  C125 8045   5.235   0.877   1.579  0.3506  0.0514  0.6140
   20CHTO   O84 8046   5.313   0.783   1.503 -0.2491 -0.4122 -0.2987
   20CHTO  H205 8047   5.394   0.826   1.483 -0.5296 -0.2403 -1.0941
   20CHTO  C114 8048   4.989   0.824   1.478  0.4701 -0.4282 -0.4046
   20CHTO  H218 8049   5.030   0.759   1.401  3.7574  0.4814  0.5049
   20CHTO  C116 8050   4.853   0.746   1.505  0.0789 -0.2002 -0.3579
   20CHTO  H220 8051   4.787   0.791   1.582  0.7673 -2.2547  1.5128
   20CHTO   O79 8052   4.776   0.730   1.384 -0.5672 -0.7200  0.5448
   20CHTO  H201 8053   4.692   0.692   1.401 -1.0269 -0.6050 -1.4063
   20CHTO  C120 8054   4.878   0.599   1.571  0.4570  0.0637 -0.8479
   20CHTO  H224 8055   4.921   0.532   1.494  1.5461 -0.9098  0.5622
   20CHTO   N21 8056   4.753   0.530   1.609  0.0027  0.5092  0.0688
   20CHTO  H211 8057   4.662   0.569   1.652  0.2647  0.9250  0.2516
   20CHTO  H212 8058   4.735   0.441   1.551  0.5216  2.2665 -2.9334
   20CHTO   O75 8059   4.965   0.963   1.430 -0.4011  0.2863 -0.4728
   20CHTO  C112 8060   5.045   1.008   1.296  0.5503 -0.3779  0.2087
   20CHTO  H216 8061   5.087   0.925   1.237  0.6695 -1.4520  1.7645
   20CHTO   O73 8062   5.148   1.102   1.338 -0.6173 -0.0999  0.1020
   20CHTO  C113 8063   5.220   1.161   1.225 -0.8242 -0.0812 -0.2901
   20CHTO  H217 8064   5.254   1.074   1.164 -0.5282 -0.2052  0.0513
   20CHTO  C124 8065   5.347   1.225   1.276  0.1453 -0.1845  0.1149
   20CHTO   O83 8066   5.297   1.321   1.374  0.1862  0.1118  0.7129
   20CHTO  H204 8067   5.359   1.390   1.386  1.0428 -0.4245 -0.5326
   20CHTO  C109 8068   5.125   1.250   1.133 -1.0782  0.0180 -0.7141
   20CHTO  H213 8069   5.091   1.333   1.197  0.3438  0.0400  0.0325
   20CHTO  C110 8070   5.007   1.166   1.087  0.5273 -0.5051 -0.1056
   20CHTO  H214 8071   5.033   1.101   1.004 -1.6726 -2.2504  0.5329
   20CHTO   O78 8072   4.917   1.257   1.017  0.9667 -0.0263 -0.3287
   20CHTO  H200 8073   4.953   1.327   0.967  0.3970  0.5794  0.0925
   20CHTO  C111 8074   4.939   1.090   1.204 -0.4199 -0.3629 -0.4106
   20CHTO  H215 8075   4.895   1.162   1.274 -1.2759 -0.8950 -0.3973
   20CHTO   N19 8076   4.825   1.010   1.154  0.2092  0.2271  0.2090
   20CHTO  H207 8077   4.837   0.995   1.048  1.2227 -1.3148  0.5120
   20CHTO  H208 8078   4.822   0.910   1.195 -2.9925  0.0289 -0.4378
   20CHTO   O74 8079   5.200   1.310   1.019  0.1376  0.1349  0.1413
   20CHTO  C115 8080   5.225   1.470   1.036 -0.0273 -0.4513  0.8498
   20CHTO  H219 8081   5.189   1.503   1.134 -0.8460 -1.9125  1.0629
   20CHTO   O76 8082   5.384   1.507   1.033  0.1998 -0.0403  0.3782
   20CHTO  C122 8083   5.451   1.467   0.909  0.3086 -0.3579 -0.1421
   20CHTO  H226 8084   5.454   1.358   0.906  1.4176 -0.3206 -0.5369
   20CHTO  C126 8085   5.602   1.518   0.903  0.0600  0.3110 -0.5707
   20CHTO   O85 8086   5.629   1.659   0.929  0.3572 -0.6071 -0.4385
   20CHTO  H206 8087   5.637   1.679   1.020  1.5806  2.7457 -1.2193
   20CHTO  C121 8088   5.369   1.517   0.780 -0.6519  0.3939 -0.8435
   20CHTO  H225 8089   5.437   1.582   0.721 -0.2642 -0.9957 -1.9721
   20CHTO   O81 8090   5.329   1.407   0.699 -0.0805 -0.0362  0.3281
   20CHTO  H202 8091   5.406   1.357   0.684 -0.3176 -1.0748  2.3179
   20CHTO  C119 8092   5.250   1.613   0.823  0.0890 -0.0396 -0.0662
   20CHTO  H223 8093   5.293   1.692   0.884  0.2481 -0.9143  0.9803
   20CHTO  C117 8094   5.140   1.543   0.921 -0.4181 -0.7222 -0.0035
   20CHTO  H221 8095   5.076   1.463   0.884  0.9464 -1.0853 -1.6702
   20CHTO   N20 8096   5.039   1.655   0.973 -0.0042 -0.2494  0.4326
   20CHTO  H209 8097   4.955   1.657   0.906 -0.7970 -1.5112  1.3604
   20CHTO  H210 8098   5.005   1.634   1.073  0.4104  0.0083  0.6327
   20CHTO   O80 8099   5.191   1.694   0.702  0.3718  0.1099  0.6089
   20CHTO  C103 8100   5.258   1.826   0.654  0.0379 -0.0634  0.0678
   20CHTO  H190 8101   5.240   1.904   0.728 -0.2393  1.2085 -1.3154
   20CHTO  C101 8102   5.414   1.810   0.620 -0.0427 -0.3407  0.1923
   20CHTO  H188 8103   5.433   1.717   0.568 -1.1964 -0.4743 -0.0114
   20CHTO   O68 8104   5.488   1.807   0.751 -0.0046 -0.3092  0.4133
   20CHTO  H168 8105   5.579   1.795   0.731 -0.4890  1.2649 -3.0629
   20CHTO   C99 8106   5.476   1.932   0.534 -0.7120  0.5152 -0.1368
   20CHTO  H186 8107   5.472   2.023   0.597 -0.4037  0.0585  0.5507
   20CHTO   N17 8108   5.613   1.904   0.485  0.1977 -0.4648  0.0490
   20CHTO  H174 8109   5.605   1.833   0.405 -0.7330  1.6227 -1.7840
   20CHTO  H175 8110   5.653   2.002   0.460  0.2165 -1.1796 -2.8219
   20CHTO   C97 8111   5.385   1.964   0.413  0.1918  0.6462 -0.0023
   20CHTO  H184 8112   5.388   1.873   0.351 -0.1159 -0.5528  1.6936
   20CHTO   O64 8113   5.251   1.987   0.466  0.9110  0.4363  0.4569
   20CHTO  C104 8114   5.188   1.868   0.520 -0.3066  0.3125  0.1283
   20CHTO  H191 8115   5.193   1.794   0.440 -1.2370  0.1419  0.2268
   20CHTO  C108 8116   5.036   1.895   0.540  0.1160 -0.2627 -0.6687
   20CHTO   O71 8117   5.021   2.013   0.618 -0.0997  0.0327 -0.2506
   20CHTO  H171 8118   4.970   2.072   0.566 -2.0554 -0.3572  1.1814
   20CHTO   O62 8119   5.401   2.094   0.353  0.2346  0.2545 -0.1530
   20CHTO   C91 8120   5.398   2.105   0.211  0.1262 -0.6543  0.2908
   20CHTO  H178 8121   5.335   2.023   0.177  0.5075 -0.7013 -0.3039
   20CHTO   C92 8122   5.537   2.082   0.139 -0.8799  0.8178  0.2410
   20CHTO  H179 8123   5.612   2.144   0.189  0.3488  0.0664 -0.6410
   20CHTO   O66 8124   5.581   1.954   0.177  0.4331  0.1425  0.4271
   20CHTO  H166 8125   5.604   1.944   0.267  0.3221  2.7610  0.7994
   20CHTO   C93 8126   5.541   2.106  -0.018 -0.2253  0.0403  0.1542
   20CHTO  H180 8127   5.493   2.018  -0.063 -0.3885  0.6157 -0.8274
   20CHTO   N16 8128   5.676   2.110  -0.078  0.0966 -0.0869  0.2543
   20CHTO  H172 8129   5.749   2.040  -0.041  1.3903  1.0768 -0.0324
   20CHTO  H173 8130   5.669   2.105  -0.186  0.8480 -0.6672  0.2350
   20CHTO   C94 8131   5.459   2.231  -0.049  0.0311 -1.2660  0.1477
   20CHTO  H181 8132   5.511   2.323  -0.023 -0.4519 -0.5310 -1.3780
   20CHTO   O61 8133   5.334   2.231   0.025  0.7407  0.0709 -0.1901
   20CHTO   C95 8134   5.339   2.239   0.164  0.0892  0.4349 -0.0446
   20CHTO  H182 8135   5.395   2.326   0.198 -0.5755  0.9579 -0.2680
   20CHTO  C106 8136   5.197   2.281   0.212 -0.0019 -0.4714  0.2811
   20CHTO   O69 8137   5.192   2.311   0.353 -0.1060 -0.6288 -0.2231
   20CHTO  H169 8138   5.102   2.332   0.369  0.9800  1.9865  2.8610
   20CHTO   O63 8139   5.409   2.228  -0.212 -0.4636  0.3466 -0.2234
   20CHTO   C96 8140   5.409   2.366  -0.296 -0.4823 -0.7579  0.8586
   20CHTO  H183 8141   5.426   2.343  -0.401  1.0635  1.5539  0.5572
   20CHTO   C98 8142   5.532   2.458  -0.266  1.1099 -0.3955  0.0884
   20CHTO  H185 8143   5.528   2.495  -0.163  2.6789 -1.4088  0.5216
   20CHTO   O67 8144   5.663   2.402  -0.278  0.0037 -0.0727  0.0328
   20CHTO  H167 8145   5.673   2.388  -0.370 -2.2161  1.9507 -0.5653
   20CHTO  C102 8146   5.529   2.596  -0.354 -0.1513  0.2337  0.4293
   20CHTO  H189 8147   5.541   2.570  -0.460 -1.3248  0.1528  0.3114
   20CHTO   N18 8148   5.625   2.703  -0.316  0.3089  1.1587 -0.5482
   20CHTO  H176 8149   5.669   2.737  -0.409 -0.6297 -1.1559 -1.8938
   20CHTO  H177 8150   5.710   2.673  -0.258  0.4665 -3.6312 -2.9721
   20CHTO  C105 8151   5.385   2.654  -0.346 -0.1036 -0.0032 -0.5828
   20CHTO  H192 8152   5.372   2.702  -0.249 -1.0259 -2.9308  0.7960
   20CHTO   O65 8153   5.281   2.561  -0.372  0.0359 -0.5615 -0.4931
   20CHTO  C100 8154   5.275   2.447  -0.286 -0.1503  0.0080  0.4395
   20CHTO  H187 8155   5.258   2.483  -0.183  0.4606  1.5916  0.0060
   20CHTO  C107 8156   5.151   2.362  -0.322  0.2381  0.4218  0.4312
   20CHTO   O70 8157   5.101   2.283  -0.212  0.3196 -0.4195 -0.1033
   20CHTO  H170 8158   5.166   2.227  -0.174  2.9188  2.0754 -0.6164
   20CHTO   O57 8159   5.380   2.761  -0.457 -0.2343  0.2774  0.4828
   20CHTO   C85 8160   5.300   2.884  -0.437 -0.1174 -0.3154  0.5481
   20CHTO  H157 8161   5.242   2.879  -0.343 -0.0217  0.2835  0.6435
   20CHTO   C83 8162   5.186   2.896  -0.544 -0.2400  0.2806  0.1721
   20CHTO  H155 8163   5.102   2.836  -0.509  0.9934 -0.9219  1.0904
   20CHTO   O56 8164   5.231   2.824  -0.667  0.3202  0.3139  0.1454
   20CHTO  H135 8165   5.213   2.875  -0.744  0.6878  1.2014  0.6447
   20CHTO   C81 8166   5.138   3.040  -0.561 -0.3250 -0.7253 -0.4279
   20CHTO  H153 8167   5.100   3.074  -0.465  3.8223  0.1112  1.0168
   20CHTO   N14 8168   5.035   3.059  -0.664  0.5272 -0.3898  0.4829
   20CHTO  H141 8169   5.053   3.027  -0.764 -1.2012  0.5133 -0.1374
   20CHTO  H142 8170   5.005   3.162  -0.667 -2.0193 -1.1068  0.1817
   20CHTO   C79 8171   5.256   3.136  -0.595 -0.3915 -0.0927 -1.0342
   20CHTO  H151 8172   5.216   3.238  -0.597  0.2115  0.1680 -0.2741
   20CHTO   O52 8173   5.353   3.141  -0.485 -0.0959  0.6252  0.1967
   20CHTO   C86 8174   5.394   3.005  -0.435 -0.1184 -0.9475 -0.1584
   20CHTO  H158 8175   5.484   2.974  -0.492  0.8615  0.4692  0.5600
   20CHTO   C90 8176   5.440   3.014  -0.285  0.2591  0.7190 -0.6136
   20CHTO   O60 8177   5.560   3.095  -0.266  0.1625  0.5155  0.1845
   20CHTO  H138 8178   5.593   3.083  -0.179 -2.1838  0.9924  1.1791
   20CHTO   O50 8179   5.317   3.103  -0.720  0.1232 -0.0218 -0.1063
   20CHTO   C73 8180   5.429   3.145  -0.804 -0.5368 -0.1007  0.8166
   20CHTO  H145 8181   5.521   3.147  -0.745 -0.1564 -0.4855  0.2454
   20CHTO   C74 8182   5.400   3.288  -0.875  0.4772  0.7125 -0.3350
   20CHTO  H146 8183   5.387   3.356  -0.790 -0.7787  1.2832 -0.9851
   20CHTO   O54 8184   5.514   3.334  -0.948  0.0533  0.0624  0.3165
   20CHTO  H133 8185   5.522   3.427  -0.940  2.3584 -0.0529 -0.3246
   20CHTO   C75 8186   5.266   3.269  -0.951 -0.5834  0.1428  0.1139
   20CHTO  H147 8187   5.188   3.241  -0.880  0.3172 -1.9568  0.3362
   20CHTO   N13 8188   5.220   3.399  -1.007  0.5380 -0.6581  0.1342
   20CHTO  H139 8189   5.113   3.390  -1.017  0.0286  2.1035  2.4537
   20CHTO  H140 8190   5.223   3.468  -0.924  1.9415  1.0007 -1.2541
   20CHTO   C76 8191   5.283   3.153  -1.060 -0.8066 -0.8798  0.1186
   20CHTO  H148 8192   5.355   3.183  -1.136 -1.6685  1.7855  0.3249
   20CHTO   O49 8193   5.333   3.021  -0.991  0.2448  0.3579 -0.0918
   20CHTO   C77 8194   5.451   3.037  -0.914  0.1297  0.0980  0.7132
   20CHTO  H149 8195   5.537   3.066  -0.974  0.4547  0.0057  1.1375
   20CHTO   C88 8196   5.499   2.902  -0.858 -0.0409  0.5297  0.3462
   20CHTO   O58 8197   5.601   2.919  -0.790  0.7391  0.1642 -0.3089
   20CHTO  H136 8198   5.629   2.838  -0.753  0.9630  0.3511 -0.0719
   20CHTO   O51 8199   5.132   3.128  -1.124  0.6710 -1.2619 -0.0945
   20CHTO   C78 8200   5.030   2.998  -1.064 -0.1561 -0.1689 -0.0597
   20CHTO  H150 8201   5.051   2.970  -0.959  1.4114 -0.7783 -0.5238
   20CHTO   C80 8202   5.048   2.874  -1.154  0.1499  0.1467  0.3735
   20CHTO  H152 8203   5.045   2.902  -1.261 -1.2733 -0.7964  0.1522
   20CHTO   O55 8204   5.185   2.840  -1.135  0.2686 -0.3481  0.3987
   20CHTO  H134 8205   5.211   2.828  -1.046  1.5693  0.2057  0.1009
   20CHTO   C84 8206   4.953   2.756  -1.121 -0.4231 -0.1879 -0.6790
   20CHTO  H156 8207   4.969   2.726  -1.018 -3.1476 -0.6853 -0.3582
   20CHTO   N15 8208   4.971   2.642  -1.213  0.4783  0.4073  0.1075
   20CHTO  H143 8209   4.996   2.552  -1.162  2.9729  0.7212 -0.4868
   20CHTO  H144 8210   4.890   2.623  -1.280  0.3398  1.0155  0.0975
   20CHTO   C87 8211   4.811   2.804  -1.130  0.8956  0.3333 -0.0278
   20CHTO  H159 8212   4.773   2.825  -1.230 -1.8756  1.2512  1.1599
   20CHTO   O53 8213   4.789   2.950  -1.047 -0.2586  0.4699  0.1683
   20CHTO   C82 8214   4.886   3.051  -1.083 -0.0460  0.4318  0.6201
   20CHTO  H154 8215   4.871   3.081  -1.187 -1.4468  0.8305  0.9223
   20CHTO   C89 8216   4.853   3.177  -0.995  0.0554 -0.5970  0.2377
   20CHTO   O59 8217   4.904   3.297  -1.053 -0.1149 -0.1533 -0.0786
   20CHTO  H137 8218   4.896   3.367  -0.992  0.0869  1.4713 -1.8794
   20CHTO   O45 8219   4.704   2.693  -1.051 -0.2751 -0.1789  0.4593
   20CHTO   C67 8220   4.755   2.641  -0.927 -0.0272  0.0399  0.2170
   20CHTO  H124 8221   4.847   2.587  -0.950  0.1281  0.8576 -1.1458
   20CHTO   C65 8222   4.787   2.748  -0.825 -0.3120 -0.0308  0.9906
   20CHTO  H122 8223   4.853   2.821  -0.871  3.0300 -2.1782  2.1611
   20CHTO   O44 8224   4.862   2.688  -0.719 -0.3986 -0.4302 -0.2386
   20CHTO  H102 8225   4.931   2.638  -0.759 -0.6992 -0.5864 -0.5626
   20CHTO   C63 8226   4.651   2.817  -0.782  0.2606  0.4127 -0.4391
   20CHTO  H120 8227   4.596   2.857  -0.867  0.9264 -0.3531 -1.2334
   20CHTO   N11 8228   4.657   2.942  -0.694  0.3322  0.2474  0.7210
   20CHTO  H108 8229   4.653   3.024  -0.762  2.9769  1.5491  2.1037
   20CHTO  H109 8230   4.756   2.945  -0.654  1.1751  0.6796 -1.3184
   20CHTO   C61 8231   4.564   2.710  -0.713 -0.6016 -0.0932 -0.1892
   20CHTO  H118 8232   4.469   2.764  -0.703 -0.8587 -0.3405 -1.2781
   20CHTO   O40 8233   4.543   2.599  -0.807 -0.3461  0.5730  0.1999
   20CHTO   C68 8234   4.657   2.540  -0.881  0.4986 -0.3789  0.1632
   20CHTO  H125 8235   4.606   2.490  -0.966 -0.3716 -1.7489  1.4433
   20CHTO   C72 8236   4.729   2.431  -0.793 -0.1117  0.2685  0.4747
   20CHTO   O48 8237   4.651   2.308  -0.802 -0.2552 -0.0412 -0.3571
   20CHTO  H105 8238   4.663   2.256  -0.725  2.6297  0.5788 -0.3455
   20CHTO   O38 8239   4.616   2.665  -0.588 -0.7214 -0.6736  0.0420
   20CHTO   C55 8240   4.524   2.646  -0.479  0.1777  0.7190  0.3287
   20CHTO  H112 8241   4.427   2.637  -0.531  0.7330 -0.9134 -0.4750
   20CHTO   C56 8242   4.531   2.772  -0.369 -0.1251 -0.1930 -0.3510
   20CHTO  H113 8243   4.639   2.785  -0.358 -0.0023 -1.3171 -0.1458
   20CHTO   O42 8244   4.484   2.892  -0.431 -0.2903 -0.0795 -0.0921
   20CHTO  H100 8245   4.453   2.950  -0.364  2.7522  2.3462 -0.6690
   20CHTO   C57 8246   4.461   2.742  -0.231  0.0151 -0.1557 -0.5596
   20CHTO  H114 8247   4.353   2.758  -0.225  0.2974  2.0800 -0.8632
   20CHTO   N10 8248   4.500   2.836  -0.121  0.4032  0.2872  0.1751
   20CHTO  H106 8249   4.597   2.804  -0.083  0.1966  2.5232  2.7168
   20CHTO  H107 8250   4.431   2.830  -0.038  0.9481  1.2438  0.7152
   20CHTO   C58 8251   4.491   2.597  -0.185  0.0071 -0.5852  0.5576
   20CHTO  H115 8252   4.595   2.596  -0.145 -0.0537  1.7290  0.8287
   20CHTO   O37 8253   4.463   2.505  -0.291  0.7237  0.4534  0.5384
   20CHTO   C59 8254   4.553   2.517  -0.408  0.3893  0.4760 -0.7145
   20CHTO  H116 8255   4.657   2.518  -0.375  0.9212  0.5921 -2.3652
   20CHTO   C70 8256   4.526   2.388  -0.491 -0.2001 -0.3893  0.1450
   20CHTO   O46 8257   4.573   2.282  -0.409  0.9889  1.0038  0.5548
   20CHTO  H103 8258   4.504   2.221  -0.391  0.2757  2.2534  2.2282
   20CHTO   O39 8259   4.398   2.550  -0.073 -0.1061  0.2733  0.1157
   20CHTO   C60 8260   4.450   2.445   0.013  0.1182 -0.3782 -0.3042
   20CHTO  H117 8261   4.548   2.410  -0.022 -0.3715 -1.0477 -1.0303
   20CHTO   C62 8262   4.465   2.493   0.162 -0.2283 -0.4859  0.3489
   20CHTO  H119 8263   4.537   2.577   0.163  1.1868 -1.6923  0.7950
   20CHTO   O43 8264   4.347   2.559   0.222 -0.3180  0.2562 -0.3490
   20CHTO  H101 8265   4.288   2.488   0.236  0.0029 -0.3725 -2.0519
   20CHTO   C66 8266   4.522   2.369   0.249 -0.5570  0.3284 -0.2314
   20CHTO  H123 8267   4.628   2.359   0.226 -0.9601 -1.2264 -1.5194
   20CHTO   N12 8268   4.524   2.395   0.390 -0.1068 -0.3830 -0.2157
   20CHTO  H110 8269   4.515   2.315   0.462  1.9256 -0.6552 -0.2356
   20CHTO  H111 8270   4.486   2.489   0.428  0.1013 -0.6444  0.6613
   20CHTO   C69 8271   4.447   2.241   0.219 -0.4855 -0.5424  0.8074
   20CHTO  H126 8272   4.342   2.241   0.253 -0.8236  0.5617 -0.1949
   20CHTO   O41 8273   4.430   2.215   0.085 -0.0172  0.4272 -0.9981
   20CHTO   C64 8274   4.369   2.310   0.010  0.4644 -0.7872 -0.1513
   20CHTO  H121 8275   4.273   2.330   0.061  0.6779  2.1030 -0.7916
   20CHTO   C71 8276   4.351   2.263  -0.134 -0.6510  0.4027  0.0137
   20CHTO   O47 8277   4.245   2.166  -0.143  0.2657  0.4641  0.2953
   20CHTO  H104 8278   4.283   2.082  -0.159 -0.4017  0.1293  0.4338
   20CHTO   O34 8279   4.524   2.114   0.280  0.3450 -0.3562  0.1423
   20CHTO   C49 8280   4.627   1.985   0.235  0.5420  0.6326 -0.2521
   20CHTO   H91 8281   4.627   1.914   0.318 -3.0720  2.2154  1.1895
   20CHTO   C47 8282   4.764   2.042   0.211  0.0444  0.5598  0.2789
   20CHTO   H89 8283   4.828   1.953   0.195 -0.4384  0.2239  0.2015
   20CHTO   O33 8284   4.812   2.117   0.324  0.0088  0.2956 -0.1992
   20CHTO   H70 8285   4.843   2.058   0.390 -1.4544 -0.4166 -0.1086
   20CHTO   C45 8286   4.764   2.121   0.072 -0.8093  0.2422  0.0216
   20CHTO   H87 8287   4.687   2.198   0.087 -0.3940  0.8119 -0.7164
   20CHTO    N8 8288   4.891   2.190   0.037  0.5764 -0.6134 -0.1566
   20CHTO   H75 8289   4.973   2.158   0.099  1.2227  0.1086 -0.6360
   20CHTO   H76 8290   4.876   2.297   0.044 -2.7792 -1.0598  0.1963
   20CHTO   C43 8291   4.704   2.038  -0.054  0.1252  0.0039  0.5412
   20CHTO   H85 8292   4.691   2.110  -0.135  0.7110  0.2700  0.6812
   20CHTO   O29 8293   4.579   1.973  -0.013 -0.2779 -0.0114 -0.4521
   20CHTO   C50 8294   4.576   1.906   0.113  0.6453  0.4714 -0.4745
   20CHTO   H92 8295   4.467   1.894   0.122  0.6577  1.2888  0.9866
   20CHTO   C54 8296   4.639   1.771   0.105 -0.3029 -0.3317  0.7230
   20CHTO   O36 8297   4.609   1.696   0.218 -0.3377 -0.2285  0.8208
   20CHTO   H72 8298   4.644   1.609   0.219 -1.2867 -0.6367 -0.1732
   20CHTO   O27 8299   4.801   1.951  -0.113  0.3085  0.1690 -0.2854
   20CHTO   C37 8300   4.867   1.920  -0.233  0.6082 -0.1948  0.0754
   20CHTO   H79 8301   4.839   1.817  -0.260 -0.9360  0.0151  0.8039
   20CHTO   C38 8302   4.825   2.016  -0.351  0.1493  0.0874  0.1407
   20CHTO   H80 8303   4.819   2.119  -0.314 -2.3387 -0.5250  1.5599
   20CHTO   O31 8304   4.688   1.988  -0.384 -0.0197 -0.3580  0.6578
   20CHTO   H68 8305   4.672   1.922  -0.449  0.7074 -2.1606  2.2755
   20CHTO   C39 8306   4.915   2.014  -0.484  0.5262  0.3910  0.2660
   20CHTO   H81 8307   4.894   1.921  -0.538 -0.0393  0.8196 -0.2616
   20CHTO    N7 8308   4.882   2.127  -0.571 -0.3641  0.1840 -0.7023
   20CHTO   H73 8309   4.935   2.124  -0.666 -0.2197 -2.4608 -0.5773
   20CHTO   H74 8310   4.874   2.220  -0.517  1.2815 -1.0803  1.8379
   20CHTO   C40 8311   5.070   2.002  -0.447 -0.4322  0.0690  0.2303
   20CHTO   H82 8312   5.105   2.101  -0.417 -0.9339 -0.6883  3.4528
   20CHTO   O26 8313   5.090   1.904  -0.343  0.3021 -0.2841  0.1137
   20CHTO   C41 8314   5.020   1.928  -0.217  0.6245 -0.2288 -0.2172
   20CHTO   H83 8315   5.041   2.031  -0.184 -1.4139  1.1920 -3.0543
   20CHTO   C52 8316   5.079   1.833  -0.115 -0.0276 -0.1087 -0.1306
   20CHTO   O35 8317   5.045   1.873   0.035 -0.9933 -0.1713  0.4489
   20CHTO   H71 8318   4.975   1.819   0.066 -0.1424 -1.3708  0.3014
   20CHTO   O28 8319   5.144   1.966  -0.564 -0.5042  0.3503  0.0996
   20CHTO   C42 8320   5.290   1.969  -0.566  0.5653 -0.5136  0.0418
   20CHTO   H84 8321   5.322   1.930  -0.662  0.4264 -0.3630 -0.0654
   20CHTO   C44 8322   5.363   1.881  -0.458  0.3247 -0.4600  0.0082
   20CHTO   H86 8323   5.341   1.926  -0.361 -1.8904 -0.5134 -0.4267
   20CHTO   O32 8324   5.307   1.746  -0.465  0.2958 -0.2974  0.1863
   20CHTO   H69 8325   5.213   1.747  -0.468  0.3268  1.0088 -0.5847
   20CHTO   C48 8326   5.517   1.869  -0.470  0.5246  0.3546 -0.5103
   20CHTO   H90 8327   5.533   1.783  -0.535  0.8322 -0.7205  0.9317
   20CHTO    N9 8328   5.578   1.826  -0.345  0.6992 -0.6167 -0.0586
   20CHTO   H77 8329   5.559   1.899  -0.268  0.2598 -0.8560  0.0600
   20CHTO   H78 8330   5.559   1.723  -0.320 -0.0597 -0.1521  1.3184
   20CHTO   C51 8331   5.587   2.004  -0.520 -0.0985  0.1614 -0.5778
   20CHTO   H93 8332   5.625   2.059  -0.434  0.8154 -3.9063  1.7193
   20CHTO   O30 8333   5.506   2.088  -0.605  0.0203  0.4174 -0.3755
   20CHTO   C46 8334   5.357   2.106  -0.558 -0.0256  0.5267 -0.2822
   20CHTO   H88 8335   5.366   2.138  -0.454  0.4630 -0.4313 -0.0272
   20CHTO   C53 8336   5.291   2.211  -0.657 -0.5943  0.2147 -0.0180
   20CHTO   O72 8337   5.346   2.340  -0.676 -0.0070  0.0706 -0.2042
   20CHTO  H199 8338   5.440   2.339  -0.678 -0.0329 -1.8068 -2.7079
   20CHTO   O22 8339   5.708   1.974  -0.594 -0.4576 -0.3590  0.2110
   20CHTO   C31 8340   5.847   1.988  -0.557 -0.4790  0.1693 -0.4820
   20CHTO   H59 8341   5.900   2.007  -0.652  0.0551  0.1096 -0.1989
   20CHTO   C29 8342   5.881   2.106  -0.463  0.3689  0.2884  0.8676
   20CHTO   H57 8343   5.835   2.090  -0.365 -1.2103 -0.8920 -0.0260
   20CHTO   O21 8344   5.824   2.232  -0.513  0.3006  0.1413  0.1260
   20CHTO   H37 8345   5.868   2.303  -0.472 -0.0198  1.1823 -1.2808
   20CHTO   C27 8346   6.041   2.113  -0.448  0.7482 -0.4135  0.1115
   20CHTO   H55 8347   6.089   2.142  -0.543  1.6421 -1.0193  0.3709
   20CHTO    N5 8348   6.081   2.212  -0.343 -0.6186  0.1748  0.4387
   20CHTO   H43 8349   6.187   2.228  -0.356 -0.6319  0.7506  1.0250
   20CHTO   H44 8350   6.027   2.303  -0.363 -0.7496  0.4461  1.9790
   20CHTO   C25 8351   6.094   1.976  -0.402 -0.1586  0.0202 -0.2911
   20CHTO   H53 8352   6.052   1.952  -0.303  1.7995 -0.6284  0.4113
   20CHTO   O17 8353   6.043   1.868  -0.487  0.0537  0.4940  0.0997
   20CHTO   C32 8354   5.902   1.858  -0.503 -0.3852 -0.0491 -0.9423
   20CHTO   H60 8355   5.868   1.840  -0.401 -1.7698 -1.1272 -1.5771
   20CHTO   C36 8356   5.882   1.748  -0.604  0.3901 -0.2637 -0.2428
   20CHTO   O25 8357   5.920   1.629  -0.544  0.4641  0.1023 -0.3278
   20CHTO   H40 8358   5.948   1.576  -0.616  2.4999 -0.4772  0.8719
   20CHTO   O15 8359   6.247   1.967  -0.394 -0.1935  0.4802 -0.4737
   20CHTO   C19 8360   6.353   1.914  -0.471 -0.7842  0.5721  0.6994
   20CHTO   H47 8361   6.308   1.900  -0.570  0.9344  0.0109 -0.0281
   20CHTO   C20 8362   6.481   1.999  -0.489 -0.5119 -0.4036 -0.2709
   20CHTO   H48 8363   6.531   2.021  -0.393 -0.4089  0.6571 -0.5620
   20CHTO   O19 8364   6.428   2.127  -0.533  0.3259  0.1837 -0.0231
   20CHTO   H35 8365   6.499   2.180  -0.563  1.5671 -1.5187 -0.2172
   20CHTO   C21 8366   6.580   1.941  -0.596  0.6187 -0.2656 -0.1821
   20CHTO   H49 8367   6.528   1.940  -0.692  0.3501 -0.2371 -0.0386
   20CHTO    N4 8368   6.700   2.026  -0.611  0.1696  0.0794  0.2177
   20CHTO   H41 8369   6.685   2.120  -0.664  0.8952 -0.1659 -0.4459
   20CHTO   H42 8370   6.779   1.974  -0.663 -0.4333 -2.8574  2.1620
   20CHTO   C22 8371   6.617   1.795  -0.557 -0.7891 -0.0082 -0.3987
   20CHTO   H50 8372   6.676   1.794  -0.465  0.2304 -0.4852 -1.0417
   20CHTO   O14 8373   6.498   1.726  -0.536 -0.3359 -0.2712 -0.1132
   20CHTO   C23 8374   6.411   1.775  -0.433  0.5407  0.0575 -0.2453
   20CHTO   H51 8375   6.473   1.776  -0.342 -1.3575 -0.2030  1.1079
   20CHTO   C34 8376   6.297   1.678  -0.404 -0.3218  0.3695  0.2005
   20CHTO   O23 8377   6.324   1.586  -0.298 -0.4006  0.7248  0.0344
   20CHTO   H38 8378   6.318   1.629  -0.216 -3.2717 -1.0405  0.7942
   20CHTO   O16 8379   6.677   1.722  -0.664 -0.8101 -0.3425 -0.2364
   20CHTO   C24 8380   6.752   1.563  -0.620 -0.4766  0.4413  0.2844
   20CHTO   H52 8381   6.709   1.519  -0.530 -0.8740  0.9262  0.3351
   20CHTO   C26 8382   6.907   1.582  -0.605  0.2876 -0.3716  1.2380
   20CHTO   H54 8383   6.947   1.628  -0.698 -0.5269  0.5055  1.3209
   20CHTO   O20 8384   6.935   1.673  -0.497 -0.3581 -0.2897  0.1387
   20CHTO   H36 8385   6.854   1.710  -0.468 -0.4950 -0.5526  0.0960
   20CHTO   C30 8386   6.978   1.444  -0.583  0.2071  0.1586  0.1221
   20CHTO   H58 8387   6.998   1.435  -0.475  0.6514 -2.6418 -0.1703
   20CHTO    N6 8388   7.114   1.445  -0.647 -0.4060 -0.1183 -0.0144
   20CHTO   H45 8389   7.165   1.535  -0.617  0.8076  0.1555 -2.7539
   20CHTO   H46 8390   7.162   1.357  -0.606 -1.8400 -1.4916 -1.1832
   20CHTO   C33 8391   6.899   1.318  -0.625  0.0828  0.0522 -0.6477
   20CHTO   H61 8392   6.967   1.237  -0.652  1.0171  0.7166 -0.3017
   20CHTO   O18 8393   6.810   1.346  -0.733 -0.3251 -0.2420  0.3791
   20CHTO   C28 8394   6.725   1.459  -0.734  0.0516  0.3663 -0.5224
   20CHTO   H56 8395   6.741   1.510  -0.829  0.8309 -1.3590 -1.3385
   20CHTO   C35 8396   6.574   1.411  -0.734 -0.5843  0.3385  0.3653
   20CHTO   O24 8397   6.535   1.355  -0.853 -0.0995  0.1348 -0.1938
   20CHTO   H39 8398   6.592   1.284  -0.876 -1.3878 -0.9887  0.0099
   20CHTO    O9 8399   6.831   1.277  -0.509  0.0227  0.4431  0.6403
   20CHTO   C13 8400   6.836   1.127  -0.474  0.3200 -0.2129 -0.0691
   20CHTO   H26 8401   6.939   1.090  -0.455  0.4566 -1.4421 -2.8558
   20CHTO   C11 8402   6.769   1.044  -0.593 -0.4177  0.6447 -0.3306
   20CHTO   H24 8403   6.818   1.066  -0.689 -0.3956  0.1019 -0.4452
   20CHTO    O8 8404   6.634   1.094  -0.618  0.0598  0.5084 -0.0612
   20CHTO    H3 8405   6.596   1.050  -0.691 -0.7949  0.9761  0.0867
   20CHTO    C9 8406   6.788   0.899  -0.551  0.1044  0.2011 -0.3413
   20CHTO   H22 8407   6.893   0.890  -0.520 -0.5000  1.0497  2.0669
   20CHTO    N2 8408   6.773   0.805  -0.662 -0.2297  0.0116 -0.8569
   20CHTO   H10 8409   6.788   0.702  -0.635 -1.7633  0.1260  0.5231
   20CHTO   H11 8410   6.677   0.828  -0.706 -0.5811  0.5081  0.1539
   20CHTO    C7 8411   6.701   0.873  -0.420 -0.5388 -0.2496  0.1675
   20CHTO   H20 8412   6.724   0.770  -0.385 -0.9004 -0.1532  0.6931
   20CHTO    O4 8413   6.731   0.953  -0.307  0.2850 -0.2518  0.2645
   20CHTO   C14 8414   6.764   1.096  -0.333  0.4112 -0.5699  0.2648
   20CHTO   H27 8415   6.830   1.123  -0.248 -0.5826  1.8196  0.3181
   20CHTO   C18 8416   6.643   1.179  -0.323  0.4433  0.0723  0.1870
   20CHTO   O13 8417   6.605   1.187  -0.184  0.1388 -0.0805  0.2351
   20CHTO    H7 8418   6.518   1.155  -0.172  0.2891 -0.4616  0.3137
   20CHTO    O2 8419   6.544   0.880  -0.448  0.3147  0.0904 -0.1301
   20CHTO    C1 8420   6.454   0.799  -0.371 -0.6991 -0.0107 -0.4863
   20CHTO   H14 8421   6.483   0.795  -0.264  0.7810 -1.2747 -0.9090
   20CHTO    C2 8422   6.452   0.643  -0.424  0.3304 -0.3677  0.7787
   20CHTO   H15 8423   6.413   0.650  -0.526 -1.4534  0.7117  1.5076
   20CHTO    O6 8424   6.583   0.579  -0.405  0.3395  0.7305  0.1116
   20CHTO    H1 8425   6.644   0.617  -0.466  2.0149 -1.6074  0.2475
   20CHTO    C3 8426   6.346   0.560  -0.341 -0.6483 -0.5891  0.3844
   20CHTO   H16 8427   6.371   0.554  -0.234  0.2509  2.1301  0.3662
   20CHTO    N1 8428   6.332   0.407  -0.372  0.1885 -0.3156 -0.1359
   20CHTO    H8 8429   6.343   0.346  -0.284 -1.7103 -1.8721 -0.9680
   20CHTO    H9 8430   6.240   0.375  -0.418 -0.5778 -1.2416  1.9572
   20CHTO    C4 8431   6.212   0.641  -0.352  0.1743 -0.2045 -0.6883
   20CHTO   H17 8432   6.190   0.656  -0.457  1.5221 -1.8552 -1.2285
   20CHTO    O1 8433   6.221   0.779  -0.292 -0.1053 -0.1738  0.1295
   20CHTO    C5 8434   6.313   0.852  -0.377  0.3302  0.3598 -0.0076
   20CHTO   H18 8435   6.289   0.838  -0.482 -0.1443  1.7881 -0.1052
   20CHTO   C16 8436   6.301   0.997  -0.348 -0.4255  0.2473 -0.8287
   20CHTO   O11 8437   6.166   1.030  -0.374 -0.1257  0.1827 -0.1308
   20CHTO    H5 8438   6.153   1.114  -0.335 -0.6100 -0.6715  1.5790
   20CHTO    O3 8439   6.108   0.569  -0.279 -0.7784 -0.1461 -0.4874
   20CHTO    C6 8440   5.987   0.587  -0.349 -0.4389 -0.1577 -1.0905
   20CHTO   H19 8441   5.979   0.677  -0.410 -1.0210  1.3175  1.0839
   20CHTO    C8 8442   5.947   0.465  -0.432 -0.2351  0.5376  0.1247
   20CHTO   H21 8443   5.946   0.377  -0.367  1.8958 -0.2222 -0.8018
   20CHTO    O7 8444   6.050   0.446  -0.524 -0.1594  0.6373  1.0284
   20CHTO    H2 8445   6.021   0.396  -0.598  0.9870  0.7634  0.4790
   20CHTO   C12 8446   5.815   0.495  -0.510  0.8114 -1.0372 -0.0221
   20CHTO   H25 8447   5.832   0.592  -0.561  1.1023  0.2970  2.5028
   20CHTO    N3 8448   5.773   0.385  -0.601  0.8004 -0.6645  0.3430
   20CHTO   H12 8449   5.792   0.291  -0.551  0.9555 -1.2271 -0.7402
   20CHTO   H13 8450   5.672   0.398  -0.638  0.9692 -1.2568 -0.3532
   20CHTO   C15 8451   5.707   0.521  -0.396 -0.3042 -0.2265  1.0200
   20CHTO   H28 8452   5.697   0.428  -0.341  0.2606 -1.0778 -0.3074
   20CHTO   O10 8453   5.576   0.561  -0.450 -0.4544  0.5133  0.1741
   20CHTO    H4 8454   5.586   0.603  -0.534  0.4237  0.3014  0.1618
   20CHTO    O5 8455   5.744   0.625  -0.306 -0.1454  0.4579  0.4728
   20CHTO   C10 8456   5.872   0.605  -0.239 -0.8400  0.8194  0.2753
   20CHTO   H23 8457   5.865   0.516  -0.176  0.6225  0.6668  0.2419
   20CHTO   C17 8458   5.918   0.717  -0.150 -0.1485 -0.0801 -0.7167
   20CHTO   O12 8459   5.850   0.718  -0.028 -0.2332  0.4575 -0.2225
   20CHTO    H6 8460   5.888   0.782   0.029  0.6328 -1.0291  0.9223
   21GLOH   H03 8461   9.695   2.915   0.184  0.5382 -1.2005 -0.0208
   21GLOH    O1 8462   9.788   2.914   0.214  0.5226  0.0829  0.1225
   21GLOH    C1 8463   9.880   2.853   0.116  0.0246  0.6539  0.3173
   21GLOH   H02 8464   9.952   2.786   0.165 -0.7927 -0.2045  0.3577
   21GLOH   H08 8465   9.940   2.923   0.059  0.4449  0.7111  0.8205
   21GLOH    C2 8466   9.816   2.750   0.012 -0.0798 -0.1596 -0.5084
   21GLOH   H04 8467   9.737   2.810  -0.037 -0.7280 -0.5531  0.0368
   21GLOH    O2 8468   9.912   2.705  -0.086  0.0635 -0.2046  0.6464
   21GLOH   H05 8469   9.988   2.658  -0.048  1.1688  1.4924  0.5960
   21GLOH    C3 8470   9.760   2.624   0.077 -0.2763  0.2192  0.0023
   21GLOH   H06 8471   9.718   2.562  -0.002  0.5013 -1.6032  1.0103
   21GLOH   H07 8472   9.683   2.655   0.148 -0.7262 -2.8439  0.9126
   21GLOH    O3 8473   9.855   2.537   0.143  0.3396 -0.3495 -0.0903
   21GLOH   H01 8474   9.840   2.559   0.236 -0.8207 -0.7546 -0.1780
   22GLOH   H03 8475   1.058   2.230   1.391 -0.4974 -1.3542  0.6102
   22GLOH    O1 8476   0.993   2.198   1.325 -0.4292 -0.0518 -0.1025
   22GLOH    C1 8477   1.058   2.082   1.260 -0.1476  0.3722 -0.4746
   22GLOH   H02 8478   1.155   2.116   1.226 -0.0482  0.5847  0.0078
   22GLOH   H08 8479   0.993   2.050   1.178 -2.7113 -0.4698  1.7956
   22GLOH    C2 8480   1.081   1.971   1.365 -0.4599 -0.8646  0.4143
   22GLOH   H04 8481   1.147   2.013   1.442 -0.7233 -0.6410  0.5189
   22GLOH    O2 8482   0.965   1.909   1.426 -0.3061 -0.3027  0.1601
   22GLOH   H05 8483   0.920   1.851   1.363 -0.4387 -0.5351  0.4648
   22GLOH    C3 8484   1.168   1.864   1.294 -0.3093 -0.1145  0.2582
   22GLOH   H06 8485   1.177   1.778   1.361 -0.2214 -1.4300 -1.4155
   22GLOH   H07 8486   1.268   1.907   1.283 -0.7273  1.2890  1.6787
   22GLOH    O3 8487   1.113   1.812   1.171 -0.7483 -0.0646 -0.4266
   22GLOH   H01 8488   1.190   1.811   1.110  0.1348 -1.5918  0.6817
   23GLOH   H03 8489   1.266   6.187   2.032 -1.8314 -3.0177 -3.0642
   23GLOH    O1 8490   1.337   6.124   2.054  0.1055  0.0690  0.1139
   23GLOH    C1 8491   1.291   6.012   2.125 -0.3874 -0.0647 -0.3014
   23GLOH   H02 8492   1.356   5.926   2.111 -1.5416 -0.8068 -1.0728
   23GLOH   H08 8493   1.192   5.979   2.095 -1.2931  2.5045 -0.2747
   23GLOH    C2 8494   1.281   6.041   2.276  0.0715  0.5425  0.0518
   23GLOH   H04 8495   1.232   6.137   2.296 -0.2913  0.5128 -0.6978
   23GLOH    O2 8496   1.204   5.944   2.355 -0.4174  0.5184  0.1624
   23GLOH   H05 8497   1.188   5.975   2.445 -2.6823  3.6700 -1.2415
   23GLOH    C3 8498   1.429   6.054   2.330  0.1815 -0.1527  0.0095
   23GLOH   H06 8499   1.472   5.957   2.305 -1.9869 -1.2218  0.3706
   23GLOH   H07 8500   1.432   6.050   2.439  0.1800  1.1596  0.0640
   23GLOH    O3 8501   1.502   6.169   2.275 -0.1089 -0.3645  0.5061
   23GLOH   H01 8502   1.491   6.166   2.178 -0.5116 -0.5301  0.5592
   24GLOH   H03 8503   0.145   9.108   0.447 -1.1371 -0.3719 -0.3641
   24GLOH    O1 8504   0.153   9.093   0.351  0.0167 -0.0982 -0.3280
   24GLOH    C1 8505   0.043   9.010   0.317 -0.0230 -0.1377 -0.1338
   24GLOH   H02 8506  -0.048   9.069   0.313 -0.8792 -1.5354 -1.3717
   24GLOH   H08 8507   0.026   8.929   0.389 -1.9979  0.1788 -0.2354
   24GLOH    C2 8508   0.050   8.946   0.176  0.2681 -0.9107 -0.1218
   24GLOH   H04 8509   0.149   8.899   0.175  0.1599 -1.1360 -0.2389
   24GLOH    O2 8510  -0.061   8.860   0.172  0.4011  0.2891  0.0959
   24GLOH   H05 8511  -0.072   8.825   0.082 -0.4535  1.2206 -0.1631
   24GLOH    C3 8512   0.042   9.047   0.057  0.1699 -0.3052 -0.8338
   24GLOH   H06 8513  -0.045   9.112   0.058  1.3991  1.3858  1.5905
   24GLOH   H07 8514   0.036   8.995  -0.039 -2.2195 -0.4814 -0.6186
   24GLOH    O3 8515   0.155   9.143   0.062  0.9204 -0.3319 -0.3686
   24GLOH   H01 8516   0.157   9.192   0.146 -0.7423  0.1415 -0.5869
   25GLOH   H03 8517   3.669   8.429   1.290  0.0118  0.2799  0.3944
   25GLOH    O1 8518   3.731   8.366   1.332  0.1490  0.1443 -0.0083
   25GLOH    C1 8519   3.850   8.443   1.372  0.2348  0.3618  0.1083
   25GLOH   H02 8520   3.900   8.464   1.278 -0.8321  1.9332 -0.1336
   25GLOH   H08 8521   3.909   8.377   1.436  0.5771 -0.7130 -1.2923
   25GLOH    C2 8522   3.826   8.573   1.452  0.1515  0.0979  0.0312
   25GLOH   H04 8523   3.776   8.531   1.540  0.0540 -1.4939 -0.7655
   25GLOH    O2 8524   3.956   8.632   1.496  0.4082  0.8188  0.2116
   25GLOH   H05 8525   4.025   8.620   1.428  0.9013  0.2160  0.8090
   25GLOH    C3 8526   3.743   8.679   1.378  0.0035 -0.4832 -1.2870
   25GLOH   H06 8527   3.776   8.779   1.404  0.6791 -0.1921 -3.1448
   25GLOH   H07 8528   3.640   8.665   1.412  0.1227  1.7871  0.0469
   25GLOH    O3 8529   3.757   8.668   1.236  0.1447  0.2057  0.4177
   25GLOH   H01 8530   3.824   8.729   1.200  1.8153 -1.2131  1.0580
   26GLOH   H03 8531   9.572   5.408   0.073 -0.2314  0.6440  1.4347
   26GLOH    O1 8532   9.618   5.464   0.008  0.0485 -1.0962  0.1100
   26GLOH    C1 8533   9.559   5.598   0.010  0.0642 -0.0146 -0.3179
   26GLOH   H02 8534   9.484   5.609   0.088 -2.0539 -0.4216 -2.2587
   26GLOH   H08 8535   9.517   5.617  -0.089 -1.8672 -0.3505  0.4302
   26GLOH    C2 8536   9.675   5.699   0.031  0.2125  0.1858 -0.0797
   26GLOH   H04 8537   9.743   5.642   0.095 -1.8121 -2.4036 -0.1210
   26GLOH    O2 8538   9.733   5.740  -0.093  0.1042  0.4375  0.2884
   26GLOH   H05 8539   9.669   5.788  -0.148 -0.3378  0.6365  0.9789
   26GLOH    C3 8540   9.646   5.826   0.110  0.0936  0.4406  0.0532
   26GLOH   H06 8541   9.557   5.864   0.060 -1.0606 -1.7418  0.3653
   26GLOH   H07 8542   9.725   5.900   0.101  0.5695  0.1016  1.2407
   26GLOH    O3 8543   9.623   5.789   0.246 -0.2408 -0.2156 -0.6385
   26GLOH   H01 8544   9.700   5.736   0.275 -1.5032 -1.2784  0.8138
   27GLOH   H03 8545   0.933   6.729   2.248 -2.0935  2.4602  3.2666
   27GLOH    O1 8546   0.852   6.740   2.195 -0.7868 -0.1738  0.5676
   27GLOH    C1 8547   0.750   6.734   2.293 -0.4549 -0.6907 -0.0005
   27GLOH   H02 8548   0.769   6.815   2.364 -0.1265 -0.7026 -0.0749
   27GLOH   H08 8549   0.751   6.637   2.341 -1.1543 -0.8279 -0.2577
   27GLOH    C2 8550   0.617   6.762   2.225 -0.3100 -0.4949 -0.4475
   27GLOH   H04 8551   0.607   6.689   2.143 -2.6971 -1.4480  0.6634
   27GLOH    O2 8552   0.510   6.749   2.316  0.1412 -0.0469 -0.1094
   27GLOH   H05 8553   0.507   6.833   2.366 -2.6550  1.2390 -2.2641
   27GLOH    C3 8554   0.604   6.901   2.155  0.2958  0.5104 -0.2200
   27GLOH   H06 8555   0.601   6.975   2.234  1.2210  1.0117 -0.6589
   27GLOH   H07 8556   0.503   6.903   2.114  0.2176  0.8341 -0.0120
   27GLOH    O3 8557   0.700   6.925   2.063 -0.2423 -0.4015 -0.5785
   27GLOH   H01 8558   0.770   6.859   2.075  0.8189  0.7295 -0.4339
   28GLOH   H03 8559   9.679   4.762   1.725 -1.2278  0.5261 -1.0044
   28GLOH    O1 8560   9.635   4.676   1.738 -0.4350  0.2094 -0.4045
   28GLOH    C1 8561   9.495   4.714   1.725  0.2398  0.0592  0.2622
   28GLOH   H02 8562   9.479   4.761   1.627  0.1523  0.4930  0.4844
   28GLOH   H08 8563   9.460   4.779   1.805  0.5768  0.1872  0.3032
   28GLOH    C2 8564   9.397   4.596   1.727  0.1110 -0.1973 -0.9313
   28GLOH   H04 8565   9.406   4.529   1.814 -0.7943  0.4105 -0.3641
   28GLOH    O2 8566   9.269   4.658   1.742 -0.0480  0.1077 -0.3500
   28GLOH   H05 8567   9.192   4.598   1.744 -0.5822  0.8023  0.2428
   28GLOH    C3 8568   9.403   4.512   1.603 -0.4449 -0.5878 -0.6048
   28GLOH   H06 8569   9.506   4.503   1.571 -1.2574 -1.4812 -3.0681
   28GLOH   H07 8570   9.348   4.558   1.522  1.1434  2.6284  0.0846
   28GLOH    O3 8571   9.337   4.387   1.635  0.8075  0.1250  0.2111
   28GLOH   H01 8572   9.247   4.378   1.599  0.5442  2.0457  0.3463
   29GLOH   H03 8573   3.691   3.666   1.938  0.0218  0.1760 -0.4253
   29GLOH    O1 8574   3.651   3.682   1.851 -0.4318  0.6232 -0.1389
   29GLOH    C1 8575   3.625   3.550   1.793  0.3801  0.1938 -0.0756
   29GLOH   H02 8576   3.618   3.474   1.870  0.7382 -1.0722 -1.2747
   29GLOH   H08 8577   3.707   3.519   1.729  0.7750 -0.4507  0.7368
   29GLOH    C2 8578   3.500   3.540   1.703 -0.3344  0.2770 -0.0472
   29GLOH   H04 8579   3.510   3.582   1.601  1.8275 -1.2147 -0.4857
   29GLOH    O2 8580   3.467   3.397   1.674 -0.3731 -0.6755  0.1077
   29GLOH   H05 8581   3.541   3.353   1.628  1.1115  2.0997 -0.2850
   29GLOH    C3 8582   3.379   3.602   1.785 -0.3513  0.6666  0.4441
   29GLOH   H06 8583   3.357   3.543   1.874 -0.8208 -0.4003 -0.3680
   29GLOH   H07 8584   3.287   3.600   1.727 -0.9153  0.9416  1.3241
   29GLOH    O3 8585   3.415   3.731   1.826 -0.2911 -0.1420  0.2592
   29GLOH   H01 8586   3.512   3.734   1.836 -0.3605 -0.7778  1.1284
   30GLOH   H03 8587   2.227   7.316   0.061 -3.1534 -0.9871 -2.6263
   30GLOH    O1 8588   2.254   7.392   0.006 -0.3739 -0.3482 -0.4528
   30GLOH    C1 8589   2.288   7.348  -0.129 -0.0305 -0.1801 -0.4366
   30GLOH   H02 8590   2.228   7.401  -0.203 -1.1054 -2.8436 -1.5650
   30GLOH   H08 8591   2.270   7.241  -0.146  4.4332 -1.0263 -0.5048
   30GLOH    C2 8592   2.434   7.372  -0.167  0.3422 -0.3054  0.4750
   30GLOH   H04 8593   2.491   7.301  -0.107  2.2257  0.6855 -0.0951
   30GLOH    O2 8594   2.439   7.344  -0.312 -0.1372 -0.4739  0.1300
   30GLOH   H05 8595   2.522   7.382  -0.342 -0.5003 -0.1973 -0.5238
   30GLOH    C3 8596   2.478   7.516  -0.133  0.2108 -0.4988  0.2038
   30GLOH   H06 8597   2.587   7.513  -0.134  0.2060 -1.6681  1.6133
   30GLOH   H07 8598   2.453   7.535  -0.029  2.4031 -1.8505  1.0137
   30GLOH    O3 8599   2.421   7.614  -0.229  0.3671 -0.2825 -0.2661
   30GLOH   H01 8600   2.465   7.600  -0.315  1.0972 -0.8399  0.1948
   31GLOH   H03 8601   0.999   3.877   1.012  3.0283 -1.0552  0.5780
   31GLOH    O1 8602   0.972   3.906   1.101  0.4539 -0.3651 -0.3985
   31GLOH    C1 8603   0.833   3.908   1.119  0.2879 -0.2110 -0.3393
   31GLOH   H02 8604   0.809   3.909   1.225  1.6884  1.6342 -0.0187
   31GLOH   H08 8605   0.788   3.820   1.072  0.6600  0.2063 -1.5045
   31GLOH    C2 8606   0.754   4.022   1.049 -0.3215 -0.9757 -0.3956
   31GLOH   H04 8607   0.769   4.024   0.940 -0.3440  0.4921 -0.3783
   31GLOH    O2 8608   0.612   4.016   1.072 -0.9541 -0.4499  0.7271
   31GLOH   H05 8609   0.600   4.016   1.169  3.1452  0.3668  1.3336
   31GLOH    C3 8610   0.811   4.164   1.093  0.3226 -0.2434 -0.0924
   31GLOH   H06 8611   0.811   4.164   1.202  0.2909  2.4246 -0.0655
   31GLOH   H07 8612   0.732   4.238   1.078 -0.1613 -0.7016  0.1828
   31GLOH    O3 8613   0.934   4.200   1.030  0.6706  0.1343  0.3531
   31GLOH   H01 8614   0.942   4.143   0.951  1.5344  0.3373  0.2858
   32GLOH   H03 8615   0.244   2.777   1.985 -0.2812  0.4557 -0.4236
   32GLOH    O1 8616   0.200   2.690   1.993  1.5658 -0.4547 -0.1067
   32GLOH    C1 8617   0.066   2.727   2.018  0.0589 -0.7658 -0.0520
   32GLOH   H02 8618   0.041   2.787   1.931  1.4281  0.2981  0.2671
   32GLOH   H08 8619   0.066   2.802   2.098 -0.4370  0.7519 -1.4454
   32GLOH    C2 8620  -0.046   2.620   2.035 -0.1243 -0.0285 -0.0699
   32GLOH   H04 8621  -0.033   2.560   2.126 -0.7001  3.8390  2.6646
   32GLOH    O2 8622  -0.176   2.687   2.036  0.6336  0.2428 -0.6953
   32GLOH   H05 8623  -0.192   2.737   1.954  0.7242 -1.2952 -1.6720
   32GLOH    C3 8624  -0.044   2.524   1.906 -0.4752  0.0562  1.0868
   32GLOH   H06 8625  -0.073   2.589   1.823 -1.3558  0.7585  1.9441
   32GLOH   H07 8626  -0.118   2.444   1.916 -3.6347  2.9862  2.0408
   32GLOH    O3 8627   0.087   2.470   1.879 -0.2711 -0.0674 -0.1817
   32GLOH   H01 8628   0.152   2.538   1.905  0.2768 -1.4146  2.1084
   33GLOH   H03 8629   1.492   9.508   1.878  0.2082 -4.0472  0.8950
   33GLOH    O1 8630   1.552   9.504   1.801 -0.2327  0.3277  0.2080
   33GLOH    C1 8631   1.536   9.626   1.727 -0.1815  0.2829  1.3065
   33GLOH   H02 8632   1.629   9.683   1.716 -1.3639  2.0825  0.3174
   33GLOH   H08 8633   1.463   9.688   1.779 -1.0546  0.4847 -0.1134
   33GLOH    C2 8634   1.491   9.608   1.580 -0.3314 -0.6831 -0.8061
   33GLOH   H04 8635   1.387   9.573   1.569 -0.8843  0.8192 -0.5095
   33GLOH    O2 8636   1.512   9.731   1.502 -0.2261  0.0433 -0.2185
   33GLOH   H05 8637   1.608   9.738   1.484 -0.4693  1.2885 -1.1669
   33GLOH    C3 8638   1.584   9.497   1.518  0.1958 -0.1123  0.4291
   33GLOH   H06 8639   1.684   9.538   1.524  0.3413 -0.2710 -0.8530
   33GLOH   H07 8640   1.565   9.485   1.412 -1.4064  2.6451  0.3613
   33GLOH    O3 8641   1.596   9.368   1.585 -0.2807 -0.0219  0.1107
   33GLOH   H01 8642   1.585   9.387   1.680 -0.5904 -0.3710  0.1446
   34GLOH   H03 8643   4.136   0.154   1.507 -0.6379 -0.0594  1.8702
   34GLOH    O1 8644   4.046   0.116   1.502 -0.6787  0.2111  0.4266
   34GLOH    C1 8645   4.039   0.015   1.608  0.1715  0.1990  0.3818
   34GLOH   H02 8646   4.082  -0.079   1.576  1.6104  0.5328  1.2790
   34GLOH   H08 8647   3.940  -0.025   1.632  0.5205  0.9744  3.2640
   34GLOH    C2 8648   4.086   0.063   1.744 -0.1220  0.0096  0.3126
   34GLOH   H04 8649   4.082  -0.028   1.806  1.4342 -0.2556  0.0628
   34GLOH    O2 8650   4.226   0.103   1.747  0.1846 -0.1020 -0.9671
   34GLOH   H05 8651   4.231   0.179   1.807  0.3075 -0.3589 -0.6521
   34GLOH    C3 8652   3.990   0.171   1.797 -0.1111 -0.6399  0.2022
   34GLOH   H06 8653   4.030   0.264   1.756  2.7924 -2.2356 -0.7330
   34GLOH   H07 8654   4.010   0.162   1.904  1.2937  0.0227  0.0140
   34GLOH    O3 8655   3.854   0.149   1.782  0.9717  0.1560  0.3144
   34GLOH   H01 8656   3.834   0.217   1.716  1.0752  0.0119  0.1359
   35GLOH   H03 8657   9.337   2.302   2.160 -3.5546  2.1514  1.1743
   35GLOH    O1 8658   9.387   2.334   2.238  0.2000  0.2582 -0.3751
   35GLOH    C1 8659   9.394   2.236   2.345  0.4873 -0.5602 -0.1582
   35GLOH   H02 8660   9.459   2.157   2.307 -0.7207 -1.4479 -0.4408
   35GLOH   H08 8661   9.300   2.190   2.375 -0.7210  0.5723 -2.0733
   35GLOH    C2 8662   9.475   2.284   2.464 -0.1110 -0.1858 -0.2822
   35GLOH   H04 8663   9.424   2.367   2.516 -0.5151 -1.6615  1.7098
   35GLOH    O2 8664   9.495   2.174   2.558  0.4078  0.0183 -0.2797
   35GLOH   H05 8665   9.567   2.179   2.622 -0.1324  1.3354  0.2554
   35GLOH    C3 8666   9.613   2.341   2.420 -0.0624  0.3080  0.2533
   35GLOH   H06 8667   9.675   2.352   2.509 -0.0782  1.5814  0.1104
   35GLOH   H07 8668   9.599   2.438   2.373  0.3721  0.7022  0.9409
   35GLOH    O3 8669   9.681   2.255   2.328  0.0075  1.0928  0.2173
   35GLOH   H01 8670   9.693   2.295   2.240  0.8770  1.4449  0.4996
   36GLOH   H03 8671   0.707   0.866   1.356  0.5341  0.3825 -0.3107
   36GLOH    O1 8672   0.655   0.942   1.323 -0.0285 -0.0964 -0.5344
   36GLOH    C1 8673   0.522   0.903   1.357  0.2173 -0.4133 -0.1250
   36GLOH   H02 8674   0.462   0.984   1.398 -0.0224 -1.0010  0.6951
   36GLOH   H08 8675   0.521   0.831   1.439  0.3945  0.3630  0.5705
   36GLOH    C2 8676   0.449   0.856   1.230 -0.1991  0.3317  0.0832
   36GLOH   H04 8677   0.455   0.933   1.152  0.1023  1.5609  1.3046
   36GLOH    O2 8678   0.512   0.737   1.185  0.8917  0.7722  0.2398
   36GLOH   H05 8679   0.582   0.719   1.250  0.7890  0.7070  0.3315
   36GLOH    C3 8680   0.300   0.835   1.258  0.5527 -0.2141  0.5000
   36GLOH   H06 8681   0.296   0.766   1.342  3.0681  1.8689  2.3683
   36GLOH   H07 8682   0.249   0.777   1.180  1.4339 -1.2311  0.6809
   36GLOH    O3 8683   0.224   0.959   1.288 -0.2798 -0.0460  0.2560
   36GLOH   H01 8684   0.158   0.929   1.353 -0.8576 -0.4330 -0.4952
   37GLOH   H03 8685   9.327   4.851   2.537  0.5749 -0.3296 -0.0431
   37GLOH    O1 8686   9.232   4.863   2.520  0.3876 -0.8473  0.5880
   37GLOH    C1 8687   9.158   4.845   2.636 -0.1271  0.4199  0.3053
   37GLOH   H02 8688   9.133   4.939   2.684  0.7845  1.1314 -0.6119
   37GLOH   H08 8689   9.195   4.770   2.707 -0.9394  1.5720  1.9789
   37GLOH    C2 8690   9.017   4.801   2.592 -0.4682 -0.0425  0.2818
   37GLOH   H04 8691   9.029   4.701   2.548  3.2332  0.5829 -0.3584
   37GLOH    O2 8692   8.929   4.806   2.701  0.3341  0.1790 -0.7324
   37GLOH   H05 8693   8.922   4.895   2.739  2.6280  0.9943 -2.1413
   37GLOH    C3 8694   8.957   4.888   2.482 -0.2343 -0.4258  0.1963
   37GLOH   H06 8695   8.850   4.873   2.470 -0.6368  2.6899 -0.5587
   37GLOH   H07 8696   9.011   4.858   2.392  3.8982  0.6809  2.1734
   37GLOH    O3 8697   8.966   5.028   2.507 -0.3282  0.5926 -0.5325
   37GLOH   H01 8698   8.935   5.078   2.429 -4.1650  1.9208  1.6921
   38GLOH   H03 8699   8.533   4.647   2.467 -1.1468  0.1237  0.1405
   38GLOH    O1 8700   8.502   4.727   2.419 -0.1199  0.4175 -0.0492
   38GLOH    C1 8701   8.540   4.723   2.279  0.0615 -0.0170  0.3728
   38GLOH   H02 8702   8.484   4.648   2.222  0.1912  0.8988 -0.9812
   38GLOH   H08 8703   8.644   4.693   2.270  0.1964  0.3251  0.8088
   38GLOH    C2 8704   8.519   4.857   2.209  0.3599  0.6417  0.1120
   38GLOH   H04 8705   8.572   4.940   2.257 -0.8443  2.1174 -1.0377
   38GLOH    O2 8706   8.567   4.852   2.074 -0.3879  0.0634  0.0252
   38GLOH   H05 8707   8.586   4.944   2.049  0.7665  0.2914  1.6582
   38GLOH    C3 8708   8.371   4.894   2.227  0.4010 -0.3500 -0.5043
   38GLOH   H06 8709   8.301   4.813   2.205 -1.9860  1.8129 -1.1330
   38GLOH   H07 8710   8.352   4.981   2.165 -2.0255 -0.5349 -0.0929
   38GLOH    O3 8711   8.341   4.925   2.362 -0.1598  0.0856  0.0422
   38GLOH   H01 8712   8.384   4.861   2.423 -0.9079 -2.4654 -1.9896
   39GLOH   H03 8713   0.259   4.527   0.855 -1.2740 -1.4965 -1.4928
   39GLOH    O1 8714   0.210   4.601   0.817  0.0484  0.1888 -0.0256
   39GLOH    C1 8715   0.253   4.738   0.861 -0.3659 -0.0126  0.2356
   39GLOH   H02 8716   0.330   4.780   0.797 -0.8180  0.2060 -0.1697
   39GLOH   H08 8717   0.299   4.734   0.960 -0.6243 -3.2856  0.2760
   39GLOH    C2 8718   0.144   4.841   0.865 -0.2756  0.4059 -0.1963
   39GLOH   H04 8719   0.062   4.779   0.905  0.6348 -0.0800  0.9697
   39GLOH    O2 8720   0.175   4.948   0.958  0.1506 -0.0455 -0.2708
   39GLOH   H05 8721   0.112   4.942   1.031 -0.3741  2.3306 -0.4892
   39GLOH    C3 8722   0.115   4.886   0.719 -0.8922  0.2229 -0.5881
   39GLOH   H06 8723   0.078   4.800   0.663  0.8306 -0.2240 -1.0705
   39GLOH   H07 8724   0.205   4.910   0.662 -1.4661  1.0898 -1.1515
   39GLOH    O3 8725   0.022   4.997   0.722 -0.2666 -0.0742 -0.1422
   39GLOH   H01 8726  -0.041   4.990   0.795 -1.5548 -0.7113 -1.2907
   40GLOH   H03 8727   3.877   0.726   0.481  0.8810  0.8862 -1.3765
   40GLOH    O1 8728   3.882   0.804   0.539 -0.3534  0.3140 -0.4849
   40GLOH    C1 8729   3.924   0.748   0.666  0.0895  0.1452  0.2578
   40GLOH   H02 8730   3.981   0.821   0.723 -1.8163  1.8845  0.0002
   40GLOH   H08 8731   3.988   0.661   0.651 -0.3227 -0.4715  1.9868
   40GLOH    C2 8732   3.811   0.714   0.763  0.8708  0.4411  0.1024
   40GLOH   H04 8733   3.779   0.807   0.813 -0.9135 -1.6990  3.1421
   40GLOH    O2 8734   3.700   0.648   0.704  0.1291 -0.2111 -1.2547
   40GLOH   H05 8735   3.671   0.696   0.624 -0.2191 -1.4987 -1.9141
   40GLOH    C3 8736   3.867   0.631   0.880  0.6964 -0.0438  0.6203
   40GLOH   H06 8737   3.877   0.528   0.845  1.4171  0.0471  0.5479
   40GLOH   H07 8738   3.793   0.634   0.960  0.2820  1.2407  0.2056
   40GLOH    O3 8739   3.994   0.667   0.938  0.6271  0.0679  0.4121
   40GLOH   H01 8740   3.992   0.763   0.955 -1.6472  0.0172  0.5126
   41GLOH   H03 8741   1.734   8.510   1.136 -1.1121  0.2862 -0.5203
   41GLOH    O1 8742   1.779   8.540   1.055 -0.2341 -0.0860 -0.1795
   41GLOH    C1 8743   1.921   8.506   1.059 -0.4437 -0.2033 -0.0092
   41GLOH   H02 8744   1.939   8.414   1.114 -0.2049 -0.2212 -0.1181
   41GLOH   H08 8745   1.970   8.575   1.128  3.8443 -2.6145 -0.4855
   41GLOH    C2 8746   1.992   8.518   0.923 -0.1977 -0.3625 -0.0913
   41GLOH   H04 8747   1.982   8.619   0.881 -3.6208 -0.3477  0.6372
   41GLOH    O2 8748   2.129   8.484   0.925  0.5781  0.2474  0.0687
   41GLOH   H05 8749   2.140   8.394   0.892 -1.2983 -0.0995  0.3108
   41GLOH    C3 8750   1.932   8.426   0.819  0.2674 -0.7721  0.0279
   41GLOH   H06 8751   1.989   8.447   0.729  0.3509  1.0115  0.4849
   41GLOH   H07 8752   1.832   8.467   0.802  1.2787  1.7842  0.0715
   41GLOH    O3 8753   1.913   8.293   0.850  0.0956  0.5489 -0.2778
   41GLOH   H01 8754   1.872   8.284   0.938  2.7901  0.7601  1.0779
   42GLOH   H03 8755   2.698   3.661   1.177  1.5104  0.7254  2.3809
   42GLOH    O1 8756   2.655   3.748   1.170 -0.3139 -0.2694  0.4170
   42GLOH    C1 8757   2.761   3.851   1.194 -0.5030 -0.1549  0.3417
   42GLOH   H02 8758   2.842   3.846   1.122  1.4822  1.0623  2.4248
   42GLOH   H08 8759   2.808   3.844   1.292  1.0552  1.5285 -0.2586
   42GLOH    C2 8760   2.703   3.999   1.180  0.6209 -0.4554  0.2087
   42GLOH   H04 8761   2.623   4.010   1.255  1.6104  0.6511  1.1277
   42GLOH    O2 8762   2.810   4.094   1.212 -0.1271  0.2215  0.0520
   42GLOH   H05 8763   2.859   4.057   1.287  0.3675  0.1041 -0.3296
   42GLOH    C3 8764   2.631   4.016   1.049  0.8627  0.3235  0.2970
   42GLOH   H06 8765   2.703   4.011   0.968 -0.5545  0.1842 -0.9892
   42GLOH   H07 8766   2.589   4.117   1.046 -1.3723 -0.5856  0.1501
   42GLOH    O3 8767   2.535   3.913   1.015 -0.0392 -0.2701  0.1693
   42GLOH   H01 8768   2.566   3.828   1.051 -2.1965 -0.2151  2.3172
   43GLOH   H03 8769   1.946   6.213   1.867 -1.4900  2.4569 -1.1740
   43GLOH    O1 8770   2.019   6.265   1.830  0.0169  0.6909 -0.7709
   43GLOH    C1 8771   2.037   6.382   1.920  0.1417 -0.1791  0.2296
   43GLOH   H02 8772   2.144   6.396   1.936  0.2864  1.0016 -1.6314
   43GLOH   H08 8773   1.974   6.378   2.008  0.0243  0.7710  0.1979
   43GLOH    C2 8774   2.002   6.522   1.854  0.1525  0.2904 -0.2584
   43GLOH   H04 8775   1.915   6.521   1.787  0.9288 -1.0516 -1.2644
   43GLOH    O2 8776   1.963   6.606   1.963 -0.6230 -0.2691  0.1250
   43GLOH   H05 8777   1.966   6.700   1.937  1.3676 -0.6622 -1.1329
   43GLOH    C3 8778   2.123   6.587   1.781  0.2485 -0.5014 -0.6567
   43GLOH   H06 8779   2.208   6.562   1.844 -0.0952 -0.7926 -0.3120
   43GLOH   H07 8780   2.119   6.696   1.784 -0.6942 -0.5603  0.3128
   43GLOH    O3 8781   2.166   6.534   1.652  0.3212 -0.1473  0.0846
   43GLOH   H01 8782   2.095   6.555   1.588 -1.5220 -1.8478  1.5035
   44GLOH   H03 8783   4.420   4.823   2.815 -3.3304 -0.2950  0.3585
   44GLOH    O1 8784   4.412   4.911   2.773  0.1039  0.0075  0.2437
   44GLOH    C1 8785   4.457   4.905   2.635 -0.1877 -0.1258 -0.2962
   44GLOH   H02 8786   4.565   4.891   2.636 -0.0069  1.2223  0.0337
   44GLOH   H08 8787   4.449   5.004   2.589  1.0219  0.9847  1.7760
   44GLOH    C2 8788   4.391   4.798   2.546 -0.4485 -0.2163 -0.0900
   44GLOH   H04 8789   4.424   4.814   2.442  0.6130 -0.1104  0.2527
   44GLOH    O2 8790   4.432   4.665   2.583  0.1121 -0.0312 -0.2500
   44GLOH   H05 8791   4.411   4.595   2.519  0.1426 -1.4656  1.2733
   44GLOH    C3 8792   4.243   4.812   2.554 -0.1292 -0.3146  0.3579
   44GLOH   H06 8793   4.210   4.766   2.647  1.2425  0.8026  1.4029
   44GLOH   H07 8794   4.207   4.739   2.481 -2.0194  0.2591  0.6908
   44GLOH    O3 8795   4.191   4.943   2.548 -0.4911 -0.1511  0.0575
   44GLOH   H01 8796   4.186   4.988   2.634 -2.0164 -0.3662  0.1010
   45GLOH   H03 8797   3.833   4.504   2.799 -1.6800  1.2520  1.2090
   45GLOH    O1 8798   3.848   4.433   2.864 -0.5823  0.5131  0.1716
   45GLOH    C1 8799   3.983   4.391   2.885 -0.3687  0.2543  0.0287
   45GLOH   H02 8800   4.022   4.355   2.790 -1.3811  2.1512 -1.1477
   45GLOH   H08 8801   3.966   4.303   2.946  1.1339 -0.4769 -0.5902
   45GLOH    C2 8802   4.083   4.495   2.940  0.0948  0.4557  0.3673
   45GLOH   H04 8803   4.035   4.565   3.010  0.0403 -1.7820  2.6337
   45GLOH    O2 8804   4.185   4.417   3.002 -0.5290 -0.7663  0.4393
   45GLOH   H05 8805   4.174   4.415   3.099  0.6409 -0.2958  0.5780
   45GLOH    C3 8806   4.141   4.578   2.822 -0.0075  0.2250 -0.0596
   45GLOH   H06 8807   4.214   4.525   2.761 -2.3002  0.3235 -3.0211
   45GLOH   H07 8808   4.198   4.658   2.868 -0.6262 -0.8436  2.6520
   45GLOH    O3 8809   4.038   4.626   2.734 -0.4930 -0.2157 -0.3731
   45GLOH   H01 8810   3.992   4.702   2.773  4.0132  1.8058  1.3154
   46GLOH   H03 8811   2.949   9.091   1.886  0.0937 -0.0815  1.9124
   46GLOH    O1 8812   3.044   9.114   1.876 -0.0868 -0.0655  0.0581
   46GLOH    C1 8813   3.117   9.076   1.995 -0.0744 -0.9416 -0.8441
   46GLOH   H02 8814   3.214   9.035   1.967  0.1355 -1.5051  0.6656
   46GLOH   H08 8815   3.064   8.997   2.049  0.3508  1.0781  2.6949
   46GLOH    C2 8816   3.141   9.194   2.098  0.0398 -0.6983 -0.2898
   46GLOH   H04 8817   3.039   9.213   2.133  1.3064  0.9074  2.7296
   46GLOH    O2 8818   3.220   9.159   2.214 -0.1988  0.4098 -0.4670
   46GLOH   H05 8819   3.315   9.161   2.195  0.1223  4.3980  1.0038
   46GLOH    C3 8820   3.205   9.320   2.031 -1.1049  0.7099 -0.0501
   46GLOH   H06 8821   3.311   9.298   2.025 -2.0036 -3.4834 -2.7690
   46GLOH   H07 8822   3.210   9.403   2.101 -0.9697 -0.2813  1.1494
   46GLOH    O3 8823   3.145   9.359   1.899  0.3220  0.1983 -0.0366
   46GLOH   H01 8824   3.080   9.288   1.884  3.0181 -1.8236 -2.7619
   47GLOH   H03 8825   1.958   7.836   0.049  2.1656  0.3593 -0.8964
   47GLOH    O1 8826   1.956   7.743   0.020  0.5962  0.1649 -0.2221
   47GLOH    C1 8827   2.096   7.703   0.016  0.2712 -1.1056 -0.3527
   47GLOH   H02 8828   2.174   7.768  -0.025  0.7100  0.0248  2.1476
   47GLOH   H08 8829   2.094   7.611  -0.042 -1.7639 -1.5723  0.4196
   47GLOH    C2 8830   2.149   7.669   0.154  0.0196 -0.2771  0.5102
   47GLOH   H04 8831   2.084   7.591   0.197  1.6660 -0.6646  2.3400
   47GLOH    O2 8832   2.286   7.618   0.154 -0.5768 -0.4954  0.4217
   47GLOH   H05 8833   2.293   7.528   0.117  2.3815 -0.2395  0.1998
   47GLOH    C3 8834   2.142   7.789   0.251  0.1815 -0.0500  0.1435
   47GLOH   H06 8835   2.185   7.875   0.200  0.6141 -2.0641 -3.0154
   47GLOH   H07 8836   2.202   7.766   0.338  0.9402  0.7871 -0.1476
   47GLOH    O3 8837   2.008   7.822   0.292 -0.0417 -0.0715 -0.2120
   47GLOH   H01 8838   2.016   7.911   0.329  2.0392 -0.4287  0.2503
   48GLOH   H03 8839   2.761   6.610   1.701 -2.9866 -2.1900 -2.2627
   48GLOH    O1 8840   2.760   6.693   1.648 -0.2894 -0.2581  0.5035
   48GLOH    C1 8841   2.832   6.667   1.524 -0.1143 -0.0351 -0.4393
   48GLOH   H02 8842   2.886   6.572   1.530  0.8287  0.7030  4.1894
   48GLOH   H08 8843   2.910   6.741   1.504  0.6131 -1.2934 -2.5321
   48GLOH    C2 8844   2.738   6.657   1.405 -0.4520 -0.8271 -0.3873
   48GLOH   H04 8845   2.708   6.761   1.389 -1.4207 -1.3399 -2.0126
   48GLOH    O2 8846   2.811   6.616   1.282  0.5807 -0.3758  0.5788
   48GLOH   H05 8847   2.866   6.538   1.298 -0.4331 -0.8410  1.9900
   48GLOH    C3 8848   2.614   6.566   1.433 -0.5724 -0.6420  0.5877
   48GLOH   H06 8849   2.549   6.604   1.512 -1.4029  2.4899 -1.4865
   48GLOH   H07 8850   2.654   6.473   1.471  1.7624  0.2096  0.3120
   48GLOH    O3 8851   2.531   6.558   1.316  0.0313  0.5015 -0.2100
   48GLOH   H01 8852   2.451   6.515   1.353  0.9358  0.0967  1.3101
   49GLOH   H03 8853   2.464   5.833   2.134  0.0100 -0.0278  0.6241
   49GLOH    O1 8854   2.405   5.901   2.169 -0.1087  0.0591  0.2643
   49GLOH    C1 8855   2.486   6.002   2.232 -0.3122  0.0362  0.1337
   49GLOH   H02 8856   2.423   6.064   2.296  1.0046  1.8981 -0.3409
   49GLOH   H08 8857   2.521   6.069   2.154  0.2190 -0.4812 -0.0719
   49GLOH    C2 8858   2.596   5.948   2.323 -0.0990  0.3879 -0.0722
   49GLOH   H04 8859   2.672   5.904   2.257 -1.5211 -3.0858  0.5216
   49GLOH    O2 8860   2.659   6.050   2.406  0.2343  0.7643  0.0279
   49GLOH   H05 8861   2.704   6.011   2.482 -0.1018  0.6572  0.1714
   49GLOH    C3 8862   2.543   5.828   2.413 -0.1732  0.1582  0.1875
   49GLOH   H06 8863   2.628   5.778   2.460  0.5064  1.9079  0.8685
   49GLOH   H07 8864   2.492   5.760   2.345  3.0691 -1.7556 -0.4244
   49GLOH    O3 8865   2.454   5.886   2.508  0.5748  0.3390 -0.4691
   49GLOH   H01 8866   2.499   5.912   2.590  0.1147 -0.7851  0.1634
   50GLOH   H03 8867   3.065   3.702   2.611  1.2566  0.6685 -1.4036
   50GLOH    O1 8868   2.979   3.748   2.609  0.6987 -0.2976 -0.1188
   50GLOH    C1 8869   2.877   3.637   2.599 -0.1575 -0.2732  0.2584
   50GLOH   H02 8870   2.791   3.661   2.661  0.0680 -1.3522  1.0062
   50GLOH   H08 8871   2.915   3.548   2.649 -1.3466 -0.3880  0.9663
   50GLOH    C2 8872   2.844   3.604   2.451  1.6336 -0.1386 -0.1375
   50GLOH   H04 8873   2.755   3.539   2.453  1.2530  0.3798  0.0697
   50GLOH    O2 8874   2.792   3.720   2.378  0.2457 -0.0729 -0.1554
   50GLOH   H05 8875   2.863   3.787   2.379  0.0818  0.0899  0.9096
   50GLOH    C3 8876   2.965   3.525   2.393  0.1490  0.2608 -0.3048
   50GLOH   H06 8877   3.054   3.588   2.399  0.7695 -0.7814  2.0086
   50GLOH   H07 8878   2.950   3.505   2.287 -2.5076  0.5449 -0.0198
   50GLOH    O3 8879   2.987   3.393   2.456 -0.0397  0.4369 -0.0583
   50GLOH   H01 8880   2.984   3.334   2.378  1.8471  2.3487 -1.6356
   51GLOH   H03 8881   9.112   4.919   0.014 -1.1597  0.2578  0.4470
   51GLOH    O1 8882   9.144   5.011   0.001 -0.6159  0.0510  0.2892
   51GLOH    C1 8883   9.026   5.100   0.013  0.0046  0.4952  0.0816
   51GLOH   H02 8884   9.057   5.180   0.080  2.2344  0.2481 -0.6028
   51GLOH   H08 8885   8.940   5.052   0.061 -1.1629  0.2633 -2.1948
   51GLOH    C2 8886   8.978   5.157  -0.115  0.1602  0.1191  0.0697
   51GLOH   H04 8887   9.057   5.190  -0.184 -1.0617 -1.1146 -1.9723
   51GLOH    O2 8888   8.907   5.051  -0.183  0.5118 -0.2664  0.1651
   51GLOH   H05 8889   8.912   5.061  -0.280 -0.6693 -0.5176  0.0727
   51GLOH    C3 8890   8.879   5.268  -0.081 -0.2797 -0.0253  0.7656
   51GLOH   H06 8891   8.794   5.228  -0.027 -1.2932 -1.5202 -1.8464
   51GLOH   H07 8892   8.858   5.300  -0.183  0.7180  0.5746  0.7430
   51GLOH    O3 8893   8.938   5.382  -0.016 -0.4102 -0.0527 -0.1954
   51GLOH   H01 8894   8.913   5.464  -0.062 -0.5824 -0.6839 -1.2441
   52GLOH   H03 8895   3.677   8.217   0.869 -0.9147 -3.1018  0.7001
   52GLOH    O1 8896   3.728   8.180   0.794  0.7420 -0.1398  0.2477
   52GLOH    C1 8897   3.799   8.282   0.728  0.3097  0.5038 -0.0231
   52GLOH   H02 8898   3.887   8.244   0.677  0.6478 -0.6859  1.4262
   52GLOH   H08 8899   3.844   8.352   0.799  1.1279 -1.4029  1.3642
   52GLOH    C2 8900   3.723   8.373   0.632  0.0798 -0.6931  0.2474
   52GLOH   H04 8901   3.657   8.430   0.699  0.3094 -0.8790  0.6338
   52GLOH    O2 8902   3.801   8.465   0.554 -0.5319 -0.2298  0.3782
   52GLOH   H05 8903   3.745   8.532   0.510  0.1212 -0.8775 -1.4922
   52GLOH    C3 8904   3.634   8.289   0.536 -0.6764 -0.6074  0.6060
   52GLOH   H06 8905   3.590   8.203   0.586 -0.2826  1.1348  4.0935
   52GLOH   H07 8906   3.690   8.258   0.448  1.1452  0.6189  1.3077
   52GLOH    O3 8907   3.521   8.366   0.495  0.0638  0.0098 -0.0566
   52GLOH   H01 8908   3.556   8.425   0.427 -1.2410  2.3609  1.2487
   53GLOH   H03 8909   8.293   4.757   0.394  0.4973  1.1417 -2.8211
   53GLOH    O1 8910   8.257   4.683   0.341 -0.2545 -0.4719 -0.1671
   53GLOH    C1 8911   8.316   4.675   0.216  0.1014  0.7964 -0.6872
   53GLOH   H02 8912   8.319   4.777   0.179  1.8353  1.5237  1.3569
   53GLOH   H08 8913   8.255   4.611   0.152  0.4559 -0.2936  0.0415
   53GLOH    C2 8914   8.461   4.618   0.222 -0.3675  0.2393  0.1531
   53GLOH   H04 8915   8.521   4.706   0.249  0.3637  0.5534 -2.4089
   53GLOH    O2 8916   8.481   4.509   0.316 -0.2559 -1.0589  0.4354
   53GLOH   H05 8917   8.477   4.546   0.406  0.5855  0.6277 -0.2014
   53GLOH    C3 8918   8.506   4.569   0.080 -1.0400 -0.2011 -0.7756
   53GLOH   H06 8919   8.422   4.544   0.015 -2.2455 -0.2179  0.7530
   53GLOH   H07 8920   8.560   4.475   0.091 -5.2505 -2.6076  0.8095
   53GLOH    O3 8921   8.588   4.670   0.013 -0.3573 -0.6364  0.0879
   53GLOH   H01 8922   8.666   4.625  -0.023 -1.0365 -1.7002 -0.0748
   54GLOH   H03 8923   3.200   1.348   1.363  0.2043 -0.2144 -1.3308
   54GLOH    O1 8924   3.124   1.287   1.354 -0.3775  0.4152 -0.6833
   54GLOH    C1 8925   3.177   1.156   1.345 -0.8210 -0.6552  0.0432
   54GLOH   H02 8926   3.210   1.109   1.437 -0.8793 -1.1922 -0.2042
   54GLOH   H08 8927   3.271   1.166   1.290 -1.5435 -2.8586 -1.6859
   54GLOH    C2 8928   3.095   1.059   1.267 -1.2569 -0.3300  0.0604
   54GLOH   H04 8929   3.096   1.090   1.161  1.7516  1.2862  0.5133
   54GLOH    O2 8930   3.152   0.930   1.275 -0.3098  0.1603  0.1730
   54GLOH   H05 8931   3.113   0.883   1.200  0.3620  0.9007 -0.6459
   54GLOH    C3 8932   2.951   1.060   1.316 -0.4143 -0.1590  1.6259
   54GLOH   H06 8933   2.963   1.049   1.424  1.9608 -1.2500  1.2870
   54GLOH   H07 8934   2.895   0.977   1.274 -0.4335 -0.3606  2.0511
   54GLOH    O3 8935   2.896   1.189   1.283 -0.1046  0.1209  0.2845
   54GLOH   H01 8936   2.971   1.251   1.281 -1.2178  1.5242  0.8923
   55GLOH   H03 8937   4.016   9.371   2.323  0.2418  0.1685  1.9656
   55GLOH    O1 8938   3.959   9.448   2.341  0.0096  0.2520  0.9245
   55GLOH    C1 8939   3.818   9.413   2.353  0.2639  0.3625  0.1247
   55GLOH   H02 8940   3.770   9.510   2.367  2.4132  1.3265  1.0500
   55GLOH   H08 8941   3.791   9.358   2.443 -0.5737 -0.7867 -0.8061
   55GLOH    C2 8942   3.754   9.340   2.230  0.7925  0.7219 -0.5290
   55GLOH   H04 8943   3.771   9.233   2.248  2.6749  1.5763  3.5103
   55GLOH    O2 8944   3.611   9.351   2.240 -0.3970 -0.6912 -0.0324
   55GLOH   H05 8945   3.574   9.439   2.222 -2.3873 -1.4743  0.0999
   55GLOH    C3 8946   3.816   9.375   2.094 -0.0186  0.6143  0.2520
   55GLOH   H06 8947   3.837   9.482   2.102 -0.0333  0.5296  1.5137
   55GLOH   H07 8948   3.740   9.364   2.017 -1.8696  0.7810  2.0033
   55GLOH    O3 8949   3.935   9.301   2.058  0.3612 -0.2046 -0.3832
   55GLOH   H01 8950   3.930   9.303   1.961 -2.4792  1.2613 -0.2532
   56GLOH   H03 8951   7.920   4.348   0.889  0.1055 -0.0429  0.7162
   56GLOH    O1 8952   7.920   4.280   0.819 -0.1212 -0.0855  0.7571
   56GLOH    C1 8953   7.997   4.329   0.710 -0.1878  0.2888 -0.5122
   56GLOH   H02 8954   8.086   4.376   0.752 -1.9506  1.9689  1.4991
   56GLOH   H08 8955   7.947   4.412   0.660 -0.9102  1.3134  1.8051
   56GLOH    C2 8956   8.034   4.217   0.609 -0.1403 -0.1074  0.5075
   56GLOH   H04 8957   7.944   4.177   0.561  0.5064 -0.1813 -0.6531
   56GLOH    O2 8958   8.123   4.273   0.517  0.5750  0.1119 -1.0165
   56GLOH   H05 8959   8.171   4.202   0.471 -1.8785 -2.4206  0.2124
   56GLOH    C3 8960   8.090   4.095   0.691 -0.1471  0.1635  0.2416
   56GLOH   H06 8961   8.183   4.127   0.737 -0.9372  2.2048  0.4643
   56GLOH   H07 8962   8.120   4.011   0.627 -1.0200 -1.0392  1.3950
   56GLOH    O3 8963   8.004   4.047   0.791 -0.9329  0.0746  0.3916
   56GLOH   H01 8964   7.959   4.128   0.823 -0.3088 -0.4939  2.7895
   57GLOH   H03 8965   8.963   4.517   0.302  0.5039 -0.0065  0.6011
   57GLOH    O1 8966   8.936   4.435   0.256  0.1952  0.4741 -0.0959
   57GLOH    C1 8967   9.038   4.331   0.254 -0.3142  0.2741 -0.2763
   57GLOH   H02 8968   9.047   4.283   0.351 -0.7922 -0.3808 -0.5482
   57GLOH   H08 8969   9.133   4.381   0.234 -0.7653  0.0455 -3.2859
   57GLOH    C2 8970   9.002   4.210   0.166  0.0100 -0.3301 -0.4608
   57GLOH   H04 8971   8.998   4.241   0.060 -0.7895 -0.8041 -0.5787
   57GLOH    O2 8972   9.107   4.111   0.166  0.4184  0.0270 -0.6486
   57GLOH   H05 8973   9.084   4.037   0.108 -0.0949  1.3974 -2.2221
   57GLOH    C3 8974   8.871   4.148   0.212 -0.3351  0.7528  0.0478
   57GLOH   H06 8975   8.891   4.102   0.309 -3.9806  1.7783  1.3371
   57GLOH   H07 8976   8.862   4.064   0.143 -0.0733 -0.9993  2.1015
   57GLOH    O3 8977   8.759   4.234   0.213 -0.6955 -0.5872  0.1843
   57GLOH   H01 8978   8.798   4.322   0.228  2.0388 -1.7034 -0.1001
   58GLOH   H03 8979   8.614   5.052   0.551  0.2883 -0.0260  0.8296
   58GLOH    O1 8980   8.557   5.107   0.608 -0.1405 -0.0430  0.4234
   58GLOH    C1 8981   8.628   5.226   0.629  0.7540 -0.4871 -0.0416
   58GLOH   H02 8982   8.672   5.261   0.535 -0.3340  0.2812 -0.2714
   58GLOH   H08 8983   8.715   5.212   0.693 -1.0392 -3.3138  1.8284
   58GLOH    C2 8984   8.531   5.330   0.678 -0.4153  0.3635 -0.2320
   58GLOH   H04 8985   8.504   5.297   0.779  1.3271  0.4570  0.2830
   58GLOH    O2 8986   8.592   5.454   0.690  0.4282  0.4148 -0.7720
   58GLOH   H05 8987   8.635   5.477   0.605  0.4037  2.6141 -0.2358
   58GLOH    C3 8988   8.407   5.334   0.586  0.2086 -0.7590  0.2335
   58GLOH   H06 8989   8.335   5.396   0.640  0.7546  0.6211 -0.6119
   58GLOH   H07 8990   8.360   5.236   0.595 -1.1765 -0.2588 -1.2398
   58GLOH    O3 8991   8.411   5.381   0.447  0.2542  0.4059  0.5667
   58GLOH   H01 8992   8.475   5.334   0.391 -1.1111 -0.1558 -0.5705
   59GLOH   H03 8993   4.016   1.323   2.835 -3.8495  0.6815 -0.0375
   59GLOH    O1 8994   4.017   1.272   2.752 -0.2631 -0.2302  0.4687
   59GLOH    C1 8995   4.066   1.356   2.647 -0.3406 -0.2856  0.6856
   59GLOH   H02 8996   4.172   1.362   2.670 -0.4660  0.4150  1.0821
   59GLOH   H08 8997   4.025   1.456   2.659 -1.0120 -0.5054  0.2487
   59GLOH    C2 8998   4.038   1.305   2.500  0.6704 -0.5553  0.2123
   59GLOH   H04 8999   4.097   1.215   2.479  1.6613 -0.1111  1.1010
   59GLOH    O2 9000   3.895   1.276   2.477  0.3582  0.5591 -1.4474
   59GLOH   H05 9001   3.851   1.358   2.450 -2.3833  0.3297  1.9218
   59GLOH    C3 9002   4.093   1.411   2.402  0.5707  0.4050  0.2513
   59GLOH   H06 9003   4.192   1.439   2.440  0.7915 -0.4064  0.2758
   59GLOH   H07 9004   4.034   1.503   2.405 -1.3871 -0.7471 -1.6993
   59GLOH    O3 9005   4.101   1.376   2.263 -0.2704 -0.1433  0.2243
   59GLOH   H01 9006   4.096   1.279   2.256  0.8978 -0.2878  1.2471
   60GLOH   H03 9007   2.968   5.345   0.347  0.5178 -0.4655 -0.5825
   60GLOH    O1 9008   3.037   5.383   0.405 -0.7260  0.3196  0.4085
   60GLOH    C1 9009   3.070   5.512   0.357 -0.4001 -0.3084 -0.7151
   60GLOH   H02 9010   3.089   5.513   0.249  2.3250 -1.3350 -0.2669
   60GLOH   H08 9011   3.161   5.545   0.406 -0.0744  0.7544 -1.9944
   60GLOH    C2 9012   2.955   5.618   0.358  0.1874 -0.0889  0.4308
   60GLOH   H04 9013   2.992   5.711   0.311 -0.2008  0.5084  1.2870
   60GLOH    O2 9014   2.842   5.570   0.290  0.0222 -0.6453  0.1068
   60GLOH   H05 9015   2.864   5.479   0.265  0.9693  0.4140 -3.1727
   60GLOH    C3 9016   2.917   5.645   0.502 -0.8710  0.1034  0.2631
   60GLOH   H06 9017   2.912   5.545   0.544  0.2502  0.2865  0.8546
   60GLOH   H07 9018   2.815   5.682   0.512 -0.3793  1.5076  0.2143
   60GLOH    O3 9019   3.020   5.719   0.572  0.3611  0.2923 -0.1277
   60GLOH   H01 9020   3.011   5.707   0.669 -1.0875  0.3779 -0.2456
   61GLOH   H03 9021   1.494   4.440   2.723 -0.4930  2.9004 -0.5320
   61GLOH    O1 9022   1.458   4.407   2.639 -0.3220  0.2569  0.3913
   61GLOH    C1 9023   1.531   4.293   2.598  0.1435 -0.5815 -0.5529
   61GLOH   H02 9024   1.500   4.200   2.647 -0.4521  0.9219  2.0127
   61GLOH   H08 9025   1.637   4.314   2.613 -0.4674  0.6166  2.4198
   61GLOH    C2 9026   1.517   4.249   2.452  0.2162  0.1423  0.2418
   61GLOH   H04 9027   1.536   4.338   2.391  2.9111 -0.1306  0.6435
   61GLOH    O2 9028   1.608   4.147   2.422  0.2376  0.1509  0.0919
   61GLOH   H05 9029   1.602   4.114   2.331 -1.2656  1.7453 -0.4079
   61GLOH    C3 9030   1.367   4.193   2.434  0.3224  0.4335 -0.0753
   61GLOH   H06 9031   1.372   4.090   2.472  0.6428 -0.2214 -1.8566
   61GLOH   H07 9032   1.336   4.195   2.330 -0.5809 -0.5309  0.1615
   61GLOH    O3 9033   1.275   4.264   2.520  0.8455  0.3004 -0.2240
   61GLOH   H01 9034   1.323   4.327   2.576  2.4128 -0.4547 -0.7015
   62GLOH   H03 9035   1.494   4.473   0.622 -1.5061  0.1935 -1.0791
   62GLOH    O1 9036   1.538   4.442   0.540  0.0697 -0.1643 -0.1309
   62GLOH    C1 9037   1.565   4.559   0.463  0.1212  0.1187  0.2067
   62GLOH   H02 9038   1.470   4.595   0.424 -0.0026 -2.4900 -2.0210
   62GLOH   H08 9039   1.633   4.533   0.382  1.0821  0.7393  0.8085
   62GLOH    C2 9040   1.618   4.679   0.547  0.5584  0.7022 -0.5580
   62GLOH   H04 9041   1.657   4.759   0.483  0.8278  0.1519 -1.0872
   62GLOH    O2 9042   1.525   4.747   0.633 -0.3387 -0.2312  0.6768
   62GLOH   H05 9043   1.573   4.825   0.664 -0.1670 -0.8595  2.0369
   62GLOH    C3 9044   1.740   4.629   0.630  0.0487  0.0279 -0.1209
   62GLOH   H06 9045   1.803   4.599   0.547 -1.3412  1.3126 -1.6647
   62GLOH   H07 9046   1.722   4.542   0.694 -1.0994  1.5247  1.6553
   62GLOH    O3 9047   1.802   4.737   0.705 -0.2409 -0.1820 -0.5065
   62GLOH   H01 9048   1.889   4.762   0.668  0.7044 -1.9003  0.5047
   63GLOH   H03 9049   0.743   8.643   0.236 -1.8862 -1.1262 -0.0246
   63GLOH    O1 9050   0.766   8.607   0.324 -0.1126  0.2281  0.0889
   63GLOH    C1 9051   0.757   8.469   0.315  0.8045  0.3201  0.5378
   63GLOH   H02 9052   0.830   8.438   0.241  0.8781  1.1863  0.2425
   63GLOH   H08 9053   0.662   8.429   0.278  1.5045 -3.2511  2.4041
   63GLOH    C2 9054   0.770   8.398   0.447 -0.2824 -0.4740  0.0403
   63GLOH   H04 9055   0.686   8.430   0.511  1.2325  0.9572  1.3700
   63GLOH    O2 9056   0.760   8.252   0.432 -0.2623 -0.2423  0.3230
   63GLOH   H05 9057   0.830   8.207   0.482  0.9264 -0.1479 -1.2252
   63GLOH    C3 9058   0.914   8.426   0.504 -0.0043  0.8057  0.4743
   63GLOH   H06 9059   0.924   8.530   0.534 -0.3401 -0.2478  4.5905
   63GLOH   H07 9060   0.984   8.416   0.421 -0.3123 -0.9049  0.3909
   63GLOH    O3 9061   0.957   8.338   0.611 -0.2261 -0.0943  0.2100
   63GLOH   H01 9062   1.048   8.368   0.625 -0.2191 -0.5422  1.1952
   64GLOH   H03 9063   1.704   0.637   2.582  0.6703 -0.6405 -0.8745
   64GLOH    O1 9064   1.650   0.677   2.511  0.1377  0.2773  0.0421
   64GLOH    C1 9065   1.642   0.567   2.420 -0.0873  0.5538 -0.3061
   64GLOH   H02 9066   1.739   0.527   2.391  0.1469  0.2361  0.8793
   64GLOH   H08 9067   1.602   0.603   2.326 -2.0850  1.0278  0.6824
   64GLOH    C2 9068   1.554   0.452   2.475  1.2837  0.0175 -0.6072
   64GLOH   H04 9069   1.550   0.375   2.396 -0.1520 -0.2269 -0.3108
   64GLOH    O2 9070   1.621   0.391   2.586  0.1649 -0.0862 -0.0990
   64GLOH   H05 9071   1.564   0.336   2.643 -0.2552  0.2369 -0.2087
   64GLOH    C3 9072   1.408   0.487   2.511  0.2738  0.8179 -0.1343
   64GLOH   H06 9073   1.396   0.544   2.603 -0.8678  0.5428 -0.1069
   64GLOH   H07 9074   1.357   0.391   2.517  0.1722  0.2992 -5.7900
   64GLOH    O3 9075   1.342   0.554   2.390 -0.5044 -0.5894 -0.0642
   64GLOH   H01 9076   1.301   0.640   2.411  2.1892  1.3603 -2.4148
   65GLOH   H03 9077   1.123   0.880   2.691 -0.7159  2.7798  0.8506
   65GLOH    O1 9078   1.218   0.896   2.707 -0.0627  0.0154  0.0365
   65GLOH    C1 9079   1.245   1.035   2.716 -0.0179  0.1780 -0.3224
   65GLOH   H02 9080   1.194   1.089   2.636 -1.3228 -0.8069 -0.1757
   65GLOH   H08 9081   1.352   1.056   2.719  0.7744 -3.7319  4.5229
   65GLOH    C2 9082   1.197   1.097   2.846  0.0909 -0.3082 -0.2517
   65GLOH   H04 9083   1.207   1.206   2.850 -1.8363 -0.1739  2.1524
   65GLOH    O2 9084   1.064   1.071   2.895 -0.9838  0.1244  0.3618
   65GLOH   H05 9085   1.003   1.108   2.829 -2.2800 -1.3065  0.7272
   65GLOH    C3 9086   1.291   1.057   2.962 -0.7494 -0.4284 -0.4314
   65GLOH   H06 9087   1.313   0.950   2.972 -1.5646 -0.4099  1.7215
   65GLOH   H07 9088   1.249   1.095   3.055 -0.5317 -0.4631 -0.3178
   65GLOH    O3 9089   1.418   1.123   2.942  0.7993  0.0633 -0.4658
   65GLOH   H01 9090   1.429   1.152   3.035 -0.7844  0.6261 -0.4357
   66GLOH   H03 9091   4.292   1.847   1.671 -1.1085 -1.0224 -1.1209
   66GLOH    O1 9092   4.339   1.792   1.605  0.3991 -0.7604 -0.2978
   66GLOH    C1 9093   4.275   1.662   1.598 -0.1376 -0.1442  0.0808
   66GLOH   H02 9094   4.305   1.605   1.686  2.2097 -0.6199 -0.9838
   66GLOH   H08 9095   4.332   1.614   1.518 -1.4020 -0.1279 -0.8464
   66GLOH    C2 9096   4.121   1.671   1.577  0.5577  0.3418 -0.0984
   66GLOH   H04 9097   4.076   1.571   1.571  0.1368  0.5945 -1.3195
   66GLOH    O2 9098   4.048   1.746   1.680 -0.1568  0.0081  0.0662
   66GLOH   H05 9099   3.955   1.721   1.687 -0.8332  2.2380 -0.5580
   66GLOH    C3 9100   4.087   1.725   1.433  0.0632 -0.0495  0.3179
   66GLOH   H06 9101   4.126   1.826   1.432  1.1931 -0.4793  0.3064
   66GLOH   H07 9102   3.979   1.743   1.435  0.3867  2.0020 -0.0730
   66GLOH    O3 9103   4.140   1.634   1.331  0.4757  0.0422 -0.3350
   66GLOH   H01 9104   4.194   1.690   1.272  2.9192 -0.6450  1.1818
   67GLOH   H03 9105   3.430   9.503   0.323 -0.3325  1.6330  3.0885
   67GLOH    O1 9106   3.520   9.537   0.308 -0.2776  0.1002 -0.4641
   67GLOH    C1 9107   3.585   9.603   0.419  0.3432  0.3239  0.7294
   67GLOH   H02 9108   3.595   9.709   0.400 -0.4218  0.3028  0.2022
   67GLOH   H08 9109   3.684   9.559   0.419  0.6364  0.9797  1.2015
   67GLOH    C2 9110   3.522   9.586   0.559 -0.0639 -0.7350 -0.4826
   67GLOH   H04 9111   3.601   9.619   0.628  0.7495 -0.1958 -1.6557
   67GLOH    O2 9112   3.401   9.669   0.567 -0.2078 -0.4835 -0.0253
   67GLOH   H05 9113   3.409   9.726   0.645  0.4577 -0.9538  0.2613
   67GLOH    C3 9114   3.515   9.437   0.607 -0.1886  0.3696  0.1652
   67GLOH   H06 9115   3.457   9.383   0.532  1.3966  0.2783 -1.0281
   67GLOH   H07 9116   3.460   9.437   0.701 -0.9274  0.2423 -0.2627
   67GLOH    O3 9117   3.639   9.358   0.626 -0.7998 -0.3453  0.4673
   67GLOH   H01 9118   3.619   9.263   0.623  0.8910 -0.7060 -0.1549
   68GLOH   H03 9119   1.682   3.150   1.140 -0.3794  2.7300  1.2608
   68GLOH    O1 9120   1.696   3.186   1.051  0.4136  0.0277  0.2580
   68GLOH    C1 9121   1.681   3.082   0.949 -0.7577 -0.2452 -0.6232
   68GLOH   H02 9122   1.702   3.125   0.852  0.1532  1.0039  0.1139
   68GLOH   H08 9123   1.585   3.031   0.946 -1.1326  0.1400  2.7096
   68GLOH    C2 9124   1.795   2.980   0.963  0.1775  0.4102 -0.2963
   68GLOH   H04 9125   1.892   3.027   0.942 -0.1153  0.7130 -1.0203
   68GLOH    O2 9126   1.798   2.922   1.097  0.2355 -0.2245 -0.2004
   68GLOH   H05 9127   1.889   2.893   1.119  0.3001  0.1499  0.0351
   68GLOH    C3 9128   1.784   2.865   0.859  0.4980  0.0829  0.2483
   68GLOH   H06 9129   1.692   2.805   0.866 -1.9238  3.4212 -1.6448
   68GLOH   H07 9130   1.866   2.803   0.894  1.4871  0.7935 -0.7955
   68GLOH    O3 9131   1.814   2.914   0.724  0.7953  0.1685 -0.0550
   68GLOH   H01 9132   1.729   2.937   0.682 -0.1468  1.9588  2.6912
   69GLOH   H03 9133   3.301   5.882   0.102  3.0770  1.6565  0.1429
   69GLOH    O1 9134   3.269   5.964   0.144 -0.1746  0.4267  0.2186
   69GLOH    C1 9135   3.256   6.064   0.040 -0.0819 -0.6143 -0.1391
   69GLOH   H02 9136   3.325   6.039  -0.040  0.9729 -1.7307  1.0990
   69GLOH   H08 9137   3.289   6.164   0.068  1.0796 -0.9082 -0.4516
   69GLOH    C2 9138   3.116   6.069  -0.012 -0.1159  0.3677  0.1229
   69GLOH   H04 9139   3.081   5.965  -0.020 -1.7022  0.6364  2.7197
   69GLOH    O2 9140   3.022   6.143   0.078  0.1663 -0.0031  0.5059
   69GLOH   H05 9141   3.027   6.100   0.165  3.4654 -1.7997 -0.4582
   69GLOH    C3 9142   3.117   6.134  -0.148  0.5045 -0.2280 -0.4664
   69GLOH   H06 9143   3.173   6.227  -0.137 -0.7813  0.6187 -0.8316
   69GLOH   H07 9144   3.015   6.162  -0.175  0.2798  0.1070  0.6767
   69GLOH    O3 9145   3.185   6.065  -0.250  0.4808  0.3508  0.5361
   69GLOH   H01 9146   3.171   6.120  -0.330 -2.8478  0.4144  1.0954
   70GLOH   H03 9147   3.490   5.207   0.421 -0.4314  0.4282  1.0693
   70GLOH    O1 9148   3.586   5.212   0.405 -0.5490  0.0769  0.2084
   70GLOH    C1 9149   3.645   5.086   0.352  0.3436 -0.5352 -0.8524
   70GLOH   H02 9150   3.739   5.107   0.300  0.7116 -1.2857 -0.4965
   70GLOH   H08 9151   3.576   5.044   0.278  1.0829 -0.1033 -1.7964
   70GLOH    C2 9152   3.667   4.973   0.457  0.0559 -0.1839 -0.1348
   70GLOH   H04 9153   3.563   4.946   0.480 -0.3594  1.9585  0.6930
   70GLOH    O2 9154   3.755   4.863   0.411 -0.3354 -0.0961 -0.7727
   70GLOH   H05 9155   3.753   4.788   0.473 -0.3808 -0.2014 -0.9027
   70GLOH    C3 9156   3.711   5.036   0.585 -1.4827  0.0995 -0.2064
   70GLOH   H06 9157   3.729   4.954   0.654  0.1785  0.2977 -0.3985
   70GLOH   H07 9158   3.629   5.094   0.628  1.5955  0.9895  4.8355
   70GLOH    O3 9159   3.826   5.118   0.571 -0.1483 -0.0310 -0.0882
   70GLOH   H01 9160   3.858   5.128   0.662  2.2995  0.8329 -1.0017
   71GLOH   H03 9161   8.662   2.589   0.911  2.6908 -0.7011 -1.3849
   71GLOH    O1 9162   8.697   2.679   0.927 -0.5883  0.3279  0.4089
   71GLOH    C1 9163   8.807   2.714   0.836 -0.3532  0.0155 -0.7319
   71GLOH   H02 9164   8.871   2.793   0.875 -0.2714  0.2899 -1.4251
   71GLOH   H08 9165   8.776   2.745   0.736  1.4499 -0.6881 -1.5285
   71GLOH    C2 9166   8.894   2.592   0.815  0.1362  0.7035  0.5036
   71GLOH   H04 9167   8.923   2.554   0.914 -1.3432 -2.5764 -0.2464
   71GLOH    O2 9168   8.840   2.484   0.729  0.6127  0.2988  0.5036
   71GLOH   H05 9169   8.794   2.412   0.774 -2.6984  1.5718 -0.7229
   71GLOH    C3 9170   9.018   2.637   0.745 -0.1614 -0.3555  0.0995
   71GLOH   H06 9171   8.992   2.676   0.646 -0.8892 -2.3245 -0.5039
   71GLOH   H07 9172   9.082   2.550   0.735 -1.4790 -1.0495 -2.8095
   71GLOH    O3 9173   9.093   2.738   0.816  0.3448 -0.6998  0.1571
   71GLOH   H01 9174   9.175   2.695   0.846 -0.4138 -3.9708 -2.1921
   72GLOH   H03 9175   0.855   8.801   2.629 -0.0460  1.0721  1.6328
   72GLOH    O1 9176   0.813   8.885   2.605  0.0508  0.5839 -0.3242
   72GLOH    C1 9177   0.922   8.977   2.609 -0.4420 -0.4365 -0.2446
   72GLOH   H02 9178   0.902   9.083   2.597  0.3739 -0.2161  0.2875
   72GLOH   H08 9179   0.992   8.962   2.526  0.6545  1.4004  0.3209
   72GLOH    C2 9180   0.987   8.968   2.742 -0.1512 -1.9086 -0.5653
   72GLOH   H04 9181   1.050   8.879   2.756  2.5913  0.2257  1.3280
   72GLOH    O2 9182   1.089   9.072   2.726 -0.0155 -0.1301 -0.6292
   72GLOH   H05 9183   1.136   9.054   2.643 -1.5891  1.9142 -2.0115
   72GLOH    C3 9184   0.880   9.019   2.844 -0.3236 -0.2752 -0.1063
   72GLOH   H06 9185   0.853   9.115   2.800  2.0465 -0.1148 -1.2789
   72GLOH   H07 9186   0.923   9.042   2.942  1.6116 -2.0725 -0.5046
   72GLOH    O3 9187   0.764   8.939   2.844  0.3804 -0.1620 -0.1455
   72GLOH   H01 9188   0.757   8.917   2.750 -1.0505  1.5335 -0.4640
   73GLOH   H03 9189   8.808   6.329   0.448  0.1433  1.5474  0.0327
   73GLOH    O1 9190   8.733   6.316   0.388  0.6332  0.2435 -0.3246
   73GLOH    C1 9191   8.749   6.414   0.280  0.0538  0.2527 -0.0145
   73GLOH   H02 9192   8.696   6.505   0.309 -1.6692 -0.4246 -0.9502
   73GLOH   H08 9193   8.710   6.380   0.184 -0.6707  0.2613  0.2753
   73GLOH    C2 9194   8.900   6.450   0.248 -0.3957 -0.3817  0.3855
   73GLOH   H04 9195   8.963   6.366   0.215  2.3063  2.6266 -2.4963
   73GLOH    O2 9196   8.914   6.562   0.155 -0.3821 -0.5290  0.0428
   73GLOH   H05 9197   8.923   6.529   0.064  0.7300 -0.6206  0.1831
   73GLOH    C3 9198   8.964   6.500   0.380 -0.3082  0.0035 -0.4626
   73GLOH   H06 9199   8.908   6.581   0.425 -1.7325 -1.9415  1.2986
   73GLOH   H07 9200   9.065   6.540   0.366  0.1420 -0.5490  1.0968
   73GLOH    O3 9201   8.973   6.383   0.469  0.8546 -0.0356 -0.2666
   73GLOH   H01 9202   8.970   6.426   0.556  1.0054 -3.9826  1.7902
   74GLOH   H03 9203   2.586   5.054   2.703 -0.3542  1.8540 -1.5737
   74GLOH    O1 9204   2.678   5.083   2.715 -0.0214  0.2353 -0.0168
   74GLOH    C1 9205   2.746   5.129   2.595  0.6824  0.0727  0.4655
   74GLOH   H02 9206   2.761   5.053   2.518 -1.0066 -1.2773  1.4239
   74GLOH   H08 9207   2.846   5.155   2.629  0.2462  1.8897  0.3632
   74GLOH    C2 9208   2.692   5.260   2.531  0.3984  0.0903  0.3761
   74GLOH   H04 9209   2.718   5.345   2.595 -1.7361 -0.1016  1.5670
   74GLOH    O2 9210   2.751   5.266   2.398 -0.4050  0.1592 -0.7175
   74GLOH   H05 9211   2.690   5.227   2.334 -2.1593 -1.2026  1.7437
   74GLOH    C3 9212   2.537   5.254   2.523  0.0690  0.5713 -0.2851
   74GLOH   H06 9213   2.502   5.205   2.614  0.2835  0.6094 -0.1807
   74GLOH   H07 9214   2.508   5.179   2.450 -0.5736 -1.8827  2.3952
   74GLOH    O3 9215   2.475   5.377   2.490  0.3034  0.3519 -0.2014
   74GLOH   H01 9216   2.417   5.413   2.560  2.7448  2.9335  0.5928
   75GLOH   H03 9217   4.117   9.256   0.498 -2.0956  0.1200  1.2977
   75GLOH    O1 9218   4.158   9.283   0.582  0.6050 -0.6507  0.2658
   75GLOH    C1 9219   4.242   9.399   0.560  0.2674 -0.3756 -0.4385
   75GLOH   H02 9220   4.267   9.458   0.648 -2.1607  0.6201 -0.3791
   75GLOH   H08 9221   4.195   9.474   0.497  1.0430 -0.1049 -0.6945
   75GLOH    C2 9222   4.364   9.357   0.476  0.3491 -0.5196  0.1549
   75GLOH   H04 9223   4.419   9.279   0.531  0.6413 -0.9868 -0.7984
   75GLOH    O2 9224   4.341   9.304   0.343 -0.4633  0.1803  0.8119
   75GLOH   H05 9225   4.295   9.363   0.281  0.1660  0.5910  0.7315
   75GLOH    C3 9226   4.451   9.482   0.454  0.0984 -0.5301 -0.2591
   75GLOH   H06 9227   4.385   9.558   0.413 -0.4879 -0.0077  1.6204
   75GLOH   H07 9228   4.541   9.464   0.394 -0.3549  2.3093 -1.8954
   75GLOH    O3 9229   4.498   9.530   0.581 -0.6610  0.3522  0.1276
   75GLOH   H01 9230   4.545   9.460   0.630 -0.6827  0.0149 -0.3379
   76GLOH   H03 9231   2.355   1.273   2.692 -1.8854 -2.7106  0.3641
   76GLOH    O1 9232   2.281   1.334   2.708 -0.2250 -0.5333  0.0880
   76GLOH    C1 9233   2.169   1.258   2.748 -0.3095  0.1637  0.3648
   76GLOH   H02 9234   2.176   1.153   2.719  0.0967  0.1795  0.3915
   76GLOH   H08 9235   2.086   1.299   2.691 -0.0759 -0.4143 -0.3982
   76GLOH    C2 9236   2.137   1.262   2.897  0.5674  0.1441  0.3227
   76GLOH   H04 9237   2.221   1.219   2.954  1.0110  0.5410 -0.0326
   76GLOH    O2 9238   2.124   1.399   2.944 -0.0962 -0.2551  0.4033
   76GLOH   H05 9239   2.174   1.407   3.028 -1.7716  0.3374  1.3555
   76GLOH    C3 9240   2.011   1.176   2.923  0.3581  0.3008  0.1204
   76GLOH   H06 9241   2.003   1.154   3.030 -0.0389  1.1152  0.2639
   76GLOH   H07 9242   2.034   1.083   2.871  1.1116  1.3920 -1.5412
   76GLOH    O3 9243   1.894   1.239   2.869 -0.1670 -0.2811 -0.1724
   76GLOH   H01 9244   1.825   1.170   2.869  1.0824 -1.5813  0.8747
   77GLOH   H03 9245   8.103   6.758   2.383  0.5962 -1.0044  1.4620
   77GLOH    O1 9246   8.051   6.822   2.435  0.1197 -0.7434  0.6632
   77GLOH    C1 9247   8.097   6.857   2.561  0.3999  1.0613  0.2709
   77GLOH   H02 9248   8.109   6.768   2.623  1.9274  1.9350  1.2764
   77GLOH   H08 9249   8.017   6.913   2.610  1.7290  3.1657  0.1033
   77GLOH    C2 9250   8.231   6.936   2.565  0.0728 -0.5489  0.2400
   77GLOH   H04 9251   8.243   6.975   2.667 -1.7453  1.2873 -0.2146
   77GLOH    O2 9252   8.335   6.851   2.519  0.5696 -0.2941 -0.0327
   77GLOH   H05 9253   8.304   6.798   2.444 -1.6294  1.7020 -0.5889
   77GLOH    C3 9254   8.217   7.067   2.486  0.8308 -0.6016 -0.0706
   77GLOH   H06 9255   8.117   7.100   2.513  0.9161 -0.8303  0.5424
   77GLOH   H07 9256   8.212   7.046   2.380  1.3654  1.4128 -0.5210
   77GLOH    O3 9257   8.318   7.165   2.523  0.5148  0.1581  0.2249
   77GLOH   H01 9258   8.395   7.165   2.463  1.6284  1.9371  1.6095
   78GLOH   H03 9259   9.404   7.178   1.439 -1.1314  0.3166  0.4087
   78GLOH    O1 9260   9.476   7.244   1.439 -0.3318 -0.5632  0.0690
   78GLOH    C1 9261   9.604   7.175   1.450  0.4899  0.2324 -0.5149
   78GLOH   H02 9262   9.686   7.233   1.407  0.7457  1.2271  1.2570
   78GLOH   H08 9263   9.596   7.086   1.388 -3.7574 -0.0938  0.3312
   78GLOH    C2 9264   9.630   7.115   1.583 -0.4786  0.2788  0.0436
   78GLOH   H04 9265   9.548   7.047   1.612  0.9380 -0.7076  1.9094
   78GLOH    O2 9266   9.752   7.039   1.569  0.1318 -0.4489  0.8954
   78GLOH   H05 9267   9.735   6.950   1.533  1.3207 -0.1796 -0.3968
   78GLOH    C3 9268   9.661   7.211   1.693  0.6425 -0.2207  0.1484
   78GLOH   H06 9269   9.756   7.259   1.668  0.2697 -0.2691 -1.3624
   78GLOH   H07 9270   9.675   7.164   1.791 -0.5851 -0.9431 -0.0073
   78GLOH    O3 9271   9.557   7.306   1.716 -0.5148 -0.1394  0.0541
   78GLOH   H01 9272   9.477   7.254   1.697 -1.5320  2.0550 -1.8985
   79GLOH   H03 9273   4.033   1.107   2.777  0.9395  1.1772  1.1847
   79GLOH    O1 9274   4.089   1.030   2.800  0.0544  0.3934  0.7388
   79GLOH    C1 9275   4.134   1.046   2.935  0.3270 -0.1930 -0.6003
   79GLOH   H02 9276   4.126   1.145   2.979 -1.5531 -0.2241 -0.8250
   79GLOH   H08 9277   4.240   1.023   2.938  0.5866  1.0595  0.1313
   79GLOH    C2 9278   4.065   0.941   3.028 -0.3555  0.1717  0.6452
   79GLOH   H04 9279   3.957   0.960   3.023 -0.5544 -1.1289 -0.2149
   79GLOH    O2 9280   4.114   0.807   2.996  0.3747 -1.6356 -0.1796
   79GLOH   H05 9281   4.044   0.767   2.942 -0.3983 -1.3550  0.6221
   79GLOH    C3 9282   4.108   0.969   3.176 -0.1510 -0.3490  0.3751
   79GLOH   H06 9283   4.215   0.988   3.177 -0.2013 -0.0353  3.5322
   79GLOH   H07 9284   4.084   0.884   3.240  1.9246 -0.4985  0.9798
   79GLOH    O3 9285   4.043   1.076   3.235  0.0256 -0.3755  1.0894
   79GLOH   H01 9286   4.071   1.084   3.328  1.5010  1.1124  0.5496
   80GLOH   H03 9287   0.719   5.617   1.507  0.6322  1.0013 -1.0726
   80GLOH    O1 9288   0.626   5.623   1.478  0.5360  0.3636 -0.9001
   80GLOH    C1 9289   0.609   5.575   1.343 -0.0797  0.0170 -0.3650
   80GLOH   H02 9290   0.512   5.525   1.339  0.2050 -0.5717  0.0457
   80GLOH   H08 9291   0.675   5.497   1.305 -1.7962 -1.3639 -0.5944
   80GLOH    C2 9292   0.588   5.693   1.251 -0.2561  0.1151 -0.4951
   80GLOH   H04 9293   0.531   5.769   1.306 -0.3929 -0.1168 -0.3145
   80GLOH    O2 9294   0.706   5.762   1.212 -0.1245  0.0477 -0.3576
   80GLOH   H05 9295   0.785   5.705   1.213 -0.8871 -1.0411 -1.5844
   80GLOH    C3 9296   0.502   5.664   1.126 -0.3013  0.4725 -0.3192
   80GLOH   H06 9297   0.494   5.758   1.072 -0.4691 -0.0350 -1.1796
   80GLOH   H07 9298   0.402   5.628   1.148 -0.3247  0.5007 -0.3808
   80GLOH    O3 9299   0.566   5.571   1.041  1.1013 -0.4678 -0.0417
   80GLOH   H01 9300   0.646   5.618   1.010 -0.9369  0.7921 -3.6269
   81GLOH   H03 9301   3.222   1.995   1.811  0.1248 -0.2275  0.2241
   81GLOH    O1 9302   3.205   1.988   1.715  0.2581  0.3154  0.1585
   81GLOH    C1 9303   3.095   2.070   1.682  0.9241 -0.1716  0.3468
   81GLOH   H02 9304   3.073   2.052   1.576 -1.8880  0.3042  0.8093
   81GLOH   H08 9305   3.127   2.174   1.682  0.6315 -0.0568 -1.6444
   81GLOH    C2 9306   2.957   2.044   1.745  0.2086  0.5190 -0.0941
   81GLOH   H04 9307   2.959   2.039   1.855 -1.6009 -0.7563 -0.0880
   81GLOH    O2 9308   2.859   2.149   1.713 -0.2790  0.4658  0.1661
   81GLOH   H05 9309   2.882   2.228   1.764 -0.2264  0.8548 -0.4554
   81GLOH    C3 9310   2.898   1.910   1.684 -0.2236  0.2077 -0.0665
   81GLOH   H06 9311   2.895   1.928   1.576  0.4100 -0.5369 -0.2079
   81GLOH   H07 9312   2.796   1.896   1.721 -0.1101  0.8774  0.5108
   81GLOH    O3 9313   2.988   1.803   1.713 -0.1198  0.0667 -0.6020
   81GLOH   H01 9314   3.083   1.826   1.708  0.1246 -0.1133  2.4882
   82GLOH   H03 9315   2.001   7.895   2.443 -0.9608  2.3963  0.8720
   82GLOH    O1 9316   1.919   7.845   2.463  0.0505 -0.0364 -0.7904
   82GLOH    C1 9317   1.954   7.732   2.552  0.0327  0.2818  0.3372
   82GLOH   H02 9318   1.863   7.687   2.590 -1.0481 -0.2038 -2.6842
   82GLOH   H08 9319   2.008   7.766   2.641 -4.3437  1.8751  2.5075
   82GLOH    C2 9320   2.034   7.620   2.485 -0.5332 -0.2403 -0.1702
   82GLOH   H04 9321   1.977   7.595   2.395 -1.2917 -0.3229  0.3262
   82GLOH    O2 9322   2.164   7.669   2.447 -0.1369  0.4238  0.3591
   82GLOH   H05 9323   2.197   7.605   2.383 -0.3303  1.7030 -1.0523
   82GLOH    C3 9324   2.040   7.507   2.592 -0.0692 -0.5502 -0.8874
   82GLOH   H06 9325   2.075   7.566   2.676  1.7689  0.2569 -2.1827
   82GLOH   H07 9326   2.123   7.438   2.575 -0.1370 -0.5615 -1.1902
   82GLOH    O3 9327   1.912   7.448   2.614 -0.0873  0.1850 -0.6662
   82GLOH   H01 9328   1.923   7.360   2.573  0.4881 -0.5774  1.0765
   83GLOH   H03 9329   2.029   9.731   1.257  2.1940 -0.4376 -0.4202
   83GLOH    O1 9330   2.032   9.812   1.312  0.3329 -0.5430 -0.1180
   83GLOH    C1 9331   2.033   9.937   1.230  0.6353 -0.7980 -0.1324
   83GLOH   H02 9332   1.970   9.928   1.141  1.4047 -1.0567 -0.6534
   83GLOH   H08 9333   2.134   9.962   1.197  0.2708  0.0736 -0.6071
   83GLOH    C2 9334   1.979  10.061   1.306  0.3711 -0.2851  0.6833
   83GLOH   H04 9335   1.880  10.031   1.343 -0.4049  0.8121 -0.4786
   83GLOH    O2 9336   2.052  10.100   1.424 -0.0263  0.1024 -0.2909
   83GLOH   H05 9337   2.031  10.193   1.443  0.3237  0.1988 -0.3702
   83GLOH    C3 9338   1.965  10.178   1.205 -0.2141 -0.0693  0.5832
   83GLOH   H06 9339   1.939  10.263   1.267 -0.7433  1.0363 -1.1280
   83GLOH   H07 9340   1.881  10.149   1.143 -0.2050  1.5565 -0.2045
   83GLOH    O3 9341   2.082  10.206   1.125 -0.5571 -0.1865 -0.0243
   83GLOH   H01 9342   2.157  10.208   1.187 -0.6046 -2.1673  0.1441
   84GLOH   H03 9343   8.864   3.240   1.590  1.0874 -2.2793  0.6362
   84GLOH    O1 9344   8.912   3.253   1.506  0.0613 -0.3770  0.3340
   84GLOH    C1 9345   8.973   3.386   1.501 -0.4660  0.1545  0.1732
   84GLOH   H02 9346   8.994   3.418   1.603  0.6470 -0.2390  0.0745
   84GLOH   H08 9347   8.904   3.449   1.444  0.9790  0.9008 -0.7791
   84GLOH    C2 9348   9.107   3.392   1.423  0.6701 -0.4994  0.3215
   84GLOH   H04 9349   9.189   3.361   1.490 -0.2338  0.5247  1.9149
   84GLOH    O2 9350   9.120   3.311   1.302  0.3248  0.6021 -0.8921
   84GLOH   H05 9351   9.034   3.287   1.266  0.2833 -0.8753  0.1714
   84GLOH    C3 9352   9.141   3.539   1.383 -0.3263 -0.0356 -0.0907
   84GLOH   H06 9353   9.058   3.589   1.334  0.8506  0.4800 -1.5749
   84GLOH   H07 9354   9.213   3.545   1.302  1.0306 -2.1119  0.9208
   84GLOH    O3 9355   9.189   3.618   1.494 -0.3594 -0.5289  0.3224
   84GLOH   H01 9356   9.145   3.705   1.493  0.1762 -0.2592  0.0036
   85GLOH   H03 9357   3.559   5.878   1.408  0.8770 -1.7541  0.3730
   85GLOH    O1 9358   3.576   5.898   1.502  0.1131  0.0694  0.1376
   85GLOH    C1 9359   3.469   5.974   1.562  0.0706  0.0781 -0.2646
   85GLOH   H02 9360   3.484   6.082   1.560  0.4321  0.0464  0.8583
   85GLOH   H08 9361   3.466   5.954   1.669 -0.4754 -0.5215 -0.3846
   85GLOH    C2 9362   3.326   5.937   1.502 -0.6543  0.1081 -0.3160
   85GLOH   H04 9363   3.262   6.009   1.555 -0.4019  0.9309 -1.1243
   85GLOH    O2 9364   3.322   5.974   1.365 -0.5147 -0.1594 -0.5090
   85GLOH   H05 9365   3.388   5.921   1.318 -0.3382 -0.8567  0.5129
   85GLOH    C3 9366   3.287   5.790   1.534 -0.0021 -1.3843 -0.0110
   85GLOH   H06 9367   3.349   5.727   1.470 -3.1496 -3.6595 -0.8970
   85GLOH   H07 9368   3.188   5.784   1.489 -0.3688  1.0987  0.4108
   85GLOH    O3 9369   3.294   5.761   1.676  0.3016 -0.2640 -0.0890
   85GLOH   H01 9370   3.284   5.664   1.687 -0.3898 -0.2224 -0.3131
   86GLOH   H03 9371   8.066   6.310   2.055  0.9604  1.2922 -0.5931
   86GLOH    O1 9372   7.985   6.341   2.100  0.4956 -0.3685 -0.2471
   86GLOH    C1 9373   8.019   6.428   2.209 -0.2846 -0.2492 -0.1641
   86GLOH   H02 9374   7.929   6.483   2.237  0.3674  0.3571  0.7361
   86GLOH   H08 9375   8.090   6.505   2.180  0.4883  0.1452  2.6898
   86GLOH    C2 9376   8.074   6.352   2.330 -0.6909 -0.8008  0.5769
   86GLOH   H04 9377   8.161   6.293   2.299 -1.2041 -2.0401  1.4271
   86GLOH    O2 9378   8.115   6.435   2.443 -0.0771 -0.3356 -0.0666
   86GLOH   H05 9379   8.163   6.384   2.510 -0.3657  1.7556  1.7562
   86GLOH    C3 9380   7.969   6.261   2.385  0.2839  0.2575  0.4406
   86GLOH   H06 9381   7.891   6.324   2.429  1.5109  1.6074  0.7169
   86GLOH   H07 9382   8.001   6.202   2.470  1.6365  0.1284 -0.1456
   86GLOH    O3 9383   7.915   6.168   2.289  0.1166  0.7833 -0.2031
   86GLOH   H01 9384   7.891   6.222   2.212  1.1709 -1.1090 -1.8871
   87GLOH   H03 9385   1.676   5.144   1.900 -1.7451  1.1185 -0.9966
   87GLOH    O1 9386   1.716   5.132   1.812  0.2370  0.2161 -0.0033
   87GLOH    C1 9387   1.838   5.220   1.806 -1.3613  1.0823  0.3957
   87GLOH   H02 9388   1.909   5.187   1.730 -1.7472 -0.5717  0.7358
   87GLOH   H08 9389   1.892   5.220   1.900  1.2745 -2.8886 -0.9770
   87GLOH    C2 9390   1.800   5.362   1.759 -0.1899  0.0699  0.5054
   87GLOH   H04 9391   1.768   5.351   1.654 -1.6768  0.4087  0.9137
   87GLOH    O2 9392   1.691   5.409   1.839 -0.0123  0.3416 -0.7044
   87GLOH   H05 9393   1.725   5.450   1.920 -1.5757  3.5300 -1.5816
   87GLOH    C3 9394   1.917   5.459   1.769 -0.6600  0.1832 -0.0750
   87GLOH   H06 9395   1.969   5.452   1.864  1.2264  0.5063 -1.0618
   87GLOH   H07 9396   1.886   5.563   1.771  1.4152  0.8371 -0.6095
   87GLOH    O3 9397   2.016   5.445   1.665  0.2439 -0.0724 -0.0468
   87GLOH   H01 9398   2.037   5.538   1.640 -0.6834  0.3859  0.8514
   88GLOH   H03 9399   5.090   2.558   0.987  0.2523 -0.5548 -0.0468
   88GLOH    O1 9400   5.179   2.594   1.007  0.3312 -0.7563 -0.0342
   88GLOH    C1 9401   5.203   2.697   0.907 -0.6687  0.8935 -0.0617
   88GLOH   H02 9402   5.141   2.681   0.819 -1.7482  0.5540  0.7473
   88GLOH   H08 9403   5.305   2.699   0.870 -0.1158  0.6706  1.4027
   88GLOH    C2 9404   5.161   2.833   0.975  0.0340 -0.5689 -0.4537
   88GLOH   H04 9405   5.239   2.857   1.049  0.4778  0.8928 -1.3731
   88GLOH    O2 9406   5.156   2.937   0.869  0.0638 -0.1442 -0.3314
   88GLOH   H05 9407   5.068   2.949   0.828  0.1711  3.2407  0.2763
   88GLOH    C3 9408   5.027   2.840   1.053  0.7902 -0.3584  0.2404
   88GLOH   H06 9409   4.939   2.806   0.998  1.4273  1.7849 -2.1460
   88GLOH   H07 9410   5.001   2.946   1.057 -1.0385 -0.7340 -0.9311
   88GLOH    O3 9411   5.040   2.765   1.176  0.0762  0.0416 -0.7854
   88GLOH   H01 9412   5.067   2.671   1.166  0.7303  0.1445  0.0435
   89GLOH   H03 9413   4.303   0.561   0.382 -1.1730 -0.8954  0.7035
   89GLOH    O1 9414   4.312   0.512   0.466 -0.0402 -0.5781  0.7799
   89GLOH    C1 9415   4.401   0.589   0.542  0.7969  0.2800 -1.1472
   89GLOH   H02 9416   4.366   0.692   0.550 -0.5734 -0.0031 -3.0142
   89GLOH   H08 9417   4.495   0.592   0.487  0.4150 -0.8839 -1.8935
   89GLOH    C2 9418   4.427   0.535   0.687  1.3342  0.0154  0.4510
   89GLOH   H04 9419   4.335   0.547   0.746 -0.3688  0.7501 -2.2425
   89GLOH    O2 9420   4.466   0.391   0.686  0.1267 -0.6156  0.5522
   89GLOH   H05 9421   4.435   0.357   0.600  0.1349 -0.4481  0.4809
   89GLOH    C3 9422   4.532   0.618   0.755 -0.1822 -0.8042 -0.2115
   89GLOH   H06 9423   4.624   0.624   0.695 -0.3258 -0.0408 -0.3671
   89GLOH   H07 9424   4.559   0.575   0.851  0.8004  2.7733  1.1946
   89GLOH    O3 9425   4.473   0.751   0.773 -0.1850 -0.5601 -0.3792
   89GLOH   H01 9426   4.521   0.798   0.844 -1.7968  0.2440  0.2020
   90GLOH   H03 9427   4.172   2.527   0.851 -0.3942 -1.8887 -1.2130
   90GLOH    O1 9428   4.189   2.572   0.766 -0.1364  0.3525  0.0021
   90GLOH    C1 9429   4.267   2.503   0.675 -0.2375  0.0769  0.1640
   90GLOH   H02 9430   4.340   2.575   0.637 -1.7206  0.4575 -2.0538
   90GLOH   H08 9431   4.212   2.466   0.589  0.0782 -0.5199  0.2130
   90GLOH    C2 9432   4.348   2.385   0.727  0.2132  0.0323 -0.1674
   90GLOH   H04 9433   4.409   2.357   0.640 -0.0395  1.6624 -0.8793
   90GLOH    O2 9434   4.451   2.416   0.820  0.2784  0.2032  0.1220
   90GLOH   H05 9435   4.517   2.471   0.775 -0.6970  0.1076 -1.4733
   90GLOH    C3 9436   4.256   2.279   0.778 -0.1092  0.6171  0.6596
   90GLOH   H06 9437   4.229   2.307   0.880  2.5032  2.4504  0.8714
   90GLOH   H07 9438   4.311   2.186   0.794 -2.6459 -1.3998 -1.8648
   90GLOH    O3 9439   4.138   2.246   0.703 -0.0875  0.0283 -0.2154
   90GLOH   H01 9440   4.082   2.186   0.757  0.6601 -1.5962 -1.2025
   91GLOH   H03 9441   4.623   3.280   2.071 -0.8749 -0.0012 -1.3113
   91GLOH    O1 9442   4.577   3.342   2.130  0.3169  0.0171 -0.3779
   91GLOH    C1 9443   4.583   3.299   2.265 -0.1714  0.2219 -1.0718
   91GLOH   H02 9444   4.687   3.292   2.296 -0.7880 -1.4947  0.6870
   91GLOH   H08 9445   4.537   3.202   2.283  3.6431 -1.8072 -1.5926
   91GLOH    C2 9446   4.508   3.386   2.364 -0.2768 -0.7915 -0.5176
   91GLOH   H04 9447   4.405   3.383   2.325 -0.4974 -2.8899  0.1531
   91GLOH    O2 9448   4.507   3.336   2.495 -0.8488 -0.0713  0.1116
   91GLOH   H05 9449   4.439   3.267   2.503 -0.6273 -0.2006  0.8302
   91GLOH    C3 9450   4.546   3.535   2.348 -0.2399 -0.0441  0.0283
   91GLOH   H06 9451   4.649   3.557   2.377 -0.1120  0.7685 -1.0506
   91GLOH   H07 9452   4.482   3.593   2.415 -0.3525 -1.3736  1.1100
   91GLOH    O3 9453   4.530   3.579   2.213 -0.0708 -0.6313  0.3053
   91GLOH   H01 9454   4.550   3.495   2.169 -4.1482 -2.1878  1.2462
   92GLOH   H03 9455   4.521   2.874   0.843 -1.7741 -0.3012 -1.1764
   92GLOH    O1 9456   4.553   2.783   0.828  0.5161  0.3186 -0.3305
   92GLOH    C1 9457   4.603   2.723   0.951  0.1322  0.0151  0.2847
   92GLOH   H02 9458   4.699   2.760   0.985  0.3092 -0.5971  0.4525
   92GLOH   H08 9459   4.613   2.616   0.938 -3.6285 -0.1790 -1.7308
   92GLOH    C2 9460   4.509   2.759   1.064 -0.1230 -0.1957 -0.6624
   92GLOH   H04 9461   4.406   2.773   1.029 -1.0286 -0.1815  1.9115
   92GLOH    O2 9462   4.504   2.662   1.163  0.0915  0.0777 -0.1137
   92GLOH   H05 9463   4.587   2.657   1.214 -0.9179  0.0567  1.5598
   92GLOH    C3 9464   4.544   2.899   1.128  0.1095  0.3402 -0.0075
   92GLOH   H06 9465   4.647   2.882   1.157  0.0061 -2.3885 -1.1131
   92GLOH   H07 9466   4.487   2.910   1.220  0.9714 -0.9900  0.6813
   92GLOH    O3 9467   4.548   3.019   1.050 -0.0344 -0.4681  0.1700
   92GLOH   H01 9468   4.480   3.073   1.096  0.9450  0.5549  0.4214
   93GLOH   H03 9469   4.230   8.998   2.437 -0.5791 -0.5522  1.0088
   93GLOH    O1 9470   4.288   9.063   2.481 -0.3429 -0.1159  0.0525
   93GLOH    C1 9471   4.216   9.164   2.548  0.6068 -0.7463 -0.1897
   93GLOH   H02 9472   4.176   9.232   2.473 -0.1091 -0.3790  0.5133
   93GLOH   H08 9473   4.272   9.227   2.617 -1.3196 -0.9160  1.5729
   93GLOH    C2 9474   4.096   9.115   2.632 -0.3159  0.7990  0.2419
   93GLOH   H04 9475   4.138   9.048   2.709  0.2716  0.3072 -0.4967
   93GLOH    O2 9476   4.024   9.222   2.689  0.4152  0.3142  0.0974
   93GLOH   H05 9477   4.072   9.274   2.755  0.2344  0.9656 -0.2816
   93GLOH    C3 9478   4.006   9.046   2.534 -0.5470 -0.3451  0.1611
   93GLOH   H06 9479   3.964   9.109   2.455 -2.6799 -0.6622  1.0142
   93GLOH   H07 9480   3.915   9.016   2.586 -0.9867  0.7485  0.0291
   93GLOH    O3 9481   4.060   8.919   2.478 -0.0731 -0.2243 -0.4379
   93GLOH   H01 9482   4.090   8.869   2.555  0.5961 -0.1689 -0.6595
   94GLOH   H03 9483   4.454   0.165   2.494 -0.0340  0.2170  2.4319
   94GLOH    O1 9484   4.475   0.070   2.498  0.6275  0.2416  0.2446
   94GLOH    C1 9485   4.391   0.005   2.406  0.0563  0.0224  0.2915
   94GLOH   H02 9486   4.366   0.074   2.326 -2.1612  0.8164  1.6296
   94GLOH   H08 9487   4.289  -0.009   2.440 -0.0143  0.1431  0.1311
   94GLOH    C2 9488   4.441  -0.126   2.344  0.1220  0.1397 -0.0608
   94GLOH   H04 9489   4.451  -0.190   2.433  0.5745 -1.2348 -1.0893
   94GLOH    O2 9490   4.350  -0.174   2.247 -0.4253 -0.9504 -0.2828
   94GLOH   H05 9491   4.287  -0.230   2.296 -0.4033 -1.0689 -0.3879
   94GLOH    C3 9492   4.573  -0.094   2.277 -0.0120  0.0926  0.1063
   94GLOH   H06 9493   4.565  -0.013   2.205 -2.0851 -0.3955 -0.2293
   94GLOH   H07 9494   4.595  -0.186   2.224 -0.3560  0.1639 -0.1608
   94GLOH    O3 9495   4.671  -0.053   2.374 -1.0451 -0.1246  0.0166
   94GLOH   H01 9496   4.613  -0.013   2.442 -1.3673  1.3976 -1.1228
   95GLOH   H03 9497   2.944   6.165   1.819  1.4709 -1.2647 -1.4866
   95GLOH    O1 9498   2.922   6.247   1.770 -0.1711 -0.5515  0.4020
   95GLOH    C1 9499   2.948   6.361   1.850  0.7234 -1.2422  0.5368
   95GLOH   H02 9500   3.009   6.430   1.792  1.4883 -0.8126  1.8367
   95GLOH   H08 9501   3.001   6.330   1.941 -0.5527  0.4104  1.8698
   95GLOH    C2 9502   2.821   6.441   1.898  0.0165 -0.5515  0.4969
   95GLOH   H04 9503   2.858   6.537   1.936  1.5790 -2.3649  3.7161
   95GLOH    O2 9504   2.743   6.481   1.782 -0.2254 -0.3396 -1.0796
   95GLOH   H05 9505   2.710   6.396   1.747  0.1766 -0.7261 -0.5392
   95GLOH    C3 9506   2.746   6.362   2.010 -0.5885 -0.1287 -0.1658
   95GLOH   H06 9507   2.706   6.279   1.951  0.9491  0.1815 -1.6652
   95GLOH   H07 9508   2.665   6.424   2.048  0.7943  1.3631  0.3911
   95GLOH    O3 9509   2.829   6.331   2.127  0.4393  0.3463 -0.1232
   95GLOH   H01 9510   2.859   6.408   2.179  2.0567 -2.1114  2.8409
   96GLOH   H03 9511   2.817   6.624   2.240  1.3352  0.8047 -0.4691
   96GLOH    O1 9512   2.874   6.545   2.251  0.1667 -0.0158 -0.2683
   96GLOH    C1 9513   2.974   6.566   2.344  0.4991  0.0010 -1.0479
   96GLOH   H02 9514   2.972   6.668   2.383 -1.3515  0.4204 -2.1894
   96GLOH   H08 9515   3.072   6.553   2.299  2.3075  1.6269  2.2068
   96GLOH    C2 9516   2.953   6.477   2.459 -0.1877 -0.1007 -0.4123
   96GLOH   H04 9517   2.938   6.375   2.421 -0.5942  0.6083 -2.1554
   96GLOH    O2 9518   3.061   6.472   2.549  0.6644 -0.5122 -0.1997
   96GLOH   H05 9519   3.021   6.457   2.637  0.8637  0.1291  0.0037
   96GLOH    C3 9520   2.824   6.520   2.542 -0.6241  0.1294  0.0193
   96GLOH   H06 9521   2.740   6.540   2.475 -0.4987 -1.1872 -0.5385
   96GLOH   H07 9522   2.854   6.605   2.604  0.5260 -0.1217 -0.1727
   96GLOH    O3 9523   2.789   6.425   2.640 -0.3986 -0.2578  0.2877
   96GLOH   H01 9524   2.709   6.461   2.683 -0.7849  1.3084 -1.6197
   97GLOH   H03 9525   4.523   3.569   2.897  0.0331 -1.2563  0.2274
   97GLOH    O1 9526   4.558   3.596   2.984 -0.7349  0.5083  0.0058
   97GLOH    C1 9527   4.599   3.735   2.967 -0.6946 -0.1061  0.3133
   97GLOH   H02 9528   4.703   3.746   2.939 -1.3713  0.3789 -2.0826
   97GLOH   H08 9529   4.597   3.781   3.066  2.6868 -0.4258  0.5669
   97GLOH    C2 9530   4.523   3.824   2.864 -0.2363  0.3304 -0.0989
   97GLOH   H04 9531   4.550   3.927   2.892 -1.4302  1.2357 -2.1786
   97GLOH    O2 9532   4.563   3.791   2.730 -0.2029  0.4382  0.4187
   97GLOH   H05 9533   4.544   3.697   2.711  0.7036  0.3098  0.1475
   97GLOH    C3 9534   4.370   3.811   2.876 -0.4399 -0.4617 -0.2506
   97GLOH   H06 9535   4.339   3.718   2.828  0.6112 -1.0117  0.1373
   97GLOH   H07 9536   4.322   3.894   2.823  1.1828 -0.0271 -1.0775
   97GLOH    O3 9537   4.331   3.821   3.014 -0.1124  0.2458  0.1415
   97GLOH   H01 9538   4.295   3.731   3.028  0.5793 -0.3981 -1.9154
   98GLOH   H03 9539   2.389   7.968   2.805 -2.2702 -0.0056 -0.8467
   98GLOH    O1 9540   2.366   8.028   2.878  0.5441  0.1102 -0.0039
   98GLOH    C1 9541   2.341   8.161   2.826 -0.2412  0.1527  0.9467
   98GLOH   H02 9542   2.273   8.221   2.887  0.1448  2.0526 -0.4449
   98GLOH   H08 9543   2.272   8.151   2.742  0.7431  2.1047 -0.1282
   98GLOH    C2 9544   2.463   8.246   2.794  0.0111  0.0057 -0.0210
   98GLOH   H04 9545   2.533   8.196   2.725  0.3336  0.5013 -0.0578
   98GLOH    O2 9546   2.436   8.372   2.721  0.1409 -0.2047  0.6959
   98GLOH   H05 9547   2.416   8.451   2.775 -1.3225  0.3965 -0.6791
   98GLOH    C3 9548   2.556   8.272   2.913 -0.3863  0.2392 -0.4384
   98GLOH   H06 9549   2.515   8.361   2.961 -0.1525 -0.1821  0.5313
   98GLOH   H07 9550   2.649   8.304   2.867 -1.3758  0.7755 -2.1391
   98GLOH    O3 9551   2.581   8.160   3.002 -0.4010 -1.0206 -0.6042
   98GLOH   H01 9552   2.499   8.107   2.994 -1.2797  0.3210 -0.7509
   99GLOH   H03 9553   0.872   6.419   1.952 -1.9435  1.4831  1.7665
   99GLOH    O1 9554   0.872   6.332   1.995  0.2907  0.3922 -0.2841
   99GLOH    C1 9555   0.826   6.356   2.128  0.0578  0.0712 -0.9527
   99GLOH   H02 9556   0.775   6.267   2.166  3.0211 -0.7571  1.2347
   99GLOH   H08 9557   0.756   6.439   2.119  0.0439  0.2368  0.6048
   99GLOH    C2 9558   0.930   6.384   2.235 -0.4389 -0.6845 -0.3969
   99GLOH   H04 9559   0.966   6.478   2.191 -1.1481 -0.2527 -0.0689
   99GLOH    O2 9560   0.874   6.408   2.371 -0.2184  0.0571  1.0716
   99GLOH   H05 9561   0.944   6.433   2.434  0.2718 -1.6041  1.2211
   99GLOH    C3 9562   1.049   6.279   2.230 -0.1456 -0.4627 -0.0168
   99GLOH   H06 9563   1.018   6.176   2.219  1.4161 -0.9559  0.0734
   99GLOH   H07 9564   1.105   6.288   2.323 -0.2591 -1.3713  0.1364
   99GLOH    O3 9565   1.141   6.293   2.123  0.0711 -0.0831  0.1067
   99GLOH   H01 9566   1.099   6.297   2.035 -0.5855  1.6290  0.4770
  100GLOH   H03 9567   8.467   6.102   0.011 -2.0806  1.4973 -2.3226
  100GLOH    O1 9568   8.404   6.029   0.022 -0.4647  0.3667 -0.1979
  100GLOH    C1 9569   8.396   5.953  -0.101  0.5864  0.1843  0.5886
  100GLOH   H02 9570   8.495   5.920  -0.132 -0.1505 -0.5128 -1.0715
  100GLOH   H08 9571   8.353   6.016  -0.179  2.0018  2.2737  1.4613
  100GLOH    C2 9572   8.314   5.821  -0.082  0.0707 -0.8015 -0.3992
  100GLOH   H04 9573   8.210   5.853  -0.064  0.3183  1.2666 -2.3112
  100GLOH    O2 9574   8.297   5.743  -0.204  0.2580  0.0873  0.7786
  100GLOH   H05 9575   8.253   5.793  -0.275 -1.5764  2.0374  3.1948
  100GLOH    C3 9576   8.376   5.732   0.027  0.2938 -0.5210  0.2854
  100GLOH   H06 9577   8.479   5.703   0.010  0.6527  0.7589  0.1789
  100GLOH   H07 9578   8.322   5.638   0.022 -2.9661  1.3853 -1.8479
  100GLOH    O3 9579   8.353   5.799   0.147  0.1122  0.3469 -0.1817
  100GLOH   H01 9580   8.369   5.893   0.124 -0.9343  0.4041 -0.7057
  101GLOH   H03 9581   1.340   6.662   2.466  2.4679 -1.8265  1.1753
  101GLOH    O1 9582   1.289   6.685   2.545  0.4931 -0.1632 -0.5299
  101GLOH    C1 9583   1.252   6.820   2.551  0.0663  0.0004  0.0768
  101GLOH   H02 9584   1.201   6.852   2.461 -1.2347 -1.9484  0.0969
  101GLOH   H08 9585   1.348   6.872   2.556  0.8379 -1.2178 -1.6478
  101GLOH    C2 9586   1.162   6.857   2.671 -0.0548  0.5728  0.1204
  101GLOH   H04 9587   1.207   6.822   2.765 -0.1383  1.1368  0.3720
  101GLOH    O2 9588   1.127   6.996   2.693 -0.1677 -0.1868  0.7055
  101GLOH   H05 9589   1.207   7.039   2.728 -0.1614 -0.4980  1.0667
  101GLOH    C3 9590   1.028   6.784   2.654 -0.1689 -0.3637  0.7730
  101GLOH   H06 9591   1.005   6.777   2.548 -4.1235  0.5139  1.4681
  101GLOH   H07 9592   0.951   6.846   2.700  0.1896 -0.1782  1.1243
  101GLOH    O3 9593   1.022   6.647   2.701 -0.1464  0.7930 -0.2848
  101GLOH   H01 9594   0.955   6.632   2.770  2.2358  0.5791  2.0612
  102GLOH   H03 9595   3.812   1.387   0.613  0.0628 -0.2253 -0.6611
  102GLOH    O1 9596   3.796   1.473   0.570  0.0977 -0.0225 -0.2670
  102GLOH    C1 9597   3.677   1.463   0.497  0.2799 -0.3172 -0.0490
  102GLOH   H02 9598   3.690   1.393   0.415 -1.2671 -1.3907  0.6119
  102GLOH   H08 9599   3.637   1.554   0.453  0.3813 -1.3539 -2.3645
  102GLOH    C2 9600   3.576   1.394   0.588  0.0145 -0.7547 -0.1685
  102GLOH   H04 9601   3.573   1.447   0.684  3.8202 -3.5187  1.5979
  102GLOH    O2 9602   3.445   1.395   0.524 -0.4486 -0.0926  0.2031
  102GLOH   H05 9603   3.426   1.475   0.472  2.4673  0.6524  0.1753
  102GLOH    C3 9604   3.616   1.249   0.607  0.6307 -0.3747  0.1892
  102GLOH   H06 9605   3.605   1.194   0.513  0.3727  1.2704 -0.7525
  102GLOH   H07 9606   3.547   1.207   0.680  2.7879 -1.8171  1.4792
  102GLOH    O3 9607   3.747   1.223   0.660  0.1327 -0.1069  0.0768
  102GLOH   H01 9608   3.783   1.147   0.612  0.7106  0.6505 -0.7032
  103GLOH   H03 9609   1.660   2.489   1.438 -0.7038 -0.9773  0.0116
  103GLOH    O1 9610   1.661   2.502   1.341  0.2210  0.4983  0.1967
  103GLOH    C1 9611   1.707   2.388   1.269  0.5573 -0.4097  0.0943
  103GLOH   H02 9612   1.669   2.387   1.167 -2.5516 -1.9685  1.2245
  103GLOH   H08 9613   1.665   2.297   1.311 -1.4890  0.1295 -0.6932
  103GLOH    C2 9614   1.859   2.371   1.271 -0.5808  0.0601  0.3828
  103GLOH   H04 9615   1.897   2.332   1.367 -0.7775  1.6555  1.1254
  103GLOH    O2 9616   1.901   2.277   1.172 -0.6363 -0.2310  0.1339
  103GLOH   H05 9617   1.903   2.190   1.217 -2.4190  0.1928  1.0935
  103GLOH    C3 9618   1.921   2.513   1.257  0.0319  0.0263  0.4623
  103GLOH   H06 9619   2.027   2.497   1.238 -0.1080 -0.5606  0.1776
  103GLOH   H07 9620   1.918   2.562   1.355 -0.1309  1.0739 -0.0579
  103GLOH    O3 9621   1.870   2.603   1.157 -0.0473  0.3653 -0.2181
  103GLOH   H01 9622   1.815   2.549   1.097  0.5960 -1.0077  0.3983
  104GLOH   H03 9623   2.773   2.124   0.428  0.2140 -0.7704 -0.2609
  104GLOH    O1 9624   2.839   2.091   0.492  0.1137  0.4064  0.4732
  104GLOH    C1 9625   2.943   2.025   0.420  0.6413  0.3405 -0.6022
  104GLOH   H02 9626   2.919   2.013   0.314  0.9787  0.4217 -0.6906
  104GLOH   H08 9627   2.964   1.931   0.470  0.5426  1.0750  0.8473
  104GLOH    C2 9628   3.064   2.114   0.418  0.0105  0.2431 -0.1353
  104GLOH   H04 9629   3.102   2.121   0.521  0.2371  0.7628 -0.2541
  104GLOH    O2 9630   3.171   2.056   0.341 -0.3690  0.4505 -0.4640
  104GLOH   H05 9631   3.144   2.037   0.250  1.1232  0.9797 -1.0460
  104GLOH    C3 9632   3.037   2.260   0.374 -0.0013 -0.2645  0.1856
  104GLOH   H06 9633   3.129   2.317   0.385 -0.5613  0.9702 -1.3257
  104GLOH   H07 9634   2.970   2.308   0.446  0.1732  0.5883 -0.2113
  104GLOH    O3 9635   2.991   2.271   0.239  0.7475 -0.6646  0.0013
  104GLOH   H01 9636   2.939   2.352   0.226 -0.0008 -1.1680 -0.1381
  105GLOH   H03 9637   3.748   8.377   2.302 -1.0989 -0.5829 -1.1237
  105GLOH    O1 9638   3.689   8.353   2.376  0.1191  0.0887  0.0853
  105GLOH    C1 9639   3.686   8.466   2.460 -0.0768 -0.1263  0.3659
  105GLOH   H02 9640   3.784   8.472   2.506  1.1526  0.3093 -2.2460
  105GLOH   H08 9641   3.613   8.463   2.542  0.1375 -0.7670  0.5409
  105GLOH    C2 9642   3.672   8.598   2.390 -0.7742  0.5350  0.2679
  105GLOH   H04 9643   3.582   8.600   2.328 -0.0757  0.7579 -0.7463
  105GLOH    O2 9644   3.668   8.698   2.491 -0.2208  0.0082 -0.5049
  105GLOH   H05 9645   3.734   8.698   2.562  1.3985 -2.7804 -1.9318
  105GLOH    C3 9646   3.800   8.606   2.295 -0.2854  0.0695  0.2684
  105GLOH   H06 9647   3.886   8.605   2.363 -1.8120 -2.8282  2.2669
  105GLOH   H07 9648   3.789   8.702   2.245  0.2443 -0.1190 -0.2076
  105GLOH    O3 9649   3.809   8.494   2.204 -0.3626 -0.2505 -0.6641
  105GLOH   H01 9650   3.903   8.479   2.186 -0.6014 -3.1813  0.2444
  106GLOH   H03 9651   1.421   4.772   2.359  1.2444 -0.5377  0.3635
  106GLOH    O1 9652   1.414   4.861   2.397 -0.0416 -0.4673 -0.0222
  106GLOH    C1 9653   1.320   4.865   2.505 -0.5813  0.2784 -0.6959
  106GLOH   H02 9654   1.354   4.931   2.585  0.0346 -1.4993  0.5493
  106GLOH   H08 9655   1.319   4.766   2.552  0.9812  1.0285  0.9597
  106GLOH    C2 9656   1.177   4.898   2.460  0.8568  0.4695  1.1820
  106GLOH   H04 9657   1.173   5.008   2.457  0.7374  0.4112 -1.4188
  106GLOH    O2 9658   1.132   4.848   2.329 -0.5379 -0.4038 -0.5939
  106GLOH   H05 9659   1.168   4.910   2.264 -0.8725  0.4597  0.0342
  106GLOH    C3 9660   1.087   4.844   2.569  0.1693  0.1063 -0.4825
  106GLOH   H06 9661   1.088   4.736   2.560 -0.5275  0.1692 -1.4011
  106GLOH   H07 9662   0.984   4.872   2.547 -0.1160 -1.1354 -0.7302
  106GLOH    O3 9663   1.127   4.873   2.708  0.0863  0.3894 -0.1260
  106GLOH   H01 9664   1.082   4.813   2.771  1.1581 -0.2372  0.0553
  107GLOH   H03 9665   8.493   4.706   2.827  0.5135 -0.1269  0.3689
  107GLOH    O1 9666   8.456   4.702   2.737  0.3014  0.0347  0.4483
  107GLOH    C1 9667   8.421   4.837   2.699  0.0844 -0.4335 -0.6415
  107GLOH   H02 9668   8.405   4.838   2.591  0.6467 -0.0224 -0.7250
  107GLOH   H08 9669   8.500   4.908   2.724 -1.6733  1.2040  0.3874
  107GLOH    C2 9670   8.294   4.884   2.774  0.2748 -0.5993 -0.1850
  107GLOH   H04 9671   8.223   4.801   2.759  0.2977 -0.8634  1.0609
  107GLOH    O2 9672   8.319   4.906   2.915  0.3738 -0.1501  0.2991
  107GLOH   H05 9673   8.387   4.975   2.926  2.9964 -2.4331 -0.9209
  107GLOH    C3 9674   8.244   5.014   2.696  0.6183  0.7511  0.5475
  107GLOH   H06 9675   8.153   5.062   2.732  0.5563  0.8783  0.2246
  107GLOH   H07 9676   8.231   4.995   2.590 -0.3728 -1.7225  1.0694
  107GLOH    O3 9677   8.343   5.116   2.700  0.2980  0.2168 -0.2550
  107GLOH   H01 9678   8.314   5.174   2.773  0.1607 -0.8647  0.5649
  108GLOH   H03 9679   2.902   3.537   1.880  1.3651  0.9462  2.1150
  108GLOH    O1 9680   2.911   3.622   1.832 -0.8068  0.2109  0.2922
  108GLOH    C1 9681   3.039   3.674   1.865 -0.1322 -0.6325 -0.0255
  108GLOH   H02 9682   3.082   3.741   1.791 -0.0035  0.3044  0.8764
  108GLOH   H08 9683   3.112   3.595   1.881  1.5275  1.1260  1.4801
  108GLOH    C2 9684   3.045   3.756   1.990  0.4757  0.9236  0.0809
  108GLOH   H04 9685   3.141   3.808   1.981  1.7821 -1.0087  2.3827
  108GLOH    O2 9686   2.942   3.854   1.979 -0.4340  0.2939  0.7961
  108GLOH   H05 9687   2.859   3.804   1.983  0.0655 -0.6289 -0.1209
  108GLOH    C3 9688   3.026   3.664   2.114 -0.4065  0.2829 -0.1722
  108GLOH   H06 9689   2.939   3.599   2.107  1.8608 -3.0913  1.4283
  108GLOH   H07 9690   3.013   3.728   2.201  1.8719  1.6488 -0.7877
  108GLOH    O3 9691   3.135   3.568   2.141 -0.3206 -0.1015 -0.2523
  108GLOH   H01 9692   3.189   3.595   2.218 -0.2215  2.2016 -1.0754
  109GLOH   H03 9693   4.150   4.130   2.655  1.4496  0.5798 -0.7319
  109GLOH    O1 9694   4.236   4.112   2.697  0.6113 -0.5593  0.5546
  109GLOH    C1 9695   4.337   4.046   2.610  0.7439 -0.1449  0.1203
  109GLOH   H02 9696   4.416   4.004   2.673  0.6696 -0.5457 -0.0539
  109GLOH   H08 9697   4.384   4.114   2.538  1.3475 -0.6679  0.0201
  109GLOH    C2 9698   4.275   3.930   2.533 -0.2029 -0.2627  0.3442
  109GLOH   H04 9699   4.270   3.842   2.598 -1.4400 -1.3011 -1.1406
  109GLOH    O2 9700   4.148   3.960   2.484 -0.0031  0.1975 -0.2633
  109GLOH   H05 9701   4.148   4.051   2.452  1.0668  0.0929 -0.5981
  109GLOH    C3 9702   4.366   3.889   2.413  0.2160  0.3424  0.0044
  109GLOH   H06 9703   4.324   3.817   2.343 -2.1177 -0.3390  2.0272
  109GLOH   H07 9704   4.455   3.840   2.452 -0.8586 -2.2912 -0.7856
  109GLOH    O3 9705   4.407   4.001   2.335 -0.6058  0.6742 -0.8439
  109GLOH   H01 9706   4.328   4.059   2.339 -0.8276  0.2894  0.6730
  110GLOH   H03 9707   0.283   3.679   0.073  0.0717 -1.0461 -1.8704
  110GLOH    O1 9708   0.303   3.767   0.035  0.0588 -0.2401 -0.0376
  110GLOH    C1 9709   0.405   3.839   0.099  0.4106  0.4026 -0.5147
  110GLOH   H02 9710   0.503   3.795   0.081  0.3211  0.3004 -0.7569
  110GLOH   H08 9711   0.382   3.825   0.205  1.4239  0.9705 -0.2160
  110GLOH    C2 9712   0.410   3.990   0.076 -0.0725  0.0974 -0.2817
  110GLOH   H04 9713   0.309   4.033   0.085 -0.8298 -1.4804 -0.9639
  110GLOH    O2 9714   0.489   4.057   0.179  0.1939  0.5804  0.2424
  110GLOH   H05 9715   0.485   4.154   0.191  3.0700  0.8420 -0.5737
  110GLOH    C3 9716   0.457   4.029  -0.070 -0.1136 -0.4318 -0.1168
  110GLOH   H06 9717   0.399   3.968  -0.140  1.6428 -1.6446 -0.5572
  110GLOH   H07 9718   0.559   3.994  -0.083 -0.6134 -1.7360 -0.6389
  110GLOH    O3 9719   0.428   4.163  -0.100 -0.2148  0.1242  0.1029
  110GLOH   H01 9720   0.456   4.229  -0.035  1.1484  0.3580 -0.7079
  111GLOH   H03 9721   2.090   4.809   1.031  0.3227  0.3959  0.6465
  111GLOH    O1 9722   2.163   4.746   1.014  0.1065  0.2785  0.1487
  111GLOH    C1 9723   2.104   4.648   0.927  0.3862 -0.4706 -0.2539
  111GLOH   H02 9724   1.996   4.638   0.934  0.4706 -1.2824 -0.0255
  111GLOH   H08 9725   2.143   4.550   0.956  1.2885 -0.1948 -0.5076
  111GLOH    C2 9726   2.138   4.672   0.782 -0.5460  0.5842  0.0089
  111GLOH   H04 9727   2.241   4.636   0.768 -1.0998 -0.6034 -1.1371
  111GLOH    O2 9728   2.060   4.595   0.689  0.3049 -0.1914 -0.0492
  111GLOH   H05 9729   2.096   4.611   0.600  1.3374 -1.3740  0.1416
  111GLOH    C3 9730   2.132   4.816   0.732  0.5205 -0.3419  1.2046
  111GLOH   H06 9731   2.193   4.875   0.800  3.6646  0.1400 -1.9162
  111GLOH   H07 9732   2.030   4.856   0.738  0.7201  0.3553  0.0791
  111GLOH    O3 9733   2.172   4.827   0.592 -0.0969 -0.0254 -0.5504
  111GLOH   H01 9734   2.087   4.818   0.545  0.0451  2.0165 -1.2550
  112GLOH   H03 9735   2.308   4.599   2.311  0.0161 -1.1981  0.6967
  112GLOH    O1 9736   2.246   4.591   2.386 -0.3371 -0.4423  0.4906
  112GLOH    C1 9737   2.142   4.498   2.356  0.1652 -0.2378  1.0528
  112GLOH   H02 9738   2.109   4.447   2.446  1.1516 -0.2225  1.4289
  112GLOH   H08 9739   2.179   4.415   2.295  0.4148 -0.1150  1.0377
  112GLOH    C2 9740   2.026   4.564   2.284  0.1289 -0.1019  1.0121
  112GLOH   H04 9741   2.074   4.609   2.196  0.0514 -1.1018  0.4457
  112GLOH    O2 9742   1.935   4.472   2.234  0.0151  1.0341  0.2278
  112GLOH   H05 9743   1.905   4.508   2.150  1.1514  0.3507 -0.4829
  112GLOH    C3 9744   1.944   4.667   2.365  0.4175  1.3547 -0.5156
  112GLOH   H06 9745   1.880   4.717   2.292  0.7081 -0.7490 -2.2579
  112GLOH   H07 9746   2.018   4.745   2.386  1.3112  0.3168  0.2809
  112GLOH    O3 9747   1.880   4.613   2.479 -0.1853  0.2343 -0.0007
  112GLOH   H01 9748   1.865   4.685   2.544  0.1261  0.5801 -0.3125
  113GLOH   H03 9749   1.348   4.260   0.246 -1.9013 -0.7270 -0.1439
  113GLOH    O1 9750   1.332   4.354   0.225  0.4490 -0.2470  0.0789
  113GLOH    C1 9751   1.445   4.416   0.163 -0.2630 -0.2113  0.0844
  113GLOH   H02 9752   1.533   4.416   0.228 -1.3224  0.8508  1.5453
  113GLOH   H08 9753   1.428   4.521   0.140 -0.1720 -0.4917 -1.2898
  113GLOH    C2 9754   1.485   4.358   0.028  0.2753 -0.7635  0.5600
  113GLOH   H04 9755   1.389   4.337  -0.022 -0.1964 -2.4383  2.1197
  113GLOH    O2 9756   1.548   4.458  -0.053 -0.2170  0.6590 -0.2762
  113GLOH   H05 9757   1.639   4.471  -0.020 -0.1643  0.3051 -0.2772
  113GLOH    C3 9758   1.564   4.227   0.039  0.3263 -0.2085 -0.1497
  113GLOH   H06 9759   1.492   4.153   0.073  1.4134 -2.1656 -1.9972
  113GLOH   H07 9760   1.636   4.246   0.118  0.9063 -0.7678 -0.5340
  113GLOH    O3 9761   1.630   4.182  -0.081  0.2221 -0.0209  0.3319
  113GLOH   H01 9762   1.645   4.086  -0.074 -0.3181 -0.0648  0.9377
  114GLOH   H03 9763   0.259   8.632   2.794 -0.2493 -0.1680 -0.1629
  114GLOH    O1 9764   0.220   8.674   2.873  0.1855 -0.0203 -0.0275
  114GLOH    C1 9765   0.335   8.720   2.941 -0.1002  0.3928  0.0103
  114GLOH   H02 9766   0.409   8.639   2.946 -1.6067 -1.1168 -1.4260
  114GLOH   H08 9767   0.326   8.759   3.042  1.4320  2.1447 -0.4982
  114GLOH    C2 9768   0.398   8.840   2.868  0.6923 -0.1106  0.5233
  114GLOH   H04 9769   0.326   8.922   2.860 -0.8421 -1.5151 -0.5592
  114GLOH    O2 9770   0.511   8.884   2.947  0.5095 -0.4377 -0.4495
  114GLOH   H05 9771   0.565   8.941   2.889 -0.4649  0.8374 -0.1372
  114GLOH    C3 9772   0.427   8.811   2.723 -0.0769  0.1927  0.5389
  114GLOH   H06 9773   0.340   8.791   2.661  1.4750 -3.3874 -0.6232
  114GLOH   H07 9774   0.484   8.718   2.726  1.3445  1.0727  1.4703
  114GLOH    O3 9775   0.512   8.919   2.672  0.8184 -0.2646  0.2758
  114GLOH   H01 9776   0.566   8.894   2.595 -1.5553 -3.4770 -0.4437
  115GLOH   H03 9777   8.200   6.317   2.776 -1.8696  1.7464  0.2223
  115GLOH    O1 9778   8.196   6.340   2.681  0.1478  0.5704 -0.1802
  115GLOH    C1 9779   8.334   6.327   2.638 -0.2324  0.2434  0.1833
  115GLOH   H02 9780   8.344   6.343   2.531 -1.1625 -1.0595 -0.0972
  115GLOH   H08 9781   8.371   6.225   2.645  1.3378  0.8221  0.6642
  115GLOH    C2 9782   8.436   6.418   2.705 -0.0240  1.1408  0.3170
  115GLOH   H04 9783   8.451   6.395   2.812  2.4972  0.5130 -0.1167
  115GLOH    O2 9784   8.567   6.404   2.645 -0.3951 -0.3601  0.3196
  115GLOH   H05 9785   8.632   6.391   2.716  1.1160  2.3616 -0.5174
  115GLOH    C3 9786   8.404   6.574   2.702  0.6328  0.3975 -0.3992
  115GLOH   H06 9787   8.418   6.606   2.598 -0.0187  1.1602 -0.2569
  115GLOH   H07 9788   8.486   6.616   2.760 -0.7518  3.2112 -0.4107
  115GLOH    O3 9789   8.281   6.599   2.767 -0.1413  0.7854 -0.8781
  115GLOH   H01 9790   8.225   6.521   2.752 -0.1625  0.3901  1.1170
  116GLOH   H03 9791   8.306   3.516   2.536 -0.2603  2.5376  0.0437
  116GLOH    O1 9792   8.286   3.509   2.441 -0.4796  0.4150  0.2054
  116GLOH    C1 9793   8.397   3.564   2.378 -0.5912 -0.1079 -0.3183
  116GLOH   H02 9794   8.362   3.587   2.277 -0.8416 -1.8572 -0.6340
  116GLOH   H08 9795   8.473   3.487   2.370  0.8892  1.4410 -1.5886
  116GLOH    C2 9796   8.444   3.690   2.456 -0.1802 -0.0739  0.2671
  116GLOH   H04 9797   8.362   3.762   2.466 -0.6081 -0.2473 -1.7249
  116GLOH    O2 9798   8.499   3.653   2.582 -0.0136  0.7975 -0.2698
  116GLOH   H05 9799   8.431   3.608   2.635  0.6615  0.1190  0.0348
  116GLOH    C3 9800   8.542   3.763   2.357  1.0623 -0.3447  0.2018
  116GLOH   H06 9801   8.634   3.706   2.345  0.8414 -0.1038 -2.9820
  116GLOH   H07 9802   8.580   3.853   2.405 -2.4191  0.5861  1.3426
  116GLOH    O3 9803   8.486   3.790   2.232 -0.1445  0.0726 -0.4156
  116GLOH   H01 9804   8.459   3.883   2.220 -1.6379 -0.2446  0.3420
  117GLOH   H03 9805   8.329   4.951   0.463 -1.0308 -0.7270 -1.0970
  117GLOH    O1 9806   8.364   4.861   0.476  0.6747  0.0234 -0.3595
  117GLOH    C1 9807   8.378   4.823   0.615 -0.3096 -0.3887  0.1146
  117GLOH   H02 9808   8.285   4.784   0.655 -0.4144  0.6761  0.9186
  117GLOH   H08 9809   8.406   4.906   0.680  2.1788 -0.8811 -0.2505
  117GLOH    C2 9810   8.492   4.721   0.649  0.2491 -0.1759 -0.0260
  117GLOH   H04 9811   8.499   4.724   0.759 -2.4639  0.4819  0.1521
  117GLOH    O2 9812   8.470   4.588   0.592  0.4164 -0.2517 -0.2049
  117GLOH   H05 9813   8.378   4.562   0.609  0.3349  0.7932  1.1094
  117GLOH    C3 9814   8.617   4.778   0.585 -1.0168  0.2576  1.0126
  117GLOH   H06 9815   8.616   4.887   0.595  0.3438  0.4604 -0.8861
  117GLOH   H07 9816   8.607   4.769   0.477 -2.8346  1.1837  1.0743
  117GLOH    O3 9817   8.743   4.712   0.609 -0.3473 -0.5463 -0.2749
  117GLOH   H01 9818   8.740   4.620   0.577 -0.2026 -1.3672  1.9850
  118GLOH   H03 9819   2.279   5.118   0.313 -1.1147  0.6713 -0.8061
  118GLOH    O1 9820   2.340   5.151   0.245 -0.0267 -0.4632 -0.3987
  118GLOH    C1 9821   2.305   5.126   0.108  0.2866 -0.1822 -0.2622
  118GLOH   H02 9822   2.261   5.211   0.055 -1.3925 -0.5432  0.5324
  118GLOH   H08 9823   2.231   5.046   0.109  2.0156 -1.8624 -1.1584
  118GLOH    C2 9824   2.418   5.074   0.022 -1.1916 -0.8164 -0.4212
  118GLOH   H04 9825   2.367   5.025  -0.062 -0.4552  0.2251 -1.4988
  118GLOH    O2 9826   2.498   5.187  -0.019 -0.3097 -0.1754  0.3627
  118GLOH   H05 9827   2.585   5.172   0.020 -0.7260 -1.4215  0.8383
  118GLOH    C3 9828   2.510   4.973   0.100 -0.6362 -0.2122  0.2120
  118GLOH   H06 9829   2.583   4.939   0.026 -0.0043  1.2778  0.1332
  118GLOH   H07 9830   2.443   4.893   0.130  0.6810 -0.9240  1.3239
  118GLOH    O3 9831   2.575   5.017   0.217  0.0805 -0.7525 -0.2949
  118GLOH   H01 9832   2.507   5.080   0.247 -0.5984 -1.4851 -0.2816
  119GLOH   H03 9833   9.051   6.247   0.423 -1.0208 -0.3544 -2.1758
  119GLOH    O1 9834   9.115   6.180   0.391 -0.1987 -0.4724 -0.3580
  119GLOH    C1 9835   9.077   6.046   0.423 -0.0083  1.0541  0.2953
  119GLOH   H02 9836   9.165   5.981   0.418  0.3366  1.6296 -1.2548
  119GLOH   H08 9837   8.999   6.024   0.351  0.2930  0.8878  0.0154
  119GLOH    C2 9838   9.029   6.007   0.562 -1.2050  0.3771  0.0643
  119GLOH   H04 9839   9.012   5.899   0.555 -0.9079  0.4626 -2.4146
  119GLOH    O2 9840   9.127   6.033   0.661  0.6544  1.0968  0.1902
  119GLOH   H05 9841   9.113   5.974   0.736 -1.4784  0.4809 -0.6573
  119GLOH    C3 9842   8.892   6.071   0.602 -1.0388  0.4876  0.1292
  119GLOH   H06 9843   8.904   6.180   0.607 -1.5256  0.5597 -0.2279
  119GLOH   H07 9844   8.870   6.044   0.706  1.8729 -0.4231  0.5495
  119GLOH    O3 9845   8.786   6.033   0.514  0.1206 -0.3523  0.3709
  119GLOH   H01 9846   8.707   6.075   0.553  0.6045 -0.1483  1.1473
  120GLOH   H03 9847   1.211   4.449   0.153 -0.3794 -0.2762  0.6485
  120GLOH    O1 9848   1.166   4.505   0.087  0.2468 -0.0321  0.4207
  120GLOH    C1 9849   1.064   4.425   0.025 -0.1301  0.0133  0.1699
  120GLOH   H02 9850   0.970   4.480   0.032 -0.2149 -0.0777 -0.2538
  120GLOH   H08 9851   1.038   4.337   0.084  0.1880  0.9996  1.8347
  120GLOH    C2 9852   1.094   4.394  -0.124 -0.2766  0.2237 -0.2252
  120GLOH   H04 9853   1.180   4.326  -0.116  0.0517  0.8331  1.4892
  120GLOH    O2 9854   0.979   4.344  -0.193  0.2293 -0.1357 -0.4602
  120GLOH   H05 9855   0.937   4.415  -0.243  0.1100 -1.5033 -2.3338
  120GLOH    C3 9856   1.152   4.518  -0.196  0.2550  0.3122 -0.3178
  120GLOH   H06 9857   1.072   4.592  -0.187  0.7123  0.5104  2.4746
  120GLOH   H07 9858   1.177   4.495  -0.300  1.5445 -0.9614  0.2651
  120GLOH    O3 9859   1.267   4.587  -0.139  0.3877  0.0472 -0.5771
  120GLOH   H01 9860   1.252   4.590  -0.043 -0.0667 -0.4413 -0.6345
  121ACOH    H4 9861   0.010   9.237   1.301  0.3246 -2.2238 -0.4911
  121ACOH    O2 9862  -0.039   9.223   1.384 -0.0437  0.4814 -0.2063
  121ACOH    C2 9863   0.043   9.154   1.465  0.3362  0.0007  0.4288
  121ACOH    O1 9864   0.163   9.148   1.448  0.2590  0.1082 -0.2477
  121ACOH    C1 9865  -0.016   9.096   1.588 -0.0890  1.1190  0.0192
  121ACOH    H1 9866  -0.098   9.030   1.560 -0.1460  1.6194 -1.0077
  121ACOH    H2 9867  -0.060   9.174   1.649 -0.6156  1.1210 -0.3605
  121ACOH    H3 9868   0.057   9.029   1.635 -1.0060  0.4968  0.5775
  122ACOH    H4 9869   3.055   6.703   0.362  0.0029  2.6068  0.5448
  122ACOH    O2 9870   3.041   6.733   0.270 -0.1921 -0.0415 -0.3453
  122ACOH    C2 9871   3.163   6.744   0.215  0.2890  0.1495 -0.2651
  122ACOH    O1 9872   3.269   6.750   0.274 -0.2300  0.7034  0.0772
  122ACOH    C1 9873   3.147   6.770   0.068  0.0214  0.7166  0.1467
  122ACOH    H1 9874   3.249   6.788   0.034  0.4888  1.1750  1.7544
  122ACOH    H2 9875   3.096   6.865   0.047 -1.4955  0.1482  1.1845
  122ACOH    H3 9876   3.116   6.683   0.010  0.7124  2.9722 -3.8163
  123ACOH    H4 9877   4.088   3.607   1.814 -1.1754  0.4951 -0.5705
  123ACOH    O2 9878   4.107   3.699   1.842  0.7827 -0.0373 -0.1088
  123ACOH    C2 9879   4.041   3.771   1.750 -0.6597 -0.4062 -0.5389
  123ACOH    O1 9880   4.001   3.738   1.643 -0.2649 -0.5120  0.4498
  123ACOH    C1 9881   4.062   3.911   1.794 -0.7121 -0.7649 -0.6622
  123ACOH    H1 9882   4.019   3.937   1.891 -0.4529 -0.7919 -0.5393
  123ACOH    H2 9883   4.021   3.981   1.721  2.2139 -1.2786 -2.8703
  123ACOH    H3 9884   4.168   3.936   1.797  0.0314 -3.7552 -0.1319
  124ACOH    H4 9885   4.249   1.473   2.156 -0.1793  0.6533 -0.4551
  124ACOH    O2 9886   4.305   1.437   2.085 -0.2134 -0.7494  0.2059
  124ACOH    C2 9887   4.326   1.540   2.007 -0.0468 -0.4342  0.7861
  124ACOH    O1 9888   4.279   1.648   2.032  0.5150  0.2490 -0.0129
  124ACOH    C1 9889   4.425   1.503   1.898  0.4093  0.4706  0.4217
  124ACOH    H1 9890   4.449   1.589   1.835 -0.3319  0.7895  0.5770
  124ACOH    H2 9891   4.382   1.427   1.833 -0.7416  0.9512  0.6187
  124ACOH    H3 9892   4.511   1.461   1.950  0.5857 -3.3745 -2.6724
  125ACOH    H4 9893   9.814   2.861   2.246  0.4984  1.9044 -1.6782
  125ACOH    O2 9894   9.904   2.834   2.272 -0.5085  0.4074  0.3339
  125ACOH    C2 9895   9.898   2.808   2.402  0.1639 -0.0046 -0.1016
  125ACOH    O1 9896   9.806   2.830   2.473  0.1143  0.1280  0.5803
  125ACOH    C1 9897  10.027   2.763   2.450 -0.9973  0.3170 -0.1110
  125ACOH    H1 9898  10.076   2.711   2.367 -1.4892 -0.5818  0.1461
  125ACOH    H2 9899  10.016   2.690   2.531 -1.3618 -1.2136 -1.4967
  125ACOH    H3 9900  10.092   2.844   2.482  0.1688 -2.0118  3.8588
  126ACOH    H4 9901   9.434   4.550   2.066 -1.5850  2.0207 -2.2828
  126ACOH    O2 9902   9.346   4.557   2.108 -0.5300  0.6865  0.2713
  126ACOH    C2 9903   9.364   4.573   2.242 -0.0325  0.7288  0.0217
  126ACOH    O1 9904   9.474   4.557   2.292 -0.4903 -0.3454 -0.1697
  126ACOH    C1 9905   9.237   4.590   2.320 -0.2985  0.5503  0.6403
  126ACOH    H1 9906   9.244   4.656   2.406  1.2021  1.0893  0.1159
  126ACOH    H2 9907   9.202   4.496   2.362  1.8560 -0.6520 -0.1698
  126ACOH    H3 9908   9.150   4.615   2.260 -1.1632 -3.0443  0.2977
  127ACOH    H4 9909   2.755   7.186   1.880  3.1023  2.5532  2.6933
  127ACOH    O2 9910   2.830   7.129   1.853  0.2280 -0.1002 -0.2412
  127ACOH    C2 9911   2.811   7.120   1.719 -0.4154  0.2768  0.0112
  127ACOH    O1 9912   2.754   7.191   1.641 -0.3524  0.0365 -0.0297
  127ACOH    C1 9913   2.883   6.998   1.666 -0.8232  0.7223 -0.4373
  127ACOH    H1 9914   2.859   6.917   1.735  1.0559 -0.2580 -0.9044
  127ACOH    H2 9915   2.991   7.007   1.665 -0.8108  0.6243 -0.0210
  127ACOH    H3 9916   2.848   6.982   1.564 -1.4181  1.1726 -0.3135
  128ACOH    H4 9917   8.332   4.337   1.511  0.8383 -0.0104  3.5383
  128ACOH    O2 9918   8.236   4.322   1.519  0.4303  0.1111 -0.2404
  128ACOH    C2 9919   8.189   4.363   1.400  0.5140 -0.1717  0.2856
  128ACOH    O1 9920   8.247   4.417   1.307 -0.4111 -0.2127 -0.3867
  128ACOH    C1 9921   8.041   4.335   1.395  0.4994 -0.1050  0.4883
  128ACOH    H1 9922   8.014   4.266   1.316 -0.8059  1.2419 -0.2833
  128ACOH    H2 9923   7.992   4.429   1.367 -0.8578 -0.3984  1.7971
  128ACOH    H3 9924   8.003   4.304   1.492 -1.2448  0.8095  0.1222
  129ACOH    H4 9925   3.750   6.441   0.426 -0.1978  3.1450  0.3944
  129ACOH    O2 9926   3.828   6.445   0.484 -0.1560  0.6109  0.5935
  129ACOH    C2 9927   3.897   6.337   0.448  0.1907 -0.0632 -0.0965
  129ACOH    O1 9928   3.890   6.272   0.346  0.2123  0.0121 -0.0038
  129ACOH    C1 9929   4.019   6.328   0.535 -0.2138 -0.9127 -0.1159
  129ACOH    H1 9930   3.982   6.314   0.637 -0.3468 -0.5106 -0.1079
  129ACOH    H2 9931   4.074   6.422   0.533  0.8232 -1.4574  1.5521
  129ACOH    H3 9932   4.086   6.247   0.507  0.3505 -0.5596  0.1895
  130ACOH    H4 9933   0.117   9.305   2.001 -1.4916 -0.5121 -1.3856
  130ACOH    O2 9934   0.084   9.396   1.994  0.6421  0.3164 -0.9873
  130ACOH    C2 9935  -0.039   9.368   1.946  0.4074 -0.5257 -0.5090
  130ACOH    O1 9936  -0.099   9.259   1.950 -0.5405 -0.4709  0.5380
  130ACOH    C1 9937  -0.117   9.496   1.929  0.6548  0.4385 -0.4442
  130ACOH    H1 9938  -0.096   9.573   2.004  1.9911 -2.3046  2.1219
  130ACOH    H2 9939  -0.222   9.468   1.920  1.0750 -0.3292 -3.4265
  130ACOH    H3 9940  -0.079   9.532   1.834 -1.4887 -1.5718 -2.1501
  131ACOH    H4 9941   1.672   7.678   2.561 -0.2092  0.5367  0.7403
  131ACOH    O2 9942   1.628   7.599   2.595  0.0773  0.0049 -0.1063
  131ACOH    C2 9943   1.590   7.523   2.493  0.3977 -0.1973  0.0035
  131ACOH    O1 9944   1.593   7.541   2.369  0.3026  0.1733  0.1604
  131ACOH    C1 9945   1.570   7.387   2.545  0.1484  0.8155 -1.1695
  131ACOH    H1 9946   1.638   7.315   2.500  1.0103  0.2310  1.0037
  131ACOH    H2 9947   1.470   7.363   2.508  0.1790  2.2716 -2.2468
  131ACOH    H3 9948   1.580   7.372   2.652  1.1642  2.7152 -0.9724
  132ACOH    H4 9949   5.624   9.692   1.396 -0.8915 -0.2811 -0.2606
  132ACOH    O2 9950   5.615   9.687   1.299  0.4195  0.2322 -0.4219
  132ACOH    C2 9951   5.557   9.564   1.280 -0.2486 -0.0206 -0.0582
  132ACOH    O1 9952   5.534   9.483   1.364  0.3163  0.4591 -0.4211
  132ACOH    C1 9953   5.535   9.527   1.135  0.5025 -0.2661 -0.1113
  132ACOH    H1 9954   5.552   9.619   1.079 -1.1935  0.1872  0.0794
  132ACOH    H2 9955   5.429   9.500   1.135  0.6738 -0.9367 -0.0756
  132ACOH    H3 9956   5.603   9.446   1.110  0.0513 -0.3317 -1.1509
  133ACOH    H4 9957   1.353   1.227   2.104  1.6370  1.9650 -0.6102
  133ACOH    O2 9958   1.344   1.180   2.020  0.0774  0.5840  0.2949
  133ACOH    C2 9959   1.265   1.249   1.934  0.7180  0.0887  0.5368
  133ACOH    O1 9960   1.221   1.362   1.954 -0.2093  0.0096 -0.5110
  133ACOH    C1 9961   1.220   1.164   1.820  0.6329  0.5833  0.0142
  133ACOH    H1 9962   1.177   1.070   1.854  0.3585 -0.2209 -2.4290
  133ACOH    H2 9963   1.308   1.137   1.761  0.1540 -2.0971  0.4686
  133ACOH    H3 9964   1.151   1.222   1.758  0.4324 -0.9168 -1.1929
  134ACOH    H4 9965   0.433   1.296   2.635  1.3438  0.8367 -0.8747
  134ACOH    O2 9966   0.432   1.362   2.705  0.4507 -0.1296  0.0400
  134ACOH    C2 9967   0.317   1.429   2.702  0.0638  0.2281  0.4428
  134ACOH    O1 9968   0.227   1.398   2.628  0.4548  0.5859  0.3753
  134ACOH    C1 9969   0.305   1.528   2.817 -0.1787 -0.1942  0.5139
  134ACOH    H1 9970   0.269   1.625   2.784 -2.8346 -0.6565  1.9020
  134ACOH    H2 9971   0.390   1.529   2.885 -0.5129 -1.6702  0.9964
  134ACOH    H3 9972   0.222   1.497   2.882  0.7210 -2.2131  0.7499
  135ACOH    H4 9973   1.018   7.982   0.434  1.6960  0.0763  3.5286
  135ACOH    O2 9974   0.930   8.010   0.464  0.3985 -0.4343  0.3520
  135ACOH    C2 9975   0.855   7.903   0.482 -0.4184 -0.7618  0.2912
  135ACOH    O1 9976   0.897   7.788   0.473 -0.0695  0.2640  0.2579
  135ACOH    C1 9977   0.716   7.945   0.506  0.6356 -0.4371  0.1616
  135ACOH    H1 9978   0.651   7.858   0.519  1.3506 -1.0428 -0.2650
  135ACOH    H2 9979   0.691   8.002   0.418  1.4645  0.1078  0.2699
  135ACOH    H3 9980   0.711   8.006   0.596 -0.6828 -0.0992 -0.1461
  136ACOH    H4 9981   4.761   2.119   1.079 -0.2483 -0.7994 -1.1087
  136ACOH    O2 9982   4.665   2.121   1.093 -0.0505  0.4616  0.1948
  136ACOH    C2 9983   4.634   2.257   1.092  0.2714  0.1018 -0.0672
  136ACOH    O1 9984   4.721   2.344   1.091  1.2320  0.4576 -0.3898
  136ACOH    C1 9985   4.504   2.292   1.155 -0.3914 -0.3567 -0.0792
  136ACOH    H1 9986   4.482   2.223   1.236 -2.0114 -1.0605 -1.1001
  136ACOH    H2 9987   4.426   2.263   1.085 -0.5264 -1.8095  0.6555
  136ACOH    H3 9988   4.496   2.398   1.179  2.7674  0.2916 -1.5678
  137ACOH    H4 9989   0.915   6.865   0.339  0.9959 -0.5733  0.8955
  137ACOH    O2 9990   0.874   6.777   0.333  0.3228 -0.2244  0.2158
  137ACOH    C2 9991   0.979   6.698   0.339 -0.1034 -0.2379  0.5333
  137ACOH    O1 9992   1.087   6.719   0.282  0.4219 -0.3017 -0.3130
  137ACOH    C1 9993   0.930   6.559   0.383 -0.2532  0.0703 -0.3001
  137ACOH    H1 9994   1.013   6.488   0.386  1.6660  2.3406  2.2819
  137ACOH    H2 9995   0.866   6.525   0.302  0.9818  1.6962 -2.0074
  137ACOH    H3 9996   0.882   6.566   0.480 -1.3735 -0.9225 -0.7635
  138ACOH    H4 9997   4.999   9.699   2.395  1.0674  3.5534  3.1400
  138ACOH    O2 9998   5.064   9.636   2.430 -0.2287  0.2301 -0.1383
  138ACOH    C2 9999   5.013   9.516   2.405 -0.4571 -0.8814  0.2408
  138ACOH    O110000   4.942   9.482   2.313  0.0322 -0.3678  0.6681
  138ACOH    C110001   5.084   9.431   2.504  0.1106  0.5795  0.1109
  138ACOH    H110002   5.025   9.341   2.522  2.3893 -0.7588  1.0692
  138ACOH    H210003   5.095   9.472   2.604 -1.0244  1.0929  0.0376
  138ACOH    H310004   5.187   9.406   2.479  0.1694  1.8521 -1.0136
  139ACOH    H410005   8.483   6.826   2.480  0.0009 -0.1495 -1.6650
  139ACOH    O210006   8.580   6.824   2.477  0.0648 -0.1914  0.1559
  139ACOH    C210007   8.607   6.800   2.350  0.5513 -0.5037  0.8102
  139ACOH    O110008   8.531   6.809   2.254  0.0485 -0.5895 -1.0044
  139ACOH    C110009   8.752   6.770   2.334  0.2062  0.2014  0.1013
  139ACOH    H110010   8.774   6.675   2.382 -1.4413 -0.1581  0.1402
  139ACOH    H210011   8.806   6.851   2.385 -0.9291 -0.4375  2.3649
  139ACOH    H310012   8.775   6.773   2.227  2.4569 -3.2328  0.4050
  140ACOH    H410013   5.287   2.989   0.780 -0.2077  2.8999 -0.1996
  140ACOH    O210014   5.372   3.009   0.737  0.3536  0.2147 -0.4318
  140ACOH    C210015   5.358   3.137   0.702  0.2317 -0.3376  0.5746
  140ACOH    O110016   5.263   3.210   0.709 -0.3733 -0.2484 -0.5938
  140ACOH    C110017   5.487   3.194   0.661  0.6799  0.0385  0.6628
  140ACOH    H110018   5.532   3.119   0.596 -0.5085 -0.1084  0.0112
  140ACOH    H210019   5.544   3.199   0.754  0.0647 -1.0745  1.1093
  140ACOH    H310020   5.484   3.284   0.600 -0.5488 -0.0814  0.5363
  141ACOH    H410021   1.152   9.027   0.219  4.1361  0.5049  3.3392
  141ACOH    O210022   1.093   9.065   0.286 -0.1622  0.0693  0.0386
  141ACOH    C210023   0.985   8.988   0.298 -0.1199 -0.0267  0.2230
  141ACOH    O110024   0.955   8.888   0.235 -0.2256  0.1352  0.4797
  141ACOH    C110025   0.889   9.025   0.405  0.8637  0.5308  0.6037
  141ACOH    H110026   0.888   9.134   0.405 -1.1531  0.5174  1.0126
  141ACOH    H210027   0.939   8.984   0.493  1.6630 -1.0333 -0.5528
  141ACOH    H310028   0.788   8.987   0.417  0.9932 -0.3133 -0.9049
  142ACOH    H410029   4.852   9.492   2.153 -0.5012 -0.0257  0.1390
  142ACOH    O210030   4.800   9.491   2.071 -0.1122  0.2376 -0.1127
  142ACOH    C210031   4.667   9.491   2.101  0.2214 -0.3878 -1.0610
  142ACOH    O110032   4.606   9.506   2.213  0.2070 -0.3934 -0.0413
  142ACOH    C110033   4.596   9.493   1.967 -0.4310  0.2267 -0.2360
  142ACOH    H110034   4.643   9.566   1.902  0.4097  2.4224  2.7144
  142ACOH    H210035   4.493   9.526   1.977 -0.1264  0.6762  1.6244
  142ACOH    H310036   4.601   9.393   1.923  0.7340  0.9577 -1.8081
  143ACOH    H410037   9.202   8.147   1.236  1.0823  0.6203 -0.7686
  143ACOH    O210038   9.151   8.193   1.168  0.0440  0.2316 -0.2597
  143ACOH    C210039   9.055   8.107   1.123 -0.6071  0.1492  0.5180
  143ACOH    O110040   9.050   7.988   1.144 -0.0401 -0.1008  0.2488
  143ACOH    C110041   8.964   8.168   1.025 -0.6444 -0.2880  0.0179
  143ACOH    H110042   8.920   8.263   1.057 -0.0041 -0.5582  1.7923
  143ACOH    H210043   8.885   8.094   1.017 -0.5576 -0.3663 -0.1186
  143ACOH    H310044   9.017   8.174   0.930 -0.5243 -1.2605  0.0178
  144ACOH    H410045   9.069   7.247   2.064 -0.5985 -0.0465 -1.2646
  144ACOH    O210046   8.973   7.259   2.061 -0.7634 -0.7916  0.2709
  144ACOH    C210047   8.942   7.389   2.029 -0.2726 -0.4084  0.7538
  144ACOH    O110048   9.027   7.459   1.974 -0.2703 -0.4579 -0.1157
  144ACOH    C110049   8.794   7.404   2.009 -0.9701  0.0444  0.7264
  144ACOH    H110050   8.745   7.454   2.093 -2.7524 -0.8109  0.2222
  144ACOH    H210051   8.745   7.307   1.996  0.2275 -0.4187 -0.4133
  144ACOH    H310052   8.771   7.470   1.925 -2.5628 -0.7139  0.5501
  145ACOH    H410053   0.942   1.564   1.500  0.6462  0.8589  1.0018
  145ACOH    O210054   1.022   1.509   1.501 -0.1569 -0.3630 -0.0583
  145ACOH    C210055   1.087   1.496   1.385 -0.0599 -0.3148 -0.1961
  145ACOH    O110056   1.045   1.521   1.275 -0.1927 -0.4887 -0.1217
  145ACOH    C110057   1.228   1.454   1.405  0.8271  0.0624  0.2748
  145ACOH    H110058   1.272   1.514   1.485  2.2525  0.2914 -0.6520
  145ACOH    H210059   1.288   1.457   1.313 -2.3045 -1.0693 -1.8913
  145ACOH    H310060   1.222   1.351   1.440  3.1480  0.1428  1.0360
  146ACOH    H410061   4.168   8.574   1.289  1.2739 -0.0292  1.0726
  146ACOH    O210062   4.183   8.479   1.300  0.0211 -0.2809  0.6899
  146ACOH    C210063   4.269   8.432   1.204  0.7229 -0.1409 -0.6306
  146ACOH    O110064   4.342   8.500   1.141  0.3725 -0.3705  0.1320
  146ACOH    C110065   4.228   8.295   1.162 -0.5061  0.4226 -0.7045
  146ACOH    H110066   4.119   8.294   1.156 -0.5339  0.5308 -0.1499
  146ACOH    H210067   4.255   8.231   1.246 -0.0995  2.0277  0.4117
  146ACOH    H310068   4.279   8.260   1.072 -0.2373  0.8851 -0.7315
  147ACOH    H410069   5.257   2.480   1.127  0.6215  0.4744 -0.8102
  147ACOH    O210070   5.299   2.423   1.193  0.0631  0.7549 -0.1997
  147ACOH    C210071   5.205   2.391   1.283  0.5683  0.1666  0.2717
  147ACOH    O110072   5.088   2.438   1.280  0.2999  0.0135 -0.2826
  147ACOH    C110073   5.253   2.278   1.362 -0.0973 -0.4982  0.0059
  147ACOH    H110074   5.272   2.306   1.466 -2.8313 -0.8375  0.6478
  147ACOH    H210075   5.349   2.241   1.326 -1.5580 -2.5687 -1.9302
  147ACOH    H310076   5.188   2.190   1.359  1.8070 -2.0608  2.1036
  148ACOH    H410077   4.681   1.338   0.862  0.2106 -0.2599 -1.4570
  148ACOH    O210078   4.727   1.424   0.855 -0.4386  0.2042 -0.0633
  148ACOH    C210079   4.644   1.510   0.790 -0.8211 -0.5005 -0.0055
  148ACOH    O110080   4.521   1.502   0.785  0.2771  0.2367 -0.2297
  148ACOH    C110081   4.712   1.645   0.761 -0.1060  0.3122 -0.3747
  148ACOH    H110082   4.696   1.675   0.657 -1.6676 -0.6178 -0.4204
  148ACOH    H210083   4.819   1.636   0.777 -0.1713 -1.1552 -0.6743
  148ACOH    H310084   4.670   1.713   0.835  2.4641  0.5458  0.9103
  149ACOH    H410085   8.735   3.708   0.878  1.8589  1.9295  1.5055
  149ACOH    O210086   8.809   3.650   0.856 -0.1334 -0.2675  0.4453
  149ACOH    C210087   8.765   3.570   0.758  0.1213  0.1353 -0.3707
  149ACOH    O110088   8.646   3.537   0.735 -0.7378  0.2056 -0.2649
  149ACOH    C110089   8.870   3.491   0.702  0.8772 -0.4558 -0.6739
  149ACOH    H110090   8.855   3.387   0.731 -0.0666 -0.2626 -0.4498
  149ACOH    H210091   8.964   3.526   0.744  0.6240 -1.1589  0.4892
  149ACOH    H310092   8.869   3.495   0.593 -2.5484 -0.5518 -0.7130
  150ACOH    H410093   4.079   7.846   0.287  1.6331 -0.5259  2.9642
  150ACOH    O210094   4.024   7.774   0.322 -0.3714 -0.4922  0.1238
  150ACOH    C210095   4.095   7.660   0.294  0.2068 -0.1552 -0.5619
  150ACOH    O110096   4.203   7.640   0.244  0.0093 -0.5296 -0.1500
  150ACOH    C110097   4.041   7.536   0.364 -0.3385  0.2906 -0.4089
  150ACOH    H110098   4.128   7.486   0.406 -1.4111 -2.3580 -1.2452
  150ACOH    H210099   3.996   7.469   0.291  0.4891 -2.1882  1.2987
  150ACOH    H310100   3.971   7.566   0.442  3.4856  1.2514  2.8226
  151ACOH    H410101   4.831   2.794   0.432  0.3950 -0.3132 -0.0171
  151ACOH    O210102   4.924   2.818   0.445  0.2153  0.3084  0.1251
  151ACOH    C210103   4.988   2.700   0.462  0.1022  0.3827 -0.2682
  151ACOH    O110104   4.954   2.587   0.427 -0.2045  0.0066  0.8330
  151ACOH    C110105   5.134   2.736   0.462 -0.5254  0.2594 -0.2597
  151ACOH    H110106   5.186   2.672   0.533 -1.3862 -0.8725 -0.6194
  151ACOH    H210107   5.162   2.841   0.457  0.1193  0.0501 -1.2899
  151ACOH    H310108   5.165   2.708   0.361  3.7439  1.0238  0.7607
  152ACOH    H410109   8.439   6.897   2.147  0.0441  0.0420  0.7694
  152ACOH    O210110   8.376   6.958   2.106  0.5903 -0.2873 -0.6276
  152ACOH    C210111   8.448   7.062   2.050  0.3193 -0.6399 -0.0997
  152ACOH    O110112   8.563   7.082   2.053 -0.2623 -0.7647  0.4365
  152ACOH    C110113   8.352   7.153   1.987  0.2858  0.1532 -0.5097
  152ACOH    H110114   8.358   7.255   2.027  0.1301 -0.4255  1.0165
  152ACOH    H210115   8.254   7.112   2.010  0.6740  0.4268  1.7310
  152ACOH    H310116   8.367   7.151   1.879 -0.8458 -2.3687 -0.6443
  153ACOH    H410117   8.476   4.226   2.331  0.7838 -1.7044 -2.9079
  153ACOH    O210118   8.379   4.230   2.320  0.3200 -0.6993  0.7745
  153ACOH    C210119   8.356   4.142   2.226 -0.2391  0.4791 -0.3713
  153ACOH    O110120   8.436   4.068   2.171  0.0369 -0.3065 -0.4652
  153ACOH    C110121   8.217   4.151   2.187  0.7067  0.4274  0.8916
  153ACOH    H110122   8.149   4.150   2.273 -0.8840  1.7825 -0.3311
  153ACOH    H210123   8.179   4.087   2.107  0.0223  2.8150 -0.7183
  153ACOH    H310124   8.213   4.253   2.149  1.5388  0.0983 -0.1078
  154ACOH    H410125   4.415   9.667   0.045  1.3669  2.9591 -0.5083
  154ACOH    O210126   4.507   9.639   0.058  0.4794  0.2222  0.3181
  154ACOH    C210127   4.528   9.687   0.181 -0.0315 -0.2206  0.3379
  154ACOH    O110128   4.449   9.751   0.249 -0.3087 -0.2101 -0.2860
  154ACOH    C110129   4.673   9.679   0.206 -0.1397 -0.1208 -0.0452
  154ACOH    H110130   4.724   9.617   0.132  0.3427  1.3679 -0.9908
  154ACOH    H210131   4.689   9.629   0.301 -0.4626  1.5159  0.8765
  154ACOH    H310132   4.709   9.781   0.204  1.1654 -0.5806 -1.0488
  155ACOH    H410133   3.366   8.374   0.531 -0.5001  3.2897  1.0800
  155ACOH    O210134   3.278   8.350   0.564  0.0060 -0.0241  0.1842
  155ACOH    C210135   3.208   8.466   0.554  0.0893 -0.1549  0.5524
  155ACOH    O110136   3.230   8.563   0.483  0.0195 -0.1096  0.2393
  155ACOH    C110137   3.078   8.443   0.628 -0.7468 -0.5021  0.5754
  155ACOH    H110138   3.009   8.527   0.628  1.1851  1.1285  1.4422
  155ACOH    H210139   3.102   8.418   0.732  3.8100  0.2478 -0.1957
  155ACOH    H310140   3.039   8.352   0.583  2.8915 -1.7489 -0.2444
  156ACOH    H410141   3.716   8.273   1.444  2.5734  1.3305  0.9134
  156ACOH    O210142   3.699   8.231   1.529  0.0957 -0.0670 -0.2199
  156ACOH    C210143   3.585   8.283   1.575  0.5913  0.4936  0.2894
  156ACOH    O110144   3.529   8.376   1.517 -0.3520  0.0834 -0.4733
  156ACOH    C110145   3.537   8.229   1.705  0.2081  0.6074  0.4214
  156ACOH    H110146   3.467   8.307   1.734 -0.5698  0.0723 -0.0114
  156ACOH    H210147   3.611   8.200   1.780 -0.3331 -0.5145  0.5275
  156ACOH    H310148   3.473   8.144   1.683  2.0477 -0.6048 -0.3657
  157ACOH    H410149   4.497   1.005   0.990 -0.8367  0.8093  0.0792
  157ACOH    O210150   4.506   0.910   1.003 -0.0036  0.8167 -0.3814
  157ACOH    C210151   4.415   0.865   1.094  0.5427  0.2135 -0.0321
  157ACOH    O110152   4.340   0.946   1.148  0.0576 -0.6616  0.2528
  157ACOH    C110153   4.401   0.715   1.105  0.3995  0.4430  0.1945
  157ACOH    H110154   4.324   0.685   1.034  0.0783  0.1891  0.6548
  157ACOH    H210155   4.369   0.681   1.203  0.8584 -1.1295 -0.1881
  157ACOH    H310156   4.495   0.662   1.091 -0.2161 -0.7546  0.5867
  158ACOH    H410157   3.061   8.094   1.497 -0.8670 -0.2948  0.9706
  158ACOH    O210158   3.131   8.027   1.508 -0.1433  0.1987 -0.4977
  158ACOH    C210159   3.189   8.000   1.390  0.0240 -0.8554  0.3586
  158ACOH    O110160   3.153   8.053   1.285 -0.7215  0.3006  0.0305
  158ACOH    C110161   3.317   7.928   1.396  0.0530 -0.4623 -0.0829
  158ACOH    H110162   3.325   7.863   1.309 -0.9173 -0.8337  0.1003
  158ACOH    H210163   3.324   7.858   1.479  0.4608 -0.7367 -0.3451
  158ACOH    H310164   3.403   7.996   1.392 -0.1536 -0.2874 -1.5541
  159ACOH    H410165   3.258   6.538   0.430  1.3591 -1.2597  0.1712
  159ACOH    O210166   3.262   6.538   0.527  0.5707  0.2779  0.2256
  159ACOH    C210167   3.140   6.559   0.574 -0.3654  0.3702  0.5272
  159ACOH    O110168   3.057   6.613   0.507  0.3273  0.0590  0.0433
  159ACOH    C110169   3.134   6.547   0.723 -0.4353  0.0193 -0.1924
  159ACOH    H110170   3.228   6.533   0.775 -1.1259  1.8389  1.6227
  159ACOH    H210171   3.068   6.461   0.736  0.6311 -1.3942 -3.6662
  159ACOH    H310172   3.089   6.639   0.762  0.0134 -1.0741  3.0818
  160ACOH    H410173   2.772   7.618   1.190 -1.7394 -0.7320  0.3458
  160ACOH    O210174   2.797   7.524   1.188 -0.1320 -0.3150  0.8194
  160ACOH    C210175   2.818   7.482   1.312 -0.4399 -0.1573 -0.1325
  160ACOH    O110176   2.801   7.552   1.410 -0.4279  0.4176  0.4023
  160ACOH    C110177   2.860   7.338   1.311  0.8106  0.0091  0.3147
  160ACOH    H110178   2.895   7.310   1.211 -1.0522 -1.6579  0.0983
  160ACOH    H210179   2.779   7.274   1.347 -0.1263  1.6168  1.1135
  160ACOH    H310180   2.937   7.323   1.387  1.2544 -0.3717 -0.2036
  161ACOH    H410181   4.373   0.860   2.609 -0.5543  2.2156  0.0867
  161ACOH    O210182   4.442   0.859   2.540 -0.5020  0.1039  0.1493
  161ACOH    C210183   4.444   0.726   2.496  0.3936  0.4072  0.5431
  161ACOH    O110184   4.430   0.624   2.562 -0.6298  0.3053  0.1012
  161ACOH    C110185   4.477   0.721   2.351  0.4092 -0.1058 -0.1668
  161ACOH    H110186   4.461   0.622   2.309 -2.0274  0.5773 -0.9630
  161ACOH    H210187   4.578   0.760   2.345  0.5945 -0.3829  1.1104
  161ACOH    H310188   4.404   0.782   2.297 -0.2567 -1.1437 -0.4607
  162ACOH    H410189   4.437   1.768   1.274  1.4725 -2.5101 -1.9236
  162ACOH    O210190   4.351   1.773   1.229  0.4643  0.5693  0.1745
  162ACOH    C210191   4.373   1.818   1.104  0.4184 -0.0784  0.3595
  162ACOH    O110192   4.479   1.836   1.048  0.2845 -0.2352 -0.2676
  162ACOH    C110193   4.244   1.813   1.030 -0.2973  0.4957  0.1159
  162ACOH    H110194   4.225   1.912   0.989  0.7097  0.4913 -0.3765
  162ACOH    H210195   4.161   1.778   1.092  1.5347 -1.0337  1.7707
  162ACOH    H310196   4.254   1.748   0.943 -0.4554  2.4030 -1.3404
  163ACOH    H410197   4.147   9.642   0.896  0.2059 -0.9703  0.4357
  163ACOH    O210198   4.237   9.617   0.869  0.1733 -0.4842 -0.1295
  163ACOH    C210199   4.331   9.683   0.941  0.1527  0.4467  0.2482
  163ACOH    O110200   4.307   9.775   1.019 -0.3983  0.4064  0.2255
  163ACOH    C110201   4.459   9.610   0.950  0.4272  0.1271  0.1798
  163ACOH    H110202   4.516   9.636   1.040  0.1918 -0.5334  0.5184
  163ACOH    H210203   4.520   9.637   0.864 -2.4935  1.0496 -1.6693
  163ACOH    H310204   4.441   9.503   0.953  1.2601 -0.0733 -1.5357
  164ACOH    H410205   8.632   2.686   0.103  0.5295  2.6242 -3.6617
  164ACOH    O210206   8.564   2.639   0.054 -0.0246  0.0407 -0.5920
  164ACOH    C210207   8.613   2.541  -0.023  0.7502  0.7153  0.0386
  164ACOH    O110208   8.726   2.535  -0.056  0.6661  0.5449 -0.6345
  164ACOH    C110209   8.507   2.449  -0.068  0.9100 -0.0631  0.3656
  164ACOH    H110210   8.438   2.517  -0.118  0.1167  0.2815  1.9229
  164ACOH    H210211   8.447   2.404   0.011 -0.2523 -0.3851 -0.6763
  164ACOH    H310212   8.540   2.370  -0.137 -0.4047  0.1960 -0.5802
  165ACOH    H410213   8.483   4.288   2.848  1.7302  1.6895 -0.3683
  165ACOH    O210214   8.426   4.354   2.804  0.0225  0.5867  0.1489
  165ACOH    C210215   8.397   4.295   2.687 -0.2602 -0.1392 -0.1585
  165ACOH    O110216   8.418   4.180   2.651  0.2056 -0.6987  0.1710
  165ACOH    C110217   8.332   4.397   2.605 -0.3037 -0.8065  0.2380
  165ACOH    H110218   8.351   4.406   2.499  1.5266  1.0384  0.6853
  165ACOH    H210219   8.371   4.495   2.634  0.3829 -1.0602  0.1702
  165ACOH    H310220   8.229   4.412   2.641 -0.0938  0.3285  0.3831
  166ACOH    H410221   3.054   8.037   0.623  0.0562  0.9025  0.7118
  166ACOH    O210222   3.142   8.000   0.605 -0.5641 -0.0168 -0.5778
  166ACOH    C210223   3.213   8.028   0.715  0.2042  0.7104 -1.0196
  166ACOH    O110224   3.183   8.108   0.802 -0.3444  0.2420 -0.2987
  166ACOH    C110225   3.355   7.980   0.699  0.2558  0.2301 -0.5519
  166ACOH    H110226   3.361   7.875   0.726  1.5710  0.1021 -1.2955
  166ACOH    H210227   3.411   8.042   0.770 -3.4587 -0.6927  3.3965
  166ACOH    H310228   3.395   8.004   0.600  1.1966 -3.2861 -1.0975
  167ACOH    H410229   8.371   6.456   0.177 -0.7417  0.0363  0.1823
  167ACOH    O210230   8.457   6.483   0.139 -0.5425 -0.1618  0.4910
  167ACOH    C210231   8.493   6.595   0.194 -0.5711  0.3274 -0.1040
  167ACOH    O110232   8.474   6.627   0.311  0.1868  0.0000  0.0193
  167ACOH    C110233   8.597   6.667   0.120  0.2990  0.0202  0.3369
  167ACOH    H110234   8.617   6.617   0.026 -1.5823  0.4174 -0.3002
  167ACOH    H210235   8.686   6.681   0.181  0.4167 -1.5583  0.5422
  167ACOH    H310236   8.552   6.766   0.110  1.5195  0.6259  0.7537
  168ACOH    H410237   4.381   4.408   0.449  0.4098 -0.4126  1.0479
  168ACOH    O210238   4.338   4.487   0.488  0.4015 -0.1069  0.4227
  168ACOH    C210239   4.396   4.592   0.425  0.5038  0.3123 -0.1457
  168ACOH    O110240   4.455   4.597   0.322 -0.5040  0.3239  0.0784
  168ACOH    C110241   4.367   4.720   0.500  0.2888  0.7002  0.1830
  168ACOH    H110242   4.297   4.778   0.439  2.6344  3.3230 -0.1461
  168ACOH    H210243   4.458   4.780   0.500  2.4032 -2.3793  1.1733
  168ACOH    H310244   4.320   4.704   0.596 -2.5392 -2.1820 -1.5753
  169ACOH    H410245   9.578   5.998   1.523 -1.0538 -1.7683 -0.5819
  169ACOH    O210246   9.528   6.081   1.509  0.5241 -0.5970  0.5241
  169ACOH    C210247   9.419   6.102   1.578  0.0089 -0.1536 -0.1711
  169ACOH    O110248   9.402   6.071   1.693 -0.2288 -0.4254  0.1747
  169ACOH    C110249   9.324   6.198   1.526  0.0691  0.3783  0.2793
  169ACOH    H110250   9.221   6.164   1.536  0.3595 -1.8705 -3.4450
  169ACOH    H210251   9.344   6.201   1.418  1.2141 -1.7820  0.4006
  169ACOH    H310252   9.344   6.294   1.575  0.3718  0.9915 -1.0112
  170ACOH    H410253   2.250   4.802   2.152  0.5284 -1.8572  0.4807
  170ACOH    O210254   2.231   4.817   2.246 -0.1382 -0.0540  0.0826
  170ACOH    C210255   2.164   4.930   2.267  0.1526  0.9731 -0.3249
  170ACOH    O110256   2.088   4.982   2.190 -0.2053  0.0574 -0.0085
  170ACOH    C110257   2.182   4.975   2.405 -0.3960 -0.1831 -0.4768
  170ACOH    H110258   2.146   4.890   2.463 -3.9756  1.0799 -0.7057
  170ACOH    H210259   2.123   5.061   2.437 -0.4562  0.4726 -2.2663
  170ACOH    H310260   2.288   4.973   2.427  0.1089 -0.1585 -2.7434
  171ACOH    H410261   4.010   2.157   1.628  1.8531 -0.8354  1.0146
  171ACOH    O210262   4.056   2.239   1.601 -0.2792 -0.1211 -0.5822
  171ACOH    C210263   3.981   2.345   1.643 -0.0795 -0.2142 -0.1899
  171ACOH    O110264   3.866   2.351   1.677  0.0188 -0.3609 -0.1129
  171ACOH    C110265   4.062   2.470   1.614 -1.2063  0.0798 -0.3583
  171ACOH    H110266   4.170   2.457   1.613 -0.9782  1.5356  1.9034
  171ACOH    H210267   4.049   2.541   1.696  3.9554  2.1809 -1.1974
  171ACOH    H310268   4.023   2.523   1.526 -3.2101  1.3603  1.2434
  172ACOH    H410269   4.068   8.483   0.907 -2.6734 -2.8662 -0.6785
  172ACOH    O210270   4.117   8.473   0.824  0.0286 -1.0449  0.6386
  172ACOH    C210271   4.143   8.594   0.768  0.1952  0.1831 -0.3391
  172ACOH    O110272   4.094   8.703   0.804 -0.1462  0.5977 -0.5904
  172ACOH    C110273   4.251   8.578   0.669  0.3832 -0.5059 -0.1855
  172ACOH    H110274   4.309   8.487   0.682 -2.5648 -2.0731  2.5086
  172ACOH    H210275   4.327   8.656   0.677  1.2310 -1.5553  2.4178
  172ACOH    H310276   4.204   8.568   0.571  0.3814 -1.2257 -0.1176
  173ACOH    H410277   8.432   4.250   0.987  1.1299  1.3707  0.2889
  173ACOH    O210278   8.464   4.272   0.898  0.2730  0.1196 -0.3307
  173ACOH    C210279   8.467   4.154   0.829 -0.0292  0.2628  0.1164
  173ACOH    O110280   8.448   4.046   0.877  0.1336  0.6270 -0.4687
  173ACOH    C110281   8.524   4.167   0.694 -0.1653  0.2243  0.6149
  173ACOH    H110282   8.616   4.224   0.702 -0.9234  1.5323  0.1029
  173ACOH    H210283   8.452   4.222   0.634 -0.1886  1.9529  2.1630
  173ACOH    H310284   8.547   4.072   0.645  0.1277 -0.2707  1.6836
  174ACOH    H410285   4.065   8.621   1.611  1.3198 -0.2299 -0.1057
  174ACOH    O210286   4.136   8.631   1.676  0.9522  0.5050  0.1901
  174ACOH    C210287   4.080   8.602   1.797 -0.2602 -0.9688 -0.2365
  174ACOH    O110288   3.962   8.608   1.825  0.7218  0.0382  0.3824
  174ACOH    C110289   4.188   8.584   1.891 -0.2348 -0.0306 -0.0696
  174ACOH    H110290   4.162   8.640   1.980  2.3483  1.2362 -0.0561
  174ACOH    H210291   4.287   8.611   1.852  0.0786 -1.4272 -0.2783
  174ACOH    H310292   4.192   8.479   1.920 -0.7982  0.4080  1.6485
  175ACOH    H410293   3.149   9.958   2.535 -2.2796 -0.2393 -2.8149
  175ACOH    O210294   3.211   9.995   2.471  0.1220  0.2993 -0.2951
  175ACOH    C210295   3.226   9.912   2.363  0.3804  0.4101 -0.9630
  175ACOH    O110296   3.138   9.833   2.325  0.0664  0.1935 -0.3698
  175ACOH    C110297   3.335   9.966   2.274 -0.0915 -0.1023 -0.1559
  175ACOH    H110298   3.429   9.928   2.313  0.4300  0.8245 -0.5053
  175ACOH    H210299   3.330  10.075   2.275 -3.0344 -0.1904 -0.6098
  175ACOH    H310300   3.327   9.937   2.169 -1.8965  2.3162 -0.7214
  176ACOH    H410301   8.024   6.253   1.058 -1.0269  0.7064  1.6323
  176ACOH    O210302   7.980   6.317   0.999  0.0049 -0.3564 -0.3485
  176ACOH    C210303   8.020   6.446   1.019 -0.3163 -0.3030  0.4006
  176ACOH    O110304   8.094   6.495   1.107 -0.6744 -0.3401 -0.1308
  176ACOH    C110305   7.944   6.532   0.930  0.2612  0.5137 -0.0828
  176ACOH    H110306   7.884   6.597   0.995  0.3826  0.7064 -0.1647
  176ACOH    H210307   7.878   6.474   0.865  0.8073  0.1001 -0.2718
  176ACOH    H310308   8.016   6.586   0.870  0.8620  0.2119  0.3610
  177ACOH    H410309   2.906   7.407   2.244  1.5590  0.7738 -0.5004
  177ACOH    O210310   2.972   7.337   2.256  0.1884 -0.3904  0.5946
  177ACOH    C210311   2.920   7.225   2.201  0.5840 -0.4641 -1.1418
  177ACOH    O110312   2.800   7.207   2.190 -0.2633  0.4057  0.0825
  177ACOH    C110313   3.021   7.124   2.159 -0.0618 -0.1636 -0.4626
  177ACOH    H110314   3.125   7.157   2.172 -0.0240  0.0721 -1.3159
  177ACOH    H210315   3.006   7.087   2.058  1.5107  0.6897 -1.0388
  177ACOH    H310316   2.999   7.044   2.229  0.6263  0.0586  0.0211
  178ACOH    H410317   1.288   0.796   2.786 -2.5368 -0.7464  0.8213
  178ACOH    O210318   1.319   0.749   2.865 -0.3999 -0.3119  0.2844
  178ACOH    C210319   1.217   0.661   2.876 -0.8029  0.1268 -0.5390
  178ACOH    O110320   1.150   0.621   2.781  0.3341  0.6460 -0.0127
  178ACOH    C110321   1.212   0.594   3.012 -0.0904  0.1695 -0.3077
  178ACOH    H110322   1.107   0.579   3.034 -0.5435  0.5840 -2.1287
  178ACOH    H210323   1.247   0.650   3.099  0.2055  0.4775 -0.6250
  178ACOH    H310324   1.258   0.495   3.017  1.7603  1.0900  2.0374
  179ACOH    H410325   8.972   2.432   1.986 -1.8713  1.4551  0.1964
  179ACOH    O210326   8.932   2.350   2.020 -0.1871  0.4232 -0.2522
  179ACOH    C210327   8.799   2.373   2.008  0.5391 -0.1011 -0.0058
  179ACOH    O110328   8.742   2.478   2.007 -0.2851 -0.0150  0.1136
  179ACOH    C110329   8.723   2.250   2.008  0.2227  0.3386 -0.1264
  179ACOH    H110330   8.614   2.255   2.007  0.2429  0.9238  0.5741
  179ACOH    H210331   8.748   2.196   2.100 -1.6851  0.8747  0.7236
  179ACOH    H310332   8.754   2.197   1.918 -1.6641 -1.7728  0.4147
  180ACOH    H410333   8.112   2.936   2.034 -1.9509 -0.0398 -1.7884
  180ACOH    O210334   8.069   2.933   2.121  0.0870 -0.5997 -0.7702
  180ACOH    C210335   8.028   2.803   2.137 -0.0894 -0.2846 -0.4185
  180ACOH    O110336   8.017   2.724   2.051 -0.0252  0.5409  0.9522
  180ACOH    C110337   7.991   2.776   2.279 -0.1019 -0.2534  0.4477
  180ACOH    H110338   7.902   2.713   2.281 -2.7968  3.3104 -0.8350
  180ACOH    H210339   7.950   2.871   2.315 -1.0236 -0.8907  1.1368
  180ACOH    H310340   8.079   2.735   2.327  0.0288 -0.3247  0.1421
  181ACOH    H410341   4.489   8.862   2.238 -0.1974 -0.1627  1.0144
  181ACOH    O210342   4.544   8.940   2.224 -0.5067  0.0793  1.1319
  181ACOH    C210343   4.456   9.025   2.166 -0.5895 -0.3950  0.5090
  181ACOH    O110344   4.337   9.012   2.168  0.3808  0.2070 -0.0035
  181ACOH    C110345   4.512   9.149   2.107  0.3184 -0.2337 -0.3260
  181ACOH    H110346   4.494   9.137   2.000 -1.6992  0.0945 -0.0433
  181ACOH    H210347   4.614   9.172   2.139 -0.5659  1.9347  1.0772
  181ACOH    H310348   4.455   9.237   2.137  1.1496  0.7359 -1.5625
  182ACOH    H410349   7.980   5.550   2.276  0.2662 -3.1416 -0.2050
  182ACOH    O210350   7.883   5.549   2.279  0.1943 -0.4990 -0.5278
  182ACOH    C210351   7.857   5.420   2.284 -0.0976  0.5050  0.2436
  182ACOH    O110352   7.931   5.327   2.314 -0.0517 -0.0360  0.0493
  182ACOH    C110353   7.709   5.409   2.268  0.6887 -0.4214 -0.0831
  182ACOH    H110354   7.659   5.467   2.346  0.9090 -0.6012  0.1927
  182ACOH    H210355   7.679   5.304   2.268 -0.2574 -0.1622  0.6398
  182ACOH    H310356   7.672   5.448   2.173 -1.5930  0.1619  0.9939
  183ACOH    H410357   7.977   3.931   0.899 -0.0743  2.9126  0.8888
  183ACOH    O210358   7.964   3.892   0.987 -0.0442  0.1803 -0.2662
  183ACOH    C210359   8.038   3.785   1.019 -0.1309  0.0338 -0.3519
  183ACOH    O110360   8.067   3.701   0.936 -0.3757  0.0330 -0.4287
  183ACOH    C110361   8.029   3.765   1.164 -0.4270 -0.6015 -0.2117
  183ACOH    H110362   7.990   3.852   1.216  0.6576  0.7438 -1.5973
  183ACOH    H210363   8.131   3.762   1.202 -0.6749 -1.6616  0.3904
  183ACOH    H310364   7.975   3.674   1.190 -2.0868  1.2557  3.1084
  184ACOH    H410365   2.078   2.957   1.791 -0.0976  1.0412 -0.4083
  184ACOH    O210366   1.995   2.917   1.762  0.2473 -0.1831  0.2605
  184ACOH    C210367   1.971   2.797   1.807  0.6488  0.8418  0.1278
  184ACOH    O110368   2.041   2.745   1.895 -0.4013  0.4586  0.7937
  184ACOH    C110369   1.866   2.726   1.735  0.0836  0.8884  0.1303
  184ACOH    H110370   1.793   2.672   1.795  0.5039  0.1041 -0.0620
  184ACOH    H210371   1.901   2.662   1.655  1.2186 -0.3273  1.5678
  184ACOH    H310372   1.805   2.809   1.698 -0.4527  0.4531  0.0355
  185ACOH    H410373   2.443   4.405   0.340 -0.8161  2.0135 -1.7688
  185ACOH    O210374   2.458   4.346   0.265  0.2779 -0.0929  0.0454
  185ACOH    C210375   2.454   4.219   0.305  0.2515 -0.2167  0.2432
  185ACOH    O110376   2.452   4.188   0.423 -0.0429 -0.0608 -0.2651
  185ACOH    C110377   2.437   4.122   0.195  0.0672 -0.6010 -0.3340
  185ACOH    H110378   2.436   4.020   0.234 -2.3313 -0.1316  0.9444
  185ACOH    H210379   2.521   4.128   0.126  0.2787 -0.0277 -0.0311
  185ACOH    H310380   2.352   4.142   0.130  0.4937  1.6842 -0.2155
  186ACOH    H410381   3.574   1.956   1.893 -0.8228  0.3661  0.3129
  186ACOH    O210382   3.548   1.918   1.808  0.2329 -0.0783  0.1739
  186ACOH    C210383   3.518   2.031   1.739 -0.2709  0.2508  0.2716
  186ACOH    O110384   3.513   2.149   1.769 -0.4353  0.2813 -0.0225
  186ACOH    C110385   3.498   2.009   1.590  0.2393  0.0934  0.9215
  186ACOH    H110386   3.513   1.904   1.564  1.6808  0.5866 -0.2741
  186ACOH    H210387   3.559   2.078   1.532 -1.7490  1.0185 -0.1257
  186ACOH    H310388   3.396   2.033   1.559 -0.5225 -3.3212  0.5253
  187ACOH    H410389   8.313   5.785   0.847  3.8753  2.0060  1.9960
  187ACOH    O210390   8.274   5.864   0.805 -0.2775 -0.3585  1.1061
  187ACOH    C210391   8.252   5.953   0.900 -0.0613  0.8018  0.5541
  187ACOH    O110392   8.247   5.919   1.019 -0.2982 -0.1976  0.2274
  187ACOH    C110393   8.202   6.087   0.857 -1.2328  0.0368 -0.2139
  187ACOH    H110394   8.184   6.164   0.932 -0.4257 -0.5976  0.6389
  187ACOH    H210395   8.115   6.064   0.796 -1.6029 -0.6412  0.5707
  187ACOH    H310396   8.273   6.132   0.788 -1.1573  0.5709  0.2103
  188ACOH    H410397   4.392   0.788   2.003 -2.0398 -0.0524  0.6481
  188ACOH    O210398   4.414   0.697   2.029  0.0552  0.2088 -0.1151
  188ACOH    C210399   4.539   0.675   1.975  0.1966  0.2961 -0.1172
  188ACOH    O110400   4.587   0.740   1.888 -0.4440 -0.1851  0.5262
  188ACOH    C110401   4.608   0.556   2.025 -0.1673  0.2123 -0.0813
  188ACOH    H110402   4.623   0.560   2.133  0.1196  0.4174 -0.1279
  188ACOH    H210403   4.704   0.542   1.975 -0.0188 -2.4882  0.8963
  188ACOH    H310404   4.547   0.468   2.003 -1.3011  0.9875 -0.0759
  189ACOH    H410405   8.647   2.281   1.169  0.1554  1.0182  0.8211
  189ACOH    O210406   8.557   2.304   1.141  0.0676  0.2763  0.4652
  189ACOH    C210407   8.567   2.383   1.032  0.7272  0.3656 -0.4562
  189ACOH    O110408   8.663   2.403   0.968 -0.4217 -0.1222  0.0491
  189ACOH    C110409   8.433   2.414   0.972  0.8519 -0.8505  0.3622
  189ACOH    H110410   8.410   2.340   0.894  0.1140 -0.3058  0.0553
  189ACOH    H210411   8.440   2.511   0.923 -3.4337 -0.5238  0.1845
  189ACOH    H310412   8.352   2.427   1.043 -1.2131 -2.1430 -1.6611
  190ACOH    H410413   3.469   8.012   0.297  0.3669  1.6302  3.9268
  190ACOH    O210414   3.563   7.992   0.285 -0.3760 -0.2199  0.4801
  190ACOH    C210415   3.609   8.079   0.196 -0.4471  0.6697 -0.6243
  190ACOH    O110416   3.560   8.186   0.165  0.1695 -0.8581  0.2846
  190ACOH    C110417   3.747   8.039   0.160  0.1364 -0.1049 -0.7582
  190ACOH    H110418   3.807   8.060   0.248  0.2312 -0.5825 -0.7064
  190ACOH    H210419   3.779   8.101   0.076 -0.7999  0.2554 -0.8636
  190ACOH    H310420   3.740   7.933   0.136  0.1713 -0.2928  0.0512
  191ACOH    H410421   9.876   4.542   0.944 -0.2182  0.5927  0.8663
  191ACOH    O210422   9.959   4.527   0.993  0.2172 -0.3263 -0.1068
  191ACOH    C210423   9.969   4.612   1.093 -0.7376  0.1072  0.5277
  191ACOH    O110424   9.898   4.708   1.114 -0.7706 -0.1832  0.1922
  191ACOH    C110425  10.089   4.587   1.180 -0.6453 -0.1391  0.5052
  191ACOH    H110426  10.186   4.587   1.131 -0.2333  1.5831  1.2977
  191ACOH    H210427  10.078   4.491   1.231 -1.0530 -0.7108 -0.6458
  191ACOH    H310428  10.079   4.665   1.257  1.5621  1.9275 -1.2301
  192ACOH    H410429   4.541   0.479   1.284 -0.8943 -1.0852  0.4010
  192ACOH    O210430   4.552   0.470   1.188  0.3503  0.5806  0.3811
  192ACOH    C210431   4.505   0.353   1.159  0.0250  0.3604  0.3194
  192ACOH    O110432   4.439   0.275   1.228  0.4412 -0.4057  0.5136
  192ACOH    C110433   4.517   0.329   1.012  0.7167 -0.2021  0.0328
  192ACOH    H110434   4.606   0.373   0.967  1.0820 -0.0878  0.8649
  192ACOH    H210435   4.431   0.359   0.952 -0.3437 -1.5859  0.8174
  192ACOH    H310436   4.529   0.222   0.994 -2.0965 -1.1178  3.0511
  193ACOH    H410437   3.956   8.181   2.862  0.4281  0.7539 -0.5731
  193ACOH    O210438   3.906   8.153   2.783 -0.0810  0.2895 -0.0872
  193ACOH    C210439   3.979   8.164   2.675 -0.1033 -0.1963 -1.1197
  193ACOH    O110440   4.081   8.220   2.653 -0.3438 -0.5543  0.1266
  193ACOH    C110441   3.905   8.116   2.557  0.6113 -0.2885  0.4846
  193ACOH    H110442   3.979   8.079   2.486  0.4624  0.2294  0.0549
  193ACOH    H210443   3.862   8.207   2.517  2.4483 -0.6810 -2.6073
  193ACOH    H310444   3.825   8.046   2.584  0.1199 -0.6066 -1.6966
  194ACOH    H410445   3.752   5.716   2.078  3.3852 -1.7843 -0.3658
  194ACOH    O210446   3.736   5.663   2.159 -0.1511 -0.7202 -0.2959
  194ACOH    C210447   3.668   5.552   2.138  0.4082 -0.3857 -0.4359
  194ACOH    O110448   3.642   5.506   2.028 -0.0764 -0.8023  0.0309
  194ACOH    C110449   3.654   5.469   2.260 -0.3619 -0.6570  0.6460
  194ACOH    H110450   3.656   5.365   2.227 -1.1095  0.1548 -2.1004
  194ACOH    H210451   3.557   5.488   2.307  0.4106 -1.0477  2.4593
  194ACOH    H310452   3.740   5.490   2.324  0.3924 -1.3787 -0.1258
  195ACOH    H410453   4.474   1.365   1.339  0.6216 -1.4715 -0.0962
  195ACOH    O210454   4.547   1.429   1.350 -0.2811 -0.3521 -0.5836
  195ACOH    C210455   4.627   1.415   1.244  0.1528 -0.4328 -0.2987
  195ACOH    O110456   4.625   1.329   1.162  0.1888  0.3119  0.4097
  195ACOH    C110457   4.728   1.526   1.241  0.1415  0.2063  0.4575
  195ACOH    H110458   4.790   1.509   1.153 -0.2834  2.9588 -0.4093
  195ACOH    H210459   4.789   1.543   1.329  0.9999 -0.3630 -0.0146
  195ACOH    H310460   4.677   1.621   1.227 -1.0216 -0.5324 -0.5325
  196ACOH    H410461   3.317   5.977   2.681 -0.6438 -1.0266 -0.7221
  196ACOH    O210462   3.402   5.934   2.661  0.3159  0.1797  0.6796
  196ACOH    C210463   3.414   5.931   2.524 -1.1899 -1.2163 -0.3870
  196ACOH    O110464   3.322   5.955   2.442  0.3752  0.2290  0.1011
  196ACOH    C110465   3.544   5.873   2.488  0.3332  0.3131  0.4618
  196ACOH    H110466   3.594   5.943   2.420 -3.1913  2.8092  0.3061
  196ACOH    H210467   3.531   5.775   2.443 -0.0576  1.3049 -1.6713
  196ACOH    H310468   3.612   5.874   2.573 -1.4295  0.3641  1.8802
  197ACOH    H410469   3.476   6.233   0.675 -1.4415  0.0286  1.6017
  197ACOH    O210470   3.501   6.323   0.647 -0.6061 -0.6236  0.2339
  197ACOH    C210471   3.493   6.410   0.749 -0.2697  0.3991 -0.3096
  197ACOH    O110472   3.444   6.402   0.857 -0.0154  0.4350  0.5687
  197ACOH    C110473   3.525   6.543   0.691  0.3427 -0.4716  0.3303
  197ACOH    H110474   3.534   6.612   0.774  0.5980  0.6362 -0.6055
  197ACOH    H210475   3.455   6.586   0.619 -0.0285  1.4844  1.8151
  197ACOH    H310476   3.624   6.523   0.651  0.5618 -2.1386  1.6690
  198ACOH    H410477   5.048   2.419   0.790 -0.4025 -0.9661 -1.1269
  198ACOH    O210478   5.125   2.431   0.732  0.3721 -0.1872  0.0374
  198ACOH    C210479   5.200   2.318   0.732  0.3222  0.9389 -0.2655
  198ACOH    O110480   5.175   2.221   0.800 -0.1617 -0.3847 -0.5516
  198ACOH    C110481   5.321   2.348   0.649  0.1818 -0.0734  0.1709
  198ACOH    H110482   5.338   2.271   0.574 -1.8156  0.0615 -0.4582
  198ACOH    H210483   5.405   2.351   0.718 -0.4347 -0.5185  0.9541
  198ACOH    H310484   5.324   2.447   0.603  0.6884 -1.1675 -2.2194
  199ACOH    H410485   8.173   3.238   1.879  1.2295  0.9113  1.3180
  199ACOH    O210486   8.086   3.269   1.909  0.2608 -0.0384 -0.4895
  199ACOH    C210487   7.987   3.182   1.869 -0.3097  0.1692 -0.2812
  199ACOH    O110488   7.997   3.110   1.775 -0.6057  0.1804 -0.1369
  199ACOH    C110489   7.864   3.212   1.945  0.6754  0.2517 -0.4159
  199ACOH    H110490   7.798   3.125   1.941  1.8157 -0.6673  0.3761
  199ACOH    H210491   7.810   3.299   1.908 -3.4462 -1.6680  0.8390
  199ACOH    H310492   7.897   3.237   2.045  2.1343 -2.1838 -0.2390
  200ACOH    H410493   5.169   3.601   0.457  1.3459  0.4722  0.0317
  200ACOH    O210494   5.120   3.684   0.444  0.0043 -0.3448 -0.3634
  200ACOH    C210495   5.219   3.773   0.413 -0.0800  0.0187  0.1389
  200ACOH    O110496   5.337   3.756   0.394 -0.0263 -0.2685 -0.7413
  200ACOH    C110497   5.153   3.909   0.430 -0.0845 -0.4420 -0.2738
  200ACOH    H110498   5.045   3.900   0.441 -0.0136  0.1991  1.0739
  200ACOH    H210499   5.181   3.975   0.348 -1.3465 -1.5589 -1.6357
  200ACOH    H310500   5.189   3.965   0.516 -0.3736  0.7522 -0.9107
  201ACOH    H410501   0.632   4.907   2.724 -0.7007 -1.1751  3.7138
  201ACOH    O210502   0.688   4.979   2.758  0.3005  0.1594 -0.4639
  201ACOH    C210503   0.808   4.921   2.788  0.1784  0.1309 -0.0943
  201ACOH    O110504   0.823   4.803   2.793 -0.3266 -0.5655  0.8488
  201ACOH    C110505   0.891   5.025   2.851  0.2510  0.1611 -0.8893
  201ACOH    H110506   0.932   5.092   2.775 -0.8502 -0.9869 -2.5213
  201ACOH    H210507   0.976   4.984   2.905  1.2715  3.0792 -0.1853
  201ACOH    H310508   0.832   5.083   2.922  0.0410 -0.0381 -0.9009
  202ACOH    H410509   3.743   1.566   2.496 -0.3737  1.4486  3.1924
  202ACOH    O210510   3.727   1.476   2.529 -0.3799  0.0022 -0.5082
  202ACOH    C210511   3.722   1.493   2.660 -0.1333 -0.6362 -0.5034
  202ACOH    O110512   3.757   1.585   2.733 -0.1965  0.2367  0.0378
  202ACOH    C110513   3.673   1.361   2.707  0.5998  0.3083 -0.5244
  202ACOH    H110514   3.588   1.323   2.650  1.4886  1.8790 -2.9697
  202ACOH    H210515   3.642   1.365   2.811 -1.5600 -0.5408 -1.0923
  202ACOH    H310516   3.755   1.291   2.692 -0.4854 -1.0859 -0.0839
  203ACOH    H410517   3.518   2.560   0.855 -2.2766  3.1409  1.3084
  203ACOH    O210518   3.583   2.622   0.818 -0.3901  0.2200 -0.4626
  203ACOH    C210519   3.574   2.631   0.687  0.3332 -0.3067 -0.3547
  203ACOH    O110520   3.512   2.558   0.612  0.0610  0.8172  0.0317
  203ACOH    C110521   3.684   2.720   0.653  0.1119  0.1500  0.1570
  203ACOH    H110522   3.658   2.822   0.684 -1.1581 -0.2640  0.4739
  203ACOH    H210523   3.687   2.725   0.544 -0.8510 -1.1343  0.0681
  203ACOH    H310524   3.778   2.689   0.699 -1.0574  0.3398  2.7489
  204ACOH    H410525   5.122   4.097   2.023  1.1875 -3.7556  0.6366
  204ACOH    O210526   5.209   4.112   1.983  0.3128 -0.4440 -0.1321
  204ACOH    C210527   5.231   4.022   1.889  0.6296 -0.5834  0.1190
  204ACOH    O110528   5.161   3.927   1.846  0.0506 -0.6214 -0.2722
  204ACOH    C110529   5.371   4.040   1.848 -0.5526 -0.0071  0.4446
  204ACOH    H110530   5.395   4.007   1.747  0.8142 -0.1211  0.8014
  204ACOH    H210531   5.440   3.999   1.922 -0.5091  0.0325  0.4247
  204ACOH    H310532   5.393   4.146   1.851 -0.7973  0.0196  1.8359
  205ACOH    H410533   3.374   2.856   0.349 -0.0575 -0.4808 -0.1578
  205ACOH    O210534   3.290   2.870   0.395 -0.4638  0.0058 -1.0279
  205ACOH    C210535   3.314   2.881   0.527 -0.5960  0.3123  0.6860
  205ACOH    O110536   3.425   2.885   0.581 -0.1740 -0.0654  0.6608
  205ACOH    C110537   3.190   2.914   0.603  0.0751  0.1565 -0.6205
  205ACOH    H110538   3.149   3.011   0.574 -2.6545 -0.9408 -0.4697
  205ACOH    H210539   3.209   2.931   0.709 -0.7841 -1.5489 -0.1891
  205ACOH    H310540   3.121   2.830   0.594  1.3343 -1.0483  0.6409
  206ACOH    H410541   3.984   5.238   1.028  1.7105 -0.3289  1.3520
  206ACOH    O210542   4.036   5.307   0.983  0.5132 -0.4256 -0.2032
  206ACOH    C210543   4.012   5.286   0.853  0.3418  0.1008  0.1073
  206ACOH    O110544   3.946   5.200   0.797 -0.1378  0.1005 -0.5108
  206ACOH    C110545   4.088   5.385   0.773  0.3692  0.1749 -0.3340
  206ACOH    H110546   4.189   5.354   0.745  1.7695  0.4126  4.1008
  206ACOH    H210547   4.101   5.479   0.826  2.0295 -0.9952  1.4013
  206ACOH    H310548   4.029   5.407   0.684  3.0095  4.2000 -1.2013
  207ACOH    H410549   8.139   2.874   1.476 -0.3097 -0.0769 -1.1707
  207ACOH    O210550   8.112   2.781   1.473 -0.0794 -0.1863 -0.1342
  207ACOH    C210551   8.078   2.762   1.342 -0.2670  0.3427 -0.6734
  207ACOH    O110552   8.108   2.834   1.253 -0.2781 -0.4882  0.3324
  207ACOH    C110553   8.031   2.625   1.309  0.5552  0.2169  0.7219
  207ACOH    H110554   8.035   2.569   1.403  1.1100  0.5574  0.9043
  207ACOH    H210555   8.088   2.580   1.229  1.3994  1.0704  0.8339
  207ACOH    H310556   7.925   2.631   1.282  0.9064  0.7315 -0.5508
  208ACOH    H410557   3.913   5.745   0.674 -0.8588 -0.1276  0.6853
  208ACOH    O210558   3.962   5.782   0.749  0.2656 -0.5526  0.1638
  208ACOH    C210559   4.003   5.904   0.705 -0.0661  0.6296 -0.6529
  208ACOH    O110560   4.020   5.930   0.589  0.5479  0.0484  0.0846
  208ACOH    C110561   4.066   5.988   0.813  0.2088 -0.1778 -0.2815
  208ACOH    H110562   4.161   5.938   0.831  0.3899 -1.9656 -5.2004
  208ACOH    H210563   3.998   5.977   0.897  1.3978  0.4022  0.7628
  208ACOH    H310564   4.078   6.091   0.781  0.5198 -0.1949 -0.2204
  209ACOH    H410565   4.379   9.741   1.631 -2.2790  0.3622  0.6750
  209ACOH    O210566   4.362   9.679   1.557 -0.4020  0.3972  0.1995
  209ACOH    C210567   4.338   9.557   1.615 -0.0614 -0.4348 -0.3083
  209ACOH    O110568   4.308   9.535   1.728 -0.2403  0.1282  0.1456
  209ACOH    C110569   4.341   9.447   1.513 -0.2149  0.1842 -0.3864
  209ACOH    H110570   4.241   9.447   1.469 -0.3675 -3.0424 -0.1668
  209ACOH    H210571   4.359   9.348   1.556 -1.1208  0.4167  0.5706
  209ACOH    H310572   4.415   9.461   1.434 -0.0919 -0.9945 -0.4895
  210ACOH    H410573   5.142   2.085   0.922 -0.1561  1.0589  0.8582
  210ACOH    O210574   5.154   2.028   1.000  0.4436 -0.4580 -0.3400
  210ACOH    C210575   5.050   2.052   1.079 -0.9072 -0.1098 -0.1837
  210ACOH    O110576   4.935   2.074   1.042 -0.3765 -0.0965 -0.2520
  210ACOH    C110577   5.073   1.973   1.201  0.4409 -0.5438 -0.1837
  210ACOH    H110578   5.173   1.935   1.224 -0.2593 -2.3542 -0.0765
  210ACOH    H210579   5.007   1.887   1.205 -0.3513  0.0117 -1.1590
  210ACOH    H310580   5.047   2.032   1.289  2.0681  0.8520 -0.5984
  211ACOH    H410581   4.623   0.270   1.790 -0.6798 -2.7926  0.4070
  211ACOH    O210582   4.713   0.234   1.793  0.6561  0.3794  0.6490
  211ACOH    C210583   4.752   0.204   1.920  0.0336  0.4291  1.1117
  211ACOH    O110584   4.679   0.178   2.009 -0.5414  0.8638  0.3522
  211ACOH    C110585   4.904   0.213   1.933 -0.0858  0.8455 -0.3363
  211ACOH    H110586   4.935   0.215   2.038 -1.3592 -1.6403  0.1238
  211ACOH    H210587   4.939   0.307   1.891 -0.8211  2.0035  1.5593
  211ACOH    H310588   4.961   0.133   1.886  2.2567  2.1196  0.2132
  212ACOH    H410589   3.298   6.095   1.964 -2.3499  0.8930 -0.2326
  212ACOH    O210590   3.322   6.107   2.057 -0.2193 -0.0627 -0.6329
  212ACOH    C210591   3.458   6.141   2.063 -0.2548 -0.4977 -0.1719
  212ACOH    O110592   3.548   6.120   1.980 -0.0468 -0.1221 -0.9973
  212ACOH    C110593   3.491   6.178   2.207 -0.3321  0.2319  0.0136
  212ACOH    H110594   3.593   6.144   2.222 -0.2321 -0.2592 -1.6704
  212ACOH    H210595   3.428   6.117   2.272  0.5113 -0.5892  0.0586
  212ACOH    H310596   3.485   6.283   2.237  1.4942  0.0782  0.9609
  213ACOH    H410597   4.527   4.603   2.687 -0.3106 -1.2872 -1.1305
  213ACOH    O210598   4.594   4.583   2.756  0.0376  0.1776 -1.0192
  213ACOH    C210599   4.552   4.597   2.880 -0.1527 -0.0414  0.4167
  213ACOH    O110600   4.459   4.667   2.910 -0.1645 -0.1111  0.4121
  213ACOH    C110601   4.642   4.531   2.971  0.2045 -0.4218 -0.3006
  213ACOH    H110602   4.670   4.600   3.051 -0.8988 -0.4399  0.1132
  213ACOH    H210603   4.734   4.490   2.930 -0.7328  0.1748 -3.0844
  213ACOH    H310604   4.579   4.448   3.003 -1.2910  0.1176 -1.7664
  214ACOH    H410605   9.143   1.935   0.793 -3.4221  0.3839  1.1852
  214ACOH    O210606   9.100   1.946   0.706  0.1526 -0.1160 -0.7672
  214ACOH    C210607   9.105   2.086   0.694 -0.2504  0.3795 -0.9901
  214ACOH    O110608   9.121   2.153   0.791  0.4486 -0.0947 -0.0593
  214ACOH    C110609   9.037   2.131   0.573  0.2734 -0.2603  0.5326
  214ACOH    H110610   8.954   2.063   0.555  0.7279 -0.5254 -0.5885
  214ACOH    H210611   9.106   2.132   0.489  2.3529 -1.8535  2.1679
  214ACOH    H310612   8.992   2.231   0.577  0.4514 -0.1980  1.0823
  215ACOH    H410613   5.507   3.703   0.331  0.1187  0.4996 -1.2825
  215ACOH    O210614   5.594   3.660   0.321  0.0842  0.1248 -0.0430
  215ACOH    C210615   5.580   3.534   0.364  0.3077 -0.2198 -0.1833
  215ACOH    O110616   5.487   3.488   0.431 -0.0794  0.2312  0.4077
  215ACOH    C110617   5.706   3.458   0.345 -0.8021  0.0151  0.2805
  215ACOH    H110618   5.782   3.535   0.333 -0.6540 -0.0055  1.0976
  215ACOH    H210619   5.696   3.382   0.267 -2.4774 -0.3373  0.8176
  215ACOH    H310620   5.732   3.406   0.437  0.6567  0.4775  0.1505
  216ACOH    H410621   4.059   9.225   1.434 -0.6508 -2.3638 -2.4323
  216ACOH    O210622   4.156   9.224   1.426 -0.3938  0.3538 -0.5699
  216ACOH    C210623   4.185   9.129   1.327  1.1413  0.2875  0.1586
  216ACOH    O110624   4.115   9.093   1.237 -0.3666 -0.3422  0.7325
  216ACOH    C110625   4.328   9.113   1.313  0.4605 -0.1516  0.2674
  216ACOH    H110626   4.374   9.211   1.322 -1.1231  0.5113  1.5081
  216ACOH    H210627   4.368   9.068   1.222  0.0735 -3.3245  1.6047
  216ACOH    H310628   4.373   9.050   1.389  0.8072 -0.2360 -0.0080
  217ACOH    H410629   9.823   8.497   2.422 -0.0972  0.8958  0.2623
  217ACOH    O210630   9.782   8.546   2.348  0.0851  0.3422 -0.2125
  217ACOH    C210631   9.656   8.512   2.353 -0.2508 -0.1829 -0.0688
  217ACOH    O110632   9.604   8.427   2.422 -0.5278 -0.2635 -0.8682
  217ACOH    C110633   9.602   8.583   2.232  0.2503  0.1339  0.0393
  217ACOH    H110634   9.653   8.673   2.197 -1.6847  1.2259 -0.0325
  217ACOH    H210635   9.502   8.621   2.254 -0.4734 -1.0633 -1.1424
  217ACOH    H310636   9.604   8.507   2.154  1.2394  0.9025 -0.6954
  218ACOH    H410637   2.738   1.096   2.038  1.7559 -0.1078  0.7014
  218ACOH    O210638   2.672   1.160   2.069  0.3874 -0.9273 -0.4736
  218ACOH    C210639   2.733   1.206   2.179 -0.0137 -0.3190  0.1358
  218ACOH    O110640   2.854   1.198   2.206  0.3043 -0.8044  0.0207
  218ACOH    C110641   2.637   1.285   2.261 -0.4135  0.5509  0.3362
  218ACOH    H110642   2.539   1.282   2.215 -0.2699  0.4913  0.0345
  218ACOH    H210643   2.668   1.390   2.260  2.8025 -0.2674  3.2813
  218ACOH    H310644   2.621   1.245   2.361  1.0984 -1.2567 -0.1261
  219ACOH    H410645   3.713   8.016   0.710 -1.0855 -0.1646  1.3611
  219ACOH    O210646   3.692   7.935   0.659  0.3634  0.1284  0.2742
  219ACOH    C210647   3.748   7.932   0.545  0.2928  0.3406 -0.1361
  219ACOH    O110648   3.816   8.019   0.499 -0.5341  0.0878  0.5089
  219ACOH    C110649   3.744   7.794   0.497 -0.6231 -0.7173 -0.3919
  219ACOH    H110650   3.792   7.776   0.401  0.6745 -0.5489  0.2245
  219ACOH    H210651   3.640   7.760   0.500 -0.2983 -1.8345 -1.3163
  219ACOH    H310652   3.808   7.738   0.565 -1.9945 -1.5229  0.2630
  220ACOH    H410653   4.321   8.964   1.780 -0.0621  1.0451 -1.6452
  220ACOH    O210654   4.382   8.905   1.734 -0.0780 -0.0344 -0.2983
  220ACOH    C210655   4.333   8.867   1.612 -0.0032  0.3939  0.1600
  220ACOH    O110656   4.226   8.901   1.559 -0.0519 -0.0616  0.2291
  220ACOH    C110657   4.417   8.769   1.540 -0.7816  0.5603 -0.4139
  220ACOH    H110658   4.363   8.716   1.462  1.6335  1.4490 -2.7864
  220ACOH    H210659   4.456   8.692   1.607 -2.8143 -1.2448 -1.2373
  220ACOH    H310660   4.503   8.817   1.492 -1.0831  2.6102  1.0423
  221ACOH    H410661   0.562   3.418   0.502  0.4879 -0.8695 -2.8935
  221ACOH    O210662   0.481   3.366   0.505  0.1273 -0.2540  0.1933
  221ACOH    C210663   0.430   3.358   0.385  0.0933 -0.3904  0.2320
  221ACOH    O110664   0.439   3.442   0.294 -0.4591 -0.2983 -0.2331
  221ACOH    C110665   0.318   3.268   0.378 -0.4039  0.1094  0.4875
  221ACOH    H110666   0.304   3.247   0.272  0.4285  0.6199  0.2763
  221ACOH    H210667   0.229   3.311   0.424 -1.3205  0.4161 -1.4966
  221ACOH    H310668   0.343   3.170   0.418  0.0343  0.9143  2.1961
  222ACOH    H410669   8.023   3.292   0.939 -1.8534  2.0812  3.3656
  222ACOH    O210670   7.949   3.231   0.921  0.3417  0.1108  0.2677
  222ACOH    C210671   8.005   3.112   0.883 -0.4950 -1.1522  0.6340
  222ACOH    O110672   8.121   3.088   0.854  0.4689  0.2370 -0.2422
  222ACOH    C110673   7.905   3.015   0.845  0.4354  0.7432 -0.2835
  222ACOH    H110674   7.896   2.986   0.740  1.5608  3.2125 -1.0936
  222ACOH    H210675   7.813   3.051   0.889  0.8011  0.7596  0.4765
  222ACOH    H310676   7.933   2.923   0.897 -1.1712  0.4821  0.1174
  223ACOH    H410677   4.279   4.029   2.027 -1.9361  0.4793 -1.1425
  223ACOH    O210678   4.279   4.124   2.050  0.7846  0.1810  0.1752
  223ACOH    C210679   4.406   4.166   2.039 -0.3647  0.0471 -0.1162
  223ACOH    O110680   4.477   4.132   1.947 -0.0568  0.1275 -0.2436
  223ACOH    C110681   4.436   4.290   2.105 -0.0954 -0.0698 -0.1387
  223ACOH    H110682   4.382   4.378   2.071  0.0041 -0.0861 -0.3366
  223ACOH    H210683   4.543   4.306   2.123 -0.1920 -2.2153  2.6537
  223ACOH    H310684   4.401   4.268   2.206  0.8831 -3.1978 -0.4288
  224ACOH    H410685   8.141   3.957   1.655  1.0090 -2.3579 -0.9184
  224ACOH    O210686   8.055   3.918   1.634 -0.2646 -0.1738  0.1427
  224ACOH    C210687   8.043   3.806   1.707 -0.1091 -0.6007 -0.2855
  224ACOH    O110688   8.128   3.784   1.791 -0.2134  0.4151  0.0213
  224ACOH    C110689   7.926   3.727   1.654  0.2420 -0.4942  0.7461
  224ACOH    H110690   7.968   3.639   1.604 -0.6395 -0.3247 -0.3178
  224ACOH    H210691   7.854   3.791   1.604  0.3581 -1.3402 -0.5259
  224ACOH    H310692   7.884   3.701   1.751 -0.2022 -0.3412  0.5960
  225ACOH    H410693   8.888   2.745   0.405 -0.1864 -0.0553 -0.5233
  225ACOH    O210694   8.849   2.833   0.415  0.0985  0.0625 -0.4136
  225ACOH    C210695   8.775   2.853   0.307  0.7368 -0.4492 -0.0713
  225ACOH    O110696   8.755   2.782   0.212 -0.1211  0.0945 -0.3162
  225ACOH    C110697   8.718   2.991   0.308 -0.3675  0.1990 -0.2783
  225ACOH    H110698   8.792   3.059   0.349 -0.4711  0.1078  0.0645
  225ACOH    H210699   8.635   2.988   0.379 -1.3174 -0.2483 -1.3954
  225ACOH    H310700   8.678   3.030   0.214  2.6915 -1.1681 -2.2035
  226ACOH    H410701   4.103   4.994   2.422 -0.1973  2.8347  0.9132
  226ACOH    O210702   4.043   5.007   2.346  0.7900  0.2881 -0.3629
  226ACOH    C210703   3.950   5.092   2.402  0.0861  0.6469 -0.3424
  226ACOH    O110704   3.933   5.125   2.519 -0.3375  0.5788  0.8214
  226ACOH    C110705   3.849   5.120   2.297 -0.3776 -0.3345 -0.6801
  226ACOH    H110706   3.899   5.093   2.203 -0.0426  2.8403 -1.4920
  226ACOH    H210707   3.820   5.225   2.290  0.7183  0.0016 -0.3837
  226ACOH    H310708   3.761   5.058   2.310 -0.3025 -0.1823  0.5506
  227ACOH    H410709   8.195   2.940   0.777 -0.2470  0.0744 -1.0699
  227ACOH    O210710   8.246   2.887   0.714  0.7399  0.0728 -0.2846
  227ACOH    C210711   8.372   2.880   0.764  0.5563 -0.6276  0.4270
  227ACOH    O110712   8.396   2.903   0.879 -0.6257  0.1420  0.8889
  227ACOH    C110713   8.475   2.834   0.665  0.3726  0.4737 -0.5928
  227ACOH    H110714   8.421   2.826   0.570 -2.1489 -0.5650  0.8857
  227ACOH    H210715   8.524   2.742   0.696  2.9481  2.3291  1.0429
  227ACOH    H310716   8.550   2.913   0.661  1.2040 -0.1790  1.7713
  228ACOH    H410717   4.357   8.542   2.547 -1.7527  1.6321  1.6308
  228ACOH    O210718   4.389   8.629   2.518  0.2224  0.3564 -0.2662
  228ACOH    C210719   4.444   8.690   2.625 -0.1761  0.7477  0.3721
  228ACOH    O110720   4.447   8.643   2.740  0.6095  0.3346  0.1809
  228ACOH    C110721   4.503   8.815   2.576  0.5193 -0.5507 -0.6462
  228ACOH    H110722   4.455   8.898   2.626  0.9155 -1.1541  0.7813
  228ACOH    H210723   4.487   8.823   2.469  0.8329 -0.5581 -0.6964
  228ACOH    H310724   4.610   8.829   2.593 -0.0842  2.3732  0.9677
  229ACOH    H410725   8.175   4.878   0.052  0.5217  0.4492 -1.0470
  229ACOH    O210726   8.082   4.898   0.071  0.5540 -0.3405  0.0388
  229ACOH    C210727   8.073   5.022   0.123  0.0889 -0.4182 -0.1780
  229ACOH    O110728   8.168   5.086   0.167 -0.0383 -0.1263  0.1989
  229ACOH    C110729   7.938   5.088   0.107  0.0804  0.0517 -0.3856
  229ACOH    H110730   7.934   5.166   0.182  2.8538 -2.0506  2.0811
  229ACOH    H210731   7.866   5.006   0.112 -0.5934  0.5374 -1.8646
  229ACOH    H310732   7.934   5.130   0.006  0.5049  0.8798 -0.0558
  230ACOH    H410733   4.751   4.187   2.498 -1.2607  0.6021 -0.3258
  230ACOH    O210734   4.809   4.263   2.512 -0.1292 -0.3246  0.1197
  230ACOH    C210735   4.799   4.292   2.646  0.3335  0.2300 -0.1144
  230ACOH    O110736   4.704   4.271   2.714 -0.2059  0.5317  0.2879
  230ACOH    C110737   4.913   4.374   2.693  0.2322  0.1759  0.1339
  230ACOH    H110738   4.905   4.411   2.796  1.5803  2.4219 -0.5297
  230ACOH    H210739   4.931   4.457   2.626 -1.7878  0.5219 -0.0260
  230ACOH    H310740   4.998   4.307   2.680  1.1956  1.0773  1.6551
  231ACOH    H410741   3.565   5.611   2.631 -1.3581  1.3073 -2.0789
  231ACOH    O210742   3.658   5.625   2.606 -0.3154 -1.1889  0.2257
  231ACOH    C210743   3.718   5.539   2.682 -0.6442  0.6961 -0.5939
  231ACOH    O110744   3.680   5.437   2.739 -0.3635  0.2478  0.0224
  231ACOH    C110745   3.862   5.574   2.681  0.2355  0.2208 -0.4748
  231ACOH    H110746   3.915   5.539   2.592  1.1439 -0.5958  0.3664
  231ACOH    H210747   3.909   5.541   2.774  0.7006  0.5249 -0.5996
  231ACOH    H310748   3.867   5.683   2.689 -0.5016  0.5142 -3.5158
  232ACOH    H410749   4.795   2.259   0.704 -1.3148  1.7535  1.8263
  232ACOH    O210750   4.755   2.199   0.769 -0.3220 -0.4214  0.4777
  232ACOH    C210751   4.682   2.105   0.702 -0.3660  0.7775  0.1388
  232ACOH    O110752   4.651   2.121   0.584  0.8173  0.6425  0.3288
  232ACOH    C110753   4.656   1.991   0.781  0.2478  0.0294 -0.1118
  232ACOH    H110754   4.598   1.916   0.727  2.6785 -0.9114 -1.4985
  232ACOH    H210755   4.595   2.018   0.868  0.4573 -0.0324  0.0569
  232ACOH    H310756   4.750   1.949   0.816  0.3032 -0.1206 -0.4459
  233ACOH    H410757   8.234   6.722   2.822 -0.2576 -0.9403  2.3733
  233ACOH    O210758   8.176   6.792   2.858 -0.0624  0.5011 -0.0041
  233ACOH    C210759   8.137   6.771   2.988 -0.3754  0.3826  1.0384
  233ACOH    O110760   8.163   6.672   3.057 -0.5001 -0.2750 -0.0200
  233ACOH    C110761   8.035   6.879   3.022 -1.0149  0.3672  0.1770
  233ACOH    H110762   8.082   6.973   3.049  0.8739  0.0174 -1.7856
  233ACOH    H210763   7.976   6.842   3.106  0.6569 -0.8694  0.8423
  233ACOH    H310764   7.974   6.900   2.934  0.2267  0.4788 -0.6707
  234ACOH    H410765   4.677   9.089   0.430 -4.1257  1.7400  0.5123
  234ACOH    O210766   4.693   9.133   0.344  0.1326  0.0799  0.3564
  234ACOH    C210767   4.802   9.202   0.345  0.5294  0.0330  0.3034
  234ACOH    O110768   4.899   9.203   0.422  0.5651  0.7651 -0.3150
  234ACOH    C110769   4.802   9.295   0.226  0.2507  0.6853  0.3070
  234ACOH    H110770   4.752   9.243   0.143  2.9018  2.1229 -2.2910
  234ACOH    H210771   4.905   9.323   0.203 -0.2601  1.5770 -0.9102
  234ACOH    H310772   4.753   9.388   0.254 -1.0694  0.0654  0.1317
  235ACOH    H410773   8.004   6.421   1.701 -0.4934 -0.0477  0.3604
  235ACOH    O210774   8.015   6.514   1.724  0.0323  0.0614 -0.3079
  235ACOH    C210775   8.099   6.575   1.639  0.2852 -0.0514  0.2311
  235ACOH    O110776   8.147   6.518   1.542 -0.2250 -0.3411  0.4380
  235ACOH    C110777   8.111   6.718   1.653 -0.2800  0.2048  0.3226
  235ACOH    H110778   8.017   6.773   1.657  0.6501  1.7626  1.0249
  235ACOH    H210779   8.157   6.750   1.560 -0.6767 -0.6659 -0.1809
  235ACOH    H310780   8.175   6.742   1.738 -1.4658 -0.5613  1.4673
  236ACOH    H410781   5.178   3.549   1.268  0.3924 -3.8785 -2.9068
  236ACOH    O210782   5.227   3.612   1.213 -0.0718 -0.5847  0.2829
  236ACOH    C210783   5.197   3.575   1.086 -0.3428  0.2309  0.5050
  236ACOH    O110784   5.123   3.484   1.055  0.4234  0.2575 -0.1488
  236ACOH    C110785   5.245   3.668   0.980  0.5415  0.1531 -0.3194
  236ACOH    H110786   5.312   3.618   0.910  2.0428 -1.1830  1.9833
  236ACOH    H210787   5.312   3.744   1.021 -0.6589  0.9635  0.1676
  236ACOH    H310788   5.173   3.727   0.924  1.0507  0.9666 -0.1251
  237ACOH    H410789   4.699   3.824   1.092 -1.4146 -1.1912  0.3723
  237ACOH    O210790   4.632   3.878   1.045 -0.2949  0.0406  0.1526
  237ACOH    C210791   4.507   3.859   1.100  0.4498  0.0693  0.3761
  237ACOH    O110792   4.480   3.788   1.195 -0.0084 -0.2874 -0.4877
  237ACOH    C110793   4.414   3.948   1.026 -0.1554  0.4919 -0.4616
  237ACOH    H110794   4.470   4.040   1.009  1.9658 -0.3274  1.6490
  237ACOH    H210795   4.320   3.961   1.078 -0.7544  0.8390 -1.6293
  237ACOH    H310796   4.398   3.891   0.935 -2.7215  0.3203  0.0678
  238ACOH    H410797   3.675   5.861   1.620  1.4996  0.3582 -0.9926
  238ACOH    O210798   3.719   5.808   1.688  0.1067 -0.0412 -0.3910
  238ACOH    C210799   3.746   5.689   1.632  0.1937  0.4911  0.1488
  238ACOH    O110800   3.696   5.638   1.534 -0.0518  0.0820  0.0318
  238ACOH    C110801   3.834   5.610   1.727  0.1941  0.4368  0.0862
  238ACOH    H110802   3.872   5.521   1.676  1.3188  2.3694 -2.5936
  238ACOH    H210803   3.768   5.572   1.805 -0.3956  0.0745 -0.5898
  238ACOH    H310804   3.920   5.667   1.764  1.0700 -1.4023  0.9690
  239ACOH    H410805   4.407   9.154   2.416 -0.9640 -0.3030 -1.0303
  239ACOH    O210806   4.494   9.195   2.399 -0.7919 -0.5990 -0.8735
  239ACOH    C210807   4.565   9.189   2.511  0.6798  0.3062 -0.7610
  239ACOH    O110808   4.529   9.165   2.629 -0.6441 -0.1666  0.6595
  239ACOH    C110809   4.703   9.222   2.478  0.1315 -0.1231  0.7349
  239ACOH    H110810   4.754   9.126   2.490  1.4151  0.6665  1.8416
  239ACOH    H210811   4.738   9.296   2.551  0.1695  1.0264 -0.4423
  239ACOH    H310812   4.716   9.267   2.380 -1.8743 -0.9460  0.0656
  240ACOH    H410813   4.614   0.854   1.750 -0.7831 -0.8866 -0.5973
  240ACOH    O210814   4.621   0.925   1.684 -0.2287 -0.6351 -0.2742
  240ACOH    C210815   4.544   0.893   1.578 -0.1213  0.0397 -0.0468
  240ACOH    O110816   4.480   0.787   1.557  0.7641 -0.2662 -0.4270
  240ACOH    C110817   4.563   0.992   1.472 -0.4945  0.1839  0.7547
  240ACOH    H110818   4.590   0.933   1.384  0.5740 -1.1617  1.9694
  240ACOH    H210819   4.645   1.061   1.492 -0.6205  0.1261  1.4617
  240ACOH    H310820   4.477   1.057   1.454 -0.0928  0.3659 -0.5667
  241ACOH    H410821   4.568   9.695   2.810  0.1157  0.4422  0.0831
  241ACOH    O210822   4.596   9.721   2.721  0.3844 -0.3689 -0.0645
  241ACOH    C210823   4.664   9.614   2.664  0.1474  0.3216  0.7266
  241ACOH    O110824   4.683   9.510   2.717 -0.1726 -0.6150 -0.3720
  241ACOH    C110825   4.707   9.643   2.527  0.6818 -0.5702 -0.4424
  241ACOH    H110826   4.794   9.710   2.532 -0.6348  1.1212  0.3575
  241ACOH    H210827   4.633   9.685   2.459  0.3431  1.5346  1.1634
  241ACOH    H310828   4.732   9.549   2.478  0.5884 -0.9584  0.2471
  242SOL     OW10829   9.892   8.737   1.050  0.0100  0.0884  0.4293
  242SOL    HW110830   9.990   8.732   1.029  0.1780 -0.4358  1.2746
  242SOL    HW210831   9.857   8.644   1.063 -1.0684  0.1430 -1.8732
  243SOL     OW10832   0.754   3.997   0.107  0.2539  0.3445  0.5577
  243SOL    HW110833   0.664   3.974   0.143 -0.4597  1.1449 -0.6620
  243SOL    HW210834   0.747   4.080   0.051  1.4021 -0.5906 -1.0239
  244SOL     OW10835   9.702   8.155   0.175 -0.0738  0.4799 -0.3276
  244SOL    HW110836   9.729   8.077   0.232 -1.7800 -1.0249 -1.5093
  244SOL    HW210837   9.725   8.240   0.222 -1.1469 -0.7098  2.4580
  245SOL     OW10838   9.672   9.056   1.482 -0.3210  0.0134 -0.3342
  245SOL    HW110839   9.713   9.125   1.422 -2.1088  0.3169 -1.2340
  245SOL    HW210840   9.629   9.101   1.560  2.9887 -0.4491  1.8527
  246SOL     OW10841   1.872   2.595   0.723 -0.5941 -0.3562  0.2880
  246SOL    HW110842   1.800   2.609   0.656 -0.3640  0.7154  0.2519
  246SOL    HW210843   1.902   2.683   0.759  0.4743 -0.8094  0.5394
  247SOL     OW10844   2.191   3.045   1.851  0.2443 -0.0921 -0.2082
  247SOL    HW110845   2.172   3.131   1.897 -0.4243  0.5840 -1.7238
  247SOL    HW210846   2.285   3.046   1.817  0.2736 -0.0153 -0.1253
  248SOL     OW10847   9.552   4.347   0.038 -0.5698  0.1113 -0.5114
  248SOL    HW110848   9.626   4.369   0.102 -0.9727  2.8005 -0.9454
  248SOL    HW210849   9.531   4.249   0.045  1.4327 -0.2310  1.2901
  249SOL     OW10850   1.206   7.488   2.051  0.3978  0.5814 -0.5211
  249SOL    HW110851   1.214   7.577   2.007  3.0914  0.8248  0.3557
  249SOL    HW210852   1.290   7.435   2.035 -1.1518 -1.8003 -1.0024
  250SOL     OW10853   2.835   1.340   0.461 -0.3140  0.6970  0.2870
  250SOL    HW110854   2.771   1.415   0.444 -4.0463 -2.2135  0.9095
  250SOL    HW210855   2.834   1.315   0.557  1.0343 -0.0733  0.1261
  251SOL     OW10856   1.744   2.792   2.579  0.2493  0.5174 -0.1959
  251SOL    HW110857   1.680   2.835   2.642  0.2560 -0.5398  0.5416
  251SOL    HW210858   1.698   2.772   2.493 -0.4131 -0.2056  0.3173
  252SOL     OW10859   2.315   8.717   2.338  0.3899 -0.0562  0.0152
  252SOL    HW110860   2.386   8.660   2.380  1.0577  0.8515  0.1367
  252SOL    HW210861   2.251   8.659   2.287  0.6062 -0.9870  0.7901
  253SOL     OW10862   0.424   2.289   2.142 -0.7703  0.5389  0.4323
  253SOL    HW110863   0.429   2.194   2.173  1.5341  0.2576 -0.7172
  253SOL    HW210864   0.461   2.350   2.213 -0.6182  0.4156  0.4576
  254SOL     OW10865   4.169   9.697   2.368 -0.2485 -0.0373 -0.3865
  254SOL    HW110866   4.093   9.646   2.328 -0.3798 -0.9250  0.9512
  254SOL    HW210867   4.150   9.713   2.465  2.0421 -1.7611  0.3766
  255SOL     OW10868   9.857   8.284   1.348  0.4680  0.0699 -0.3738
  255SOL    HW110869   9.817   8.313   1.435 -0.8218  1.0021 -1.2568
  255SOL    HW210870   9.940   8.336   1.330 -0.2064  1.0914 -0.5233
  256SOL     OW10871   0.643   3.461   2.407 -0.6496 -0.1371 -0.3332
  256SOL    HW110872   0.587   3.378   2.412 -1.5822  0.5640  1.6089
  256SOL    HW210873   0.584   3.541   2.419  0.5042  0.7145 -0.2838
  257SOL     OW10874   8.821   2.455   2.614  0.7817  0.4970 -0.0437
  257SOL    HW110875   8.870   2.530   2.571  1.0130  1.2689  1.5325
  257SOL    HW210876   8.792   2.482   2.706  0.2262 -1.0749  0.2624
  258SOL     OW10877   2.627   0.521   1.305  0.1037  0.0628  0.5365
  258SOL    HW110878   2.621   0.505   1.403  1.5975 -1.0028  0.4829
  258SOL    HW210879   2.610   0.617   1.286  0.2059  0.3608  1.8882
  259SOL     OW10880   2.733   5.014   1.335 -0.3789  0.3274 -0.1705
  259SOL    HW110881   2.687   5.081   1.393  0.5770  0.6494  0.2058
  259SOL    HW210882   2.832   5.022   1.345 -0.2031  0.2448 -1.6809
  260SOL     OW10883   3.543   9.680   0.063  0.5317  0.1253 -0.5134
  260SOL    HW110884   3.603   9.760   0.061  0.1569  0.4400  0.3736
  260SOL    HW210885   3.558   9.629   0.147 -0.4423  0.2243 -0.2678
  261SOL     OW10886   1.069   3.006   0.189 -0.1776 -0.5318  0.2935
  261SOL    HW110887   1.107   2.944   0.257 -1.1069 -1.8545 -0.3888
  261SOL    HW210888   1.126   3.088   0.184  0.7742 -1.1044  1.5497
  262SOL     OW10889   2.360   4.684   1.732 -0.4961 -0.2466 -0.8939
  262SOL    HW110890   2.438   4.623   1.748 -0.1682  0.6537  1.0307
  262SOL    HW210891   2.276   4.630   1.734 -0.0366 -1.0164 -1.6673
  263SOL     OW10892   3.080   9.558   0.056 -0.7296 -0.0807  0.2045
  263SOL    HW110893   3.034   9.529   0.140 -1.3426 -0.6372 -0.3191
  263SOL    HW210894   3.128   9.480   0.016  0.4708  0.4460  0.6219
  264SOL     OW10895   4.066   0.709   1.895  0.0572  0.5061  0.2554
  264SOL    HW110896   4.003   0.648   1.847 -0.0384  0.3246  0.6085
  264SOL    HW210897   4.136   0.741   1.832  0.2436 -0.1521  0.1261
  265SOL     OW10898   4.358   2.535   1.759  0.0758 -0.2832  0.1762
  265SOL    HW110899   4.280   2.580   1.716  0.4838 -0.4884 -0.7819
  265SOL    HW210900   4.437   2.538   1.698  0.8086 -0.1365  1.1144
  266SOL     OW10901   3.814   1.009   2.600 -1.1322 -0.1257  0.5477
  266SOL    HW110902   3.795   1.018   2.698  0.2660 -0.3272  0.8494
  266SOL    HW210903   3.889   1.070   2.576 -0.1065 -1.5718  0.0167
  267SOL     OW10904   2.551   7.536   1.866  0.3839  0.5298  0.1903
  267SOL    HW110905   2.569   7.454   1.921 -0.5580 -1.6507 -2.6085
  267SOL    HW210906   2.558   7.513   1.769 -0.7418  3.6007 -0.6802
  268SOL     OW10907   1.516   5.734   0.128  0.1739 -0.5615  0.5853
  268SOL    HW110908   1.487   5.821   0.167 -0.0420  0.3359 -1.4816
  268SOL    HW210909   1.453   5.661   0.157 -0.6088  0.2797  1.0195
  269SOL     OW10910   0.430   6.633   1.763 -0.2169  0.1436 -0.1115
  269SOL    HW110911   0.400   6.726   1.741 -0.7616 -0.3749 -1.6909
  269SOL    HW210912   0.356   6.569   1.742  0.6867 -0.7882 -0.4763
  270SOL     OW10913   0.884   6.640   1.470 -0.2141  0.2455  0.2948
  270SOL    HW110914   0.980   6.622   1.491 -0.5844 -0.6080  1.2779
  270SOL    HW210915   0.827   6.567   1.507 -1.2305  0.6260 -0.4853
  271SOL     OW10916   0.226   7.507   1.173 -0.6633  0.3429  0.3008
  271SOL    HW110917   0.307   7.520   1.116  0.0485 -0.2926  1.1502
  271SOL    HW210918   0.196   7.412   1.169  0.0674  0.0282  1.8462
  272SOL     OW10919   0.387   0.993   0.094  0.0652  0.4142 -0.2004
  272SOL    HW110920   0.403   1.023  -0.000 -0.5523  1.5570  0.0473
  272SOL    HW210921   0.339   1.065   0.144 -3.4887 -1.8558 -0.1715
  273SOL     OW10922   3.631   8.858   0.973  0.3070 -0.1048 -0.1010
  273SOL    HW110923   3.542   8.836   0.935 -0.4362 -1.2295  2.1920
  273SOL    HW210924   3.696   8.875   0.898 -1.8280  0.8599 -1.7764
  274SOL     OW10925   2.423   3.246   1.432 -0.0090 -0.8867 -0.2326
  274SOL    HW110926   2.362   3.311   1.386  1.0933 -0.0819 -0.5847
  274SOL    HW210927   2.510   3.290   1.451  0.6552 -2.1898 -0.2118
  275SOL     OW10928   2.323   3.967   0.884 -0.3366 -0.1882 -0.2355
  275SOL    HW110929   2.402   3.941   0.939  1.3291  1.9190 -1.5666
  275SOL    HW210930   2.247   3.992   0.945  0.9318  0.5228  1.0887
  276SOL     OW10931   0.520   5.164   0.426  0.2528 -0.5653  0.0210
  276SOL    HW110932   0.571   5.237   0.471 -0.8982  0.5789 -0.4796
  276SOL    HW210933   0.446   5.204   0.371 -2.4187 -2.2086  2.2465
  277SOL     OW10934   1.945   9.536   2.833  0.3885 -0.2451 -0.2731
  277SOL    HW110935   1.845   9.535   2.838  0.3647  0.7086 -0.3162
  277SOL    HW210936   1.975   9.620   2.787  1.2807  0.6494  1.8159
  278SOL     OW10937   3.458   4.220   0.159  0.0619 -0.1170 -0.0688
  278SOL    HW110938   3.552   4.239   0.132 -0.2325  0.6834 -0.5630
  278SOL    HW210939   3.410   4.178   0.082 -0.0655 -0.2305  0.0746
  279SOL     OW10940   0.968   2.567   1.063  0.7514  0.2457 -0.1623
  279SOL    HW110941   0.901   2.595   0.996  1.4115  0.8090 -0.5911
  279SOL    HW210942   0.996   2.645   1.118 -0.4612 -0.3859  1.3890
  280SOL     OW10943   8.357   5.799   1.903  0.2848  0.0285  0.0763
  280SOL    HW110944   8.316   5.872   1.848 -0.4982 -0.6130 -0.1958
  280SOL    HW210945   8.285   5.749   1.951  0.6584 -1.5623 -0.9659
  281SOL     OW10946   1.861   1.709   2.434  0.0177  0.0081  0.7138
  281SOL    HW110947   1.954   1.678   2.455  0.4647  1.4073  0.8277
  281SOL    HW210948   1.803   1.629   2.416  1.2107 -0.8829  0.7409
  282SOL     OW10949   8.952   6.002   1.747 -0.4207 -0.6356  0.3291
  282SOL    HW110950   9.006   6.021   1.829  0.3741 -0.1827 -0.2967
  282SOL    HW210951   9.004   5.942   1.686 -0.3678  0.2910 -0.5489
  283SOL     OW10952   3.124   9.938   1.154  0.4394  0.2174  0.2817
  283SOL    HW110953   3.074   9.906   1.073  0.1475  1.6939 -0.1321
  283SOL    HW210954   3.198   9.998   1.126  0.3854  0.6767  1.1052
  284SOL     OW10955   0.239   1.899   1.356 -0.0974 -0.1020 -0.1167
  284SOL    HW110956   0.283   1.970   1.410 -0.1071  0.1622 -0.4558
  284SOL    HW210957   0.256   1.810   1.398  0.7660 -0.0029 -0.2483
  285SOL     OW10958   3.181   2.602   0.846 -0.5859  0.3956 -0.3942
  285SOL    HW110959   3.093   2.563   0.873  0.1993 -1.5324 -0.4829
  285SOL    HW210960   3.202   2.574   0.752  0.2733  0.5378 -0.2541
  286SOL     OW10961   9.621   7.339   0.358  0.3921  0.0161 -0.2426
  286SOL    HW110962   9.689   7.308   0.424 -0.3196 -0.4450  0.2775
  286SOL    HW210963   9.589   7.261   0.303 -0.2111  0.1069 -0.0266
  287SOL     OW10964   2.660   8.378   0.602 -0.3210  0.2689  0.2588
  287SOL    HW110965   2.696   8.421   0.519  2.8782 -1.6323  0.5571
  287SOL    HW210966   2.590   8.311   0.577  1.9156 -1.6222 -1.1344
  288SOL     OW10967   0.687   0.712   2.737 -0.4270 -0.5678  0.4046
  288SOL    HW110968   0.679   0.785   2.669 -0.8712 -0.5894  0.4341
  288SOL    HW210969   0.648   0.742   2.824 -1.8010 -1.2849  0.0654
  289SOL     OW10970   1.775   2.482   0.376 -0.1869  0.0656 -0.2243
  289SOL    HW110971   1.782   2.385   0.396 -2.0525 -0.2663 -1.0530
  289SOL    HW210972   1.816   2.501   0.287 -1.2266 -0.2547 -0.7851
  290SOL     OW10973   1.956   1.935   2.570  0.2188  0.8637 -0.9142
  290SOL    HW110974   1.955   2.006   2.500 -0.4009  0.4155 -1.3719
  290SOL    HW210975   1.922   1.849   2.531  0.9488  0.3232 -0.3612
  291SOL     OW10976   1.690   2.824   0.362 -0.5128  0.3033 -0.2551
  291SOL    HW110977   1.764   2.887   0.384 -0.0087 -0.3342 -0.1101
  291SOL    HW210978   1.728   2.734   0.339 -1.0489  0.7229 -3.0355
  292SOL     OW10979   2.999   0.672   1.155  0.1947 -0.4023 -0.1703
  292SOL    HW110980   2.963   0.647   1.245 -0.3300 -1.8215 -0.7624
  292SOL    HW210981   2.923   0.694   1.094  0.5468  0.4827 -0.2933
  293SOL     OW10982   0.388   9.971   2.539  0.4361  0.2546  0.2208
  293SOL    HW110983   0.427   9.889   2.581 -0.4375  0.3332  1.2245
  293SOL    HW210984   0.300   9.948   2.498  0.5577  0.5275 -0.1928
  294SOL     OW10985   9.391   4.155   1.480 -0.1642 -0.3120  0.1736
  294SOL    HW110986   9.300   4.146   1.440 -1.2156 -0.3254  2.5208
  294SOL    HW210987   9.433   4.241   1.449 -1.3089  0.0929 -0.2631
  295SOL     OW10988   0.785   1.826   0.777 -0.9904 -0.8601 -0.6672
  295SOL    HW110989   0.775   1.762   0.701 -0.3715 -2.1972  0.3651
  295SOL    HW210990   0.840   1.785   0.849 -1.2078  0.5572  0.3381
  296SOL     OW10991   2.901   1.385   1.860  0.1427 -0.0872 -0.0845
  296SOL    HW110992   2.926   1.351   1.769 -0.5396 -1.7156  0.3163
  296SOL    HW210993   2.810   1.350   1.885  1.2472 -1.4987  2.1358
  297SOL     OW10994   0.136   8.144   1.514  0.0877  0.2720 -0.7123
  297SOL    HW110995   0.085   8.198   1.581  1.7945 -1.0854  1.7523
  297SOL    HW210996   0.131   8.047   1.538  3.5365  0.0699 -0.5915
  298SOL     OW10997   2.521   9.516   0.916  0.3198 -0.1284  0.4362
  298SOL    HW110998   2.449   9.531   0.984  0.2363  0.1944  0.2783
  298SOL    HW210999   2.557   9.423   0.925 -0.2417 -0.3500  0.3977
  299SOL     OW11000   2.762   9.389   0.805  0.0178 -0.4654 -0.2306
  299SOL    HW111001   2.775   9.304   0.756  2.0106 -0.5896  0.4586
  299SOL    HW211002   2.833   9.454   0.779 -0.3713  0.3243  0.6287
  300SOL     OW11003   1.388   9.223   0.997 -0.5939  0.2060  0.2722
  300SOL    HW111004   1.361   9.234   1.093 -0.7051  1.1778  0.1345
  300SOL    HW211005   1.411   9.313   0.959  3.0074 -0.5788  0.4530
  301SOL     OW11006   8.939   2.717   2.592  0.4926  0.1764 -0.2158
  301SOL    HW111007   8.924   2.808   2.555 -1.0827  0.4723  1.0651
  301SOL    HW211008   9.030   2.712   2.634  0.8033  0.9791 -0.7871
  302SOL     OW11009   0.551   4.541   2.580 -0.4324  0.2206  0.0155
  302SOL    HW111010   0.593   4.461   2.624  0.7428  1.6046  1.4789
  302SOL    HW211011   0.491   4.511   2.506  0.1931 -1.9997  0.3771
  303SOL     OW11012   4.173   3.163   1.411  0.1579 -0.4923  0.2919
  303SOL    HW111013   4.182   3.259   1.382 -1.1891 -1.0728 -2.2020
  303SOL    HW211014   4.249   3.110   1.374  0.4502 -0.5439  0.9670
  304SOL     OW11015   9.723   3.476   0.579  0.1688 -0.1305  0.2104
  304SOL    HW111016   9.770   3.564   0.569 -2.4204  0.9764 -3.5383
  304SOL    HW211017   9.628   3.492   0.605  0.1414 -1.9480  1.2965
  305SOL     OW11018   9.306   2.265   1.593  0.3397 -0.7660  0.3968
  305SOL    HW111019   9.307   2.187   1.531 -2.4424 -0.5053 -0.0356
  305SOL    HW211020   9.267   2.237   1.681 -2.0583  0.4192 -0.2391
  306SOL     OW11021   3.605   3.091   1.331 -0.5072  0.4019  0.0316
  306SOL    HW111022   3.518   3.088   1.282 -0.0714  0.3074 -0.7447
  306SOL    HW211023   3.617   3.006   1.382 -1.2024  0.7137  0.7275
  307SOL     OW11024   1.217   8.839   2.570 -0.7602 -0.0430 -0.4609
  307SOL    HW111025   1.251   8.925   2.533 -1.0154  0.7744  1.1916
  307SOL    HW211026   1.217   8.770   2.497  1.7773  0.6693 -1.2049
  308SOL     OW11027   0.589   1.900   1.795 -0.0710  0.1851  0.6615
  308SOL    HW111028   0.629   1.982   1.838  1.9046 -2.0759  3.3405
  308SOL    HW211029   0.515   1.865   1.852 -0.8777  0.0453 -0.4513
  309SOL     OW11030   8.587   5.258   2.260  0.3256 -0.0212 -0.4557
  309SOL    HW111031   8.509   5.279   2.201 -0.3336 -0.8101  0.1235
  309SOL    HW211032   8.557   5.199   2.334  1.5184 -0.4772 -0.3332
  310SOL     OW11033   0.850   0.864   0.949 -0.1851 -0.3627  0.8104
  310SOL    HW111034   0.896   0.859   0.860  0.8323 -0.4854  1.3380
  310SOL    HW211035   0.763   0.912   0.938  1.1829  2.0485  0.2478
  311SOL     OW11036   9.803   8.263   1.953  0.2581 -0.1646  0.3929
  311SOL    HW111037   9.757   8.185   1.911 -1.6406  0.8920  0.4589
  311SOL    HW211038   9.859   8.310   1.884 -1.5642  0.6131 -0.5708
  312SOL     OW11039   8.169   6.198   1.986 -0.0559  0.1548  0.1398
  312SOL    HW111040   8.139   6.156   1.900  0.0173  0.7722 -0.1891
  312SOL    HW211041   8.269   6.195   1.991 -0.1555 -2.1187  1.3441
  313SOL     OW11042   3.693   0.390   0.667 -0.3747 -0.1897  0.5636
  313SOL    HW111043   3.754   0.336   0.725  1.4464  0.2752 -0.8864
  313SOL    HW211044   3.683   0.481   0.706  1.4995  0.3876 -0.2299
  314SOL     OW11045   2.514   1.518   2.498  0.4878 -0.2065 -0.7705
  314SOL    HW111046   2.602   1.537   2.456 -0.5734  3.0112 -1.7383
  314SOL    HW211047   2.463   1.604   2.508 -1.7239 -1.7142  1.6113
  315SOL     OW11048   1.215   2.065   0.714  0.3533  0.0926 -0.2474
  315SOL    HW111049   1.173   1.981   0.682  0.2591 -0.0656  0.2844
  315SOL    HW211050   1.147   2.120   0.763  0.4865  0.3465 -0.3431
  316SOL     OW11051   9.505   3.443   2.017  0.7293  0.6184  0.5163
  316SOL    HW111052   9.545   3.535   2.020 -2.2267  1.9203  1.2574
  316SOL    HW211053   9.434   3.440   1.947 -0.1831 -0.6920  1.4816
  317SOL     OW11054   0.864   1.147   2.180 -0.2374 -0.0163  0.4928
  317SOL    HW111055   0.935   1.211   2.208  0.1642 -0.2266 -0.0290
  317SOL    HW211056   0.865   1.138   2.080  1.3717 -2.7384  0.7096
  318SOL     OW11057   0.536   4.961   0.604 -0.0575 -0.8592 -0.8551
  318SOL    HW111058   0.525   5.048   0.555 -0.1275 -1.5577 -2.1150
  318SOL    HW211059   0.470   4.956   0.679  1.4970  1.1736  0.7094
  319SOL     OW11060   9.851   0.232   0.284 -0.3581 -0.4119  0.3047
  319SOL    HW111061   9.839   0.155   0.346  1.0258 -1.2425 -0.4250
  319SOL    HW211062   9.774   0.295   0.293 -1.2440 -1.6200  1.2830
  320SOL     OW11063   0.106   4.197   2.371  0.1186  0.1761 -0.5901
  320SOL    HW111064   0.149   4.255   2.441 -1.2058  0.0448  0.3420
  320SOL    HW211065   0.170   4.125   2.344  0.1261 -0.6812  1.5876
  321SOL     OW11066   3.976   2.378   2.234  0.4453 -0.1149  0.0740
  321SOL    HW111067   4.052   2.328   2.192  0.5782 -0.2938  0.5240
  321SOL    HW211068   3.957   2.340   2.324 -1.7565 -1.6762 -0.9890
  322SOL     OW11069   2.315   5.395   0.616  0.0457 -0.2878 -0.0249
  322SOL    HW111070   2.285   5.375   0.523 -1.0045 -2.0774  0.6746
  322SOL    HW211071   2.415   5.394   0.619  0.2015  3.3457 -1.8617
  323SOL     OW11072   9.822   4.964   0.922 -0.4240 -0.0272  0.4477
  323SOL    HW111073   9.865   4.891   0.976 -1.2407 -0.4105  0.5951
  323SOL    HW211074   9.736   4.930   0.884  1.1385 -0.4593 -2.9012
  324SOL     OW11075   3.249   1.130   0.187 -0.2624 -0.5974  0.9838
  324SOL    HW111076   3.333   1.161   0.232 -0.3707 -1.0723  1.5081
  324SOL    HW211077   3.170   1.152   0.244 -0.5928  0.7570  0.0397
  325SOL     OW11078   3.308   9.049   0.250  0.2877  0.1047 -0.3676
  325SOL    HW111079   3.235   9.046   0.319 -0.9780  0.2263 -1.6744
  325SOL    HW211080   3.374   9.120   0.274 -0.6686  0.8100  0.2038
  326SOL     OW11081   3.643   1.187   1.960 -0.2256 -0.4789 -0.1086
  326SOL    HW111082   3.576   1.218   2.027 -1.8621 -1.9022 -1.0677
  326SOL    HW211083   3.681   1.099   1.988  0.4616 -0.1934 -0.1189
  327SOL     OW11084   1.003   3.722   2.415  0.0499  0.6122 -0.0564
  327SOL    HW111085   1.071   3.664   2.459  1.8510 -0.0458 -3.4970
  327SOL    HW211086   0.981   3.799   2.475  1.8519 -0.5851  2.2166
  328SOL     OW11087   3.074   4.590   2.875  0.2141 -0.0856 -0.8644
  328SOL    HW111088   3.080   4.660   2.946 -1.9039  0.0744 -0.8344
  328SOL    HW211089   2.981   4.556   2.868  0.8716 -1.7568 -2.0037
  329SOL     OW11090   2.314   7.518   2.277  0.2295  0.4960 -0.8636
  329SOL    HW111091   2.296   7.419   2.271 -1.4775  0.5584  1.9950
  329SOL    HW211092   2.281   7.563   2.194 -1.2706 -1.0457 -1.1366
  330SOL     OW11093   2.396   8.011   0.336 -0.0325  0.3567  0.3799
  330SOL    HW111094   2.455   7.962   0.271 -1.9912 -2.1429  0.4331
  330SOL    HW211095   2.336   8.073   0.286 -0.5922 -0.5628 -0.1179
  331SOL     OW11096   3.562   0.273   2.298  0.6445  0.1745 -0.2637
  331SOL    HW111097   3.536   0.236   2.209  0.4228 -2.5619  0.9072
  331SOL    HW211098   3.602   0.365   2.285  2.3774 -0.9193 -3.3587
  332SOL     OW11099   1.523   4.695   2.731 -0.1297 -0.4298 -0.7085
  332SOL    HW111100   1.597   4.634   2.701 -0.9571 -2.1872  0.6977
  332SOL    HW211101   1.436   4.645   2.729 -0.8856  0.8285  0.0952
  333SOL     OW11102   2.488   4.525   1.376  0.2388  0.1825 -0.1916
  333SOL    HW111103   2.500   4.489   1.469 -0.2306  1.2404  0.2858
  333SOL    HW211104   2.577   4.546   1.337  0.6091 -2.4997 -0.8949
  334SOL     OW11105   3.304   5.729   0.021 -0.1927  0.0146 -0.1908
  334SOL    HW111106   3.370   5.655   0.023 -0.1914 -0.0235 -1.3831
  334SOL    HW211107   3.212   5.692   0.003  0.2547  0.5576 -4.0853
  335SOL     OW11108   0.991   5.798   2.273  0.6665 -0.9455 -0.1573
  335SOL    HW111109   1.046   5.881   2.265 -1.1749  0.5360  1.9077
  335SOL    HW211110   1.051   5.719   2.281  2.4600  0.2750 -1.1536
  336SOL     OW11111   9.173   3.625   1.783 -0.1115  0.0273  0.2211
  336SOL    HW111112   9.088   3.625   1.730  0.1542  2.4648 -0.2886
  336SOL    HW211113   9.230   3.702   1.754  2.3371 -1.6333  0.4892
  337SOL     OW11114   2.567   1.848   2.604 -0.6344 -0.4717  0.3236
  337SOL    HW111115   2.617   1.777   2.652 -1.8192 -0.9787  0.8356
  337SOL    HW211116   2.511   1.899   2.670 -1.9476 -0.8993 -0.4531
  338SOL     OW11117   2.624   2.054   1.485  0.6516 -0.2680  0.3082
  338SOL    HW111118   2.689   2.050   1.561 -0.8293 -1.0057  1.5530
  338SOL    HW211119   2.553   2.121   1.506  0.1633 -0.5687 -0.3836
  339SOL     OW11120   2.899   6.142   2.290 -0.0460  0.5287  0.3486
  339SOL    HW111121   2.820   6.098   2.333 -0.5211  1.4735  0.4624
  339SOL    HW211122   2.867   6.219   2.234  0.6976  0.2131 -0.5123
  340SOL     OW11123   3.965   9.315   0.797  0.6799 -0.3744  0.5152
  340SOL    HW111124   3.971   9.243   0.865 -0.9355  1.4472  2.6818
  340SOL    HW211125   4.051   9.321   0.746  1.5025 -2.5144  1.6091
  341SOL     OW11126   3.258   4.099   2.488 -0.4126 -0.0070  0.2471
  341SOL    HW111127   3.260   4.026   2.556  2.1040  0.3523  0.5843
  341SOL    HW211128   3.346   4.106   2.442 -0.7668  2.4523 -0.1647
  342SOL     OW11129   1.146   3.273   1.023  0.2949 -0.0332 -0.1020
  342SOL    HW111130   1.100   3.360   1.008  0.4298  0.6511  3.0774
  342SOL    HW211131   1.244   3.282   1.006  0.2099  0.2764 -0.4080
  343SOL     OW11132   9.152   2.637   0.025  0.1672 -0.2643 -0.3236
  343SOL    HW111133   9.159   2.594  -0.065 -0.3505 -0.8936 -0.0700
  343SOL    HW211134   9.095   2.580   0.085  0.2743  0.2897  0.3155
  344SOL     OW11135   1.940   6.505   0.075 -0.0950  0.4589  0.2452
  344SOL    HW111136   2.028   6.514   0.121  0.7337 -0.8481 -1.0395
  344SOL    HW211137   1.955   6.492  -0.023 -1.7392  0.6645 -0.0513
  345SOL     OW11138   9.710   8.607   1.656  0.2366  0.0601  0.8453
  345SOL    HW111139   9.802   8.618   1.617  0.6336  0.5872  1.8917
  345SOL    HW211140   9.653   8.555   1.593  0.7845  1.1032 -0.5419
  346SOL     OW11141   0.619   1.691   2.300 -0.0051  0.3156 -0.4438
  346SOL    HW111142   0.603   1.709   2.397 -4.0824  2.1114 -1.3245
  346SOL    HW211143   0.695   1.748   2.268  2.9104 -1.9338  2.0713
  347SOL     OW11144   2.978   5.678   0.831 -0.1974  0.9427  0.4881
  347SOL    HW111145   2.891   5.662   0.878 -0.9536 -0.4454 -1.3240
  347SOL    HW211146   3.049   5.620   0.871 -0.5262  0.7251  0.7611
  348SOL     OW11147   4.351   1.523   0.540  0.6124  0.6685  0.1207
  348SOL    HW111148   4.398   1.554   0.623 -2.0185  1.5802  1.3074
  348SOL    HW211149   4.281   1.456   0.564  1.0235 -0.4018 -1.5785
  349SOL     OW11150   3.115   3.866   1.290 -0.1002  0.3202  0.5430
  349SOL    HW111151   3.151   3.805   1.361  0.3352  0.1552  0.1824
  349SOL    HW211152   3.189   3.923   1.254 -0.6762  1.7248  1.5191
  350SOL     OW11153   0.863   8.409   1.027  0.6357  0.1683 -0.1298
  350SOL    HW111154   0.860   8.311   1.047  0.4861  0.0309 -0.8055
  350SOL    HW211155   0.781   8.435   0.975 -0.5205  1.1368  2.1320
  351SOL     OW11156   2.514   9.145   2.442 -0.8618 -0.0307  0.1504
  351SOL    HW111157   2.466   9.146   2.354 -0.3662  2.4691 -0.1280
  351SOL    HW211158   2.609   9.118   2.428 -0.2610  2.1957 -0.4351
  352SOL     OW11159   1.837   8.825   2.840 -0.2951  0.0038  0.4615
  352SOL    HW111160   1.868   8.824   2.745 -2.0330  0.1287 -0.1233
  352SOL    HW211161   1.889   8.893   2.891  0.4528  0.1413 -0.4651
  353SOL     OW11162   3.580   8.666   1.784  0.6088 -0.0896  0.1812
  353SOL    HW111163   3.554   8.675   1.880  0.1249 -0.4630  0.0903
  353SOL    HW211164   3.505   8.622   1.734  1.5816 -1.5965  0.0046
  354SOL     OW11165   1.998   2.700   2.598 -0.0404 -0.0696 -0.0937
  354SOL    HW111166   1.903   2.729   2.586  0.0336  0.3468  0.3004
  354SOL    HW211167   2.059   2.774   2.571  0.1327  0.7931  2.4644
  355SOL     OW11168   0.446   0.344   0.086  0.9450 -0.0576  0.2243
  355SOL    HW111169   0.473   0.362  -0.009  0.2180 -2.1793 -0.4170
  355SOL    HW211170   0.501   0.269   0.122  1.1526  0.6836  1.4620
  356SOL     OW11171   4.053   8.921   0.455  0.4044  0.3910  0.1379
  356SOL    HW111172   3.989   8.997   0.447 -0.5682 -0.3958  0.3525
  356SOL    HW211173   4.135   8.940   0.401 -0.7519  0.6421 -1.5804
  357SOL     OW11174   9.179   3.276   2.047  0.7055  0.1839  0.2332
  357SOL    HW111175   9.153   3.345   2.114 -1.2787 -1.1976  0.9299
  357SOL    HW211176   9.191   3.188   2.092 -1.1856 -0.8845 -1.2792
  358SOL     OW11177   0.947   8.429   2.505  0.0141  0.6738  0.7562
  358SOL    HW111178   0.861   8.388   2.534 -1.1315  1.8916 -0.8289
  358SOL    HW211179   1.022   8.363   2.520 -1.3374 -0.8213  1.0984
  359SOL     OW11180   9.392   6.476   1.783 -0.2510  0.3079  0.2277
  359SOL    HW111181   9.429   6.514   1.868  0.7640 -2.8635  1.3011
  359SOL    HW211182   9.466   6.457   1.719 -0.3781 -2.2187  0.7614
  360SOL     OW11183   3.196   3.043   2.163  0.0318  0.4563  0.3312
  360SOL    HW111184   3.169   2.980   2.090 -3.3457 -0.5876  2.3382
  360SOL    HW211185   3.162   3.135   2.142 -2.9882 -0.3155  1.5974
  361SOL     OW11186   3.660   0.561   0.173 -0.1220 -0.3900  0.1363
  361SOL    HW111187   3.694   0.470   0.197 -0.5901 -1.0260 -1.5508
  361SOL    HW211188   3.565   0.555   0.144 -0.4146  0.7706  0.8084
  362SOL     OW11189   9.278   2.070   1.794 -0.1839  0.6763 -0.4009
  362SOL    HW111190   9.194   2.063   1.847  0.5838 -0.0033  0.7501
  362SOL    HW211191   9.341   2.134   1.839  0.0490  0.9196 -1.0674
  363SOL     OW11192   4.194   8.769   2.940 -0.6883  0.8111  0.0277
  363SOL    HW111193   4.113   8.794   2.993 -2.3662 -0.1386 -2.0005
  363SOL    HW211194   4.276   8.780   2.996 -2.4990 -1.6082  3.2765
  364SOL     OW11195   8.681   3.592   1.284 -0.5644  0.5038  0.2257
  364SOL    HW111196   8.722   3.605   1.374  3.1798  0.2429 -1.3481
  364SOL    HW211197   8.687   3.495   1.259 -0.1626  0.8216 -0.9326
  365SOL     OW11198   1.505   6.005   0.238  0.2095  0.5211 -0.1532
  365SOL    HW111199   1.553   6.053   0.165  0.5017  1.5139  0.6807
  365SOL    HW211200   1.437   6.066   0.279 -1.1833 -0.6029 -0.7574
  366SOL     OW11201   2.839   1.649   1.295 -0.3105 -0.1503 -0.3197
  366SOL    HW111202   2.859   1.590   1.373  1.2762  0.3833 -0.3012
  366SOL    HW211203   2.761   1.708   1.316  0.0750 -0.0463  0.8479
  367SOL     OW11204   4.325   3.149   2.518  0.0413  0.4866  0.1919
  367SOL    HW111205   4.357   3.072   2.574  0.4218  0.8730  0.5049
  367SOL    HW211206   4.290   3.114   2.431  2.7934  0.2053 -0.8221
  368SOL     OW11207   9.095   6.296   0.857 -0.0895  0.3527  1.0692
  368SOL    HW111208   9.028   6.248   0.914 -0.0429 -1.8886 -0.6808
  368SOL    HW211209   9.048   6.350   0.788 -0.1385 -1.2569 -0.1881
  369SOL     OW11210   4.608   3.362   0.187  0.0272 -0.2853  0.0100
  369SOL    HW111211   4.664   3.360   0.269  0.6981 -0.9746 -0.4571
  369SOL    HW211212   4.622   3.448   0.138  0.3669 -0.2892  0.1030
  370SOL     OW11213   3.305   1.767   1.512 -0.3400  0.6938 -0.1610
  370SOL    HW111214   3.306   1.850   1.568 -0.3010  0.8551 -0.3974
  370SOL    HW211215   3.262   1.788   1.424 -0.8401  0.3217 -0.0050
  371SOL     OW11216   8.101   4.135   1.075 -0.2543  0.1670 -0.5398
  371SOL    HW111217   8.023   4.072   1.068  0.4944 -0.4937 -3.1564
  371SOL    HW211218   8.182   4.085   1.106 -0.2530  0.3383 -0.2680
  372SOL     OW11219   2.849   8.959   1.106 -0.8229  0.7319 -0.4135
  372SOL    HW111220   2.804   8.959   1.195 -2.1868  1.1636 -1.0874
  372SOL    HW211221   2.813   9.033   1.050  2.1719  2.3324 -0.2860
  373SOL     OW11222   0.313   4.795   1.518 -0.8307  0.0762 -0.2832
  373SOL    HW111223   0.296   4.869   1.453 -0.6708  0.0134 -0.3960
  373SOL    HW211224   0.387   4.736   1.484 -0.5541  0.2058  0.0826
  374SOL     OW11225   3.270   9.424   1.404 -0.1101 -0.5140 -0.5609
  374SOL    HW111226   3.259   9.493   1.333 -0.6719 -0.9277 -0.8792
  374SOL    HW211227   3.345   9.450   1.465 -0.2491  0.3154 -0.7427
  375SOL     OW11228   1.784   6.820   2.471  0.7983  0.1063  0.1678
  375SOL    HW111229   1.781   6.741   2.533  1.4523  0.7778  1.0669
  375SOL    HW211230   1.701   6.822   2.416 -1.0983  1.0054  2.9365
  376SOL     OW11231   0.690   7.987   1.398 -0.3817 -0.5683  0.0725
  376SOL    HW111232   0.616   7.950   1.454 -0.6311 -0.8986 -0.4610
  376SOL    HW211233   0.778   7.963   1.438 -0.5616  0.0634  0.8639
  377SOL     OW11234   2.397   0.719   1.968  0.0753 -0.0259 -0.3653
  377SOL    HW111235   2.320   0.746   2.026  0.5368  0.0713  0.2011
  377SOL    HW211236   2.482   0.722   2.021  0.2317 -1.9407 -0.4509
  378SOL     OW11237   1.487   3.444   2.539  0.1907 -0.2778 -0.4796
  378SOL    HW111238   1.494   3.482   2.447  0.0195  0.1111 -0.3330
  378SOL    HW211239   1.557   3.375   2.552 -0.0052 -0.5843 -1.0244
  379SOL     OW11240   3.122   5.266   1.840  0.7972 -0.1553  0.5263
  379SOL    HW111241   3.069   5.271   1.755  1.0173 -1.3863  0.3037
  379SOL    HW211242   3.201   5.326   1.835 -0.7403  1.9667  0.9880
  380SOL     OW11243   2.361   3.655   1.060  0.3423 -0.2270  0.2304
  380SOL    HW111244   2.349   3.632   1.157  0.5283  1.2437  0.6039
  380SOL    HW211245   2.454   3.630   1.031  0.4318 -0.2539  0.5420
  381SOL     OW11246   0.894   7.128   2.765  0.0184 -0.1350 -0.2134
  381SOL    HW111247   0.972   7.066   2.754 -0.5651 -0.9852  0.4516
  381SOL    HW211248   0.910   7.186   2.846  1.0278  1.2932 -1.3986
  382SOL     OW11249   1.153   9.052   1.417 -0.2035  0.2365  0.5620
  382SOL    HW111250   1.099   9.010   1.490  2.6900 -1.4852  1.8113
  382SOL    HW211251   1.182   9.143   1.445 -4.3349  2.2040 -1.1051
  383SOL     OW11252   2.879   8.856   0.395  0.0885 -0.2070 -0.0355
  383SOL    HW111253   2.865   8.868   0.296 -2.2337  1.1191  0.4243
  383SOL    HW211254   2.977   8.858   0.414  0.4898  2.0719 -2.0299
  384SOL     OW11255   1.129   8.214   2.583  0.0463 -0.0206 -0.2908
  384SOL    HW111256   1.073   8.177   2.509  0.3290  1.1018 -1.0788
  384SOL    HW211257   1.216   8.166   2.587  0.0800  0.0037 -0.7640
  385SOL     OW11258   2.059   4.231   2.666  0.4978  0.4514 -0.7818
  385SOL    HW111259   1.999   4.227   2.586 -1.6990 -1.2134  0.8796
  385SOL    HW211260   2.070   4.326   2.695 -0.7714  0.8445 -1.5362
  386SOL     OW11261   4.026   3.450   1.821  0.0134 -0.2752 -0.0486
  386SOL    HW111262   4.075   3.387   1.760 -0.3538 -0.2551 -0.3676
  386SOL    HW211263   3.960   3.399   1.876 -0.2804 -0.1767 -0.3030
  387SOL     OW11264   8.945   7.274   0.167 -0.5043  0.2475 -0.1811
  387SOL    HW111265   8.883   7.195   0.168 -0.2568  0.0625  0.5445
  387SOL    HW211266   8.936   7.325   0.252  1.0591 -0.3427  0.3469
  388SOL     OW11267   2.111   5.974   1.418  0.1495  0.1210 -0.2088
  388SOL    HW111268   2.038   6.019   1.470  1.0984  1.0321  0.3497
  388SOL    HW211269   2.198   6.018   1.437  0.7544 -0.5093 -1.4161
  389SOL     OW11270   1.797   3.720   2.630  0.6335  0.0037  0.0828
  389SOL    HW111271   1.735   3.787   2.590 -1.4945 -1.1851  1.2500
  389SOL    HW211272   1.851   3.763   2.703 -0.5649  0.5034  0.6858
  390SOL     OW11273   3.897   3.235   1.625 -0.0586  0.3041  0.4235
  390SOL    HW111274   3.969   3.173   1.656 -0.9599 -0.4455  1.0232
  390SOL    HW211275   3.934   3.295   1.554  1.0570 -0.3359  0.4482
  391SOL     OW11276   4.946   2.463   0.937 -0.2542  0.3154 -0.4151
  391SOL    HW111277   4.878   2.398   0.972  0.2332 -0.6231 -1.1813
  391SOL    HW211278   4.900   2.534   0.885 -0.9094  1.2759  1.4368
  392SOL     OW11279   1.519   0.701   1.830  0.2525 -0.5687 -0.4700
  392SOL    HW111280   1.531   0.795   1.864  0.8202 -0.3440 -1.2898
  392SOL    HW211281   1.515   0.702   1.730 -0.8504 -1.2971 -0.4427
  393SOL     OW11282   1.097   7.325   0.699  0.2070  0.4643 -0.6610
  393SOL    HW111283   1.136   7.252   0.642  0.2510  0.3982 -0.5457
  393SOL    HW211284   1.001   7.305   0.717  0.8874 -0.9491  1.6077
  394SOL     OW11285   1.269   8.994   1.073 -0.0420 -0.3590  0.5927
  394SOL    HW111286   1.319   9.062   1.019 -1.8717 -0.8719 -1.8472
  394SOL    HW211287   1.333   8.940   1.128  1.7263  1.1759  0.0760
  395SOL     OW11288   2.447   2.109   2.293 -0.4049  0.2731  0.1767
  395SOL    HW111289   2.515   2.036   2.297 -0.0834  0.5186 -0.6538
  395SOL    HW211290   2.377   2.086   2.225  0.6826  1.5466 -1.4188
  396SOL     OW11291   2.685   9.520   0.246 -0.0302  0.2243  0.9376
  396SOL    HW111292   2.624   9.565   0.181  0.9262 -1.6893 -1.3796
  396SOL    HW211293   2.631   9.465   0.310 -0.8548  0.0377  0.0938
  397SOL     OW11294   9.456   2.070   0.920 -0.5140  0.3546  0.2745
  397SOL    HW111295   9.374   2.036   0.874  0.5097 -0.8116 -0.7346
  397SOL    HW211296   9.484   2.004   0.990  0.8875 -0.3711 -0.9701
  398SOL     OW11297   0.926   6.168   2.872  0.2763 -0.2779 -0.3083
  398SOL    HW111298   1.021   6.154   2.898  0.7610 -0.0849 -1.9207
  398SOL    HW211299   0.883   6.233   2.935  1.2545 -0.2106  0.2942
  399SOL     OW11300   2.473   4.588   0.112 -0.2505  0.2726  0.1283
  399SOL    HW111301   2.451   4.492   0.128  2.6631 -0.9492 -2.7508
  399SOL    HW211302   2.513   4.628   0.194 -1.2278 -1.0042  1.2488
  400SOL     OW11303   1.654   6.993   2.101 -0.1890  0.3801  0.0088
  400SOL    HW111304   1.632   7.087   2.125 -0.5959 -0.0536  1.4242
  400SOL    HW211305   1.725   6.959   2.163  0.4066 -0.0454 -0.8935
  401SOL     OW11306   8.577   2.673   1.180  0.3765  0.5195  0.0867
  401SOL    HW111307   8.649   2.625   1.230  0.1652  1.1141  0.9597
  401SOL    HW211308   8.606   2.688   1.085  2.5901  3.3508  1.1682
  402SOL     OW11309   2.007   8.077   2.660 -0.1062 -0.5372 -0.0140
  402SOL    HW111310   2.075   8.023   2.611  0.6372 -0.7535  1.2200
  402SOL    HW211311   2.026   8.073   2.758  0.3109  2.4167  0.0688
  403SOL     OW11312   9.861   4.102   2.732  0.1133  0.2761 -0.7277
  403SOL    HW111313   9.923   4.036   2.689 -0.8076 -0.4094 -0.9970
  403SOL    HW211314   9.911   4.188   2.748  1.0424 -0.1562 -1.2524
  404SOL     OW11315   2.961   9.406   0.243  0.1514 -0.1100 -0.2603
  404SOL    HW111316   2.935   9.324   0.294  1.5739  0.3500  1.2515
  404SOL    HW211317   2.879   9.455   0.214 -0.7527 -2.5998 -2.1322
  405SOL     OW11318   9.722   5.918   0.837 -0.1474 -0.1598 -0.2706
  405SOL    HW111319   9.716   5.976   0.919  0.4945 -1.1238  0.4669
  405SOL    HW211320   9.672   5.833   0.853  0.7498 -0.7415 -0.5370
  406SOL     OW11321   8.712   3.293   0.511 -0.7346 -0.4882  0.2128
  406SOL    HW111322   8.785   3.306   0.444 -0.9803  0.5476  0.1435
  406SOL    HW211323   8.736   3.218   0.572  0.9360  0.6207  0.9473
  407SOL     OW11324   3.538   8.527   1.191  0.0063  0.1505  0.0961
  407SOL    HW111325   3.456   8.573   1.159  1.0157 -0.3341 -3.4358
  407SOL    HW211326   3.611   8.594   1.204 -0.3185  0.3092  1.1652
  408SOL     OW11327   1.080   6.693   2.284  0.2390 -0.9146 -0.0501
  408SOL    HW111328   1.152   6.648   2.231 -0.8690 -3.4388  0.5111
  408SOL    HW211329   1.059   6.638   2.364 -1.9198  0.0886  0.0989
  409SOL     OW11330   9.422   3.160   1.487 -0.6934  0.6995  0.3660
  409SOL    HW111331   9.385   3.159   1.393  1.2516  1.1030 -0.4277
  409SOL    HW211332   9.424   3.255   1.520  2.3800  1.0617 -0.7396
  410SOL     OW11333   9.770   5.204   0.150 -0.2753  0.1592 -0.1002
  410SOL    HW111334   9.782   5.248   0.061 -0.2861 -2.2215 -1.3049
  410SOL    HW211335   9.704   5.130   0.141 -2.2230  1.4943  2.4700
  411SOL     OW11336   9.445   7.666   1.794 -0.4324  0.8426 -1.1270
  411SOL    HW111337   9.447   7.737   1.724  2.4133  0.4476 -1.5372
  411SOL    HW211338   9.510   7.690   1.867 -0.8281 -0.4189 -0.3406
  412SOL     OW11339   1.197   4.533   0.384 -0.1575  0.7388  0.1473
  412SOL    HW111340   1.278   4.478   0.365 -0.6161  0.6666 -1.7337
  412SOL    HW211341   1.215   4.629   0.362 -0.4421  0.7811  0.0899
  413SOL     OW11342   3.678   3.173   2.588  0.2036 -0.3191  0.5424
  413SOL    HW111343   3.700   3.244   2.521 -0.5892 -0.6658 -0.0973
  413SOL    HW211344   3.722   3.087   2.562 -0.2464 -0.4986  0.3566
  414SOL     OW11345   0.346   8.246   1.383 -0.2189 -0.3725  0.0131
  414SOL    HW111346   0.260   8.217   1.422 -0.7173  0.9727 -0.0373
  414SOL    HW211347   0.329   8.312   1.309  0.8038 -0.9057 -0.7229
  415SOL     OW11348   9.403   7.919   0.171  0.2069 -0.4703  0.1550
  415SOL    HW111349   9.458   7.848   0.127 -0.1658 -0.1187 -0.9186
  415SOL    HW211350   9.409   8.003   0.117  0.6409  0.3136  1.4121
  416SOL     OW11351   3.640   4.242   1.756  0.5851 -0.1523  0.1717
  416SOL    HW111352   3.696   4.179   1.703  0.4749 -1.5413  1.6448
  416SOL    HW211353   3.545   4.235   1.728  0.3617 -1.6827  1.2823
  417SOL     OW11354   4.758   4.641   0.401 -0.2838 -0.4589  0.1994
  417SOL    HW111355   4.675   4.639   0.345 -0.5736 -0.5149  0.6260
  417SOL    HW211356   4.761   4.560   0.459 -0.1000 -0.2929  0.4261
  418SOL     OW11357   4.764   4.210   1.889 -0.0402  0.0594 -0.6137
  418SOL    HW111358   4.718   4.281   1.837  0.1676 -0.3452 -1.3608
  418SOL    HW211359   4.696   4.150   1.931 -0.2285  1.0449  0.5279
  419SOL     OW11360   3.442   4.977   1.849  0.1599  0.5306  0.2460
  419SOL    HW111361   3.432   5.012   1.942  3.7247 -0.6239  1.1296
  419SOL    HW211362   3.380   4.900   1.835 -0.4546  0.7745  1.5772
  420SOL     OW11363   1.962   5.788   2.904  0.4072 -0.0540 -0.0298
  420SOL    HW111364   1.995   5.837   2.985 -0.1277  0.4898 -0.1397
  420SOL    HW211365   2.025   5.713   2.883 -0.1437 -1.0110  1.6620
  421SOL     OW11366   4.563   2.548   1.579 -0.4049 -0.3712 -0.4363
  421SOL    HW111367   4.649   2.508   1.546 -0.7131 -0.4526 -1.1408
  421SOL    HW211368   4.562   2.645   1.558 -0.3956 -0.3311 -0.2471
  422SOL     OW11369   3.176   4.472   2.192  0.2137  0.3948 -0.0067
  422SOL    HW111370   3.131   4.523   2.119 -1.9031  0.5537  1.3476
  422SOL    HW211371   3.221   4.535   2.255  1.4796  0.2982 -0.8096
  423SOL     OW11372   9.302   7.063   2.643  0.0770  0.2294  0.2631
  423SOL    HW111373   9.387   7.010   2.648 -0.7741 -1.3720 -1.4749
  423SOL    HW211374   9.308   7.142   2.704  3.6461  1.3610 -1.4137
  424SOL     OW11375   2.760   8.830   2.660  0.0363 -0.1944  0.0245
  424SOL    HW111376   2.838   8.769   2.678  0.1813 -0.0971 -0.2633
  424SOL    HW211377   2.732   8.820   2.565  0.7204  0.9404 -0.3051
  425SOL     OW11378   0.675   4.858   1.498 -0.0855  0.1302 -0.0480
  425SOL    HW111379   0.610   4.844   1.424 -1.9625  1.4979  1.2716
  425SOL    HW211380   0.753   4.911   1.465  0.5172 -1.7521 -1.7120
  426SOL     OW11381   3.467   9.754   1.900 -0.4139 -0.2823 -0.5254
  426SOL    HW111382   3.528   9.762   1.821  0.1459 -1.0583 -0.1796
  426SOL    HW211383   3.434   9.659   1.908 -0.8808 -0.0912 -0.1365
  427SOL     OW11384   3.282   2.290   0.672 -0.2599 -0.7141  0.2064
  427SOL    HW111385   3.214   2.361   0.653  0.6701  0.1227 -0.0156
  427SOL    HW211386   3.343   2.280   0.594  0.4518 -0.8084  0.7700
  428SOL     OW11387   3.498   9.042   2.580 -0.0639 -0.3376 -0.0091
  428SOL    HW111388   3.593   9.011   2.592  0.4388 -0.4356 -3.7476
  428SOL    HW211389   3.499   9.136   2.544 -1.3943 -0.3307 -0.0278
  429SOL     OW11390   2.700   3.713   1.984  0.2306 -0.0752  0.8974
  429SOL    HW111391   2.615   3.670   2.015 -0.0987 -0.0324  0.0520
  429SOL    HW211392   2.761   3.644   1.946 -1.0713  0.4190 -2.2382
  430SOL     OW11393   2.202   1.143   0.294 -0.2336 -0.2571  0.3171
  430SOL    HW111394   2.215   1.092   0.209 -1.9456  0.4704 -0.4001
  430SOL    HW211395   2.142   1.092   0.355 -1.5178  0.6119 -0.1859
  431SOL     OW11396   4.342   1.481   1.024 -0.3054 -0.0444  0.2929
  431SOL    HW111397   4.419   1.493   0.961 -0.6074  1.0938  0.1383
  431SOL    HW211398   4.377   1.463   1.116  0.1353 -1.7667 -0.2027
  432SOL     OW11399   4.161   8.789   2.686 -0.0611 -0.1448 -0.0960
  432SOL    HW111400   4.149   8.690   2.675  1.3529 -0.3618  0.1433
  432SOL    HW211401   4.165   8.811   2.783  2.0580 -0.2100 -0.1287
  433SOL     OW11402   0.980   8.745   2.311  0.3289 -0.1666 -0.7303
  433SOL    HW111403   0.948   8.754   2.405  0.7012  1.4970 -0.7472
  433SOL    HW211404   1.038   8.664   2.303 -0.9645 -1.2077  0.1030
  434SOL     OW11405   9.808   3.244   1.694 -0.3962  0.0088  0.6743
  434SOL    HW111406   9.792   3.147   1.677 -2.3489  0.4750 -0.3497
  434SOL    HW211407   9.763   3.272   1.778  0.0311  0.0653  0.8870
  435SOL     OW11408   8.724   4.337   0.986 -0.0294 -0.7867 -0.5050
  435SOL    HW111409   8.639   4.289   1.009  0.0720 -1.9266 -2.3741
  435SOL    HW211410   8.703   4.422   0.938 -0.1220 -0.8744 -0.6193
  436SOL     OW11411   0.615   3.592   0.018  0.2481 -0.2138 -0.0282
  436SOL    HW111412   0.580   3.499   0.007 -0.5300 -0.1599  1.8321
  436SOL    HW211413   0.682   3.594   0.091  1.8236  0.3167 -1.4530
  437SOL     OW11414   3.424   6.222   0.350  0.3613  0.3208  1.3363
  437SOL    HW111415   3.474   6.138   0.372  1.2382  0.5130  0.1026
  437SOL    HW211416   3.379   6.256   0.433  1.9098 -0.1026  2.3763
  438SOL     OW11417   0.044   4.690   1.497  0.1350  0.3194 -0.1767
  438SOL    HW111418   0.029   4.658   1.591 -2.8800  0.0812 -0.6939
  438SOL    HW211419   0.139   4.674   1.471  1.3994  1.6538  3.3013
  439SOL     OW11420   1.475   0.907   1.188  0.6144  0.2612 -0.0259
  439SOL    HW111421   1.424   0.993   1.189 -0.3649 -0.3119 -0.4704
  439SOL    HW211422   1.572   0.927   1.173  0.1707  1.2011 -1.8405
  440SOL     OW11423   0.632   8.279   1.916 -0.2987 -0.4981  0.0084
  440SOL    HW111424   0.569   8.224   1.862  0.5415  0.0116 -1.5207
  440SOL    HW211425   0.697   8.218   1.964 -2.4845 -1.0748  2.3559
  441SOL     OW11426   9.543   4.565   0.948  0.1172  0.2711 -0.1784
  441SOL    HW111427   9.633   4.590   0.915  0.4299 -0.6982 -0.0723
  441SOL    HW211428   9.507   4.638   1.006  1.5466 -0.0705  1.1613
  442SOL     OW11429   1.472   6.472   0.746  0.0739 -0.4158 -0.0881
  442SOL    HW111430   1.427   6.385   0.728  1.7130 -1.2040 -0.5531
  442SOL    HW211431   1.438   6.542   0.684 -0.4767 -1.0019 -0.4435
  443SOL     OW11432   3.138   5.444   2.830  0.1488  0.0167  0.0821
  443SOL    HW111433   3.051   5.488   2.851 -0.9307 -2.1197  0.2909
  443SOL    HW211434   3.170   5.394   2.911  1.0265 -0.0580 -0.3106
  444SOL     OW11435   0.664   3.551   0.458 -0.0008 -0.6242  0.3619
  444SOL    HW111436   0.731   3.558   0.532  0.8551  0.7623 -0.5218
  444SOL    HW211437   0.708   3.574   0.371 -1.6070  0.2203 -0.2387
  445SOL     OW11438   1.067   6.502   2.501 -1.0404 -0.2071  0.0209
  445SOL    HW111439   1.121   6.424   2.534  0.8177  0.6170 -0.9778
  445SOL    HW211440   1.051   6.566   2.577  1.2473  0.5681 -0.1075
  446SOL     OW11441   0.413   2.034   2.270 -0.4290  0.3670 -0.0120
  446SOL    HW111442   0.365   1.948   2.254 -1.1098  0.5930  0.7540
  446SOL    HW211443   0.424   2.047   2.369 -0.3622  1.1810 -0.1261
  447SOL     OW11444   0.141   5.677   0.605  0.2056  0.4013  0.0062
  447SOL    HW111445   0.070   5.727   0.656  0.5620  0.6228  0.2871
  447SOL    HW211446   0.115   5.580   0.599 -0.6237  0.6635 -0.7804
  448SOL     OW11447   2.086   4.962   2.857  0.0455 -0.1014  0.0219
  448SOL    HW111448   2.129   4.873   2.845 -3.5496 -1.7302 -1.5038
  448SOL    HW211449   2.045   4.968   2.948  0.3549  0.0105  0.1527
  449SOL     OW11450   3.236   0.727   2.222 -0.2158 -0.1527 -0.2192
  449SOL    HW111451   3.229   0.656   2.291 -0.2140  1.6146  1.6467
  449SOL    HW211452   3.311   0.789   2.245 -1.4687  1.5938 -0.7438
  450SOL     OW11453   0.996   1.479   2.096 -0.3713  0.4293  0.0610
  450SOL    HW111454   0.997   1.429   2.183  1.0394  0.4378  0.0566
  450SOL    HW211455   1.050   1.428   2.028  0.2740  1.4737 -0.2114
  451SOL     OW11456   9.537   3.549   1.098  0.1194  0.5493 -0.1486
  451SOL    HW111457   9.595   3.604   1.037 -1.3783  0.1862 -1.9641
  451SOL    HW211458   9.534   3.455   1.063 -1.2629  0.4847  0.1426
  452SOL     OW11459   2.618   6.976   2.212 -0.2014  0.2411 -0.7037
  452SOL    HW111460   2.700   7.032   2.195 -1.0202  1.6206 -0.1678
  452SOL    HW211461   2.545   7.034   2.248  0.0202 -1.7785  3.2769
  453SOL     OW11462   2.173   5.657   0.976 -0.5324  0.0225 -0.6151
  453SOL    HW111463   2.115   5.638   0.897 -0.4466 -1.0162 -0.4344
  453SOL    HW211464   2.264   5.620   0.960  0.2239  1.9779 -1.0625
  454SOL     OW11465   2.408   6.189   1.310 -0.2644  0.7369  0.0370
  454SOL    HW111466   2.379   6.285   1.315  0.8918  1.0671  0.6364
  454SOL    HW211467   2.507   6.184   1.321 -0.2865 -0.5141 -0.2695
  455SOL     OW11468   0.749   4.224   2.894 -0.3231 -0.1700 -0.1850
  455SOL    HW111469   0.659   4.246   2.855  0.5429  0.7464 -1.7252
  455SOL    HW211470   0.817   4.221   2.821  0.5915 -2.6497  0.7346
  456SOL     OW11471   9.798   3.277   1.392 -0.2703 -0.0459  0.1276
  456SOL    HW111472   9.721   3.288   1.328  0.2404  1.6292 -0.2325
  456SOL    HW211473   9.764   3.270   1.485 -0.8300  1.7138  0.0690
  457SOL     OW11474   0.801   1.605   1.895 -0.4000  0.4805 -0.1058
  457SOL    HW111475   0.870   1.573   1.961  1.2953  1.9652 -1.1086
  457SOL    HW211476   0.838   1.683   1.844 -2.6771  0.9954 -1.0005
  458SOL     OW11477   1.558   9.073   2.711 -0.6866  0.0801  0.0719
  458SOL    HW111478   1.481   9.131   2.736  1.3428  1.3928  3.6298
  458SOL    HW211479   1.630   9.129   2.670 -2.2784 -1.4328 -5.1028
  459SOL     OW11480   1.362   8.752   1.230 -0.5011  0.4879 -0.5254
  459SOL    HW111481   1.372   8.842   1.272  1.3120 -0.1902  0.5739
  459SOL    HW211482   1.303   8.695   1.288  0.8302  0.0159  0.3993
  460SOL     OW11483   3.436   3.144   1.100  0.4587  0.7039  0.0576
  460SOL    HW111484   3.518   3.161   1.045  0.8972 -1.2525  0.0744
  460SOL    HW211485   3.366   3.101   1.043  0.3087  0.1937  0.6186
  461SOL     OW11486   9.975   3.923   2.554 -0.1824 -0.0880 -0.2699
  461SOL    HW111487  10.043   3.872   2.607 -0.1381  2.1749  1.9511
  461SOL    HW211488  10.022   3.989   2.495 -0.3358 -0.7009 -1.0768
  462SOL     OW11489   9.697   4.977   0.518  0.4522 -0.4050 -0.1757
  462SOL    HW111490   9.767   4.927   0.467 -0.4015  1.3372 -3.1380
  462SOL    HW211491   9.638   5.027   0.455 -1.2567  1.0609  2.4711
  463SOL     OW11492   1.090   5.884   0.980 -0.3939  0.7202 -0.0546
  463SOL    HW111493   1.079   5.884   1.080  1.8485 -0.4772  0.2122
  463SOL    HW211494   1.012   5.836   0.939 -0.0720 -1.0001  1.2894
  464SOL     OW11495   1.020   1.126   1.392  0.4697  0.1695  0.4467
  464SOL    HW111496   0.979   1.088   1.309 -3.1875  2.0411  1.2809
  464SOL    HW211497   1.035   1.052   1.458  0.6527 -0.9177 -0.8039
  465SOL     OW11498   1.583   8.133   2.248 -0.2734  0.3961 -0.0427
  465SOL    HW111499   1.592   8.156   2.345  2.3258  0.0658 -0.1770
  465SOL    HW211500   1.491   8.156   2.217 -0.8412  1.3872  2.2631
  466SOL     OW11501   0.829   0.237   0.339  0.8351  0.0793  0.2736
  466SOL    HW111502   0.855   0.333   0.344  1.8565 -0.0671 -1.6634
  466SOL    HW211503   0.910   0.180   0.349  0.4743 -0.5337 -0.2362
  467SOL     OW11504   2.865   9.454   1.749 -0.4719  0.5052 -0.1542
  467SOL    HW111505   2.942   9.414   1.699  0.5440  1.6058  0.4942
  467SOL    HW211506   2.862   9.416   1.841 -0.0091  1.2901  0.1905
  468SOL     OW11507   0.116   3.059   2.228  0.2858 -0.1236  0.3707
  468SOL    HW111508   0.041   2.994   2.235  0.9741 -0.8195  1.2927
  468SOL    HW211509   0.080   3.149   2.201 -1.1275  0.0601  2.7825
  469SOL     OW11510   1.288   0.681   1.992  0.1398 -0.1690 -0.0116
  469SOL    HW111511   1.372   0.682   1.937 -0.9955  0.3231 -1.7669
  469SOL    HW211512   1.311   0.657   2.086  2.2026 -0.4539 -0.5524
  470SOL     OW11513   2.748   4.483   1.662  0.5370 -0.4275 -0.2558
  470SOL    HW111514   2.692   4.513   1.740  0.7436 -0.6995  0.0007
  470SOL    HW211515   2.750   4.554   1.593  1.1209  0.2016  0.3995
  471SOL     OW11516   8.527   3.828   1.714 -0.2053  0.3293  0.4757
  471SOL    HW111517   8.493   3.914   1.752 -2.7523  0.5588 -2.1820
  471SOL    HW211518   8.575   3.845   1.628  1.4332 -0.6758  1.1596
  472SOL     OW11519   2.999   3.943   0.837  0.4409  0.1783  0.5624
  472SOL    HW111520   3.049   4.022   0.873  0.5420  1.1942 -1.6933
  472SOL    HW211521   3.060   3.864   0.832  1.4039  0.9821 -0.6744
  473SOL     OW11522   2.047   0.712   0.052 -0.0671  0.0676 -0.5172
  473SOL    HW111523   2.028   0.722   0.150  3.1749  1.6419  0.0212
  473SOL    HW211524   1.971   0.751  -0.001 -2.2986 -1.6737  1.3157
  474SOL     OW11525   1.286   8.287   1.979  0.2241 -0.3726 -0.3375
  474SOL    HW111526   1.316   8.379   1.955  0.7585 -0.5328 -0.2877
  474SOL    HW211527   1.294   8.275   2.078 -3.0306  0.6737  0.1130
  475SOL     OW11528   3.110   8.615   1.763  0.2341  0.1733 -0.3290
  475SOL    HW111529   3.195   8.612   1.711  0.3087  0.7820 -0.2406
  475SOL    HW211530   3.130   8.602   1.861  0.2940  0.9693 -0.2346
  476SOL     OW11531   0.446   9.138   1.473 -0.4192 -0.4025 -0.4372
  476SOL    HW111532   0.352   9.169   1.487  0.2252  2.1713 -1.5622
  476SOL    HW211533   0.504   9.176   1.545  0.4929  1.6348 -2.1996
  477SOL     OW11534   0.652   8.412   2.336  0.8890  0.0986  0.1446
  477SOL    HW111535   0.575   8.354   2.308  0.6694  1.0515 -1.3067
  477SOL    HW211536   0.722   8.356   2.380 -0.0911 -0.9768  0.3609
  478SOL     OW11537   3.290   1.267   1.693  0.2062  0.2840 -0.0219
  478SOL    HW111538   3.330   1.358   1.705  0.1015  0.4011 -0.5788
  478SOL    HW211539   3.353   1.209   1.642 -0.1912  0.3724 -0.6149
  479SOL     OW11540   2.851   4.276   1.036 -0.1576 -0.6309  0.7532
  479SOL    HW111541   2.839   4.201   1.101 -1.9402 -1.3289 -0.3493
  479SOL    HW211542   2.849   4.240   0.942  0.2343  0.6311  0.2491
  480SOL     OW11543   2.807   9.169   2.274 -0.2756 -0.0327  0.2217
  480SOL    HW111544   2.819   9.071   2.288 -0.4688 -0.0266  0.4197
  480SOL    HW211545   2.875   9.219   2.328  0.5780 -0.0933 -0.7736
  481SOL     OW11546   9.824   7.117   2.036  0.2268  0.1970 -0.2867
  481SOL    HW111547   9.733   7.148   2.063  0.2179 -1.0588  1.2504
  481SOL    HW211548   9.816   7.033   1.981  0.3739  1.2989 -2.0228
  482SOL     OW11549   0.565   6.738   0.456 -0.1904 -0.4629  0.7781
  482SOL    HW111550   0.510   6.662   0.421 -1.4817  0.9696 -0.3673
  482SOL    HW211551   0.562   6.814   0.392  1.4481  0.4161  1.7081
  483SOL     OW11552   9.832   3.731   2.805  0.2278 -0.1101 -0.0454
  483SOL    HW111553   9.878   3.793   2.869 -0.0204 -0.9606  0.9832
  483SOL    HW211554   9.876   3.641   2.810 -0.4733 -0.4697 -0.2922
  484SOL     OW11555   2.446   3.960   2.182  0.4569 -0.2066 -0.6824
  484SOL    HW111556   2.491   3.881   2.224  0.4560 -0.1725 -0.6164
  484SOL    HW211557   2.386   3.929   2.109 -0.5340 -0.3717  0.1963
  485SOL     OW11558   9.349   4.237   0.312 -0.1548  0.3751  0.2165
  485SOL    HW111559   9.422   4.175   0.340 -0.7216 -0.1686  0.4978
  485SOL    HW211560   9.279   4.185   0.264 -0.1926  0.9552 -0.3472
  486SOL     OW11561   3.291   8.602   2.503 -0.6575  0.3366  0.1601
  486SOL    HW111562   3.350   8.530   2.465 -0.4912  1.0954 -1.0548
  486SOL    HW211563   3.197   8.587   2.472 -0.1900  2.0844 -2.2897
  487SOL     OW11564   2.426   2.693   1.862  0.4882 -1.0082 -0.1445
  487SOL    HW111565   2.435   2.648   1.773  0.7481  0.8556 -1.0842
  487SOL    HW211566   2.396   2.627   1.930 -0.5054 -2.2780 -1.7869
  488SOL     OW11567   8.713   3.897   1.533 -1.1265  0.7521  0.3762
  488SOL    HW111568   8.764   3.974   1.571  1.1876 -0.2513 -0.5999
  488SOL    HW211569   8.715   3.902   1.433 -0.1735 -1.0391  0.2826
  489SOL     OW11570   1.168   3.534   1.451 -0.8901  0.4894  0.3444
  489SOL    HW111571   1.166   3.455   1.390 -0.3317  0.6544  0.1014
  489SOL    HW211572   1.151   3.617   1.398  0.1723  0.6901  0.2997
  490SOL     OW11573   0.164   8.490   2.164  0.4419 -0.0297  0.0826
  490SOL    HW111574   0.247   8.538   2.136  0.6796 -0.1940  0.5071
  490SOL    HW211575   0.086   8.553   2.160  0.3671 -0.1825 -1.4694
  491SOL     OW11576   4.964   3.448   1.632 -0.3875 -0.3094  0.1729
  491SOL    HW111577   4.998   3.529   1.680 -0.4109  0.7034 -1.4930
  491SOL    HW211578   4.867   3.437   1.650 -0.3180 -0.1482  0.6492
  492SOL     OW11579   0.914   0.885   0.661 -0.8528 -0.3779  0.3615
  492SOL    HW111580   1.008   0.859   0.640 -0.9191  0.2623 -0.8043
  492SOL    HW211581   0.853   0.843   0.593 -1.1783  0.9883 -0.2079
  493SOL     OW11582   3.824   3.547   2.522  0.1054  0.5064 -0.5925
  493SOL    HW111583   3.831   3.458   2.478 -2.1458 -0.4731  0.9455
  493SOL    HW211584   3.839   3.619   2.453 -1.8234 -1.0059 -2.6890
  494SOL     OW11585   1.705   6.292   0.253  0.2913  0.3540 -0.4145
  494SOL    HW111586   1.680   6.247   0.167 -1.5266 -1.3814  0.9628
  494SOL    HW211587   1.777   6.239   0.298  0.3359  0.5490 -0.2554
  495SOL     OW11588   3.638   2.887   2.126 -0.2758 -0.0316 -0.0240
  495SOL    HW111589   3.667   2.954   2.058  0.5635  0.4752  0.8210
  495SOL    HW211590   3.711   2.874   2.194 -0.5188 -1.6223 -0.0429
  496SOL     OW11591   0.877   7.246   1.693  0.2728  0.0667  0.0144
  496SOL    HW111592   0.885   7.285   1.785  0.6717  0.0875 -0.0297
  496SOL    HW211593   0.807   7.174   1.693  1.1196 -0.7739  0.6206
  497SOL     OW11594   1.000   3.514   0.929 -0.2500  0.0845 -0.1077
  497SOL    HW111595   0.910   3.539   0.966 -0.4334 -0.1983 -0.3589
  497SOL    HW211596   1.071   3.564   0.977 -0.3688 -1.3826  1.6700
  498SOL     OW11597   4.048   4.281   1.208 -0.4431  0.2913  0.1785
  498SOL    HW111598   4.089   4.351   1.149 -0.9570  1.9463  1.7188
  498SOL    HW211599   4.072   4.300   1.303 -1.8554 -0.7585  0.7601
  499SOL     OW11600   9.258   2.976   2.512 -0.4735  0.3486  0.2396
  499SOL    HW111601   9.259   2.938   2.604  3.2306  0.3063  0.2700
  499SOL    HW211602   9.218   3.068   2.514  2.3865  1.6247  2.4986
  500SOL     OW11603   9.324   3.119   0.009 -0.9921  0.7432 -0.1898
  500SOL    HW111604   9.262   3.067  -0.050 -1.6476  1.7480 -0.3961
  500SOL    HW211605   9.304   3.217   0.001 -0.9462  0.9141  1.5384
  501SOL     OW11606   9.199   2.069   0.200 -0.2090  0.6484 -0.2450
  501SOL    HW111607   9.210   2.014   0.117  0.8868  0.3922  0.0565
  501SOL    HW211608   9.191   2.008   0.279  0.6905  0.9196  0.0560
  502SOL     OW11609   8.440   3.892   2.723  0.0847 -0.1730  0.0796
  502SOL    HW111610   8.396   3.943   2.648 -1.7034  0.1843  1.3342
  502SOL    HW211611   8.468   3.802   2.690  0.2605  0.3773 -1.3002
  503SOL     OW11612   1.797   9.954   1.773 -0.5577 -0.2133  0.1998
  503SOL    HW111613   1.817  10.050   1.786 -0.0785 -0.0568 -1.6007
  503SOL    HW211614   1.778   9.911   1.861  1.6899  0.9627  1.2726
  504SOL     OW11615   2.640   4.352   2.063 -1.2452  0.0255  0.0731
  504SOL    HW111616   2.607   4.305   2.145 -2.0073  2.0804  0.9902
  504SOL    HW211617   2.737   4.334   2.051 -0.7586  0.9401  2.3368
  505SOL     OW11618   3.103   8.151   2.647 -0.4036  0.3930  0.2520
  505SOL    HW111619   3.134   8.057   2.629 -0.5223 -0.0174  2.0974
  505SOL    HW211620   3.059   8.188   2.565  0.7296 -0.7194 -0.8853
  506SOL     OW11621   0.275   0.569   2.601  0.5729  0.0232  0.4507
  506SOL    HW111622   0.176   0.574   2.594  0.6162 -0.3092 -0.5681
  506SOL    HW211623   0.316   0.600   2.515  1.2946 -1.4982  0.2229
  507SOL     OW11624   8.675   3.458   0.104 -0.1994  0.1449 -0.0203
  507SOL    HW111625   8.609   3.405   0.157 -1.9188  1.1782 -1.0968
  507SOL    HW211626   8.674   3.427   0.009  0.6433  0.3936 -0.1159
  508SOL     OW11627   8.224   2.673   1.776  0.6852 -0.2839 -0.0971
  508SOL    HW111628   8.298   2.606   1.774 -2.0481 -3.4104  0.0944
  508SOL    HW211629   8.182   2.679   1.686 -1.8909 -2.1280  0.9347
  509SOL     OW11630   1.898   2.407   1.667 -0.2726  0.0215  0.0372
  509SOL    HW111631   1.983   2.414   1.615  0.9119  1.8159  2.0951
  509SOL    HW211632   1.912   2.446   1.758 -2.2209 -3.0921  1.7747
  510SOL     OW11633   3.234   6.014   1.837  0.2969 -0.4502 -0.7221
  510SOL    HW111634   3.225   5.935   1.776  0.2863 -0.9065 -0.1373
  510SOL    HW211635   3.145   6.036   1.877  0.4493 -0.6346 -0.2783
  511SOL     OW11636   0.536   4.878   1.177 -0.6404 -0.3055 -1.0177
  511SOL    HW111637   0.535   4.912   1.083  1.5756 -1.1858 -1.3836
  511SOL    HW211638   0.589   4.793   1.181  0.4243  0.4309  1.2421
  512SOL     OW11639   1.723   5.537   1.525  0.7599 -0.5734  0.3366
  512SOL    HW111640   1.659   5.554   1.600  0.5771  0.5954 -0.0650
  512SOL    HW211641   1.800   5.600   1.532  0.5980 -0.2601 -0.6194
  513SOL     OW11642   8.411   6.727   1.348  0.2638 -0.5363  0.0931
  513SOL    HW111643   8.487   6.676   1.388  0.2971  0.1299  0.8922
  513SOL    HW211644   8.424   6.824   1.366 -0.0669 -0.2943 -0.9717
  514SOL     OW11645   2.727   2.680   2.331 -0.6822  0.0173 -0.3806
  514SOL    HW111646   2.812   2.646   2.371  0.3368  1.7556 -0.9658
  514SOL    HW211647   2.656   2.610   2.337  0.7704 -1.4359  0.1853
  515SOL     OW11648   9.757   4.177   0.378  0.1392 -0.4759 -0.1179
  515SOL    HW111649   9.703   4.098   0.348 -0.9985 -0.2799  1.3746
  515SOL    HW211650   9.788   4.228   0.298 -3.3825  0.3990 -1.0419
  516SOL     OW11651   3.353   8.806   1.405 -0.0646  0.1287  0.0126
  516SOL    HW111652   3.434   8.851   1.444 -0.0982 -0.0133  0.2477
  516SOL    HW211653   3.336   8.842   1.313  1.0375 -0.8016 -0.5586
  517SOL     OW11654   3.153   9.598   1.794 -0.3247 -0.8449  0.1791
  517SOL    HW111655   3.127   9.509   1.831  0.7028 -0.7820  1.0939
  517SOL    HW211656   3.071   9.649   1.769 -0.9962 -1.3776  1.2292
  518SOL     OW11657   2.320   0.174   2.617 -0.1096 -0.5711  0.0553
  518SOL    HW111658   2.242   0.128   2.575  0.1927 -0.5489 -0.5498
  518SOL    HW211659   2.354   0.245   2.555  0.9620 -1.1976 -0.0986
  519SOL     OW11660   9.209   5.002   2.286  0.0686  0.2223 -0.3820
  519SOL    HW111661   9.161   4.934   2.231 -1.6706  1.2137 -0.1075
  519SOL    HW211662   9.210   4.973   2.382  0.0441  0.2019 -0.3884
  520SOL     OW11663   3.446   3.133   0.100  0.5136 -0.2000 -0.0908
  520SOL    HW111664   3.373   3.166   0.040  0.7693 -0.9453 -0.8243
  520SOL    HW211665   3.534   3.145   0.055  0.8746  0.9349  0.9024
  521SOL     OW11666   3.676   4.808   2.496  0.1008 -0.1834 -0.2290
  521SOL    HW111667   3.580   4.833   2.489 -0.1961 -0.8244  1.5455
  521SOL    HW211668   3.702   4.751   2.418 -0.9438  0.0021 -0.7105
  522SOL     OW11669   3.177   1.439   0.296 -0.2841 -0.1716  0.6642
  522SOL    HW111670   3.191   1.364   0.360 -1.8690 -2.3325 -1.4144
  522SOL    HW211671   3.081   1.469   0.299  0.0915  1.0565  0.7220
  523SOL     OW11672   4.781   3.061   0.965  0.2280  0.3070  0.0541
  523SOL    HW111673   4.685   3.062   0.992 -0.1213  1.3284 -1.1596
  523SOL    HW211674   4.808   3.154   0.937  0.8565 -0.4867 -2.0499
  524SOL     OW11675   3.056   4.396   1.131  0.3867 -0.4650  0.2824
  524SOL    HW111676   3.066   4.488   1.093  0.7099 -0.2722  0.8283
  524SOL    HW211677   2.983   4.348   1.083  0.7439 -0.1964 -0.5259
  525SOL     OW11678   3.965   1.638   0.903 -0.8200  0.4459 -0.6625
  525SOL    HW111679   3.968   1.561   0.967 -0.7734 -0.4006 -1.6765
  525SOL    HW211680   3.875   1.642   0.859 -0.4602  0.3060 -1.4186
  526SOL     OW11681   1.214   0.130   2.768  0.5467  0.6687 -0.1405
  526SOL    HW111682   1.174   0.043   2.797  1.0435 -0.1274 -1.8079
  526SOL    HW211683   1.146   0.184   2.719  0.4643  0.8920  0.2168
  527SOL     OW11684   0.505   7.744   0.312 -0.2111 -0.2841 -0.2154
  527SOL    HW111685   0.443   7.685   0.261  0.0901 -0.0935 -0.8024
  527SOL    HW211686   0.492   7.729   0.410 -2.5981  1.1608 -0.2748
  528SOL     OW11687   1.078   3.066   2.261 -0.0418 -0.3920 -0.1783
  528SOL    HW111688   1.045   2.982   2.304 -1.6572  1.5404  2.4454
  528SOL    HW211689   1.004   3.134   2.259  1.1066  0.8617 -2.6674
  529SOL     OW11690   1.649   7.207   1.482 -0.2381 -0.0452 -0.2382
  529SOL    HW111691   1.559   7.165   1.479  0.5744 -1.8444  0.0397
  529SOL    HW211692   1.716   7.147   1.438  1.3899 -0.2364  2.3850
  530SOL     OW11693   4.798   3.705   1.135  0.1704 -0.0941 -0.0742
  530SOL    HW111694   4.842   3.664   1.055 -0.2231 -0.5197 -0.0764
  530SOL    HW211695   4.848   3.678   1.217  0.9506  0.8608 -0.2254
  531SOL     OW11696   9.269   6.072   1.167  0.2021 -0.4012  0.0290
  531SOL    HW111697   9.297   6.034   1.079  0.8859  1.7424 -0.6988
  531SOL    HW211698   9.303   6.013   1.241  0.6707 -1.5533 -1.0928
  532SOL     OW11699   1.535   8.683   0.210 -0.5755  0.5565  0.0576
  532SOL    HW111700   1.554   8.690   0.308 -2.3827 -1.2138  0.5622
  532SOL    HW211701   1.436   8.685   0.195 -0.3100  1.3798 -1.7971
  533SOL     OW11702   1.458   1.122   1.446 -0.2575  0.3326 -0.1632
  533SOL    HW111703   1.505   1.187   1.505 -2.1799  1.6755 -0.0794
  533SOL    HW211704   1.434   1.166   1.359 -2.2741  0.0160  0.1949
  534SOL     OW11705   3.309   3.568   2.345 -0.1925  0.3559 -0.1714
  534SOL    HW111706   3.382   3.625   2.309 -2.1781  3.1274  0.0503
  534SOL    HW211707   3.339   3.472   2.346  2.7056  1.1874 -1.8085
  535SOL     OW11708   9.094   6.257   2.410 -0.4672  0.2412  0.5719
  535SOL    HW111709   9.101   6.206   2.496  0.3534 -0.0198  0.3576
  535SOL    HW211710   9.041   6.203   2.345  1.1246 -0.7552  0.0617
  536SOL     OW11711   2.315   2.725   0.689 -0.1403  0.5627  0.3001
  536SOL    HW111712   2.363   2.796   0.741  2.0311  0.2051 -1.1830
  536SOL    HW211713   2.370   2.642   0.687 -1.2285 -0.1467 -0.7045
  537SOL     OW11714   9.057   5.392   2.041 -0.2771 -0.2881 -0.6885
  537SOL    HW111715   9.092   5.300   2.057  0.8836  0.4847  1.4407
  537SOL    HW211716   8.962   5.397   2.071 -0.6732 -1.0433 -1.7744
  538SOL     OW11717   9.123   7.938   0.812  0.3443 -0.4783  0.0861
  538SOL    HW111718   9.168   7.989   0.886 -0.7933  0.0179  0.4424
  538SOL    HW211719   9.166   7.961   0.725  0.3317  0.5258  0.3405
  539SOL     OW11720   1.680   7.573   2.092  0.2048  0.2588  0.0415
  539SOL    HW111721   1.738   7.654   2.087 -0.1364  0.4662 -0.6299
  539SOL    HW211722   1.634   7.570   2.181 -1.4808  1.9853 -0.7502
  540SOL     OW11723   8.900   7.183   0.897 -0.6120  0.1851 -0.1013
  540SOL    HW111724   8.907   7.088   0.924  3.3240 -0.3335 -2.5826
  540SOL    HW211725   8.912   7.242   0.977 -3.7072 -1.2829  1.5585
  541SOL     OW11726   0.554   9.464   2.708 -0.1887  0.1657 -0.3452
  541SOL    HW111727   0.615   9.434   2.634 -1.2682 -2.6110 -0.1817
  541SOL    HW211728   0.558   9.398   2.783  0.8588  2.9400  2.0891
  542SOL     OW11729   3.427   3.010   2.327  0.3222 -0.1331 -0.3126
  542SOL    HW111730   3.338   3.010   2.282 -0.0572 -1.1724  0.4148
  542SOL    HW211731   3.496   2.974   2.265 -0.3075 -2.1354  0.0982
  543SOL     OW11732   9.123   3.683   2.867 -0.2339 -0.1535 -0.6143
  543SOL    HW111733   9.104   3.593   2.828 -2.3729 -0.0521  0.1252
  543SOL    HW211734   9.215   3.712   2.841 -0.9559 -0.7962 -4.1716
  544SOL     OW11735   2.143   2.773   0.385 -0.0247  0.0830  0.4835
  544SOL    HW111736   2.203   2.833   0.331  1.1169 -1.8528 -0.4275
  544SOL    HW211737   2.180   2.764   0.478  1.9245 -2.2282 -0.4755
  545SOL     OW11738   1.840   9.777   0.787 -0.0166 -0.1487 -0.2468
  545SOL    HW111739   1.930   9.817   0.807  0.1378 -1.4971  1.9269
  545SOL    HW211740   1.801   9.822   0.707  1.2430  2.5805  0.6050
  546SOL     OW11741   2.214   9.949   0.051  0.0540  0.0227  0.2875
  546SOL    HW111742   2.120   9.934   0.020  0.5911 -0.2176 -1.2460
  546SOL    HW211743   2.276   9.890  -0.001  0.8992 -0.9397  2.3415
  547SOL     OW11744   1.618   1.886   0.126 -0.2629  0.5320  0.6340
  547SOL    HW111745   1.653   1.910   0.035  1.5603  0.3294  1.2613
  547SOL    HW211746   1.524   1.918   0.135  0.0602  1.9412 -0.7694
  548SOL     OW11747   3.220   9.725   0.331  0.4475 -0.2564  0.0553
  548SOL    HW111748   3.222   9.652   0.263 -0.7581  0.0990 -0.3649
  548SOL    HW211749   3.276   9.699   0.410  0.7854 -1.2229 -0.4987
  549SOL     OW11750   1.721   5.044   1.044 -0.3525 -0.4196 -0.1661
  549SOL    HW111751   1.639   5.091   1.011 -0.7706 -1.5006 -0.6957
  549SOL    HW211752   1.695   4.963   1.097  0.3637 -0.7332 -0.2764
  550SOL     OW11753   2.230   9.800   1.041 -0.2688  0.8911 -0.1627
  550SOL    HW111754   2.255   9.709   1.071 -0.2573  0.3320 -1.8113
  550SOL    HW211755   2.281   9.868   1.093  1.6046 -0.1191 -0.6422
  551SOL     OW11756   8.372   3.163   2.126  0.0007 -0.2474 -0.0006
  551SOL    HW111757   8.332   3.230   2.189 -0.5087 -2.4774  2.1525
  551SOL    HW211758   8.323   3.076   2.134  2.4530 -1.7441 -0.5891
  552SOL     OW11759   0.198   5.846   2.132 -0.0573  0.1684  0.0256
  552SOL    HW111760   0.158   5.904   2.203  0.8328  1.4327 -0.4746
  552SOL    HW211761   0.295   5.834   2.151 -0.3253 -1.5296  0.3508
  553SOL     OW11762   0.598   8.446   2.638 -0.0766  0.4719  0.2138
  553SOL    HW111763   0.618   8.367   2.579 -0.3150 -0.8105  1.8055
  553SOL    HW211764   0.639   8.528   2.599  1.4591 -0.6985 -0.7053
  554SOL     OW11765   1.887   7.485   2.900  0.3197  0.4626 -0.6590
  554SOL    HW111766   1.898   7.583   2.912 -1.0786  0.6521 -0.8832
  554SOL    HW211767   1.885   7.463   2.802 -1.5347  0.4874 -0.6513
  555SOL     OW11768   0.139   5.309   1.120 -0.4366 -0.0431 -0.0503
  555SOL    HW111769   0.107   5.384   1.179  0.0199  1.4038 -1.6028
  555SOL    HW211770   0.239   5.313   1.114 -0.4344 -0.6253 -0.3446
  556SOL     OW11771   8.811   6.940   2.051  0.2566 -0.3700 -0.5303
  556SOL    HW111772   8.846   6.964   1.961  0.1290 -2.0314 -1.0395
  556SOL    HW211773   8.716   6.970   2.060  0.8630  1.4972 -0.2392
  557SOL     OW11774   9.548   5.691   0.896  0.0098  0.1143  0.2204
  557SOL    HW111775   9.553   5.631   0.976  0.0638 -0.3295 -0.1138
  557SOL    HW211776   9.463   5.672   0.846  0.2286  0.0276 -0.1148
  558SOL     OW11777   0.043   8.832   2.338 -0.0993 -0.6506 -0.2729
  558SOL    HW111778   0.018   8.858   2.432  2.1438 -1.0179  0.4556
  558SOL    HW211779  -0.015   8.757   2.308  0.9097 -2.3160  1.8164
  559SOL     OW11780   2.041   0.622   1.201 -0.1568  0.0505 -0.8031
  559SOL    HW111781   2.118   0.682   1.180  1.9839 -2.3240  0.0104
  559SOL    HW211782   2.011   0.575   1.118  1.4688 -1.5191 -0.5132
  560SOL     OW11783   1.763   7.447   0.868 -0.4608 -0.3207 -0.0378
  560SOL    HW111784   1.769   7.426   0.965  1.1987 -0.1008 -0.0751
  560SOL    HW211785   1.683   7.505   0.851 -1.2571 -1.0882  1.0522
  561SOL     OW11786   1.753   8.638   0.601 -0.5756 -0.1881  0.4853
  561SOL    HW111787   1.725   8.544   0.580 -1.1565  0.2917 -0.9642
  561SOL    HW211788   1.743   8.654   0.699 -1.1061 -1.4380  0.6502
  562SOL     OW11789   8.243   6.019   1.730  0.3267  0.5337  0.0482
  562SOL    HW111790   8.330   6.066   1.715  1.2055 -1.0625 -0.0088
  562SOL    HW211791   8.197   6.006   1.642 -0.6859  2.6836  0.2369
  563SOL     OW11792   1.974   5.875   0.697 -0.0868  0.2919 -0.8904
  563SOL    HW111793   1.950   5.962   0.739  0.4576  0.5152 -1.0331
  563SOL    HW211794   2.070   5.877   0.668  0.6979 -1.2575  1.4296
  564SOL     OW11795   4.413   3.926   1.690  0.4729 -0.5254 -0.4812
  564SOL    HW111796   4.441   3.936   1.786  0.0503 -3.3588 -0.0329
  564SOL    HW211797   4.494   3.929   1.631  0.8238  0.2835  0.0338
  565SOL     OW11798   2.445   9.505   0.497 -0.2554  0.3115 -0.4813
  565SOL    HW111799   2.502   9.583   0.523 -0.6678 -0.1499  1.8464
  565SOL    HW211800   2.473   9.424   0.548 -0.6436 -0.7850 -1.9743
  566SOL     OW11801   1.333   5.401   0.594  0.0355 -0.2075 -0.1446
  566SOL    HW111802   1.416   5.358   0.559  1.2478  0.8264  1.4202
  566SOL    HW211803   1.273   5.425   0.517  0.8011 -1.6867 -1.2266
  567SOL     OW11804   0.319   9.754   1.599 -0.4984 -0.3404  0.3138
  567SOL    HW111805   0.284   9.758   1.692 -1.1960 -1.6064  0.1246
  567SOL    HW211806   0.253   9.706   1.541  0.3938 -0.4670 -0.6052
  568SOL     OW11807   3.506   9.154   0.412  0.0747 -0.2019  0.1318
  568SOL    HW111808   3.575   9.218   0.379 -0.0101  0.4220  1.1288
  568SOL    HW211809   3.548   9.066   0.431  0.5273  0.0750  0.4146
  569SOL     OW11810   1.570   1.249   1.708  0.2548 -0.6385  0.0608
  569SOL    HW111811   1.580   1.344   1.679 -0.0651 -0.5339  0.2840
  569SOL    HW211812   1.622   1.234   1.792 -0.6833 -0.3341  0.7114
  570SOL     OW11813   2.293   5.376   1.407  0.4580 -0.3853  0.0423
  570SOL    HW111814   2.195   5.393   1.399  0.5293  1.2727  2.1204
  570SOL    HW211815   2.313   5.280   1.388 -1.4204 -0.4935 -1.4499
  571SOL     OW11816   0.980   4.426   1.937 -0.1858  0.0039  0.8928
  571SOL    HW111817   0.880   4.424   1.945 -0.1918  0.8445  1.1010
  571SOL    HW211818   1.009   4.518   1.911  0.6655  0.2424  2.5991
  572SOL     OW11819   2.315   9.552   0.273 -0.4565 -0.0188 -0.4691
  572SOL    HW111820   2.351   9.538   0.365  0.9879 -1.7734 -1.2812
  572SOL    HW211821   2.331   9.647   0.245 -0.5224  0.4063  0.9226
  573SOL     OW11822   9.455   5.474   0.427  0.3554 -0.2571  0.0108
  573SOL    HW111823   9.548   5.480   0.464  1.1050 -1.5120 -1.5989
  573SOL    HW211824   9.424   5.564   0.399  0.3110  0.4967  2.3533
  574SOL     OW11825   0.399   0.543   0.274  0.1513 -0.1505 -0.6058
  574SOL    HW111826   0.414   0.637   0.244  0.6251 -0.2504 -0.6875
  574SOL    HW211827   0.398   0.482   0.195  0.2540 -0.2668 -0.5178
  575SOL     OW11828   0.776   5.302   0.105 -0.2468 -0.1731  0.0843
  575SOL    HW111829   0.744   5.209   0.125 -0.7312 -0.3060 -1.2808
  575SOL    HW211830   0.866   5.316   0.147  0.5384 -1.7912 -1.0173
  576SOL     OW11831   8.943   2.572   0.391  0.3885  0.2058 -0.1040
  576SOL    HW111832   8.950   2.540   0.297  0.7989 -1.3065  0.4229
  576SOL    HW211833   9.014   2.528   0.447 -0.6744  0.0788  1.1753
  577SOL     OW11834   2.058   8.647   1.428 -0.4113 -0.3213  0.0239
  577SOL    HW111835   1.958   8.648   1.424 -0.3811 -2.5009 -1.8467
  577SOL    HW211836   2.095   8.682   1.343  0.4120 -1.3969 -0.0649
  578SOL     OW11837   2.977   8.734   1.580  0.0723 -0.2458 -0.2379
  578SOL    HW111838   3.021   8.701   1.664  1.3621  1.2015 -0.3319
  578SOL    HW211839   2.992   8.668   1.507 -0.2359 -1.0499  0.4090
  579SOL     OW11840   1.079   2.246   0.899 -0.0039 -0.0985  0.1996
  579SOL    HW111841   1.044   2.327   0.853 -0.5564  0.3501  1.4109
  579SOL    HW211842   1.002   2.193   0.936  0.3017 -1.4997 -1.0985
  580SOL     OW11843   3.844   8.557   2.917  0.8540  0.0009  0.1155
  580SOL    HW111844   3.780   8.482   2.905 -0.4042  1.1779 -0.7269
  580SOL    HW211845   3.937   8.521   2.927  0.3704 -1.6154 -1.0554
  581SOL     OW11846   3.842   2.966   0.030  0.3478  0.6335  0.4990
  581SOL    HW111847   3.926   2.916   0.009 -0.6777 -0.5195 -0.8795
  581SOL    HW211848   3.838   2.983   0.129  2.2668  0.8360  0.5627
  582SOL     OW11849   0.101   0.241   2.738  0.4129 -0.3086 -0.1441
  582SOL    HW111850   0.064   0.175   2.673 -0.0356 -0.3380  0.1326
  582SOL    HW211851   0.051   0.233   2.825  1.3154 -0.5915  0.3563
  583SOL     OW11852   9.234   7.244   2.020 -0.0743  0.2986 -1.2331
  583SOL    HW111853   9.218   7.152   1.986  1.9809 -0.7276  0.5096
  583SOL    HW211854   9.294   7.293   1.956  0.5696 -0.2821 -1.0677
  584SOL     OW11855   2.278   3.407   2.163  0.1419 -0.2619  0.4870
  584SOL    HW111856   2.368   3.419   2.121 -0.0362 -1.7556 -0.3588
  584SOL    HW211857   2.213   3.376   2.094 -0.9786  0.5828  1.1426
  585SOL     OW11858   9.599   5.392   2.686 -0.0084  0.9752  0.7046
  585SOL    HW111859   9.692   5.392   2.649 -0.9175  1.3475 -1.6223
  585SOL    HW211860   9.603   5.414   2.783  2.4103  0.1022  0.8596
  586SOL     OW11861   9.484   2.343   0.987 -0.4176 -0.0316 -0.2365
  586SOL    HW111862   9.481   2.243   0.984  1.2084 -0.1392  1.0270
  586SOL    HW211863   9.525   2.378   0.903 -0.1463 -0.4861 -0.2959
  587SOL     OW11864   2.147   9.860   2.323  0.7577  0.2162  0.8914
  587SOL    HW111865   2.186   9.776   2.285 -0.7719 -0.5017  0.8737
  587SOL    HW211866   2.102   9.912   2.251 -0.8693 -0.4190  1.4306
  588SOL     OW11867   2.244   3.312   2.920 -0.1370  0.0709 -0.6580
  588SOL    HW111868   2.193   3.277   2.842  1.6576 -2.7831 -0.5935
  588SOL    HW211869   2.181   3.358   2.983 -2.1537 -0.7739 -2.0230
  589SOL     OW11870   1.489   7.717   0.069  0.3596  0.1137 -0.3568
  589SOL    HW111871   1.577   7.681   0.098  0.8567  0.4748 -1.3942
  589SOL    HW211872   1.490   7.817   0.075  0.6321  0.2203 -2.0512
  590SOL     OW11873   9.734   3.583   1.598 -0.6604  0.6147 -0.1212
  590SOL    HW111874   9.696   3.638   1.524  0.5185  0.2217 -1.0155
  590SOL    HW211875   9.674   3.505   1.616 -0.0738 -0.2486 -1.8256
  591SOL     OW11876   8.875   2.727   1.749  0.2132  0.8828  0.2694
  591SOL    HW111877   8.894   2.825   1.756 -1.1859  1.2002 -0.2878
  591SOL    HW211878   8.778   2.713   1.728  0.0961 -0.6680  1.7455
  592SOL     OW11879   1.460   2.496   0.081 -0.5270  0.4040  0.2651
  592SOL    HW111880   1.480   2.436   0.159  0.9252  1.9213  1.1004
  592SOL    HW211881   1.444   2.589   0.114  0.4689  1.1468 -1.2858
  593SOL     OW11882   4.466   2.920   1.513 -0.5806 -0.0250  0.3273
  593SOL    HW111883   4.558   2.883   1.525 -0.8691 -1.2433 -1.1404
  593SOL    HW211884   4.473   3.013   1.476  0.0742  0.0992  0.7509
  594SOL     OW11885   2.466   4.078   2.653 -0.4654 -0.0406 -0.0230
  594SOL    HW111886   2.486   4.006   2.719  1.7446  1.2620  0.7734
  594SOL    HW211887   2.398   4.045   2.587  0.6405 -2.9105  0.1983
  595SOL     OW11888   1.961   9.166   1.947  0.0691 -0.5337  0.3828
  595SOL    HW111889   1.869   9.179   1.983  0.5995  3.4126  0.5182
  595SOL    HW211890   1.957   9.111   1.863 -2.3359 -0.6607  0.5528
  596SOL     OW11891   2.414   9.957   1.370  0.0952 -0.3209  0.2323
  596SOL    HW111892   2.381  10.037   1.421 -0.2037 -0.2384 -0.0842
  596SOL    HW211893   2.514   9.956   1.369  0.1069 -0.6879  1.3903
  597SOL     OW11894   9.099   5.819   1.587 -0.4797  0.5711 -0.5037
  597SOL    HW111895   9.173   5.825   1.520  1.7095  0.0515  1.7942
  597SOL    HW211896   9.021   5.772   1.547  1.5778 -1.6181 -2.0300
  598SOL     OW11897   1.517   6.130   0.958 -0.2337  0.4360 -0.0558
  598SOL    HW111898   1.440   6.193   0.967 -1.3598 -0.7653 -1.1245
  598SOL    HW211899   1.484   6.041   0.927  1.6539  0.0846 -1.1331
  599SOL     OW11900   1.518   3.512   1.720 -0.0420  0.1119  0.3016
  599SOL    HW111901   1.468   3.429   1.745  1.6743 -0.9610  0.2652
  599SOL    HW211902   1.532   3.569   1.800  1.2756 -1.0369  0.9244
  600SOL     OW11903   0.441   0.617   2.396  0.1949 -0.5741  0.0107
  600SOL    HW111904   0.513   0.653   2.336  1.0733 -2.3455 -0.0243
  600SOL    HW211905   0.406   0.531   2.358  1.0662 -1.9526  2.2467
  601SOL     OW11906   3.644   4.838   2.938 -0.8832 -0.2371  0.1076
  601SOL    HW111907   3.656   4.904   2.864 -0.7496 -2.0142 -1.5095
  601SOL    HW211908   3.682   4.750   2.910 -0.8511 -0.9540  2.3097
  602SOL     OW11909   0.001   1.587   2.709 -0.0482 -0.0590 -0.0218
  602SOL    HW111910  -0.070   1.517   2.711 -1.5565  1.3140 -2.3368
  602SOL    HW211911   0.081   1.553   2.660 -0.3541 -0.5534 -0.1806
  603SOL     OW11912   4.218   2.543   2.315  0.0955  0.2230  0.2959
  603SOL    HW111913   4.177   2.591   2.238  0.7447  0.3607  0.0329
  603SOL    HW211914   4.224   2.445   2.295  2.5891  0.5800 -0.8861
  604SOL     OW11915   3.950   0.280   0.453  0.0660 -0.3784 -0.3803
  604SOL    HW111916   3.975   0.273   0.550 -1.1670  1.5053  0.1054
  604SOL    HW211917   4.030   0.261   0.397  0.5437 -2.4868  0.9858
  605SOL     OW11918   2.835   4.578   2.210  0.6851  0.3658  0.0215
  605SOL    HW111919   2.869   4.607   2.120  0.6900  0.3806  0.0279
  605SOL    HW211920   2.886   4.497   2.240 -1.6495 -1.7668 -1.5565
  606SOL     OW11921   2.877   8.402   2.273  0.0050  0.5347 -0.6395
  606SOL    HW111922   2.885   8.428   2.177 -0.0788  0.6123 -0.6253
  606SOL    HW211923   2.953   8.442   2.325 -0.2323  0.9199 -0.5822
  607SOL     OW11924   1.902   8.971   0.939 -0.0141  0.4128 -0.5501
  607SOL    HW111925   1.923   9.049   0.879  1.7275 -0.2488 -0.8322
  607SOL    HW211926   1.980   8.955   1.000 -1.4997  0.6681  1.4787
  608SOL     OW11927   9.814   1.560   0.440 -0.4089 -0.2288  0.0520
  608SOL    HW111928   9.790   1.511   0.356 -1.6377  1.6405 -0.7220
  608SOL    HW211929   9.903   1.604   0.429 -0.2241 -0.6188  0.0017
  609SOL     OW11930   9.639   6.493   0.012  0.1952  0.4029 -0.2454
  609SOL    HW111931   9.720   6.498  -0.046  0.6517  1.0211  0.4412
  609SOL    HW211932   9.666   6.467   0.105 -0.5788 -1.0255 -0.4068
  610SOL     OW11933   8.536   6.361   1.835  0.1487  0.6315 -0.1691
  610SOL    HW111934   8.477   6.421   1.782  0.2847  1.8156  0.9734
  610SOL    HW211935   8.618   6.339   1.782 -0.1163  1.0865 -0.7683
  611SOL     OW11936   1.474   7.423   1.967  0.4376  0.5778 -0.2725
  611SOL    HW111937   1.555   7.467   2.005  0.0591  1.6118 -0.6567
  611SOL    HW211938   1.459   7.455   1.874  0.4303 -0.7269 -0.7330
  612SOL     OW11939   9.827   5.485   1.835 -0.0569 -0.4259  0.0628
  612SOL    HW111940   9.922   5.469   1.809  0.9127  1.3127  2.2705
  612SOL    HW211941   9.775   5.518   1.756  1.4001 -0.5603 -0.9631
  613SOL     OW11942   0.309   6.499   2.788 -0.1189  0.4498 -0.0710
  613SOL    HW111943   0.374   6.564   2.748  0.0269  0.5795  0.3768
  613SOL    HW211944   0.306   6.416   2.731  0.8186  0.2349  0.1855
  614SOL     OW11945   1.416   3.303   1.007  0.0355 -0.0663  0.1277
  614SOL    HW111946   1.497   3.270   1.055 -0.4290 -2.2527 -0.5162
  614SOL    HW211947   1.443   3.348   0.922  0.6168 -0.0048  0.3429
  615SOL     OW11948   9.999   4.463   2.070 -0.0647 -0.2400 -0.4738
  615SOL    HW111949   9.963   4.555   2.054 -0.8202 -0.4971 -0.2680
  615SOL    HW211950  10.099   4.464   2.060  0.0824  0.9133  0.9214
  616SOL     OW11951   1.094   9.842   1.981  0.0687 -0.0789  0.0753
  616SOL    HW111952   1.058   9.810   1.893 -0.0046  1.1118 -0.3491
  616SOL    HW211953   1.048   9.928   2.005  0.8956  0.1771  0.7358
  617SOL     OW11954   8.910   3.012   1.924  0.1012  0.2727  0.4013
  617SOL    HW111955   8.977   2.984   1.992 -0.8115 -0.5298  0.9890
  617SOL    HW211956   8.951   3.008   1.833  1.0837  0.5563  0.8255
  618SOL     OW11957   3.565   1.851   2.261  0.3709 -0.3658  0.1060
  618SOL    HW111958   3.472   1.817   2.250  0.1627 -0.3994  1.8046
  618SOL    HW211959   3.563   1.945   2.296  0.9676  0.3923 -1.8385
  619SOL     OW11960   9.660   5.901   1.227  0.2215  0.7315  0.8242
  619SOL    HW111961   9.742   5.844   1.216 -0.8994 -0.9764  1.1822
  619SOL    HW211962   9.656   5.968   1.153 -0.1123 -1.7624 -1.4642
  620SOL     OW11963   1.979   0.916   1.842 -0.4008  0.3783  0.1589
  620SOL    HW111964   1.881   0.913   1.822 -0.6812 -3.2560  1.5986
  620SOL    HW211965   2.000   0.995   1.898 -2.2452  1.9844 -1.3522
  621SOL     OW11966   1.857   9.192   0.509  0.5529 -0.2063  0.2139
  621SOL    HW111967   1.772   9.176   0.459 -0.1668  0.3295  1.2528
  621SOL    HW211968   1.880   9.289   0.506  0.0591 -0.0347  1.6157
  622SOL     OW11969   9.293   4.855   0.292 -0.4411  0.0654  0.8431
  622SOL    HW111970   9.319   4.831   0.386  1.7426  2.9102  1.0371
  622SOL    HW211971   9.245   4.942   0.292  1.0282  0.9154 -0.8157
  623SOL     OW11972   0.545   7.279   1.973  0.0030  0.5094  0.2415
  623SOL    HW111973   0.601   7.355   1.942 -0.7213  0.5121 -1.0825
  623SOL    HW211974   0.553   7.270   2.073  0.8707  1.6759  0.2812
  624SOL     OW11975   1.289   9.704   0.304  0.2201 -0.2893  0.8048
  624SOL    HW111976   1.346   9.726   0.383 -1.0881  2.7868  0.9540
  624SOL    HW211977   1.222   9.634   0.329  1.4348 -1.1394  1.7020
  625SOL     OW11978   2.309   7.252   0.981  0.3916  0.0236  0.3659
  625SOL    HW111979   2.215   7.219   0.986 -0.0009  1.0960  0.3143
  625SOL    HW211980   2.368   7.194   1.037 -0.3431 -0.5034  0.6012
  626SOL     OW11981   2.315   6.108   1.549 -0.0457 -0.2859  0.2786
  626SOL    HW111982   2.287   6.188   1.602 -1.6071  0.3634 -1.4788
  626SOL    HW211983   2.378   6.136   1.477  1.4392 -1.0527  1.2367
  627SOL     OW11984   9.852   6.142   1.919 -0.2584  0.8820  0.0714
  627SOL    HW111985   9.819   6.070   1.859 -1.7015  2.7077 -1.3618
  627SOL    HW211986   9.833   6.117   2.014 -1.2783 -0.3503 -0.4415
  628SOL     OW11987   4.196   9.502   0.219  0.4374  0.5472  0.2446
  628SOL    HW111988   4.236   9.534   0.133  0.1465  0.4336  0.0662
  628SOL    HW211989   4.178   9.580   0.278  1.9066  0.5094  0.7505
  629SOL     OW11990   9.774   4.532   2.269  0.3624  0.0374 -0.4983
  629SOL    HW111991   9.802   4.440   2.298  0.8312  0.6118  0.8990
  629SOL    HW211992   9.676   4.532   2.250  0.0284 -0.3709  1.0932
  630SOL     OW11993   9.262   3.345   2.404 -0.1863  0.1894 -0.4798
  630SOL    HW111994   9.348   3.321   2.360 -1.1920 -0.9875 -1.8245
  630SOL    HW211995   9.207   3.401   2.342 -0.9637 -0.1959 -0.1417
  631SOL     OW11996   1.876   7.077   1.983 -0.7890 -0.3628  0.2986
  631SOL    HW111997   1.814   7.021   2.039 -1.0615  0.6943  1.0816
  631SOL    HW211998   1.826   7.154   1.945 -0.1328  0.0641  0.2866
  632SOL     OW11999   2.367   6.453   0.658  0.2382  0.1168  0.0506
  632SOL    HW112000   2.353   6.521   0.586  2.5420  1.0740  0.4546
  632SOL    HW212001   2.351   6.495   0.747 -0.0223 -0.3477  0.2257
  633SOL     OW12002   2.318   0.204   1.246  0.1062 -0.2241  0.2402
  633SOL    HW112003   2.401   0.196   1.191  0.4926  0.5291  0.7087
  633SOL    HW212004   2.340   0.185   1.341 -0.7660 -2.5727 -0.0005
  634SOL     OW12005   1.979   9.252   1.565  0.1623 -0.1135  0.1379
  634SOL    HW112006   1.930   9.188   1.622  0.3534  0.2558  0.7233
  634SOL    HW212007   1.924   9.335   1.552  0.1457 -0.1706 -0.1579
  635SOL     OW12008   3.518   2.463   2.673  0.0427 -0.4698 -0.5986
  635SOL    HW112009   3.529   2.389   2.607 -0.3972 -0.0425 -1.1513
  635SOL    HW212010   3.573   2.444   2.754 -0.3507 -1.5704 -0.5952
  636SOL     OW12011   0.971   9.728   2.627 -0.3116  0.6641 -0.5032
  636SOL    HW112012   0.900   9.732   2.697 -0.9794 -0.9161 -1.0854
  636SOL    HW212013   0.932   9.696   2.541  0.8594  0.9694 -1.1614
  637SOL     OW12014   2.704   8.387   2.480 -0.2329 -0.4155 -0.2588
  637SOL    HW112015   2.768   8.402   2.405  1.6122  1.3550  1.5906
  637SOL    HW212016   2.755   8.363   2.563 -2.2463 -2.7205  0.3667
  638SOL     OW12017   2.522   0.710   2.765  0.3840  0.0184 -0.2833
  638SOL    HW112018   2.605   0.725   2.710  0.8593  1.7010  0.8553
  638SOL    HW212019   2.479   0.798   2.785 -1.0094 -0.7581  0.1901
  639SOL     OW12020   2.473   3.266   1.825 -0.1678 -0.6192  0.0048
  639SOL    HW112021   2.408   3.303   1.758 -0.2893 -0.9641 -0.0656
  639SOL    HW212022   2.429   3.193   1.877 -0.0668 -0.3615  0.4503
  640SOL     OW12023   3.078   3.108   0.965 -0.0859 -0.8824  0.7757
  640SOL    HW112024   3.114   3.015   0.968 -1.6269 -1.7373 -3.3712
  640SOL    HW212025   2.978   3.106   0.967 -0.2140  0.4428 -1.5181
  641SOL     OW12026   9.590   7.897   2.828  0.3312  0.1853 -0.1845
  641SOL    HW112027   9.578   7.817   2.887 -1.9910 -0.7571 -1.8136
  641SOL    HW212028   9.522   7.967   2.852  1.1040  0.8833 -0.0147
  642SOL     OW12029   8.464   3.184   0.952  0.5537 -0.0451  0.2692
  642SOL    HW112030   8.401   3.251   0.992  0.6431 -0.5279  1.2208
  642SOL    HW212031   8.415   3.098   0.937 -0.4967  1.1758 -4.0669
  643SOL     OW12032   9.494   8.192   1.634  0.3298  0.5758  0.3837
  643SOL    HW112033   9.563   8.188   1.562 -1.6959  0.1867 -1.6102
  643SOL    HW212034   9.496   8.107   1.687 -1.2334 -1.2316 -2.2614
  644SOL     OW12035   3.614   2.722   2.886  0.0883 -0.1682  0.0804
  644SOL    HW112036   3.621   2.822   2.885 -0.7554 -0.0200  2.6281
  644SOL    HW212037   3.678   2.682   2.821  1.9704  1.9743  0.5781
  645SOL     OW12038   3.050   2.563   2.437  0.8012 -0.2163 -0.1660
  645SOL    HW112039   3.070   2.491   2.504  1.2426 -0.1803 -0.2593
  645SOL    HW212040   3.090   2.539   2.349 -2.1772 -1.6353 -1.1897
  646SOL     OW12041   0.394   5.415   0.790  0.4652  0.1412  0.4720
  646SOL    HW112042   0.355   5.462   0.711 -2.0614 -0.7848  1.1031
  646SOL    HW212043   0.324   5.408   0.862  1.8164 -1.5829  1.6563
  647SOL     OW12044   3.718   4.993   2.699  0.1365  0.1544  0.5218
  647SOL    HW112045   3.697   4.940   2.617 -1.0222 -0.1907  1.0167
  647SOL    HW212046   3.804   4.961   2.739  0.3209 -0.1839 -0.1468
  648SOL     OW12047   2.550   3.931   1.849 -0.5889 -0.0477  0.1699
  648SOL    HW112048   2.461   3.890   1.870 -0.4935 -0.1666  0.3400
  648SOL    HW212049   2.622   3.864   1.866 -0.6762 -1.0159 -2.8896
  649SOL     OW12050   2.417   2.614   1.570  0.0426  0.0046 -0.1944
  649SOL    HW112051   2.364   2.686   1.525 -0.8163 -1.0110 -0.8617
  649SOL    HW212052   2.500   2.596   1.517 -0.0780  0.0541 -0.4034
  650SOL     OW12053   1.965   7.487   2.102 -0.0687  0.1231 -0.2589
  650SOL    HW112054   2.004   7.405   2.143  1.4247 -0.5441 -2.9253
  650SOL    HW212055   1.865   7.478   2.100 -0.0253 -0.8522  1.0233
  651SOL     OW12056   1.038   5.210   0.973 -0.4062 -0.5963  0.4523
  651SOL    HW112057   0.959   5.149   0.963 -0.8920 -0.0955  1.1641
  651SOL    HW212058   1.081   5.194   1.062 -1.2408  0.9085  1.1467
  652SOL     OW12059   2.711   6.187   1.236  0.3352  0.6072 -0.1763
  652SOL    HW112060   2.673   6.264   1.185  1.1109  1.1706  0.0899
  652SOL    HW212061   2.753   6.122   1.172  0.8435  1.0539 -0.2992
  653SOL     OW12062   0.048   3.060   0.463 -0.3049  0.4687  0.2164
  653SOL    HW112063   0.118   3.070   0.534 -0.3494  0.9804  0.1911
  653SOL    HW212064   0.090   3.024   0.380  0.0899  1.5379 -0.0555
  654SOL     OW12065   9.670   0.363   1.895 -0.6694  0.1790  0.4119
  654SOL    HW112066   9.576   0.392   1.877 -1.0724 -0.1449  1.9266
  654SOL    HW212067   9.713   0.335   1.810 -1.5102  1.5942 -0.5067
  655SOL     OW12068   8.542   6.164   0.569  0.0087 -0.1121 -0.4305
  655SOL    HW112069   8.469   6.099   0.588 -1.2154  1.1374 -0.7903
  655SOL    HW212070   8.504   6.247   0.528  1.1650  1.9627  2.4736
  656SOL     OW12071   3.500   0.684   0.957 -0.5579 -0.1127  0.2920
  656SOL    HW112072   3.524   0.649   0.866  0.1450  0.3114  0.3131
  656SOL    HW212073   3.401   0.694   0.963 -0.6634 -0.7943 -0.1939
  657SOL     OW12074   4.327   1.290   1.305 -0.1052  0.0495  0.0441
  657SOL    HW112075   4.321   1.202   1.257 -0.0094 -0.6908  1.3778
  657SOL    HW212076   4.245   1.303   1.360 -0.4009  1.0957 -0.6256
  658SOL     OW12077   4.206   4.661   1.886  0.8384 -0.2736 -0.1943
  658SOL    HW112078   4.196   4.760   1.879  0.9589 -0.3859 -2.0790
  658SOL    HW212079   4.216   4.635   1.982  2.3534  1.6988  0.2105
  659SOL     OW12080   2.640   7.266   1.953  0.0672 -0.1050 -0.5543
  659SOL    HW112081   2.543   7.243   1.963 -0.0439  0.1335 -1.0899
  659SOL    HW212082   2.683   7.270   2.044 -0.7213  1.0920 -0.2325
  660SOL     OW12083   8.061   5.883   1.228  0.4563 -0.0027 -0.1513
  660SOL    HW112084   8.126   5.903   1.154 -0.6696 -0.4473 -1.2859
  660SOL    HW212085   8.031   5.788   1.221  1.0635 -0.3190  1.4758
  661SOL     OW12086   0.091   5.892   2.423  0.2789 -0.1287  0.7214
  661SOL    HW112087   0.065   5.965   2.360  1.7724  1.4181  1.8476
  661SOL    HW212088   0.009   5.846   2.457 -0.6042 -0.1631 -1.3422
  662SOL     OW12089   9.899   8.398   2.531  0.4114  0.1190 -0.0571
  662SOL    HW112090   9.947   8.322   2.486  1.5181  0.1487  1.0536
  662SOL    HW212091   9.918   8.396   2.629 -2.4313 -0.2817  0.5292
  663SOL     OW12092   0.960   6.781   1.937 -0.7222 -0.3510  0.7316
  663SOL    HW112093   0.923   6.718   1.869 -0.1238  0.6837 -0.5746
  663SOL    HW212094   0.991   6.729   2.016 -1.2495 -1.5918  0.1465
  664SOL     OW12095   1.412   2.981   2.032  0.1130  0.0852 -0.4493
  664SOL    HW112096   1.425   2.892   1.988  4.1962  0.2409  0.2459
  664SOL    HW212097   1.381   2.968   2.126  1.2000 -0.6562 -0.1822
  665SOL     OW12098   9.729   1.230   1.841  0.7009  0.0711 -0.1655
  665SOL    HW112099   9.768   1.285   1.915  0.7046 -0.3726  0.1617
  665SOL    HW212100   9.648   1.276   1.805  0.1850 -0.1436  0.7137
  666SOL     OW12101   1.450   3.127   2.457  0.3289  0.6051 -0.1638
  666SOL    HW112102   1.542   3.164   2.464 -0.3690  2.3475 -0.0945
  666SOL    HW212103   1.404   3.133   2.545 -0.0993  0.3952 -0.3708
  667SOL     OW12104   8.677   4.028   2.560  0.5662  0.0445 -0.1743
  667SOL    HW112105   8.584   4.011   2.594  1.6863  0.1261  3.1187
  667SOL    HW212106   8.682   4.119   2.520 -1.0520 -0.4379 -1.5497
  668SOL     OW12107   8.497   5.122   0.052  0.1952 -0.0164 -0.0772
  668SOL    HW112108   8.537   5.181  -0.019  0.1307 -0.2787 -0.3292
  668SOL    HW212109   8.499   5.171   0.139 -0.9912  0.8384 -0.5212
  669SOL     OW12110   4.455   4.342   2.641  0.3571  0.1671  0.0984
  669SOL    HW112111   4.379   4.316   2.701  0.4513 -1.7333 -0.5937
  669SOL    HW212112   4.541   4.326   2.688  0.3985 -0.0349 -0.0471
  670SOL     OW12113   9.899   8.584   2.115 -0.5203  0.0812  0.4641
  670SOL    HW112114   9.859   8.543   2.033 -1.1426  0.6640  0.4827
  670SOL    HW212115   9.835   8.577   2.191 -0.1553  0.0261  0.7675
  671SOL     OW12116   9.806   2.575   1.444 -0.3583 -0.3399  0.3456
  671SOL    HW112117   9.733   2.511   1.465  0.0498 -0.5704  1.0828
  671SOL    HW212118   9.879   2.565   1.511  0.0512  0.3542  0.0057
  672SOL     OW12119   0.674   6.866   0.888 -0.0917 -0.6056 -0.2105
  672SOL    HW112120   0.726   6.934   0.835  1.0268 -0.8856  0.5006
  672SOL    HW212121   0.735   6.790   0.913 -1.2604 -1.7299 -0.7375
  673SOL     OW12122   0.619   7.233   1.478 -0.6193 -0.3486 -0.1110
  673SOL    HW112123   0.629   7.323   1.521 -0.2080 -0.6534  0.4408
  673SOL    HW212124   0.661   7.164   1.537 -1.0816 -0.9229 -0.4579
  674SOL     OW12125   4.289   1.132   0.923  0.3983  0.6578 -0.1375
  674SOL    HW112126   4.220   1.202   0.938 -1.5766 -1.4224  0.6704
  674SOL    HW212127   4.301   1.077   1.005  0.2743 -1.3926 -1.4464
  675SOL     OW12128   0.664   7.384   1.080  0.1653 -0.3956  0.6428
  675SOL    HW112129   0.591   7.452   1.082 -0.1234 -0.7031  0.6602
  675SOL    HW212130   0.751   7.429   1.062 -0.1057 -0.0970  0.0723
  676SOL     OW12131   1.618   8.584   1.646  0.4116 -0.7688 -0.1189
  676SOL    HW112132   1.567   8.541   1.571 -1.6766 -1.6276  1.7416
  676SOL    HW212133   1.711   8.545   1.649  0.2006 -1.4385 -1.6300
  677SOL     OW12134   8.922   4.343   0.791 -0.1546  0.0496  0.3909
  677SOL    HW112135   8.860   4.308   0.861 -1.6306  0.9115 -0.4475
  677SOL    HW212136   8.868   4.382   0.716  1.3805 -0.6990 -1.1429
  678SOL     OW12137   0.254   3.887   1.310  0.1634 -0.5972  0.7763
  678SOL    HW112138   0.286   3.798   1.341 -0.3179 -0.9256  0.3341
  678SOL    HW212139   0.160   3.901   1.340  0.6084  0.2382  1.8089
  679SOL     OW12140   9.697   0.607   0.890  0.2547 -0.7382 -0.7053
  679SOL    HW112141   9.672   0.549   0.812 -1.4602 -1.5923  0.4561
  679SOL    HW212142   9.651   0.574   0.972  1.1048  0.8839  0.4428
  680SOL     OW12143   4.235   2.844   2.370 -0.4408  0.0785  0.1942
  680SOL    HW112144   4.144   2.856   2.410 -0.4492 -0.6516  0.4016
  680SOL    HW212145   4.255   2.746   2.362  0.7159  0.2389  1.0369
  681SOL     OW12146   2.449   8.347   1.456  0.1842  0.6162 -0.0057
  681SOL    HW112147   2.425   8.325   1.362 -1.5415 -0.4575  0.6712
  681SOL    HW212148   2.546   8.326   1.471  0.1695 -0.3708 -1.1971
  682SOL     OW12149   8.427   3.439   0.276  0.2396 -0.1505  0.3321
  682SOL    HW112150   8.346   3.480   0.318  2.6225  2.6921  2.4249
  682SOL    HW212151   8.452   3.356   0.325  0.5209  0.8377  1.9184
  683SOL     OW12152   2.412   8.766   1.463  0.3869 -0.0147  0.2416
  683SOL    HW112153   2.397   8.729   1.555 -0.8586  0.6584  0.3132
  683SOL    HW212154   2.392   8.864   1.464  1.6628  0.2664 -0.4389
  684SOL     OW12155   9.434   2.661   2.584 -0.3935 -0.0580  0.2414
  684SOL    HW112156   9.473   2.753   2.589  0.2620 -0.3127 -0.1007
  684SOL    HW212157   9.480   2.603   2.652  0.4876 -0.6008 -0.8059
  685SOL     OW12158   3.633   2.281   0.707 -0.1520 -0.1140  0.0319
  685SOL    HW112159   3.721   2.326   0.690 -0.9263  1.4678  0.1402
  685SOL    HW212160   3.564   2.317   0.645 -0.9888 -0.5412  0.6938
  686SOL     OW12161   3.903   9.500   2.926 -0.3643 -0.0924 -0.0574
  686SOL    HW112162   3.886   9.585   2.977 -0.8362  0.1990 -0.7080
  686SOL    HW212163   3.817   9.451   2.914 -0.5322  0.6516 -2.0255
  687SOL     OW12164   0.246   2.756   2.709 -0.1677  0.4062 -0.1111
  687SOL    HW112165   0.212   2.669   2.747 -0.6232  1.0394  0.9571
  687SOL    HW212166   0.283   2.740   2.618  0.9362 -1.1671  0.5773
  688SOL     OW12167   1.900   0.469   0.972  0.0910 -0.2949 -0.0397
  688SOL    HW112168   1.897   0.389   0.912  0.0473  0.4542 -1.0462
  688SOL    HW212169   1.836   0.456   1.048  0.3843 -1.3913  0.0282
  689SOL     OW12170   1.042   9.634   0.021  0.3623 -0.6224 -0.4652
  689SOL    HW112171   1.108   9.579   0.071  1.2598 -0.8140 -1.8208
  689SOL    HW212172   0.992   9.576  -0.043  0.2016 -0.1484 -0.7760
  690SOL     OW12173   1.242   3.909   0.581  0.1892  0.3578 -0.2561
  690SOL    HW112174   1.230   4.004   0.551 -1.0820 -0.0750 -1.1214
  690SOL    HW212175   1.157   3.858   0.567  1.0802 -1.0976 -0.4706
  691SOL     OW12176   0.071   8.936   2.078 -0.0782  0.1811  0.0940
  691SOL    HW112177   0.040   8.891   2.161 -0.3999 -0.1180 -0.1824
  691SOL    HW212178  -0.002   8.932   2.009  0.6982 -0.8666 -0.6887
  692SOL     OW12179   2.788   8.779   1.830  0.9009 -0.5092  0.1568
  692SOL    HW112180   2.840   8.791   1.745 -1.0084  0.4293 -0.9005
  692SOL    HW212181   2.768   8.869   1.870 -2.2319 -0.7027 -0.8842
  693SOL     OW12182   3.175   3.731   0.813 -0.4038 -0.2597 -0.2420
  693SOL    HW112183   3.230   3.711   0.894 -0.2103  1.4332  0.0747
  693SOL    HW212184   3.234   3.766   0.740 -1.0171  1.4857  0.0681
  694SOL     OW12185   0.293   5.153   1.532 -0.2889  0.5200 -0.1167
  694SOL    HW112186   0.207   5.180   1.576 -0.6553  0.8309 -1.0297
  694SOL    HW212187   0.274   5.092   1.456  0.4226 -0.9640  0.8609
  695SOL     OW12188   0.196   8.462   0.712 -0.1225  0.2864  0.0459
  695SOL    HW112189   0.097   8.455   0.703 -0.1156 -0.1077  0.2928
  695SOL    HW212190   0.240   8.397   0.650  0.0048  1.4206 -1.0741
  696SOL     OW12191   8.984   3.003   1.461  0.3892 -0.1125  0.4495
  696SOL    HW112192   8.972   2.983   1.363 -3.2000  0.4471  0.7249
  696SOL    HW212193   8.977   3.102   1.475  1.6409 -0.1213  1.2250
  697SOL     OW12194   1.629   6.354   1.403  0.1871  0.2473  0.2914
  697SOL    HW112195   1.601   6.366   1.498 -0.9926  0.4224 -0.0645
  697SOL    HW212196   1.652   6.258   1.386  1.8939  0.4962  1.1317
  698SOL     OW12197   1.934   3.869   2.861  0.0135  0.2918  0.7673
  698SOL    HW112198   2.012   3.922   2.829  0.8164 -1.7370 -0.7070
  698SOL    HW212199   1.966   3.798   2.924 -0.9394  0.8582  1.9297
  699SOL     OW12200   1.829   4.457   0.100  0.0694 -0.5478  0.2437
  699SOL    HW112201   1.876   4.386   0.047 -0.2102  0.4786 -1.4397
  699SOL    HW212202   1.873   4.468   0.189  2.8787  0.2348 -1.1947
  700SOL     OW12203   2.877   3.157   0.545 -0.2862  0.3798 -0.0625
  700SOL    HW112204   2.846   3.062   0.557 -0.6761  0.3886 -0.9079
  700SOL    HW212205   2.959   3.157   0.488 -0.6299  0.5894 -0.5606
  701SOL     OW12206   1.748   9.353   0.055 -0.3139  0.0211 -0.4246
  701SOL    HW112207   1.713   9.302   0.134 -0.9556  0.8617 -0.1613
  701SOL    HW212208   1.848   9.351   0.056 -0.2683  1.9936  1.7263
  702SOL     OW12209   0.205   1.567   1.678 -0.1973  0.1896 -0.5826
  702SOL    HW112210   0.151   1.490   1.711  0.3616 -0.7456 -1.7662
  702SOL    HW212211   0.258   1.606   1.753 -0.6092 -0.4932  0.0627
  703SOL     OW12212   1.006   7.911   1.141  0.6710  0.2722 -0.4982
  703SOL    HW112213   1.088   7.946   1.187 -0.3953  1.1591  0.7824
  703SOL    HW212214   0.948   7.988   1.114 -0.0390 -0.3718 -0.8106
  704SOL     OW12215   9.011   7.177   2.385  0.8734  0.3188  0.4571
  704SOL    HW112216   8.944   7.211   2.319 -0.3776  0.4689  1.7733
  704SOL    HW212217   9.071   7.251   2.414  2.4733 -0.0964 -1.6983
  705SOL     OW12218   2.586   6.270   1.685 -0.2714  0.1626 -0.3730
  705SOL    HW112219   2.625   6.223   1.605  1.7592  0.6536  0.2818
  705SOL    HW212220   2.530   6.206   1.737 -0.8308 -0.4256 -1.6739
  706SOL     OW12221   0.475   7.616   0.996 -0.0876 -0.5578  0.1519
  706SOL    HW112222   0.527   7.665   1.066 -0.4295 -0.1151  0.0937
  706SOL    HW212223   0.460   7.675   0.917  0.1081 -0.9895 -0.2072
  707SOL     OW12224   4.325   8.735   2.272  0.2476 -0.1272  0.3295
  707SOL    HW112225   4.336   8.665   2.343  1.9601  0.6091  0.8226
  707SOL    HW212226   4.231   8.768   2.271 -0.2203 -1.4215  1.0556
  708SOL     OW12227   0.124   7.571   1.755 -0.3288 -0.2272 -0.3677
  708SOL    HW112228   0.058   7.548   1.683  0.4830  1.8463 -1.7905
  708SOL    HW212229   0.097   7.657   1.798 -0.5071 -1.1770  1.5011
  709SOL     OW12230   9.776   2.980   1.581  0.2794  0.3425 -0.3638
  709SOL    HW112231   9.858   2.927   1.559 -1.6583 -3.4359  1.0161
  709SOL    HW212232   9.706   2.965   1.511 -1.2807 -1.2386  1.4878
  710SOL     OW12233   1.987   9.423   0.907 -0.0133 -0.6048  0.2706
  710SOL    HW112234   1.949   9.459   0.822 -0.0600  0.5230  0.7563
  710SOL    HW212235   1.928   9.351   0.942 -0.3151 -0.6579 -0.3387
  711SOL     OW12236   4.237   2.975   1.171  0.4077  0.0260  0.0938
  711SOL    HW112237   4.162   2.953   1.108  0.8485  0.3910 -0.5626
  711SOL    HW212238   4.258   2.894   1.226  0.5225 -0.5294 -0.7567
  712SOL     OW12239   2.592   8.141   2.315 -0.1926 -0.0197  0.5162
  712SOL    HW112240   2.609   8.216   2.379 -1.7631  0.5777  0.2468
  712SOL    HW212241   2.619   8.170   2.222 -0.7060  0.1852  0.4287
  713SOL     OW12242   2.825   2.367   2.513  0.3241 -0.0258 -0.0979
  713SOL    HW112243   2.868   2.425   2.583 -1.5828  1.5263 -0.1902
  713SOL    HW212244   2.731   2.347   2.539  0.2809 -1.2591 -1.1629
  714SOL     OW12245   9.959   1.288   2.304 -0.0296  0.0788  0.1949
  714SOL    HW112246   9.867   1.304   2.339 -0.4066 -0.1302 -0.7035
  714SOL    HW212247  10.008   1.375   2.300 -0.6974  0.4049 -0.7715
  715SOL     OW12248   0.356   7.439   0.301  0.1761  0.1352 -0.7326
  715SOL    HW112249   0.379   7.342   0.292 -0.1222  0.0498 -0.5357
  715SOL    HW212250   0.401   7.477   0.382  1.3374  0.4676 -1.5232
  716SOL     OW12251   0.886   7.527   0.999 -0.2472 -0.0552  0.8388
  716SOL    HW112252   0.978   7.538   1.035 -0.0067 -0.1644  0.2534
  716SOL    HW212253   0.859   7.610   0.951 -0.9532  0.4806  2.1202
  717SOL     OW12254   9.929   7.702   0.354 -0.4410  0.0173 -0.1645
  717SOL    HW112255   9.920   7.731   0.449 -1.5656  2.3343 -0.9422
  717SOL    HW212256   9.853   7.641   0.330 -0.5125 -0.0568  0.2586
  718SOL     OW12257   9.108   6.457   1.907  0.3190 -0.7491  0.0239
  718SOL    HW112258   9.193   6.413   1.877  1.0891  1.1758 -0.7087
  718SOL    HW212259   9.064   6.501   1.829 -1.8085 -2.4246  0.2437
  719SOL     OW12260   1.768   3.403   2.273 -0.4770  0.0815 -0.1146
  719SOL    HW112261   1.680   3.450   2.284  0.7159  2.3419  0.1830
  719SOL    HW212262   1.792   3.398   2.176 -0.7330 -0.1062 -0.1653
  720SOL     OW12263   1.285   6.078   0.399  0.1018 -0.0434  0.2992
  720SOL    HW112264   1.218   6.023   0.349 -0.6129 -1.1785  2.4706
  720SOL    HW212265   1.348   6.018   0.449  1.0706  1.0687  0.4430
  721SOL     OW12266   8.827   5.713   2.512 -0.3039 -0.4193 -0.0073
  721SOL    HW112267   8.808   5.686   2.417 -0.2920 -1.0664  0.1737
  721SOL    HW212268   8.774   5.795   2.534 -0.0395 -0.0544 -0.6844
  722SOL     OW12269   2.843   4.299   2.304 -0.0393  0.4444  0.0154
  722SOL    HW112270   2.920   4.284   2.365  1.8852  1.8000 -2.0021
  722SOL    HW212271   2.832   4.219   2.244  0.1009  0.4393 -0.0036
  723SOL     OW12272   9.048   4.844   0.752 -0.5581  0.4830  0.0617
  723SOL    HW112273   8.995   4.766   0.782  0.4939  0.1354  1.0733
  723SOL    HW212274   9.145   4.827   0.769 -0.4701  2.7823  2.1234
  724SOL     OW12275   0.979   9.419   1.461 -0.1565 -0.2566  0.0707
  724SOL    HW112276   0.895   9.473   1.469  1.6537  2.6818 -0.4785
  724SOL    HW212277   0.962   9.327   1.499 -3.9161 -0.1073 -0.9987
  725SOL     OW12278   2.298   3.112   0.745  0.0392  0.0432  0.2955
  725SOL    HW112279   2.223   3.057   0.708  0.3839 -0.0507 -0.2564
  725SOL    HW212280   2.328   3.178   0.677 -0.4432  0.9856  0.9981
  726SOL     OW12281   9.361   7.771   1.314  0.6044  0.3399  0.0630
  726SOL    HW112282   9.374   7.769   1.214 -0.5430  0.3218 -0.0888
  726SOL    HW212283   9.348   7.678   1.348  0.0694  0.4305  0.1055
  727SOL     OW12284   1.042   3.467   2.830 -0.3088 -0.3750  0.3704
  727SOL    HW112285   1.123   3.428   2.788 -2.1107 -2.6572 -1.1478
  727SOL    HW212286   1.025   3.558   2.793 -0.7017 -1.5237 -2.3607
  728SOL     OW12287   2.098   1.829   0.620 -0.5160  0.1631  0.7203
  728SOL    HW112288   2.060   1.741   0.651  0.1955 -0.8241 -1.1086
  728SOL    HW212289   2.192   1.838   0.652  0.0016 -0.5668 -0.5217
  729SOL     OW12290   0.917   2.505   2.405  0.5291  0.0534 -0.2537
  729SOL    HW112291   0.889   2.505   2.501  0.2874 -0.1167 -0.3248
  729SOL    HW212292   0.876   2.428   2.358 -1.0165  1.3076 -0.9891
  730SOL     OW12293   2.068   3.514   0.679  0.4619  0.4903 -0.4383
  730SOL    HW112294   2.120   3.594   0.651 -1.0265  1.0619 -1.6255
  730SOL    HW212295   2.070   3.507   0.779  3.0787  0.2878 -0.4633
  731SOL     OW12296   9.835   0.130   1.695 -0.0367  0.1116 -0.0692
  731SOL    HW112297   9.899   0.055   1.710 -1.3880 -1.1129 -0.2867
  731SOL    HW212298   9.843   0.162   1.600 -0.3680 -0.6562 -0.3671
  732SOL     OW12299   1.286   6.772   0.082 -0.4709  0.5360  0.6959
  732SOL    HW112300   1.207   6.775   0.145 -0.8242  0.0660  0.2792
  732SOL    HW212301   1.283   6.687   0.030 -0.1130  0.8778  0.1225
  733SOL     OW12302   1.587   9.987   2.155 -0.0874  1.0437  0.0142
  733SOL    HW112303   1.503   9.942   2.124  0.6838 -1.5019  1.4278
  733SOL    HW212304   1.662   9.962   2.094  0.6241 -0.8210  1.5636
  734SOL     OW12305   9.578   2.503   2.723  0.6395 -0.2184 -0.0118
  734SOL    HW112306   9.676   2.484   2.717  1.0054  1.8011 -1.0270
  734SOL    HW212307   9.542   2.467   2.809  2.3875 -0.4804  0.6324
  735SOL     OW12308   1.365   6.167   1.262  0.3057 -0.4168  0.1295
  735SOL    HW112309   1.379   6.220   1.179  0.7635 -0.2962  0.2835
  735SOL    HW212310   1.454   6.139   1.299  0.2560  2.0316  2.2103
  736SOL     OW12311   9.254   6.581   0.198  0.6644 -0.3220 -0.1320
  736SOL    HW112312   9.274   6.485   0.214 -0.4933 -0.5385  0.0720
  736SOL    HW212313   9.289   6.636   0.274 -0.2273 -0.7787  0.6145
  737SOL     OW12314   1.139   5.171   1.249  0.9264 -0.1664 -0.1861
  737SOL    HW112315   1.186   5.206   1.329 -0.7787  0.2481  0.6540
  737SOL    HW212316   1.126   5.072   1.258 -0.2347  0.0501  0.5661
  738SOL     OW12317   0.099   5.869   1.067 -0.0172  0.2190  0.1400
  738SOL    HW112318   0.052   5.954   1.043 -0.4040 -0.0567 -0.0693
  738SOL    HW212319   0.192   5.871   1.030 -0.9500 -0.6717 -2.3683
  739SOL     OW12320   1.346   5.450   1.525  0.1336  0.4453  0.4019
  739SOL    HW112321   1.359   5.548   1.536  0.8493  0.3369  0.5031
  739SOL    HW212322   1.413   5.400   1.580 -0.4601 -0.1015  0.6381
  740SOL     OW12323   8.167   4.386   1.025 -0.0849  0.6571  0.1323
  740SOL    HW112324   8.144   4.289   1.034 -1.3358  0.7866 -1.4196
  740SOL    HW212325   8.187   4.425   1.115  0.0050 -0.9358  0.8038
  741SOL     OW12326   2.814   1.636   1.881 -0.2455 -0.4825  0.3261
  741SOL    HW112327   2.885   1.688   1.833  0.7504 -0.5364  1.7074
  741SOL    HW212328   2.835   1.539   1.876 -0.3995 -0.5234  0.4739
  742SOL     OW12329   3.709   2.261   2.142  0.3322  0.4050 -0.1329
  742SOL    HW112330   3.802   2.283   2.110 -0.3423 -1.1540 -3.4283
  742SOL    HW212331   3.645   2.330   2.108 -0.2900 -0.8445 -1.5631
  743SOL     OW12332   9.768   3.716   2.547 -0.2726  0.1680  0.0594
  743SOL    HW112333   9.788   3.695   2.643  1.4775  0.4248 -0.2277
  743SOL    HW212334   9.830   3.788   2.515 -0.7907  0.0276 -1.2908
  744SOL     OW12335   9.497   3.903   1.328  0.3626  0.5713  0.3544
  744SOL    HW112336   9.512   3.916   1.426 -1.8585  0.2065  0.7580
  744SOL    HW212337   9.424   3.964   1.297 -0.3900 -0.8125 -0.6257
  745SOL     OW12338   3.856   0.612   0.373  0.3764  0.6365 -0.8032
  745SOL    HW112339   3.922   0.537   0.364  0.8398  0.8792  0.4521
  745SOL    HW212340   3.781   0.598   0.308  0.9052 -0.4401 -1.2010
  746SOL     OW12341   2.247   4.170   1.825 -0.3799 -0.0395 -0.4909
  746SOL    HW112342   2.340   4.206   1.837 -0.7658  0.7576  0.1280
  746SOL    HW212343   2.244   4.112   1.744  0.8093 -0.5529 -0.1810
  747SOL     OW12344   8.500   3.928   0.046 -0.8253  0.6023 -0.0536
  747SOL    HW112345   8.467   3.908  -0.047 -1.0158 -1.3797  0.4158
  747SOL    HW212346   8.521   3.843   0.093  0.6166  1.6542  1.2615
  748SOL     OW12347   3.821   1.047   0.472 -0.3296  0.1757  0.3294
  748SOL    HW112348   3.841   1.052   0.374 -0.9559 -0.2125  0.1788
  748SOL    HW212349   3.871   0.970   0.512  0.7716  0.9829  0.5297
  749SOL     OW12350   2.909   0.507   1.391 -0.1130  0.2788  0.5061
  749SOL    HW112351   2.838   0.495   1.321  1.7148 -1.9396 -1.0606
  749SOL    HW212352   2.924   0.420   1.437  2.6072  0.3194 -0.2364
  750SOL     OW12353   8.562   5.702   2.050 -0.0787  0.1126 -0.5780
  750SOL    HW112354   8.496   5.743   1.987 -0.7330 -2.9671 -1.9627
  750SOL    HW212355   8.524   5.699   2.142 -0.8898  0.5787 -0.8980
  751SOL     OW12356   1.124   0.428   0.660 -0.1506  0.0771  0.6079
  751SOL    HW112357   1.182   0.426   0.741  0.5420 -0.4566  0.1086
  751SOL    HW212358   1.063   0.507   0.664  0.2838  0.3759  1.3650
  752SOL     OW12359   2.278   3.671   1.488 -0.0292  0.2711 -0.1656
  752SOL    HW112360   2.280   3.744   1.556  3.0544  0.5676 -0.5288
  752SOL    HW212361   2.239   3.707   1.403  0.5991  1.2637 -0.0477
  753SOL     OW12362   3.786   5.753   0.311  0.3727 -0.2611 -0.4829
  753SOL    HW112363   3.688   5.766   0.300  0.3945  2.0752  1.5916
  753SOL    HW212364   3.828   5.733   0.223 -1.8730 -0.7239 -1.4706
  754SOL     OW12365   3.697   9.796   2.490 -0.1454  0.1832  0.6352
  754SOL    HW112366   3.704   9.867   2.420 -0.3789  0.1622  0.5913
  754SOL    HW212367   3.783   9.793   2.542  0.1117  0.0471  0.2098
  755SOL     OW12368   2.277   1.231   1.752  0.3069  0.1871 -1.4337
  755SOL    HW112369   2.349   1.230   1.682  1.0473 -0.0037 -0.6862
  755SOL    HW212370   2.318   1.253   1.840 -1.0255  3.0853 -1.4868
  756SOL     OW12371   4.364   2.347   1.449  0.1805 -0.5216 -1.0906
  756SOL    HW112372   4.437   2.391   1.502  1.3314 -1.8568 -1.5482
  756SOL    HW212373   4.363   2.249   1.468 -2.2424 -0.3699 -0.2397
  757SOL     OW12374   8.504   6.679   0.921 -0.2188 -0.1480  0.3524
  757SOL    HW112375   8.451   6.737   0.982 -1.2105 -0.4793 -0.1891
  757SOL    HW212376   8.488   6.707   0.826  0.0393 -0.6892  0.1459
  758SOL     OW12377   0.691   1.543   1.240  0.4587  0.0105  0.1266
  758SOL    HW112378   0.748   1.622   1.260 -0.6284  0.5438  1.1879
  758SOL    HW212379   0.741   1.459   1.265  0.2865  0.5347  2.3439
  759SOL     OW12380   0.609   8.328   1.435 -0.1787  0.2457 -0.7251
  759SOL    HW112381   0.651   8.245   1.400 -1.1269 -0.5938  0.0891
  759SOL    HW212382   0.510   8.320   1.430 -0.2764  1.5344 -1.0952
  760SOL     OW12383   3.822   2.640   2.738  0.4432 -0.3297  0.1220
  760SOL    HW112384   3.834   2.593   2.826 -2.3515  0.5877  1.0490
  760SOL    HW212385   3.897   2.705   2.725  2.4296 -2.4861  0.4788
  761SOL     OW12386   9.835   7.245   2.757  0.1961 -0.0843  0.2996
  761SOL    HW112387   9.795   7.336   2.770  1.3830  0.6829 -1.3009
  761SOL    HW212388   9.864   7.208   2.845  1.1100  1.7366  0.7633
  762SOL     OW12389   2.822   0.941   1.993  0.2157  0.3076 -0.0982
  762SOL    HW112390   2.879   1.001   1.936  1.2565  0.5078  1.1244
  762SOL    HW212391   2.868   0.854   2.006  0.7996  0.8740  1.8313
  763SOL     OW12392   9.864   0.732   1.241  0.2260 -0.1014 -0.3168
  763SOL    HW112393   9.932   0.794   1.203  0.6861 -0.0445  0.5763
  763SOL    HW212394   9.819   0.776   1.319  0.1517 -0.6683 -0.0362
  764SOL     OW12395   2.798   5.652   1.028 -0.5001  0.2484  0.1464
  764SOL    HW112396   2.775   5.721   1.096 -1.8754  0.4611 -0.5167
  764SOL    HW212397   2.825   5.567   1.074 -1.5641  0.3407  0.9488
  765SOL     OW12398   3.477   5.240   2.666  0.3262  0.3056  0.1864
  765SOL    HW112399   3.516   5.162   2.715  0.4404  0.3345  0.1425
  765SOL    HW212400   3.525   5.324   2.693 -0.5397  0.5195  1.0823
  766SOL     OW12401   0.449   8.007   2.094  0.2785  0.1864 -0.1234
  766SOL    HW112402   0.421   8.100   2.072 -1.1076 -0.0518  0.5268
  766SOL    HW212403   0.483   8.003   2.188  3.2419  0.6104 -1.1474
  767SOL     OW12404   8.905   3.110   2.817 -0.2958  0.1286  0.7870
  767SOL    HW112405   8.911   3.029   2.876  3.0311 -0.9389 -0.8831
  767SOL    HW212406   8.894   3.082   2.722 -1.9054  1.7412  0.4742
  768SOL     OW12407   1.731   9.809   0.007 -1.1693 -0.6341 -0.1849
  768SOL    HW112408   1.729   9.828  -0.091 -1.8921 -0.5116 -0.1495
  768SOL    HW212409   1.637   9.799   0.041 -0.8978 -1.4417  0.3447
  769SOL     OW12410   4.342   1.120   2.432 -0.8203  0.2549 -0.7144
  769SOL    HW112411   4.346   1.043   2.496  1.0054  1.9273  1.2092
  769SOL    HW212412   4.418   1.113   2.367 -0.5890  0.4893 -0.4699
  770SOL     OW12413   0.098   1.633   0.411 -0.0568  0.0293 -0.1966
  770SOL    HW112414   0.122   1.608   0.505 -0.8910 -1.6828 -0.4294
  770SOL    HW212415   0.160   1.704   0.379  2.0946 -1.4174  0.6443
  771SOL     OW12416   1.564   8.704   1.891  0.3350  0.6235 -0.0944
  771SOL    HW112417   1.589   8.659   1.805 -1.2669  1.6456 -1.1169
  771SOL    HW212418   1.587   8.801   1.887 -1.8615  1.1741 -0.3066
  772SOL     OW12419   3.361   4.062   0.678 -0.3995 -0.0774  0.0571
  772SOL    HW112420   3.456   4.031   0.664 -1.0557 -1.9269 -0.5049
  772SOL    HW212421   3.355   4.115   0.762  1.1412  0.0695  0.0889
  773SOL     OW12422   9.562   3.670   2.158  1.0956  0.4544  0.3774
  773SOL    HW112423   9.525   3.671   2.251 -0.1624  0.1307 -0.1027
  773SOL    HW212424   9.661   3.660   2.161  1.0231  0.1002  1.6776
  774SOL     OW12425   2.281   2.213   1.596 -0.4039 -0.5707 -0.0047
  774SOL    HW112426   2.208   2.145   1.591  1.2905 -2.3510 -1.3563
  774SOL    HW212427   2.353   2.181   1.658 -0.0110  0.4077  0.0636
  775SOL     OW12428   8.598   3.304   2.115 -0.1023  0.5552  0.4620
  775SOL    HW112429   8.524   3.241   2.092  1.2336 -0.5494 -0.8703
  775SOL    HW212430   8.572   3.397   2.089 -0.2732 -0.0938 -1.7824
  776SOL     OW12431   9.723   5.416   1.338 -0.2402 -0.3193 -0.0722
  776SOL    HW112432   9.730   5.407   1.238 -1.3306 -2.5673  0.0333
  776SOL    HW212433   9.637   5.378   1.369 -0.8645  2.3098  1.5505
  777SOL     OW12434   0.102   1.818   1.650  0.6062 -0.1940  0.9348
  777SOL    HW112435   0.006   1.843   1.661  0.1047 -1.3362 -0.7402
  777SOL    HW212436   0.110   1.719   1.636  1.9601 -0.0068  0.2899
  778SOL     OW12437   3.437   1.706   1.969 -0.2211 -0.1760  0.2239
  778SOL    HW112438   3.463   1.721   2.064 -0.5557  0.4311  0.2238
  778SOL    HW212439   3.501   1.754   1.909 -1.1378  1.0564  0.2117
  779SOL     OW12440   2.777   2.909   0.561 -0.5508 -0.2232  0.0862
  779SOL    HW112441   2.722   2.835   0.599 -1.9965  0.1843 -1.1749
  779SOL    HW212442   2.787   2.897   0.463 -0.5012  1.0832 -0.0747
  780SOL     OW12443   2.446   6.377   1.963 -0.0185  0.2277  0.7607
  780SOL    HW112444   2.361   6.390   2.015 -1.0459 -0.6243 -0.6579
  780SOL    HW212445   2.427   6.386   1.865  1.8537  1.6097  0.4959
  781SOL     OW12446   9.267   6.317   0.589 -0.6133  0.0200  0.3371
  781SOL    HW112447   9.326   6.295   0.667  0.0480 -1.2178 -0.4945
  781SOL    HW212448   9.195   6.247   0.581  0.6524 -1.1234 -1.4812
  782SOL     OW12449   2.955   7.596   2.782 -0.4792 -0.2560 -0.1781
  782SOL    HW112450   2.885   7.595   2.710  0.4519  0.4716 -1.1186
  782SOL    HW212451   2.982   7.691   2.799  0.8865 -0.5968 -0.4271
  783SOL     OW12452   2.315   2.279   0.606  0.3044 -0.8124 -0.4524
  783SOL    HW112453   2.241   2.244   0.663  0.1805 -0.4744 -0.4084
  783SOL    HW212454   2.279   2.345   0.540  0.4977 -0.9594 -0.7088
  784SOL     OW12455   1.589   8.164   2.535 -0.0601 -0.3119  0.2171
  784SOL    HW112456   1.565   8.070   2.561 -0.2689 -0.7219 -1.4118
  784SOL    HW212457   1.681   8.185   2.568 -0.4497 -0.6899  1.5747
  785SOL     OW12458   0.568   1.778   2.751  0.8821  0.1677 -0.4442
  785SOL    HW112459   0.485   1.740   2.711  1.6190 -0.3574 -1.4847
  785SOL    HW212460   0.637   1.706   2.760  0.7663  0.2774  1.7101
  786SOL     OW12461   9.215   2.826   2.281 -0.3906  0.5643 -0.5974
  786SOL    HW112462   9.203   2.870   2.370 -0.6753 -0.3126 -0.2001
  786SOL    HW212463   9.254   2.735   2.294  0.0243  0.6229 -1.4075
  787SOL     OW12464   0.591   1.204   1.870 -0.9523 -0.1105 -0.8119
  787SOL    HW112465   0.499   1.191   1.832 -1.0693 -1.3706 -0.1345
  787SOL    HW212466   0.595   1.162   1.961  0.6301 -1.0533 -1.3102
  788SOL     OW12467   4.205   4.176   2.347 -0.1045  0.0481 -0.0499
  788SOL    HW112468   4.196   4.189   2.248  0.4806 -0.6671 -0.1965
  788SOL    HW212469   4.213   4.265   2.391  2.3119  0.2876 -0.9023
  789SOL     OW12470   4.479   1.335   1.593  0.3876 -0.0846 -0.0557
  789SOL    HW112471   4.382   1.333   1.568  0.3527 -1.5651  0.1324
  789SOL    HW212472   4.529   1.394   1.530 -0.5075  0.0536 -0.6399
  790SOL     OW12473   0.243   5.323   2.745 -0.4377 -0.2415  0.1913
  790SOL    HW112474   0.332   5.284   2.725  0.3689  2.1753 -1.0733
  790SOL    HW212475   0.215   5.298   2.838  0.6026 -2.6901 -0.1244
  791SOL     OW12476   0.549   1.784   1.377  0.1110  0.5130  0.0928
  791SOL    HW112477   0.462   1.741   1.399 -0.4178  0.4436 -2.0268
  791SOL    HW212478   0.550   1.809   1.280  1.9200  1.7487  0.4070
  792SOL     OW12479   0.865   5.899   0.630 -0.2808  0.3863 -0.2030
  792SOL    HW112480   0.796   5.866   0.693 -0.0958  0.7899  0.2129
  792SOL    HW212481   0.824   5.966   0.567 -0.1812  0.9174  0.2953
  793SOL     OW12482   9.928   1.769   1.233 -0.3139  0.1317 -0.2655
  793SOL    HW112483   9.933   1.853   1.287 -0.1260 -0.1502  0.1586
  793SOL    HW212484   9.870   1.784   1.153  1.0436  1.1604 -1.0797
  794SOL     OW12485   0.822   8.691   0.693  0.3171  0.2015  0.2259
  794SOL    HW112486   0.905   8.709   0.640  0.7037 -0.8901  0.4612
  794SOL    HW212487   0.741   8.705   0.635  0.7485 -1.4423 -0.7984
  795SOL     OW12488   1.198   8.296   0.347 -0.5110  0.1571  0.3455
  795SOL    HW112489   1.134   8.222   0.367  0.6452 -1.1952 -0.7839
  795SOL    HW212490   1.162   8.352   0.273 -0.3142 -0.7379 -0.4424
  796SOL     OW12491   2.813   3.131   1.006  0.1518  0.0981  0.3446
  796SOL    HW112492   2.746   3.197   1.041  0.5287  0.9617 -0.5474
  796SOL    HW212493   2.765   3.061   0.952  0.0839  1.4644 -1.4164
  797SOL     OW12494   2.724   9.755   2.606 -0.5947 -0.0916  0.2447
  797SOL    HW112495   2.793   9.696   2.647 -0.4515  0.2719  0.5367
  797SOL    HW212496   2.655   9.700   2.560 -0.6794 -0.5017  0.8603
  798SOL     OW12497   3.006   4.106   0.617  0.2380  0.1509 -0.5234
  798SOL    HW112498   2.987   4.033   0.683  0.5117  0.9101  0.4043
  798SOL    HW212499   3.086   4.081   0.562 -0.1395 -0.5963 -0.7461
  799SOL     OW12500   2.558   1.156   1.692 -0.0479 -0.4731  0.1569
  799SOL    HW112501   2.506   1.077   1.725 -0.2691  0.7505  2.8100
  799SOL    HW212502   2.648   1.156   1.734 -0.3833  1.2042  0.9023
  800SOL     OW12503   0.855   1.205   1.914  0.5619 -0.1448 -0.3545
  800SOL    HW112504   0.756   1.218   1.908  0.6702  1.2147  0.6906
  800SOL    HW212505   0.896   1.216   1.823 -0.0548  0.9899 -0.5039
  801SOL     OW12506   3.702   9.519   1.828 -0.0826  0.7801 -0.7036
  801SOL    HW112507   3.604   9.507   1.817 -0.2408  1.9356 -0.6629
  801SOL    HW212508   3.749   9.431   1.815 -1.2286 -0.0361  0.6464
  802SOL     OW12509   2.406   1.172   0.498  0.4873  0.1148 -0.4513
  802SOL    HW112510   2.493   1.126   0.484 -0.7650 -3.0886  1.6278
  802SOL    HW212511   2.349   1.161   0.417  2.2806  3.0276 -2.1869
  803SOL     OW12512   3.477   3.780   0.380 -0.0701 -0.6628 -0.3985
  803SOL    HW112513   3.476   3.681   0.396 -0.5810 -0.5421  0.3601
  803SOL    HW212514   3.385   3.810   0.353 -0.5338 -0.0199  1.8112
  804SOL     OW12515   9.282   5.337   2.370  0.2713 -0.3657  0.1828
  804SOL    HW112516   9.234   5.421   2.395  0.1814 -0.2951 -0.2271
  804SOL    HW212517   9.263   5.266   2.437  0.4254 -0.0312  0.5825
  805SOL     OW12518   1.131   1.577   1.797 -0.4541 -0.2346  0.1026
  805SOL    HW112519   1.063   1.547   1.730  0.3779  1.6344 -1.6075
  805SOL    HW212520   1.160   1.498   1.851 -2.1889 -1.5135 -0.7591
  806SOL     OW12521   3.156   9.685   0.941 -0.7347 -0.2008  0.1917
  806SOL    HW112522   3.221   9.721   0.874 -0.0640  1.1359  1.5176
  806SOL    HW212523   3.071   9.738   0.936 -1.6515 -1.7627 -1.3442
  807SOL     OW12524   8.985   4.512   1.651  0.1173 -0.1738 -0.2684
  807SOL    HW112525   8.977   4.575   1.573 -0.6032  0.4043  0.2695
  807SOL    HW212526   9.024   4.426   1.619 -1.7979 -0.5758 -1.6323
  808SOL     OW12527   0.608   4.723   0.514  0.2771  0.3998  0.5455
  808SOL    HW112528   0.563   4.705   0.426  1.9591  1.6291 -0.5861
  808SOL    HW212529   0.574   4.810   0.551 -0.1662  0.0585  0.9436
  809SOL     OW12530   2.390   3.817   1.278 -0.3591 -0.5525  0.1644
  809SOL    HW112531   2.482   3.782   1.300 -1.0354 -0.6937  3.0258
  809SOL    HW212532   2.389   3.854   1.185  2.2431 -1.7340 -0.3795
  810SOL     OW12533   2.477   2.994   1.534  0.2522  0.1686  0.1289
  810SOL    HW112534   2.431   3.080   1.509 -0.5789 -0.1711  0.4908
  810SOL    HW212535   2.430   2.917   1.491  0.8247 -0.1373  0.0390
  811SOL     OW12536   1.632   9.288   0.291  0.0490  0.6346 -0.3780
  811SOL    HW112537   1.615   9.385   0.271 -1.0381  0.7174  0.8428
  811SOL    HW212538   1.566   9.257   0.360  2.2590 -0.2148  1.3824
  812SOL     OW12539   4.350   2.034   1.447 -0.2725 -0.4892  0.5845
  812SOL    HW112540   4.441   2.020   1.484  0.4160  0.0707 -0.8685
  812SOL    HW212541   4.290   1.958   1.475  0.8167 -1.2112  0.9663
  813SOL     OW12542   2.500   0.451   1.576 -0.6346  0.2246  0.3775
  813SOL    HW112543   2.462   0.359   1.564  0.1982 -0.0595 -0.0575
  813SOL    HW212544   2.432   0.508   1.622 -1.7668 -0.1585 -0.7903
  814SOL     OW12545   9.014   7.339   1.121  0.0535  0.3495  0.7468
  814SOL    HW112546   9.024   7.412   1.188  1.2848  1.5242 -0.6848
  814SOL    HW212547   9.056   7.367   1.035  1.3901 -2.4153  0.4553
  815SOL     OW12548   9.028   4.610   0.447 -0.6925 -0.3540  0.0436
  815SOL    HW112549   9.124   4.609   0.473 -0.4354 -3.3061 -0.8058
  815SOL    HW212550   9.010   4.689   0.389  0.5783  1.6964  2.3151
  816SOL     OW12551   3.177   5.591   1.322  0.4453 -0.4762 -0.2053
  816SOL    HW112552   3.262   5.542   1.342 -0.0073 -1.0367  0.3896
  816SOL    HW212553   3.099   5.529   1.334 -0.2413  0.7601  2.0159
  817SOL     OW12554   3.685   9.230   0.963 -0.3518  0.5744 -0.3312
  817SOL    HW112555   3.646   9.208   1.052  2.2093 -0.6073  0.5488
  817SOL    HW212556   3.725   9.322   0.966 -0.8101  0.7810 -0.4700
  818SOL     OW12557   3.888   4.901   0.166 -0.1179  0.4702 -0.3290
  818SOL    HW112558   3.804   4.866   0.208 -0.2215 -0.4612 -1.2797
  818SOL    HW212559   3.950   4.934   0.238 -1.2167  0.9940  0.3836
  819SOL     OW12560   2.337   2.573   0.038 -0.2933  0.2009  0.3557
  819SOL    HW112561   2.369   2.507  -0.030  1.5632  0.6139  0.7998
  819SOL    HW212562   2.270   2.530   0.098  0.9484 -1.3237  0.6839
  820SOL     OW12563   1.078   9.504   1.922 -0.8431 -0.4973 -0.2593
  820SOL    HW112564   1.045   9.558   1.999  1.6831 -1.3227  1.4737
  820SOL    HW212565   1.115   9.417   1.956  1.2502 -0.4386 -2.2634
  821SOL     OW12566   0.264   6.656   0.374  0.0798  0.0110  0.0572
  821SOL    HW112567   0.178   6.618   0.408 -0.1443  1.6728  1.4633
  821SOL    HW212568   0.250   6.753   0.351  1.5822  0.3238  0.3899
  822SOL     OW12569   0.764   2.486   0.075 -0.3037 -0.3481  0.2553
  822SOL    HW112570   0.727   2.456   0.163 -1.8350 -0.7436 -0.5241
  822SOL    HW212571   0.825   2.416   0.039 -1.0911 -0.9721  0.1351
  823SOL     OW12572   0.505   1.819   0.710 -0.0669 -0.0968 -0.6637
  823SOL    HW112573   0.602   1.838   0.722 -0.0884  0.6665 -1.5557
  823SOL    HW212574   0.478   1.740   0.765  0.7573  0.5270  0.6431
  824SOL     OW12575   1.264   8.955   0.119  0.1099 -0.2580  0.6403
  824SOL    HW112576   1.363   8.959   0.135  0.0996 -1.0684  0.9489
  824SOL    HW212577   1.246   8.924   0.026  0.1461  0.5772  0.3503
  825SOL     OW12578   3.942   4.867   2.848  0.1570 -0.3180 -0.0837
  825SOL    HW112579   3.910   4.902   2.936 -1.6278 -0.6282 -0.5806
  825SOL    HW212580   4.022   4.918   2.818  0.1109  0.5166  1.2005
  826SOL     OW12581   1.733   5.370   2.514 -0.0532 -0.0899 -0.1429
  826SOL    HW112582   1.661   5.334   2.574 -0.5445  1.0275 -0.0415
  826SOL    HW212583   1.795   5.296   2.488 -0.4460 -0.7970  0.8879
  827SOL     OW12584   1.023   8.544   1.916 -0.1012 -0.2068  0.1741
  827SOL    HW112585   0.993   8.580   2.003 -0.1523 -1.2266  0.5898
  827SOL    HW212586   0.948   8.494   1.872 -0.3071  0.9427 -0.8123
  828SOL     OW12587   0.246   4.758   0.470 -0.0792  0.1091 -0.1716
  828SOL    HW112588   0.308   4.713   0.407 -1.1543  0.8994 -1.8494
  828SOL    HW212589   0.171   4.696   0.494  0.9507 -0.5928  1.2745
  829SOL     OW12590   2.942   9.832   0.972 -0.0008  0.1603  0.5154
  829SOL    HW112591   2.906   9.904   0.913 -0.6359 -2.1782 -2.0976
  829SOL    HW212592   2.867   9.773   1.002  0.6287  0.0193  1.8470
  830SOL     OW12593   9.747   0.494   0.007 -0.1257 -0.4934  0.5250
  830SOL    HW112594   9.751   0.587  -0.031  0.5407 -0.6572  0.1742
  830SOL    HW212595   9.752   0.499   0.107 -1.2562 -0.0908  0.5676
  831SOL     OW12596   9.944   0.848   2.668 -0.4643  0.0983  0.0282
  831SOL    HW112597   9.877   0.780   2.638 -0.1721 -0.0104 -0.3817
  831SOL    HW212598   9.958   0.839   2.766  1.8266 -2.4700 -0.4872
  832SOL     OW12599   2.774   0.164   2.551  0.1451 -0.3017 -0.6645
  832SOL    HW112600   2.785   0.096   2.479  1.9108 -1.4125  0.6096
  832SOL    HW212601   2.700   0.136   2.612 -1.3579  0.6459 -2.0185
  833SOL     OW12602   4.240   0.298   1.946 -0.0301  0.3454  0.2282
  833SOL    HW112603   4.212   0.240   2.023 -0.4096  0.9753  0.5647
  833SOL    HW212604   4.228   0.394   1.970  1.4981  0.6078  0.0134
  834SOL     OW12605   1.682   6.755   2.752 -0.5782 -0.5738 -0.2660
  834SOL    HW112606   1.611   6.808   2.798  0.4449  0.4462  0.1647
  834SOL    HW212607   1.757   6.736   2.816  1.2723  1.6255 -1.6814
  835SOL     OW12608   3.699   5.412   0.577 -0.4085  0.1802 -0.2476
  835SOL    HW112609   3.613   5.388   0.531 -0.7794  1.2454 -0.1170
  835SOL    HW212610   3.758   5.331   0.580 -1.3460 -0.5269 -0.4596
  836SOL     OW12611   3.095   6.130   1.109  0.0185  0.0255 -0.6236
  836SOL    HW112612   3.056   6.055   1.057 -2.8412  1.0978 -0.1052
  836SOL    HW212613   3.106   6.102   1.205 -1.0003  0.2303 -0.4407
  837SOL     OW12614   0.239   1.085   1.055  0.0295  0.5544  0.4961
  837SOL    HW112615   0.243   1.057   1.151  0.5670  0.4670  0.4498
  837SOL    HW212616   0.327   1.124   1.028 -1.0252  3.2859  0.8678
  838SOL     OW12617   9.256   2.184   2.693 -0.0893 -0.4376 -0.6370
  838SOL    HW112618   9.340   2.165   2.642 -0.7583 -3.3554 -0.7229
  838SOL    HW212619   9.200   2.250   2.642  0.9198 -0.5517 -1.9152
  839SOL     OW12620   2.531   7.926   1.518  0.1034  0.0273 -0.3837
  839SOL    HW112621   2.512   7.873   1.435 -1.4851  2.0837 -1.3682
  839SOL    HW212622   2.608   7.988   1.500  1.6525 -1.5845  0.6152
  840SOL     OW12623   3.074   2.692   0.244 -0.2252  0.1662 -0.4928
  840SOL    HW112624   3.153   2.650   0.289 -0.6824 -0.9470 -0.7405
  840SOL    HW212625   3.105   2.772   0.192  0.6200  0.1980  0.0435
  841SOL     OW12626   8.827   6.424   2.256 -0.2390 -0.5462 -0.4112
  841SOL    HW112627   8.772   6.449   2.176  0.7359 -2.4635 -1.7327
  841SOL    HW212628   8.922   6.452   2.241  0.1095 -1.6280 -0.3215
  842SOL     OW12629   9.147   6.857   0.282  0.3814  0.6444 -0.3995
  842SOL    HW112630   9.077   6.838   0.214  0.3505  1.3703 -0.5780
  842SOL    HW212631   9.178   6.952   0.273  2.0742  0.0673 -0.9671
  843SOL     OW12632   2.768   1.453   0.056  0.0036 -0.6994 -0.0184
  843SOL    HW112633   2.854   1.404   0.044  0.3954 -0.3097  1.0624
  843SOL    HW212634   2.718   1.413   0.133 -0.3280 -0.3063 -0.0275
  844SOL     OW12635   1.811   5.132   1.351  0.3948 -0.3750  0.1914
  844SOL    HW112636   1.747   5.063   1.318  1.1961 -0.4876 -1.1590
  844SOL    HW212637   1.782   5.222   1.320  1.4941 -0.5516 -1.3582
  845SOL     OW12638   3.151   2.891   2.703 -0.0716  0.5585  0.0090
  845SOL    HW112639   3.154   2.826   2.778  2.1275 -0.7703 -1.1776
  845SOL    HW212640   3.238   2.941   2.698 -0.7883  1.7808 -0.6644
  846SOL     OW12641   2.938   8.382   0.258 -0.6031  0.2656  0.1056
  846SOL    HW112642   2.883   8.446   0.311  0.0983  0.6086  0.4217
  846SOL    HW212643   2.999   8.433   0.197  0.9948 -0.0778  1.4002
  847SOL     OW12644   0.207   5.746   1.300  0.2378  0.2128 -0.0208
  847SOL    HW112645   0.153   5.796   1.368 -2.3494 -1.1904 -0.9816
  847SOL    HW212646   0.182   5.778   1.208  0.7680 -0.7223 -0.4899
  848SOL     OW12647   4.341   4.059   0.180  0.2935 -0.2618 -0.4149
  848SOL    HW112648   4.362   4.126   0.109 -0.6162 -0.6992 -1.0993
  848SOL    HW212649   4.355   3.967   0.145  0.0521 -0.4770  0.0427
  849SOL     OW12650   0.017   0.456   2.556 -0.2933  0.7505 -0.6032
  849SOL    HW112651   0.042   0.379   2.615 -1.1784 -0.5028 -1.8230
  849SOL    HW212652  -0.007   0.422   2.465  1.4189  2.6712 -1.8397
  850SOL     OW12653   0.345   7.900   1.320  0.0614  0.3668 -0.5498
  850SOL    HW112654   0.424   7.928   1.374  0.1702  0.1253 -0.5820
  850SOL    HW212655   0.348   7.942   1.230  0.1403  0.3730 -0.5436
  851SOL     OW12656   9.883   2.022   2.532 -0.0659  0.0269  0.5413
  851SOL    HW112657   9.829   2.097   2.569  1.2958  1.0723  0.4698
  851SOL    HW212658   9.852   2.001   2.439  1.5014  2.5692 -0.6235
  852SOL     OW12659   1.711   1.925   2.799 -0.0618 -0.0177 -0.0780
  852SOL    HW112660   1.648   1.995   2.766 -0.3019 -0.1372  0.1209
  852SOL    HW212661   1.795   1.927   2.745 -0.6597 -0.5668 -1.0295
  853SOL     OW12662   9.839   5.749   2.467  0.0132  0.0034 -0.2276
  853SOL    HW112663   9.812   5.677   2.531  1.2378  1.3798  1.8847
  853SOL    HW212664   9.801   5.729   2.377 -2.1579 -1.7402  1.0152
  854SOL     OW12665   2.117   2.523   0.202 -0.4055 -0.3991 -0.1545
  854SOL    HW112666   2.057   2.451   0.165 -0.4231 -0.7187  0.4917
  854SOL    HW212667   2.076   2.613   0.183 -0.1839 -0.5329 -1.3228
  855SOL     OW12668   3.384   8.958   0.796  0.2755  0.1490 -0.7269
  855SOL    HW112669   3.349   8.986   0.885  0.6524  0.9436 -0.8231
  855SOL    HW212670   3.333   9.004   0.724  1.8809  1.7703 -0.8544
  856SOL     OW12671   8.121   5.946   2.605 -0.0950  0.5439 -0.6427
  856SOL    HW112672   8.048   5.940   2.537  0.9368 -0.8321 -1.6911
  856SOL    HW212673   8.167   6.035   2.597 -0.9945  1.0058 -0.6738
  857SOL     OW12674   8.891   5.770   0.334  0.2672 -0.0012 -0.3436
  857SOL    HW112675   8.821   5.834   0.367 -0.6186 -1.1018 -0.0583
  857SOL    HW212676   8.888   5.767   0.234  0.8002  0.9333 -0.3962
  858SOL     OW12677   3.634   3.071   1.889  0.5968 -0.2965 -0.0937
  858SOL    HW112678   3.566   3.069   1.816  0.5864  1.0797 -0.1354
  858SOL    HW212679   3.710   3.010   1.865  0.3374 -0.2755 -0.9961
  859SOL     OW12680   2.509   9.190   0.303  0.1887 -1.2621 -0.1008
  859SOL    HW112681   2.447   9.248   0.355 -0.4390 -0.6636 -1.4872
  859SOL    HW212682   2.535   9.236   0.218  0.9361 -2.3561 -0.4791
  860SOL     OW12683   2.752   3.496   1.196  0.2855  0.2016 -0.2122
  860SOL    HW112684   2.788   3.455   1.280  1.2268 -1.3427 -1.3303
  860SOL    HW212685   2.668   3.449   1.170  0.9452 -0.5413 -1.0698
  861SOL     OW12686   0.425   4.543   0.632 -0.5470 -0.0400  0.3965
  861SOL    HW112687   0.515   4.536   0.589  0.0179 -2.5420  1.8763
  861SOL    HW212688   0.362   4.588   0.569  0.9444 -1.0989 -1.9362
  862SOL     OW12689   1.340   4.750   0.258 -0.5111  0.0202  0.5045
  862SOL    HW112690   1.265   4.744   0.192 -0.3357 -1.8072  0.4412
  862SOL    HW212691   1.310   4.803   0.338 -0.8387  1.9387 -0.8473
  863SOL     OW12692   2.973   1.529   1.095  0.7112 -0.0422  0.4373
  863SOL    HW112693   2.956   1.573   1.007 -1.6633 -1.5484  0.1041
  863SOL    HW212694   2.901   1.555   1.160  1.5790 -0.1744  1.4702
  864SOL     OW12695   0.953   9.606   0.888  0.3174 -0.1279 -0.1599
  864SOL    HW112696   0.955   9.675   0.816 -0.1299 -0.0580 -0.1069
  864SOL    HW212697   0.953   9.651   0.977 -0.1860 -0.1948 -0.1282
  865SOL     OW12698   9.130   4.184   2.299  0.0933 -0.2148  0.1332
  865SOL    HW112699   9.147   4.224   2.209 -0.3237 -1.5068 -0.5367
  865SOL    HW212700   9.057   4.234   2.345  1.1949  1.2565  0.2902
  866SOL     OW12701   1.825   4.437   1.283 -0.3079 -0.1653  0.2814
  866SOL    HW112702   1.873   4.520   1.251 -2.7480  1.3620  0.4838
  866SOL    HW212703   1.772   4.398   1.208 -2.1888  0.6493  1.1680
  867SOL     OW12704   3.959   0.951   1.862  0.1947 -0.3502  1.1787
  867SOL    HW112705   4.024   1.025   1.883  1.6008 -1.5693  1.1696
  867SOL    HW212706   3.998   0.863   1.888 -1.9337 -1.0216  2.2258
  868SOL     OW12707   3.798   1.682   1.682 -0.3690 -0.1351  0.2208
  868SOL    HW112708   3.735   1.666   1.759  0.5138 -0.9646  0.7772
  868SOL    HW212709   3.750   1.664   1.596 -1.2971  0.5693  0.5702
  869SOL     OW12710   1.736   3.807   0.862 -0.0016  0.5321  0.0913
  869SOL    HW112711   1.791   3.747   0.920  0.9828  0.4016 -0.9482
  869SOL    HW212712   1.641   3.807   0.894  0.2335 -0.6474  0.8226
  870SOL     OW12713   1.562   5.328   0.163  0.0926 -0.0510 -0.1884
  870SOL    HW112714   1.489   5.274   0.121 -0.6605  0.6863  0.1589
  870SOL    HW212715   1.610   5.380   0.092  1.6392 -2.1107 -0.6984
  871SOL     OW12716   9.212   2.237   1.268  0.4079  0.0639  0.1003
  871SOL    HW112717   9.237   2.156   1.321  0.0632  1.2052  2.0440
  871SOL    HW212718   9.146   2.212   1.198 -0.7675 -1.0999  1.5992
  872SOL     OW12719   1.057   7.869   0.085  0.1116  0.0618  0.0672
  872SOL    HW112720   1.070   7.842  -0.010 -1.4763 -2.1190  0.4182
  872SOL    HW212721   0.976   7.822   0.122 -0.1485  2.0073  2.0559
  873SOL     OW12722   3.433   4.509   2.663 -0.0052  0.7840 -0.3059
  873SOL    HW112723   3.528   4.539   2.668  0.0973  0.5262 -0.7092
  873SOL    HW212724   3.399   4.521   2.570 -0.4129  1.0103 -0.1283
  874SOL     OW12725   1.809   8.005   0.003 -0.1467  0.0135  0.0341
  874SOL    HW112726   1.855   8.073  -0.054 -1.5112 -0.5983 -1.8678
  874SOL    HW212727   1.816   8.031   0.099  0.9661  1.8470 -0.5310
  875SOL     OW12728   0.827   3.217   2.226 -0.6325  0.6375 -0.1381
  875SOL    HW112729   0.763   3.206   2.301 -1.8954  0.2964 -1.2428
  875SOL    HW212730   0.876   3.304   2.235  0.6221 -0.2538  2.0895
  876SOL     OW12731   1.777   8.594   0.075  0.3651  0.4665  0.0992
  876SOL    HW112732   1.688   8.613   0.115  1.1153  1.6425  1.2822
  876SOL    HW212733   1.818   8.680   0.042  1.3158  0.0386  0.1479
  877SOL     OW12734   8.616   3.806   0.909 -0.1245  0.3421  0.1463
  877SOL    HW112735   8.578   3.749   0.982 -1.5615  0.6669 -0.3209
  877SOL    HW212736   8.585   3.901   0.922 -0.0662  0.4731 -0.6621
  878SOL     OW12737   0.631   1.472   2.068  0.8711  0.0581 -0.2091
  878SOL    HW112738   0.673   1.511   2.150  0.4421  1.4686 -0.6368
  878SOL    HW212739   0.683   1.500   1.987  0.0842  0.4582 -0.5940
  879SOL     OW12740   9.164   2.316   0.126 -0.4748 -0.2075  0.0112
  879SOL    HW112741   9.161   2.219   0.152  0.4009 -0.4596 -0.7926
  879SOL    HW212742   9.257   2.340   0.099 -0.7262  0.8246  0.0528
  880SOL     OW12743   0.931   4.468   0.414 -0.5025 -0.0277  0.0464
  880SOL    HW112744   1.025   4.495   0.394 -0.6772  0.2900 -0.3439
  880SOL    HW212745   0.883   4.449   0.329 -0.0770 -2.6259  0.3527
  881SOL     OW12746   2.219   1.980   2.171 -0.3348  0.0032  0.1351
  881SOL    HW112747   2.200   2.042   2.094  0.3160 -1.6418 -1.4000
  881SOL    HW212748   2.192   1.887   2.146 -0.2858 -0.5317  1.9924
  882SOL     OW12749   8.701   6.089   2.095 -0.3863 -0.7225 -0.0615
  882SOL    HW112750   8.762   6.159   2.057 -0.3559 -0.5141  0.3677
  882SOL    HW212751   8.732   5.998   2.065 -0.2606 -0.5737 -0.3912
  883SOL     OW12752   9.362   4.668   0.056  0.0257  0.2261 -0.5926
  883SOL    HW112753   9.436   4.697  -0.004 -1.9336  0.3075 -3.0356
  883SOL    HW212754   9.336   4.744   0.116  2.7256 -0.1977  1.1905
  884SOL     OW12755   2.941   9.634   2.226  0.5142  0.3718 -0.2236
  884SOL    HW112756   2.899   9.571   2.292 -0.1096  0.4507 -0.5402
  884SOL    HW212757   3.006   9.694   2.273  0.5434  0.0016  0.2093
  885SOL     OW12758   0.026   6.363   0.795 -0.3720 -0.2133 -0.4934
  885SOL    HW112759   0.093   6.317   0.736  1.1867 -0.6356  1.5426
  885SOL    HW212760  -0.009   6.445   0.749  0.3695 -0.8485 -2.2232
  886SOL     OW12761   0.317   2.997   2.638  0.5367  0.2074  0.0455
  886SOL    HW112762   0.302   2.911   2.687 -0.7822 -0.1733 -0.9897
  886SOL    HW212763   0.339   2.978   2.542 -0.1684  1.0209 -0.2880
  887SOL     OW12764   1.797   6.040   1.648  0.2114 -0.0598  0.1184
  887SOL    HW112765   1.786   6.084   1.559 -0.4156 -0.7795 -0.1637
  887SOL    HW212766   1.826   6.109   1.716 -0.6006  0.7508 -0.3471
  888SOL     OW12767   0.471   3.937   2.557  0.2562  0.3056 -0.3641
  888SOL    HW112768   0.441   3.898   2.644  0.1623 -0.5356 -0.7644
  888SOL    HW212769   0.557   3.895   2.530  0.4370  0.7842 -0.5314
  889SOL     OW12770   9.274   4.511   2.782  0.6737  0.2879 -0.3930
  889SOL    HW112771   9.312   4.547   2.867  1.9470  0.9293 -1.2037
  889SOL    HW212772   9.349   4.477   2.724 -0.3264 -1.8811 -0.4725
  890SOL     OW12773   1.534   5.218   1.651  0.5317 -0.3338 -0.0267
  890SOL    HW112774   1.490   5.146   1.597  0.2650 -1.5430  1.7707
  890SOL    HW212775   1.600   5.177   1.714  0.0137  0.9329  1.3685
  891SOL     OW12776   3.520   6.716   0.371  0.0841 -0.2613 -0.0821
  891SOL    HW112777   3.432   6.734   0.328  0.5376  1.5286 -0.2944
  891SOL    HW212778   3.521   6.754   0.463  0.8105  0.2010 -0.2722
  892SOL     OW12779   1.970   9.009   0.036 -0.1283 -0.3721  0.4450
  892SOL    HW112780   2.000   9.080  -0.028  0.3702 -0.8889  0.0986
  892SOL    HW212781   1.983   9.040   0.130 -0.7110  0.3321  0.2981
  893SOL     OW12782   3.432   9.912   2.731 -0.2949 -0.5221 -0.3466
  893SOL    HW112783   3.379   9.850   2.789 -1.4349  1.4454  0.7781
  893SOL    HW212784   3.519   9.869   2.707  0.0435 -1.5741  2.4935
  894SOL     OW12785   0.667   3.248   1.302  0.4723  0.1599  0.7620
  894SOL    HW112786   0.654   3.342   1.335  2.0066  0.9937 -0.9247
  894SOL    HW212787   0.723   3.197   1.367 -0.8170  0.2170  1.9570
  895SOL     OW12788   0.092   6.640   2.907  0.2066 -0.3025  0.0704
  895SOL    HW112789   0.163   6.595   2.854  0.0809 -1.0445  0.5107
  895SOL    HW212790   0.062   6.723   2.860  2.1696  0.6556  0.4616
  896SOL     OW12791   9.735   2.117   0.775 -0.4758 -0.1027  0.4225
  896SOL    HW112792   9.656   2.102   0.833  0.1024  1.8003  1.7630
  896SOL    HW212793   9.718   2.196   0.716 -0.2102 -0.6810 -0.4337
  897SOL     OW12794   9.514   1.766   1.476  0.1175  0.3412 -0.1126
  897SOL    HW112795   9.471   1.797   1.561  1.4524 -0.9984  1.0732
  897SOL    HW212796   9.613   1.774   1.484  0.2496  0.3639 -1.6214
  898SOL     OW12797   2.059   7.971   2.133  0.3783  0.3259  0.0456
  898SOL    HW112798   2.100   8.035   2.199 -0.3319  0.2752  0.5470
  898SOL    HW212799   2.120   7.893   2.120 -0.0262 -0.2845  1.6134
  899SOL     OW12800   2.703   2.784   1.869 -0.3759  0.4239  0.5041
  899SOL    HW112801   2.605   2.762   1.878 -0.5103  1.3456  1.4687
  899SOL    HW212802   2.738   2.813   1.959  0.4429  1.4485 -0.1387
  900SOL     OW12803   1.752   1.773   2.056  0.2339 -0.6221 -0.2367
  900SOL    HW112804   1.762   1.677   2.082  0.6360 -0.2068  1.2312
  900SOL    HW212805   1.805   1.791   1.974 -0.8253 -1.9299 -1.2377
  901SOL     OW12806   8.260   6.204   1.414  0.7238  0.2074 -0.2633
  901SOL    HW112807   8.320   6.195   1.493 -1.6960 -1.9677  1.3951
  901SOL    HW212808   8.199   6.283   1.426 -0.1485 -0.5586  0.4273
  902SOL     OW12809   0.806   5.453   2.214  0.5896  0.8527 -0.3756
  902SOL    HW112810   0.771   5.529   2.160 -0.9849 -0.0190 -0.6239
  902SOL    HW212811   0.766   5.367   2.181 -0.7114  0.3420  2.3776
  903SOL     OW12812   1.028   3.053   0.874 -0.1509  0.3426 -0.5904
  903SOL    HW112813   1.066   3.145   0.864 -0.5139  0.5075 -0.4506
  903SOL    HW212814   1.084   3.000   0.938  0.3214  0.3185 -1.0159
  904SOL     OW12815   1.139   9.635   2.315  0.5830 -0.7610 -0.3824
  904SOL    HW112816   1.043   9.654   2.340  0.4300 -2.0163  0.0072
  904SOL    HW212817   1.194   9.628   2.398  1.1296  0.4513 -0.6206
  905SOL     OW12818   9.762   8.516   2.905 -0.8415 -0.1741  0.0425
  905SOL    HW112819   9.677   8.499   2.855  0.5553 -1.4709 -1.9440
  905SOL    HW212820   9.822   8.437   2.896  0.3672  0.5087  1.9096
  906SOL     OW12821   1.125   7.955   1.668 -0.4894  1.0287 -0.2323
  906SOL    HW112822   1.081   7.910   1.591 -1.0832  0.0408  0.6673
  906SOL    HW212823   1.063   7.955   1.747  1.1303 -0.5674  1.1090
  907SOL     OW12824   3.172   0.407   0.915 -0.3450 -0.2800  0.1350
  907SOL    HW112825   3.218   0.493   0.937 -1.5659  0.1981  0.8481
  907SOL    HW212826   3.231   0.351   0.856  0.0584  1.4670 -1.1461
  908SOL     OW12827   9.842   5.414   2.562 -0.4553  0.0626  0.6202
  908SOL    HW112828   9.867   5.349   2.490 -0.9638 -0.0617  0.5567
  908SOL    HW212829   9.924   5.461   2.594 -0.2157  0.0749 -0.0032
  909SOL     OW12830   0.042   3.459   1.003 -0.8152  0.1267 -0.1599
  909SOL    HW112831   0.074   3.468   1.097 -0.1530  0.1959 -0.3840
  909SOL    HW212832   0.009   3.547   0.969 -3.7533 -0.4850  0.9391
  910SOL     OW12833   8.926   4.602   0.857  0.3862 -0.5568 -0.2021
  910SOL    HW112834   8.829   4.598   0.832  0.4395  0.1204 -0.5283
  910SOL    HW212835   8.969   4.513   0.839 -0.4496 -1.2496  1.1338
  911SOL     OW12836   0.032   1.885   2.710 -0.3813  0.3377  0.1515
  911SOL    HW112837  -0.024   1.937   2.646 -0.5172  0.1297  0.1015
  911SOL    HW212838   0.009   1.788   2.704  0.8151  0.0950 -0.7343
  912SOL     OW12839   2.338   8.221   0.959  0.1420  0.5055 -0.1149
  912SOL    HW112840   2.436   8.199   0.956 -0.0674 -1.2777  3.5600
  912SOL    HW212841   2.286   8.150   0.911  0.5059  0.6336 -0.7106
  913SOL     OW12842   1.448   8.298   2.746 -0.2279  0.1954  0.2715
  913SOL    HW112843   1.526   8.271   2.689  0.5506  0.8816  1.0124
  913SOL    HW212844   1.386   8.355   2.691 -0.1373 -0.2172 -0.2715
  914SOL     OW12845   4.905   9.744   2.009  0.2730  0.9263  0.3904
  914SOL    HW112846   4.871   9.652   2.025  0.2082  0.9746  0.5279
  914SOL    HW212847   4.841   9.792   1.948  1.4312  0.1617 -1.4595
  915SOL     OW12848   0.087   2.064   0.632  0.1330  0.5418 -0.4334
  915SOL    HW112849   0.135   1.992   0.681 -0.3727  0.7190  0.3289
  915SOL    HW212850   0.032   2.023   0.559 -0.2997  0.1299  0.1170
  916SOL     OW12851   2.542   3.669   2.637  0.1783  0.1096  0.2194
  916SOL    HW112852   2.484   3.590   2.658  0.5450  0.3017  2.0995
  916SOL    HW212853   2.569   3.667   2.541  0.7705 -2.4393  0.4130
  917SOL     OW12854   1.719   3.780   1.632  0.2025 -0.2806 -0.4226
  917SOL    HW112855   1.658   3.788   1.553  1.3115 -0.8387 -1.3541
  917SOL    HW212856   1.665   3.764   1.715 -1.0426  1.4629 -0.8787
  918SOL     OW12857   2.170   9.551   0.722  0.2569 -0.1952  0.3553
  918SOL    HW112858   2.191   9.471   0.666 -1.7887 -0.9933  0.6850
  918SOL    HW212859   2.134   9.521   0.810  0.0412  1.0840  0.7086
  919SOL     OW12860   4.368   3.145   1.902  0.1709 -0.4993 -1.4413
  919SOL    HW112861   4.329   3.071   1.957  0.9828 -1.1131 -1.6799
  919SOL    HW212862   4.352   3.232   1.948  0.2037 -0.9390 -0.5835
  920SOL     OW12863   0.640   6.151   2.693 -0.0950  0.0420  0.3557
  920SOL    HW112864   0.735   6.156   2.725 -0.0076 -0.2914  0.1539
  920SOL    HW212865   0.617   6.234   2.643 -0.7159  1.2663  2.5973
  921SOL     OW12866   0.493   6.588   0.037  0.6269 -0.2046 -0.4673
  921SOL    HW112867   0.410   6.544   0.003  1.1501 -1.3068 -0.3622
  921SOL    HW212868   0.573   6.535   0.007  1.1739 -0.3476  1.2228
  922SOL     OW12869   8.805   5.351   2.481  0.8529  0.3046 -0.1125
  922SOL    HW112870   8.724   5.409   2.476 -0.1421 -1.0803 -0.7283
  922SOL    HW212871   8.801   5.284   2.407  3.0205  0.7862 -0.6834
  923SOL     OW12872   0.078   4.004   1.538  0.7234  0.0497  0.3021
  923SOL    HW112873   0.057   3.940   1.613 -2.1240 -0.7728 -1.1386
  923SOL    HW212874   0.115   4.088   1.576 -1.0107 -0.2136  2.7008
  924SOL     OW12875   7.996   3.213   2.530  0.0490  0.4879  0.5452
  924SOL    HW112876   7.913   3.268   2.527  0.3443  0.9109 -0.0679
  924SOL    HW212877   8.055   3.245   2.605 -0.2625  0.3025  0.8682
  925SOL     OW12878   1.671   4.380   1.085  0.1137 -0.1051  0.2805
  925SOL    HW112879   1.619   4.460   1.052  1.5124  0.5158 -0.4533
  925SOL    HW212880   1.736   4.352   1.014  1.2912 -0.4244  1.4846
  926SOL     OW12881   1.876   1.778   0.043  0.8255 -0.1482  0.0250
  926SOL    HW112882   1.818   1.821  -0.026 -0.2899 -1.2063  0.2831
  926SOL    HW212883   1.909   1.847   0.107  0.9159  0.6607 -0.8735
  927SOL     OW12884   0.766   5.783   2.414  0.1854  0.5468  0.0762
  927SOL    HW112885   0.850   5.786   2.360 -1.3518 -0.9039 -2.5162
  927SOL    HW212886   0.731   5.876   2.427  0.1262  0.9017 -2.2944
  928SOL     OW12887   0.470   4.497   1.275 -0.4685 -0.1574  0.4802
  928SOL    HW112888   0.481   4.424   1.207 -1.6090 -0.3260  0.4665
  928SOL    HW212889   0.553   4.552   1.278  0.0545 -0.8888 -0.1786
  929SOL     OW12890   2.718   8.594   1.067  0.1739 -0.2124 -0.0505
  929SOL    HW112891   2.662   8.651   1.007 -1.6034 -1.6053  0.2039
  929SOL    HW212892   2.715   8.630   1.160 -0.2135 -0.2007 -0.0647
  930SOL     OW12893   2.237   9.447   2.711 -0.5050 -0.2717 -0.2083
  930SOL    HW112894   2.190   9.384   2.774  0.2569 -0.2202  0.4219
  930SOL    HW212895   2.321   9.404   2.678 -0.4485  0.0575 -0.4891
  931SOL     OW12896   2.655   9.784   1.335  0.0063  0.3569  0.1611
  931SOL    HW112897   2.586   9.711   1.332 -1.2327  1.4208  1.6518
  931SOL    HW212898   2.716   9.769   1.413 -0.0452  0.7231  0.2735
  932SOL     OW12899   9.533   2.683   0.567  0.6034 -0.1437 -0.2209
  932SOL    HW112900   9.458   2.662   0.504  0.4737  0.2669 -0.2028
  932SOL    HW212901   9.510   2.649   0.658 -0.1540  1.1529  0.0933
  933SOL     OW12902   4.120   2.502   2.560 -0.3947  0.0980 -0.1211
  933SOL    HW112903   4.023   2.497   2.537 -0.4337 -3.4653  0.4892
  933SOL    HW212904   4.174   2.518   2.477 -1.3730 -0.1256 -0.7978
  934SOL     OW12905   3.720   1.604   1.435 -0.7561 -0.8480 -0.7041
  934SOL    HW112906   3.781   1.648   1.369 -0.1593  0.6789  0.8355
  934SOL    HW212907   3.626   1.632   1.417 -0.4718  0.4584 -0.2569
  935SOL     OW12908   2.161   4.339   1.505 -0.0833 -0.7237  0.0962
  935SOL    HW112909   2.118   4.331   1.595  1.3408 -0.9789  0.7736
  935SOL    HW212910   2.259   4.321   1.514 -0.0232 -1.3296 -1.6033
  936SOL     OW12911   0.774   7.808   2.089  0.4732 -0.5021 -0.7998
  936SOL    HW112912   0.841   7.750   2.135 -0.3224  0.5582  1.8098
  936SOL    HW212913   0.689   7.757   2.076  0.1998 -0.3480  0.3228
  937SOL     OW12914   2.007   0.453   2.690  0.1533  0.0432  0.1116
  937SOL    HW112915   1.995   0.403   2.604 -1.2825 -2.5977  1.7818
  937SOL    HW212916   2.104   0.459   2.711  0.5314  0.7864 -1.7050
  938SOL     OW12917   0.389   4.554   2.360 -0.3299 -0.4545  0.7205
  938SOL    HW112918   0.421   4.622   2.293 -0.8574  0.3898  1.3139
  938SOL    HW212919   0.347   4.477   2.312  0.2064 -0.3343  0.0426
  939SOL     OW12920   1.034   6.375   1.624 -0.0726 -0.0564  0.0961
  939SOL    HW112921   1.113   6.410   1.574  0.1900 -1.5263 -0.5168
  939SOL    HW212922   0.961   6.351   1.559 -0.3766 -0.3380  0.5384
  940SOL     OW12923   0.172   8.619   2.501  0.1202  0.2813 -0.3157
  940SOL    HW112924   0.107   8.688   2.471  0.4246  1.2109  1.0999
  940SOL    HW212925   0.262   8.637   2.461  0.0762  0.4223 -0.3498
  941SOL     OW12926   1.262   2.869   2.779 -0.0865 -0.3317 -0.2461
  941SOL    HW112927   1.184   2.829   2.826 -0.4708  0.1031 -0.5054
  941SOL    HW212928   1.329   2.798   2.757 -2.0420 -1.3617 -3.2806
  942SOL     OW12929   0.888   9.686   2.369 -0.6257 -0.7312 -0.2355
  942SOL    HW112930   0.891   9.676   2.269 -1.2109 -0.1131 -0.3210
  942SOL    HW212931   0.792   9.682   2.399 -0.8574  3.3060 -0.1647
  943SOL     OW12932   9.953   8.643   0.320 -0.0794 -0.5036  0.0389
  943SOL    HW112933  10.042   8.605   0.294 -0.1723 -0.2497 -0.6631
  943SOL    HW212934   9.933   8.723   0.263 -0.7122 -0.4986  0.2657
  944SOL     OW12935   9.709   7.999   1.828  0.1300  0.1441  0.1349
  944SOL    HW112936   9.720   7.929   1.899 -2.7458 -1.4940 -0.9638
  944SOL    HW212937   9.734   7.960   1.740 -0.7796  0.7175 -0.3819
  945SOL     OW12938   1.387   9.770   0.553  0.0085  0.1625 -0.2408
  945SOL    HW112939   1.420   9.755   0.647 -1.7725  5.0555  1.3176
  945SOL    HW212940   1.288   9.758   0.551 -0.2180  2.0599 -1.0147
  946SOL     OW12941   9.585   5.001   0.065 -0.9746 -1.0421 -0.3521
  946SOL    HW112942   9.654   4.935   0.039 -1.2541 -1.1503 -0.8183
  946SOL    HW212943   9.515   5.007  -0.006 -0.7391  0.0532 -0.4993
  947SOL     OW12944   0.478   7.911   1.566 -0.5318 -0.4120 -0.0193
  947SOL    HW112945   0.498   7.921   1.663  0.7113 -2.3180 -0.0513
  947SOL    HW212946   0.393   7.860   1.554 -2.4809  2.6680  0.0538
  948SOL     OW12947   0.808   3.111   1.493 -0.3258 -0.1357 -0.3803
  948SOL    HW112948   0.846   3.100   1.585 -0.7472 -0.3407 -0.2299
  948SOL    HW212949   0.782   3.022   1.456 -0.8870  0.0247 -0.3840
  949SOL     OW12950   2.763   9.769   0.291 -0.0810 -0.3237 -0.7335
  949SOL    HW112951   2.746   9.670   0.287 -0.6521 -0.2695  0.2572
  949SOL    HW212952   2.728   9.812   0.208 -1.9290 -0.6604 -0.1562
  950SOL     OW12953   4.476   0.281   2.211  0.3206 -0.0866  0.2737
  950SOL    HW112954   4.400   0.245   2.156 -1.0414  2.1093  0.6183
  950SOL    HW212955   4.563   0.248   2.175 -0.6096  0.3611 -2.4772
  951SOL     OW12956   9.897   2.148   1.195 -0.5379  0.0524  0.4190
  951SOL    HW112957   9.944   2.093   1.263 -0.4842 -0.1526  0.2156
  951SOL    HW212958   9.804   2.115   1.183  0.0594 -1.1445 -1.0203
  952SOL     OW12959   0.343   2.710   2.450 -0.7794  0.5667 -0.0117
  952SOL    HW112960   0.317   2.705   2.353  0.8614  2.1559 -0.5728
  952SOL    HW212961   0.433   2.670   2.462 -0.7542  0.8593  0.7807
  953SOL     OW12962   2.381   7.479   0.851  0.1440  0.4742  0.0231
  953SOL    HW112963   2.304   7.470   0.789  0.4774 -1.4228 -0.1575
  953SOL    HW212964   2.389   7.396   0.907  1.2532  1.1885  0.9614
  954SOL     OW12965   2.828   7.885   1.492  0.0362 -0.2487 -0.0828
  954SOL    HW112966   2.821   7.789   1.466  3.0262 -0.8971  1.4246
  954SOL    HW212967   2.849   7.940   1.411  0.7356 -1.1554 -0.5132
  955SOL     OW12968   4.054   8.435   0.445  0.1297  0.2419  0.1567
  955SOL    HW112969   3.973   8.442   0.503  1.0370 -0.7674  1.5856
  955SOL    HW212970   4.064   8.518   0.390  0.9661  2.5801  3.6964
  956SOL     OW12971   2.917   9.283   2.635  0.3616  0.0183  0.0234
  956SOL    HW112972   2.951   9.189   2.634  0.2914 -0.0110  0.5479
  956SOL    HW212973   2.994   9.346   2.622  0.2257 -0.1568 -1.7579
  957SOL     OW12974   0.618   2.983   0.796 -0.0246  0.0245 -0.2777
  957SOL    HW112975   0.535   3.037   0.813 -0.4362 -0.4594 -0.7280
  957SOL    HW212976   0.689   3.011   0.860 -0.5845  0.3447  0.2137
  958SOL     OW12977   4.240   0.229   2.665 -0.2935  0.3249 -0.0428
  958SOL    HW112978   4.321   0.279   2.637 -0.1698 -0.1287 -0.5017
  958SOL    HW212979   4.167   0.243   2.599  0.2497 -1.3793 -1.0296
  959SOL     OW12980   1.296   5.679   1.793 -0.5530 -0.4777  0.0913
  959SOL    HW112981   1.264   5.616   1.864  2.3520 -0.1962  1.7593
  959SOL    HW212982   1.390   5.655   1.768 -0.3561  1.5322 -1.1992
  960SOL     OW12983   3.505   0.572   1.436 -0.2105  0.0654 -0.4225
  960SOL    HW112984   3.454   0.500   1.483 -1.3250  1.9923  1.4254
  960SOL    HW212985   3.584   0.598   1.491  1.8701 -1.7256 -2.4745
  961SOL     OW12986   0.362   0.470   1.294  0.5101  0.3182  0.6440
  961SOL    HW112987   0.400   0.543   1.237  0.6286 -1.5207 -1.6964
  961SOL    HW212988   0.395   0.381   1.262 -0.7189 -0.8714  2.5721
  962SOL     OW12989   0.205   4.008   1.067 -0.6878  0.1880  0.6523
  962SOL    HW112990   0.208   4.107   1.051  0.5816  0.0701  0.0470
  962SOL    HW212991   0.260   3.986   1.147 -1.0128 -0.0207  0.8164
  963SOL     OW12992   9.190   3.986   2.093  0.2678 -0.1522  0.8385
  963SOL    HW112993   9.211   4.027   2.182  0.2639  2.5427 -0.3775
  963SOL    HW212994   9.273   3.946   2.055  0.7484  0.6281  1.0576
  964SOL     OW12995   2.467   5.097   1.109 -0.2344 -0.3748 -1.0565
  964SOL    HW112996   2.465   4.997   1.102  0.2767 -0.4071 -0.7627
  964SOL    HW212997   2.449   5.124   1.203  2.0078 -0.2858 -0.6294
  965SOL     OW12998   1.020   9.707   1.741  0.1650 -0.2136  0.3401
  965SOL    HW112999   1.087   9.640   1.773 -0.4248 -0.8688  0.1999
  965SOL    HW213000   0.930   9.685   1.778 -0.5091 -0.8993 -1.6399
  966SOL     OW13001   1.931   3.176   2.284 -0.4324 -0.0631 -0.0415
  966SOL    HW113002   1.867   3.252   2.291  0.2575  0.4155  1.2881
  966SOL    HW213003   1.904   3.116   2.209  0.4850  2.8765 -2.8161
  967SOL     OW13004   1.425   0.326   2.759  0.2606  0.0197  0.1872
  967SOL    HW113005   1.350   0.261   2.749  0.3663 -0.0723 -0.0226
  967SOL    HW213006   1.454   0.331   2.854  0.2673 -0.2579  0.1998
  968SOL     OW13007   2.595   0.752   0.613  0.1808 -0.7194  0.0776
  968SOL    HW113008   2.504   0.716   0.593 -0.3702  0.0782  1.0723
  968SOL    HW213009   2.648   0.758   0.529 -0.8023 -0.8889 -0.5635
  969SOL     OW13010   0.015   1.421   1.779  0.2859  0.0057  0.5255
  969SOL    HW113011  -0.047   1.362   1.727  0.8609  0.6078 -0.8706
  969SOL    HW213012  -0.034   1.504   1.807  0.2764  0.1921 -0.0290
  970SOL     OW13013   9.551   2.649   2.097 -0.1247 -0.4204  0.3472
  970SOL    HW113014   9.518   2.665   2.190  0.0096 -0.1816  0.3555
  970SOL    HW213015   9.642   2.690   2.087 -2.0682  3.8068 -1.2901
  971SOL     OW13016   3.426   9.075   2.873 -0.8911  0.2237  0.2028
  971SOL    HW113017   3.380   8.991   2.902 -2.0222  0.6882 -0.2030
  971SOL    HW213018   3.434   9.076   2.774  1.8703 -0.7916  0.3623
  972SOL     OW13019   2.398   8.987   0.678  0.2434  0.5515  0.4145
  972SOL    HW113020   2.327   8.945   0.735 -0.9637  0.3114 -1.2478
  972SOL    HW213021   2.486   8.946   0.701 -0.6135 -1.4507  0.2595
  973SOL     OW13022   0.906   0.364   1.199  0.3545 -0.7046  0.2751
  973SOL    HW113023   0.979   0.360   1.131 -0.5655 -1.8651 -0.6853
  973SOL    HW213024   0.822   0.399   1.155 -0.1907 -1.2726  0.8565
  974SOL     OW13025   1.575   0.288   0.059 -0.7833 -0.2799  0.3992
  974SOL    HW113026   1.558   0.200   0.102 -0.0247  0.4918  2.3161
  974SOL    HW213027   1.644   0.338   0.110  0.2874  0.6104 -1.8225
  975SOL     OW13028   2.666   2.708   0.112  0.8774 -0.2391 -0.4637
  975SOL    HW113029   2.582   2.713   0.058 -0.1857  1.3741  1.2660
  975SOL    HW213030   2.727   2.782   0.086  0.9909 -0.3390 -0.4812
  976SOL     OW13031   0.613   4.254   1.433  0.6145 -0.1458 -0.5657
  976SOL    HW113032   0.712   4.249   1.420  0.6355  0.6774 -0.6941
  976SOL    HW213033   0.591   4.326   1.499  0.2768 -1.9933  1.3926
  977SOL     OW13034   0.469   4.382   0.057  0.4662  0.1637  0.1116
  977SOL    HW113035   0.538   4.453   0.040  0.0368  0.3610 -0.8463
  977SOL    HW213036   0.385   4.425   0.090  1.3398 -0.2283  2.9707
  978SOL     OW13037   2.918   3.002   1.809  0.2528 -0.8955 -0.5376
  978SOL    HW113038   2.976   2.999   1.728  0.4482  0.5421 -0.4665
  978SOL    HW213039   2.827   3.035   1.785  0.9728  1.7772  0.1501
  979SOL     OW13040   1.811   3.731   0.531  0.3062 -0.1971  0.0991
  979SOL    HW113041   1.863   3.813   0.504  0.4922 -0.6594 -0.9906
  979SOL    HW213042   1.786   3.738   0.627  2.1759  0.1535  0.5829
  980SOL     OW13043   0.661   6.119   1.031  0.4756  0.4464 -0.0620
  980SOL    HW113044   0.708   6.204   1.055  0.2886  0.4692  0.2336
  980SOL    HW213045   0.563   6.130   1.049  0.3527  0.4072 -0.6917
  981SOL     OW13046   0.215   0.273   0.283  0.0215 -0.4019  0.1287
  981SOL    HW113047   0.130   0.250   0.236  0.2520 -1.4754  0.2314
  981SOL    HW213048   0.288   0.286   0.216 -0.4739  1.6982 -0.0463
  982SOL     OW13049   1.987   5.616   0.783  0.6595 -0.4634  0.9403
  982SOL    HW113050   1.919   5.565   0.730 -0.4960  1.1167  0.8557
  982SOL    HW213051   2.005   5.704   0.738  2.3918 -0.6298  1.2445
  983SOL     OW13052   3.103   0.801   1.625 -0.0058 -0.2321 -0.3791
  983SOL    HW113053   3.009   0.778   1.598  0.2417 -0.5332 -0.9997
  983SOL    HW213054   3.163   0.722   1.608  0.5100  0.2424 -0.7764
  984SOL     OW13055   3.266   7.954   2.032  0.3401  0.2200 -0.4395
  984SOL    HW113056   3.236   7.989   1.943 -2.0761 -1.8372 -0.4815
  984SOL    HW213057   3.303   7.862   2.021 -2.3217 -1.0804  0.9859
  985SOL     OW13058   1.070   4.251   2.138 -0.3605  0.5563 -0.1498
  985SOL    HW113059   1.016   4.297   2.068 -0.3242  0.5401 -0.1882
  985SOL    HW213060   1.124   4.178   2.096 -2.0625 -0.9770  0.2099
  986SOL     OW13061   9.081   5.673   2.929  0.1503  0.0644 -0.2829
  986SOL    HW113062   9.147   5.630   2.867 -0.8928 -0.8477 -0.7744
  986SOL    HW213063   9.121   5.680   3.020  1.3920  0.6634 -0.8663
  987SOL     OW13064   0.807   9.681   1.492  0.1325  0.3220 -0.1993
  987SOL    HW113065   0.842   9.645   1.579 -1.4962 -0.8893 -0.0163
  987SOL    HW213066   0.708   9.695   1.500 -0.2431 -0.9449 -2.2359
  988SOL     OW13067   1.089   4.635   1.109 -0.1630 -0.0910  0.0105
  988SOL    HW113068   1.112   4.557   1.166 -2.0619 -1.0039 -0.4515
  988SOL    HW213069   0.990   4.646   1.104  0.0006  0.8516 -1.9231
  989SOL     OW13070   4.022   4.051   1.087 -0.4805 -0.7849  0.2624
  989SOL    HW113071   3.991   4.079   0.996  0.3674  1.0720  0.5404
  989SOL    HW213072   4.033   4.131   1.145  3.6243 -1.4786  0.5530
  990SOL     OW13073   1.269   5.748   1.343  0.1750  0.0068  0.3154
  990SOL    HW113074   1.317   5.802   1.412 -1.1163 -0.2950  1.4575
  990SOL    HW213075   1.172   5.742   1.366 -0.2674 -0.1283 -1.5069
  991SOL     OW13076   4.107   4.377   1.455  0.6895  0.4105 -0.4204
  991SOL    HW113077   4.142   4.286   1.477 -0.5233 -0.1794 -0.9224
  991SOL    HW213078   4.091   4.427   1.540 -2.0910 -1.1569  0.0286
  992SOL     OW13079   2.781   2.812   1.626 -0.4280 -0.2540  0.2248
  992SOL    HW113080   2.808   2.905   1.602 -1.6579  0.0065 -0.1835
  992SOL    HW213081   2.747   2.810   1.720 -1.1665 -0.1208 -0.0328
  993SOL     OW13082   0.946   9.961   1.659 -0.0952  0.5891 -0.0731
  993SOL    HW113083   0.978   9.875   1.700 -0.3045  0.6652  0.2506
  993SOL    HW213084   0.879   9.941   1.587 -1.0620  0.5386  0.8402
  994SOL     OW13085   9.753   1.933   0.088 -0.4949 -0.1316  0.5790
  994SOL    HW113086   9.753   1.966   0.182 -1.1071 -0.1663  0.5932
  994SOL    HW213087   9.830   1.974   0.039  0.2026 -0.6177  1.2615
  995SOL     OW13088   2.613   1.394   1.833  0.4221  0.3098  0.1893
  995SOL    HW113089   2.581   1.487   1.814 -0.6025 -0.2860 -1.1061
  995SOL    HW213090   2.554   1.328   1.785  0.1726 -1.0855  2.3140
  996SOL     OW13091   2.416   2.066   0.457 -0.3168  0.0237 -0.2944
  996SOL    HW113092   2.516   2.073   0.464 -0.3624  0.5943 -0.2328
  996SOL    HW213093   2.373   2.143   0.503 -0.7791  0.0532 -0.7661
  997SOL     OW13094   0.205   9.780   1.167  0.4739 -0.1312  0.3240
  997SOL    HW113095   0.106   9.774   1.155  0.4640 -0.7689  0.7582
  997SOL    HW213096   0.229   9.763   1.262  1.0223 -0.1527  0.1845
  998SOL     OW13097   8.145   5.158   2.249  0.0675  0.3745  0.3409
  998SOL    HW113098   8.074   5.202   2.303  1.4150  1.2467  1.4241
  998SOL    HW213099   8.156   5.063   2.279  0.7591  0.8344  1.5737
  999SOL     OW13100   9.314   3.594   0.139 -0.0460 -0.2154  0.9043
  999SOL    HW113101   9.337   3.687   0.166  0.9428 -0.0626 -0.4170
  999SOL    HW213102   9.359   3.529   0.201  2.7440  0.1158 -0.6892
 1000SOL     OW13103   2.926   8.793   2.249  0.0469 -0.4340 -0.1269
 1000SOL    HW113104   3.019   8.758   2.256 -0.4060 -2.0490 -1.8449
 1000SOL    HW213105   2.874   8.738   2.184 -1.1903  2.4092 -1.6419
 1001SOL     OW13106   2.185   8.656   2.608 -0.3625  0.1443 -0.3668
 1001SOL    HW113107   2.241   8.698   2.537  0.4200 -0.2334  0.0201
 1001SOL    HW213108   2.215   8.687   2.697  0.6839 -1.7244 -0.0321
 1002SOL     OW13109   4.627   8.939   0.148  0.0601  0.0724  0.6608
 1002SOL    HW113110   4.539   8.983   0.127 -0.3373 -0.5210  1.0463
 1002SOL    HW213111   4.684   9.003   0.200 -0.3035  0.3273  0.7546
 1003SOL     OW13112   3.020   9.019   2.673 -0.0891 -0.5332 -0.3472
 1003SOL    HW113113   3.108   9.000   2.629  0.5088  0.2508  0.5116
 1003SOL    HW213114   2.948   8.968   2.625  0.7079 -0.5626 -1.5484
 1004SOL     OW13115   9.915   5.235   2.827 -0.4949  0.0959  0.4006
 1004SOL    HW113116   9.911   5.161   2.761 -0.5387 -0.3050  0.8502
 1004SOL    HW213117   9.988   5.218   2.893 -0.4067  0.5252  0.4174
 1005SOL     OW13118   3.057   8.959   1.473 -0.0794 -0.1964  0.5545
 1005SOL    HW113119   3.133   8.931   1.415 -0.3667  0.4459 -0.1442
 1005SOL    HW213120   3.021   8.880   1.522 -0.0029 -0.7912 -0.3475
 1006SOL     OW13121   2.894   3.719   0.452  0.1200  0.1497 -0.1379
 1006SOL    HW113122   2.820   3.758   0.397 -1.3641 -0.2407  1.5685
 1006SOL    HW213123   2.875   3.623   0.471  1.6212 -0.2680 -0.5838
 1007SOL     OW13124   2.448   2.880   0.862  0.0748  0.9221 -0.1325
 1007SOL    HW113125   2.423   2.974   0.837  0.5923  1.0624 -0.1362
 1007SOL    HW213126   2.440   2.869   0.961 -2.2007  0.2992 -0.3439
 1008SOL     OW13127   9.903   6.234   2.902 -0.3117 -0.0454 -0.0423
 1008SOL    HW113128   9.876   6.322   2.862  0.3113  0.7506  1.2763
 1008SOL    HW213129   9.960   6.184   2.836  0.1456  0.9642 -0.4296
 1009SOL     OW13130   0.049   2.887   1.459 -0.4816  0.3202 -0.4293
 1009SOL    HW113131   0.014   2.843   1.376 -0.0432  1.0883 -1.0265
 1009SOL    HW213132   0.058   2.985   1.444 -0.9240  0.5390  0.7183
 1010SOL     OW13133   9.161   7.202   1.298  0.0260  0.2332  0.5416
 1010SOL    HW113134   9.246   7.151   1.310  0.7613  1.5015  0.8063
 1010SOL    HW213135   9.142   7.213   1.201  0.4566  0.4336  0.4802
 1011SOL     OW13136   1.183   4.428   2.337 -0.8255  0.1948 -0.1809
 1011SOL    HW113137   1.225   4.351   2.384  0.0361  0.5849 -0.3174
 1011SOL    HW213138   1.121   4.394   2.265 -2.0306 -0.3951  1.1137
 1012SOL     OW13139   2.817   3.406   2.030  0.0294 -0.5047 -0.2935
 1012SOL    HW113140   2.842   3.315   2.065  0.2999 -0.2706  0.1213
 1012SOL    HW213141   2.722   3.425   2.053 -0.6526 -1.5344 -2.1580
 1013SOL     OW13142   9.333   4.790   0.736 -0.4172 -0.2541 -0.3120
 1013SOL    HW113143   9.357   4.736   0.817 -1.5624 -0.2079  0.0739
 1013SOL    HW213144   9.331   4.730   0.656 -1.4570 -0.7640  0.0779
 1014SOL     OW13145   2.281   0.959   0.967 -0.0386  0.4508  0.3501
 1014SOL    HW113146   2.380   0.951   0.975 -0.3504 -4.9154  0.2512
 1014SOL    HW213147   2.255   0.957   0.871 -0.3387  0.5585  0.4289
 1015SOL     OW13148   3.179   3.020   1.668  0.2519  0.5291 -0.8172
 1015SOL    HW113149   3.201   3.096   1.730 -0.4292  0.8258 -0.9390
 1015SOL    HW213150   3.255   2.955   1.667  1.1870  1.6232 -1.3322
 1016SOL     OW13151   2.497   8.423   0.308 -0.3335  0.7267 -0.3066
 1016SOL    HW113152   2.586   8.378   0.321  0.2747  2.3406  1.4044
 1016SOL    HW213153   2.432   8.389   0.375 -0.6635  0.4286 -0.7746
 1017SOL     OW13154   2.276   0.473   1.962  0.0634  0.3615  0.1745
 1017SOL    HW113155   2.361   0.526   1.954 -1.1854  2.2515 -1.0206
 1017SOL    HW213156   2.199   0.529   1.931 -1.7543 -0.9999  2.1491
 1018SOL     OW13157   9.970   5.816   0.761  0.0861  0.1485 -0.1625
 1018SOL    HW113158  10.039   5.870   0.809 -0.4168 -2.0851  3.2788
 1018SOL    HW213159   9.879   5.848   0.787 -0.2442  1.8528 -3.2188
 1019SOL     OW13160   1.482   8.999   1.277 -0.6490 -0.0573  0.2829
 1019SOL    HW113161   1.553   8.971   1.342  0.1482  0.4185 -0.3671
 1019SOL    HW213162   1.435   9.080   1.311  2.7784  2.9173 -1.7498
 1020SOL     OW13163   0.835   7.072   2.507 -0.3681 -0.3140 -0.5408
 1020SOL    HW113164   0.751   7.018   2.517 -0.0402 -0.7109  0.0764
 1020SOL    HW213165   0.889   7.066   2.591  0.7046 -0.8020 -1.2509
 1021SOL     OW13166   0.028   0.575   0.360  0.5002 -0.4849 -0.2430
 1021SOL    HW113167   0.042   0.617   0.450 -1.3527 -0.4218  0.0351
 1021SOL    HW213168   0.077   0.488   0.356 -0.3399 -1.0599  1.2767
 1022SOL     OW13169   1.609   7.442   0.496 -0.1138  0.2189  0.0833
 1022SOL    HW113170   1.598   7.535   0.459  0.0253 -0.4466 -1.6653
 1022SOL    HW213171   1.689   7.440   0.556  0.8630  0.8414 -1.1848
 1023SOL     OW13172   2.171   1.563   1.468 -0.4747 -0.0656 -0.6262
 1023SOL    HW113173   2.168   1.564   1.368  0.4656 -0.4905 -0.6616
 1023SOL    HW213174   2.265   1.575   1.499 -0.4574 -1.9802  0.1712
 1024SOL     OW13175   2.649   7.235   0.568  0.1522  0.1881  0.9524
 1024SOL    HW113176   2.692   7.309   0.619 -0.9203 -0.7130  3.2449
 1024SOL    HW213177   2.628   7.159   0.630 -0.7749 -1.1408 -0.9259
 1025SOL     OW13178   3.910   0.379   1.305  0.3131 -0.1776  0.0519
 1025SOL    HW113179   3.967   0.343   1.231  0.6826 -1.3415  0.8951
 1025SOL    HW213180   3.903   0.479   1.296 -0.4629 -0.3970 -2.1150
 1026SOL     OW13181   1.160   3.534   2.527 -0.5574 -0.0947 -0.7295
 1026SOL    HW113182   1.184   3.506   2.620  1.1321 -0.2748 -1.1869
 1026SOL    HW213183   1.171   3.456   2.465 -0.1810  0.4139 -1.3096
 1027SOL     OW13184   1.438   3.410   2.035  0.5411 -0.4398  0.0818
 1027SOL    HW113185   1.536   3.427   2.047  0.1804  0.3491  2.0996
 1027SOL    HW213186   1.425   3.316   2.003  1.9806 -0.3623 -0.8041
 1028SOL     OW13187   9.398   6.632   1.206  0.3589  0.2638  0.2509
 1028SOL    HW113188   9.353   6.604   1.291  1.9112 -0.0470  0.9905
 1028SOL    HW213189   9.330   6.637   1.133 -1.3090  2.1620  1.8694
 1029SOL     OW13190   9.937   3.633   1.771 -0.2609  0.5835  0.4273
 1029SOL    HW113191  10.029   3.633   1.730 -0.4947  1.2534 -0.1065
 1029SOL    HW213192   9.870   3.613   1.700 -0.4061 -1.5189  1.1228
 1030SOL     OW13193   9.348   6.568   1.467  0.2507  0.0488 -0.4513
 1030SOL    HW113194   9.432   6.522   1.495  0.7155  0.1680 -1.6119
 1030SOL    HW213195   9.349   6.662   1.500 -0.0052 -0.3250  0.6221
 1031SOL     OW13196   3.255   2.316   1.921 -0.0833  0.2000 -0.5005
 1031SOL    HW113197   3.286   2.231   1.963  0.3492  1.7139  2.3973
 1031SOL    HW213198   3.329   2.358   1.869  0.4863  0.1345  0.2653
 1032SOL     OW13199   8.194   6.354   0.551  0.2865 -0.3131 -0.5306
 1032SOL    HW113200   8.165   6.336   0.645 -0.0641 -0.9799 -0.7619
 1032SOL    HW213201   8.198   6.268   0.501 -1.6536  0.2808 -1.7356
 1033SOL     OW13202   0.229   4.527   0.141 -0.3951 -0.6132  0.5665
 1033SOL    HW113203   0.170   4.608   0.132 -1.7155 -1.4278  1.6994
 1033SOL    HW213204   0.172   4.446   0.150  0.9144 -1.8824 -2.0621
 1034SOL     OW13205   9.632   2.370   1.264 -0.4567  0.1099 -0.0012
 1034SOL    HW113206   9.683   2.456   1.256  0.0655 -0.2155 -0.2046
 1034SOL    HW213207   9.603   2.340   1.173  1.2974 -1.0790 -0.2131
 1035SOL     OW13208   1.379   2.265   0.302  0.1350  0.3982  0.0315
 1035SOL    HW113209   1.324   2.275   0.384 -0.7104 -2.2128 -0.1642
 1035SOL    HW213210   1.441   2.187   0.312 -0.6757 -0.5625 -2.1620
 1036SOL     OW13211   1.864   9.393   1.320 -0.2601 -1.1123 -0.4272
 1036SOL    HW113212   1.774   9.423   1.286 -0.5819 -1.6663 -0.0769
 1036SOL    HW213213   1.911   9.470   1.363 -1.4042 -1.2754  1.1545
 1037SOL     OW13214   9.162   7.555   1.239  0.0257  0.0603  0.1273
 1037SOL    HW113215   9.167   7.597   1.330 -1.5544 -1.3551  0.9164
 1037SOL    HW213216   9.115   7.617   1.176 -1.3492 -0.0417  1.0112
 1038SOL     OW13217   0.707   5.383   0.452 -0.1543 -0.2986 -0.0628
 1038SOL    HW113218   0.640   5.423   0.389  0.7224  0.9307 -0.2291
 1038SOL    HW213219   0.794   5.432   0.444 -0.0175 -0.1325  2.0644
 1039SOL     OW13220   1.436   3.365   1.371  0.0156 -0.1311  0.0549
 1039SOL    HW113221   1.345   3.351   1.332  0.3326 -0.1509 -0.6850
 1039SOL    HW213222   1.429   3.375   1.470 -0.8340  0.2842 -0.0456
 1040SOL     OW13223   2.674   1.567   2.753 -0.0538 -0.1143 -0.9269
 1040SOL    HW113224   2.578   1.548   2.733 -0.1866  0.0476 -0.4442
 1040SOL    HW213225   2.703   1.512   2.831  0.7856 -1.6153 -2.2717
 1041SOL     OW13226   9.683   1.690   2.938  0.1973  0.0786 -0.5768
 1041SOL    HW113227   9.674   1.784   2.973  0.6887 -0.3348  0.6921
 1041SOL    HW213228   9.678   1.626   3.015  0.7380 -0.8842 -1.3436
 1042SOL     OW13229   0.501   8.668   2.414  0.0714 -0.4707 -0.1557
 1042SOL    HW113230   0.540   8.755   2.385  1.8620 -0.9735  0.6799
 1042SOL    HW213231   0.555   8.593   2.375 -0.4297 -1.1887  0.5283
 1043SOL     OW13232   1.144   2.281   1.514 -0.4359  0.0697 -0.8954
 1043SOL    HW113233   1.134   2.379   1.532  1.5905  0.2263 -0.4522
 1043SOL    HW213234   1.156   2.232   1.601  0.3861 -0.3220 -1.2199
 1044SOL     OW13235   3.281   3.400   1.506  0.0001 -0.0234 -0.1235
 1044SOL    HW113236   3.356   3.414   1.571 -0.5561  1.3061  0.2430
 1044SOL    HW213237   3.319   3.377   1.416  0.7606 -2.3203  0.7504
 1045SOL     OW13238   2.040   0.055   0.439  0.0114 -0.2681 -0.2223
 1045SOL    HW113239   2.044  -0.030   0.387 -0.4281  0.4907 -1.5176
 1045SOL    HW213240   2.133   0.087   0.457  0.1661 -0.3037 -0.9319
 1046SOL     OW13241   0.316   5.874   0.126  0.1255  0.1716 -0.6348
 1046SOL    HW113242   0.236   5.823   0.157 -0.4146  0.8314 -0.9312
 1046SOL    HW213243   0.321   5.962   0.173 -1.1125  1.4944 -2.8839
 1047SOL     OW13244   9.502   7.512   1.520  0.1616 -0.2515 -0.1953
 1047SOL    HW113245   9.482   7.417   1.497  0.4609 -0.0982 -1.1252
 1047SOL    HW213246   9.486   7.527   1.617  1.1024 -1.5125  0.1729
 1048SOL     OW13247   2.539   0.935   0.852 -0.4516 -0.3444  0.1611
 1048SOL    HW113248   2.553   0.860   0.788  0.4645  0.1345 -0.2002
 1048SOL    HW213249   2.568   1.021   0.809 -1.2767  0.1872  0.6524
 1049SOL     OW13250   8.948   6.906   0.935  0.3078 -0.1912 -0.1392
 1049SOL    HW113251   9.041   6.894   0.900 -0.1135  2.0535 -2.1198
 1049SOL    HW213252   8.883   6.862   0.873 -0.0315 -1.2949  0.9634
 1050SOL     OW13253   3.672   2.014   2.052  0.4424 -0.4562  0.2326
 1050SOL    HW113254   3.686   2.108   2.084  1.1829 -0.9045  1.2468
 1050SOL    HW213255   3.633   1.960   2.126 -0.9408 -0.7095 -0.6735
 1051SOL     OW13256   3.443   4.455   0.779 -0.4730  0.8921  0.0299
 1051SOL    HW113257   3.366   4.472   0.717  1.3975  1.4271 -2.1952
 1051SOL    HW213258   3.498   4.538   0.788 -0.1804  0.5418  1.6787
 1052SOL     OW13259   1.750   5.765   0.583  0.1786  0.6451 -0.7739
 1052SOL    HW113260   1.835   5.767   0.636 -0.1771 -0.2652 -0.1445
 1052SOL    HW213261   1.770   5.778   0.486  1.3108 -1.8490 -0.9205
 1053SOL     OW13262   1.741   9.893   0.556 -0.3859  0.1565 -0.6295
 1053SOL    HW113263   1.673   9.918   0.487 -0.1446  2.1682 -0.1567
 1053SOL    HW213264   1.831   9.888   0.512 -0.2067  1.5963 -0.4548
 1054SOL     OW13265   9.871   7.158   0.383 -0.3599  0.3680  1.0148
 1054SOL    HW113266   9.937   7.205   0.443  0.7206 -0.9554  0.8804
 1054SOL    HW213267   9.886   7.060   0.388 -0.0546  0.2395 -1.6535
 1055SOL     OW13268   2.776   1.622   2.430  0.1780  0.1720  0.1237
 1055SOL    HW113269   2.732   1.657   2.347  2.7319  0.0708 -1.3173
 1055SOL    HW213270   2.862   1.578   2.405 -0.7022 -2.9890  2.4339
 1056SOL     OW13271   3.928   8.794   0.097 -0.4597  0.3264 -0.3549
 1056SOL    HW113272   3.935   8.784   0.196  0.3692 -0.3604 -0.4764
 1056SOL    HW213273   3.880   8.715   0.059  0.3425 -0.0395 -0.6262
 1057SOL     OW13274   2.268   8.038   1.454  0.0497 -0.3056  0.1216
 1057SOL    HW113275   2.234   8.060   1.546  0.4494  1.7362 -0.1994
 1057SOL    HW213276   2.359   7.996   1.461 -0.7706 -2.0387  0.7505
 1058SOL     OW13277   8.822   5.385   0.216  0.3950  0.4744 -0.4363
 1058SOL    HW113278   8.884   5.409   0.141 -0.1668  2.0520 -0.4133
 1058SOL    HW213279   8.876   5.363   0.297  0.9665  0.2434 -0.8727
 1059SOL     OW13280   2.006   9.646   1.106 -0.4686  0.0309 -0.0263
 1059SOL    HW113281   2.058   9.720   1.063 -1.5517  0.5461 -0.4689
 1059SOL    HW213282   1.992   9.573   1.039 -1.5908  0.5464 -0.3681
 1060SOL     OW13283   2.913   2.520   1.345  0.2400 -0.3057 -0.3391
 1060SOL    HW113284   3.003   2.550   1.315 -0.0313  1.0885  0.1940
 1060SOL    HW213285   2.917   2.423   1.371  1.5337 -0.2977 -0.4769
 1061SOL     OW13286   3.175   5.939   0.708 -0.2947  0.4184  0.1802
 1061SOL    HW113287   3.201   5.875   0.636 -0.8930 -2.3280  2.2936
 1061SOL    HW213288   3.075   5.949   0.709 -0.2015  1.4535 -0.1671
 1062SOL     OW13289   9.113   7.033   2.871 -0.5054 -0.2886 -0.4104
 1062SOL    HW113290   9.020   7.062   2.850 -0.9741 -1.0413  0.5969
 1062SOL    HW213291   9.150   6.980   2.794 -0.8334  0.1546 -0.8785
 1063SOL     OW13292   1.540   2.164   2.769 -0.6905  0.1393  0.2261
 1063SOL    HW113293   1.564   2.218   2.689  0.1632 -0.7109 -0.1097
 1063SOL    HW213294   1.442   2.173   2.788 -1.2116 -0.8550 -1.8478
 1064SOL     OW13295   0.932   9.842   0.204  0.2946  0.5818 -0.2233
 1064SOL    HW113296   0.976   9.766   0.155  1.2869  0.4983  0.7656
 1064SOL    HW213297   0.995   9.877   0.273 -0.5790  1.5944  0.0673
 1065SOL     OW13298   2.895   9.746   0.641 -0.1476 -0.2724 -0.1635
 1065SOL    HW113299   2.936   9.657   0.664 -0.7558 -0.8353 -1.2311
 1065SOL    HW213300   2.919   9.770   0.547  1.4195  1.5038  0.6324
 1066SOL     OW13301   9.737   7.807   1.601 -0.0532 -0.0169  0.3052
 1066SOL    HW113302   9.718   7.717   1.638  0.2874  0.0462  0.6327
 1066SOL    HW213303   9.799   7.798   1.522  1.3842  0.0648  1.3982
 1067SOL     OW13304   0.112   4.801   0.114  0.2505 -0.5716  0.1861
 1067SOL    HW113305   0.154   4.801   0.023  0.7103  0.3227  0.3935
 1067SOL    HW213306   0.163   4.862   0.174  0.0610 -1.3103  1.1062
 1068SOL     OW13307   1.462   0.941   1.656 -0.0182 -0.1544 -0.2592
 1068SOL    HW113308   1.428   0.967   1.565  2.2418  0.5144 -0.9288
 1068SOL    HW213309   1.482   1.023   1.709 -1.3003 -0.5446  0.8611
 1069SOL     OW13310   1.566   8.786   2.376  0.1433 -0.2751  0.6015
 1069SOL    HW113311   1.520   8.700   2.353 -1.2672  0.7764 -0.6204
 1069SOL    HW213312   1.656   8.766   2.416 -1.6366 -2.3748  3.7486
 1070SOL     OW13313   0.896   0.945   1.926 -0.1583  0.3036 -1.0543
 1070SOL    HW113314   0.802   0.911   1.924 -0.5397  1.2456  0.1458
 1070SOL    HW213315   0.898   1.037   1.887  0.1599  0.5208 -0.5193
 1071SOL     OW13316   3.345   8.602   1.006 -0.0362  0.0533  0.0190
 1071SOL    HW113317   3.426   8.608   0.948  1.5783 -1.7612  2.0155
 1071SOL    HW213318   3.317   8.507   1.014 -1.3978  0.5037  0.6460
 1072SOL     OW13319   3.355   8.323   0.887 -0.4418 -0.2231 -0.5439
 1072SOL    HW113320   3.317   8.245   0.837  0.6100 -0.6375 -0.7036
 1072SOL    HW213321   3.453   8.330   0.868 -0.3389  0.5400  0.2607
 1073SOL     OW13322   1.295   4.875   1.676 -0.1443 -0.3587 -0.0303
 1073SOL    HW113323   1.393   4.875   1.698  0.1859 -1.8922 -1.4093
 1073SOL    HW213324   1.247   4.938   1.737  1.5703 -0.2724  1.2626
 1074SOL     OW13325   9.954   3.436   1.976 -0.4691  0.2944 -0.0988
 1074SOL    HW113326   9.926   3.501   1.905  1.9230  0.5661 -0.8169
 1074SOL    HW213327  10.048   3.407   1.960 -1.2606 -2.8253  0.6500
 1075SOL     OW13328   3.167   2.187   0.876 -0.7610 -0.0593  0.1327
 1075SOL    HW113329   3.210   2.218   0.791  0.8440 -0.2236  0.8785
 1075SOL    HW213330   3.141   2.091   0.866 -1.1109  0.0819 -0.3681
 1076SOL     OW13331   2.048   1.837   0.347  0.0345 -0.3680  0.6090
 1076SOL    HW113332   2.075   1.850   0.442  0.9380 -1.6218  0.5211
 1076SOL    HW213333   1.956   1.798   0.344  0.7271 -2.0831  1.0138
 1077SOL     OW13334   2.291   8.602   1.700 -0.1402  0.3471 -0.3241
 1077SOL    HW113335   2.210   8.584   1.645 -1.1696 -0.2980  1.3714
 1077SOL    HW213336   2.357   8.527   1.688 -0.9386 -0.4758  0.3536
 1078SOL     OW13337   2.948   0.111   2.239  0.2813 -0.2489 -0.4568
 1078SOL    HW113338   2.898   0.032   2.274 -2.1553  0.1908 -2.7495
 1078SOL    HW213339   3.046   0.099   2.256 -0.4481 -1.6829  3.1185
 1079SOL     OW13340   9.308   5.660   0.759  0.2916  0.2245 -0.1267
 1079SOL    HW113341   9.346   5.721   0.689 -0.1910 -0.1764 -0.7456
 1079SOL    HW213342   9.293   5.570   0.719 -1.4751  0.4144  0.0413
 1080SOL     OW13343   9.916   0.514   1.419 -0.4340 -0.2594  0.0739
 1080SOL    HW113344   9.911   0.564   1.506  0.5078  0.0947 -0.0757
 1080SOL    HW213345   9.906   0.578   1.343  0.2903 -0.3594 -0.1099
 1081SOL     OW13346   1.637   8.940   0.567 -0.3677  0.5243  0.1395
 1081SOL    HW113347   1.627   8.998   0.648  1.8610  1.2479 -0.0549
 1081SOL    HW213348   1.679   8.853   0.593 -1.3833  0.0045  0.0461
 1082SOL     OW13349   3.918   9.288   1.805  0.0471 -0.3917  0.3217
 1082SOL    HW113350   3.921   9.201   1.755  0.4561 -0.6763  0.8465
 1082SOL    HW213351   3.973   9.356   1.756 -0.1732 -0.4569 -0.0241
 1083SOL     OW13352   1.751   8.928   1.394  0.4167  0.7469 -0.4993
 1083SOL    HW113353   1.780   8.995   1.325  1.1649  0.4461 -0.4861
 1083SOL    HW213354   1.808   8.939   1.476 -0.9561  1.6026  0.3647
 1084SOL     OW13355   0.728   4.965   2.011 -0.7521  0.3229  0.4675
 1084SOL    HW113356   0.785   4.902   2.064  2.4018  1.0513 -1.8927
 1084SOL    HW213357   0.753   4.960   1.915 -3.9913  1.5055 -0.4922
 1085SOL     OW13358   4.136   2.507   2.837  0.0875 -0.1522  0.1092
 1085SOL    HW113359   4.160   2.412   2.858 -1.2324 -0.6355 -0.5146
 1085SOL    HW213360   4.147   2.523   2.739 -0.7693  0.0071  0.0343
 1086SOL     OW13361   3.362   1.353   2.878  0.2135  0.2869  0.2043
 1086SOL    HW113362   3.288   1.308   2.927  0.9621 -1.1234  0.0598
 1086SOL    HW213363   3.337   1.364   2.782 -0.5430  1.4824  0.5263
 1087SOL     OW13364   3.456   9.305   2.487 -0.0799 -0.2296  0.2505
 1087SOL    HW113365   3.520   9.333   2.415  0.8800 -0.1657  1.1152
 1087SOL    HW213366   3.486   9.342   2.575 -1.3261 -0.1910  0.6661
 1088SOL     OW13367   2.648   6.782   0.232 -0.4754  0.0842 -0.4777
 1088SOL    HW113368   2.693   6.871   0.233  1.5938 -0.9031 -1.8817
 1088SOL    HW213369   2.716   6.710   0.221 -2.0800 -1.7217  1.0012
 1089SOL     OW13370   0.743   2.260   2.327  0.0623 -0.3946 -0.2618
 1089SOL    HW113371   0.733   2.166   2.361  1.0548 -0.7345 -0.8741
 1089SOL    HW213372   0.661   2.313   2.348 -0.3739 -1.3202  0.3637
 1090SOL     OW13373   2.948   1.271   0.712 -0.6695  0.1900  0.1248
 1090SOL    HW113374   3.042   1.255   0.743 -0.6738 -0.5869 -0.2453
 1090SOL    HW213375   2.891   1.296   0.790 -0.3482 -0.2429  0.5003
 1091SOL     OW13376   8.530   7.131   2.358  0.2347  0.1829  0.1108
 1091SOL    HW113377   8.611   7.149   2.414  0.9241 -0.8024 -0.5651
 1091SOL    HW213378   8.557   7.087   2.273 -0.9875  0.0914 -0.2435
 1092SOL     OW13379   9.351   5.283   0.721  0.0966  0.1317  0.4881
 1092SOL    HW113380   9.352   5.336   0.636 -0.4982 -1.5144 -0.5692
 1092SOL    HW213381   9.363   5.186   0.700  1.0190 -0.1879  2.3827
 1093SOL     OW13382   2.804   9.215   1.033  0.1164  0.1887 -0.4388
 1093SOL    HW113383   2.877   9.255   1.089 -2.1816  1.6388  1.6143
 1093SOL    HW213384   2.786   9.275   0.955  1.9477 -0.8211 -1.6800
 1094SOL     OW13385   4.542   1.184   0.933  0.5454 -0.1252 -0.0945
 1094SOL    HW113386   4.444   1.176   0.919  0.5431 -2.3470  0.9290
 1094SOL    HW213387   4.560   1.250   1.007 -0.2275 -0.5067  0.4357
 1095SOL     OW13388   4.159   0.042   1.011  0.1612 -0.5534  0.0074
 1095SOL    HW113389   4.193   0.088   0.929 -0.8225 -2.3221 -1.4124
 1095SOL    HW213390   4.226  -0.025   1.043 -0.5247 -1.6665 -0.8481
 1096SOL     OW13391   0.424   4.628   0.300 -0.8179 -0.2463 -0.1774
 1096SOL    HW113392   0.488   4.560   0.336 -2.6169 -1.4943  0.7131
 1096SOL    HW213393   0.380   4.593   0.218 -3.5204 -1.1851  1.6148
 1097SOL     OW13394   0.403   3.389   0.997 -0.0238 -0.1993  0.5410
 1097SOL    HW113395   0.383   3.359   1.090 -0.3838 -2.2704 -0.1790
 1097SOL    HW213396   0.326   3.443   0.962 -0.4822 -0.5965  0.9426
 1098SOL     OW13397   1.640   9.801   1.014 -0.0336  0.1171 -0.6434
 1098SOL    HW113398   1.548   9.836   0.995  0.3886  1.2704 -0.5957
 1098SOL    HW213399   1.696   9.808   0.932  1.5773  4.4424  0.6856
 1099SOL     OW13400   8.804   6.514   0.911 -0.1384  0.4920 -0.2099
 1099SOL    HW113401   8.749   6.597   0.912  0.5517  0.9480  0.5911
 1099SOL    HW213402   8.821   6.484   1.005  1.9439  1.0252 -0.3893
 1100SOL     OW13403   0.958   0.849   2.647  0.3086 -0.0438 -0.6405
 1100SOL    HW113404   0.925   0.925   2.591  0.2088 -0.6860 -1.4597
 1100SOL    HW213405   0.881   0.809   2.698  0.4942  0.9037  0.4220
 1101SOL     OW13406   0.460   5.777   1.657  0.1256 -0.0926 -0.3115
 1101SOL    HW113407   0.545   5.748   1.613  0.1183 -3.1035  1.5140
 1101SOL    HW213408   0.468   5.765   1.756 -2.1559  0.3328 -0.0521
 1102SOL     OW13409   1.625   2.661   0.640  0.1159 -0.0118 -0.1566
 1102SOL    HW113410   1.626   2.726   0.564 -1.4607 -0.2205 -0.3569
 1102SOL    HW213411   1.540   2.609   0.640  0.0505  0.0318  1.7883
 1103SOL     OW13412   2.113   6.993   2.889 -0.2805 -0.0485  0.0828
 1103SOL    HW113413   2.152   7.007   2.797 -1.2618 -1.1529 -0.5170
 1103SOL    HW213414   2.147   7.064   2.950  0.5714  0.5778 -1.0822
 1104SOL     OW13415   0.610   2.515   1.444  0.1533  0.4864  0.2313
 1104SOL    HW113416   0.556   2.594   1.414 -0.0337  0.1712 -0.2787
 1104SOL    HW213417   0.662   2.479   1.366 -1.4515 -1.2294 -0.0880
 1105SOL     OW13418   2.401   2.435   2.000 -0.2374 -0.2579 -0.3632
 1105SOL    HW113419   2.477   2.418   1.937  0.6706 -0.9273  0.9085
 1105SOL    HW213420   2.317   2.396   1.961  0.1647  0.0064 -1.5185
 1106SOL     OW13421   9.645   4.835   0.758 -0.5834  0.5122  0.3213
 1106SOL    HW113422   9.549   4.821   0.781 -0.5730 -0.1209 -0.0325
 1106SOL    HW213423   9.651   4.893   0.676 -0.6898 -0.5830 -0.4654
 1107SOL     OW13424   2.310   5.932   0.804  0.1726  0.3173  0.4365
 1107SOL    HW113425   2.254   5.936   0.887  0.0849 -0.6739  0.4266
 1107SOL    HW213426   2.395   5.983   0.819 -1.1316  2.6637  0.1335
 1108SOL     OW13427   9.885   7.832   2.117 -0.2309 -0.2978 -0.0974
 1108SOL    HW113428   9.943   7.911   2.134 -0.5869 -0.3888  1.6377
 1108SOL    HW213429   9.918   7.754   2.170 -2.0394 -0.2839  1.0987
 1109SOL     OW13430   2.784   4.209   1.792  0.1658  0.3561 -0.3172
 1109SOL    HW113431   2.846   4.265   1.848  1.7200 -0.9877 -0.6790
 1109SOL    HW213432   2.709   4.266   1.760  1.3997  2.1129 -0.1711
 1110SOL     OW13433   3.023   8.733   1.005 -0.4568 -0.3012 -0.3903
 1110SOL    HW113434   3.090   8.739   1.079 -1.5194 -1.7839  0.7170
 1110SOL    HW213435   2.943   8.789   1.028 -1.3719 -1.8302  0.2443
 1111SOL     OW13436   0.890   1.415   0.616  0.3787  0.1486 -0.1805
 1111SOL    HW113437   0.804   1.465   0.630  2.1958  2.8924  1.5743
 1111SOL    HW213438   0.872   1.317   0.622 -2.5456  0.6839  0.6983
 1112SOL     OW13439   1.594   4.095   1.024  0.3791 -0.3054  0.8820
 1112SOL    HW113440   1.611   4.179   1.075  1.5055 -0.3619  0.6038
 1112SOL    HW213441   1.674   4.072   0.969 -1.2207  0.4146 -1.8591
 1113SOL     OW13442   0.034   4.193   1.254  0.2789  0.4911  0.4042
 1113SOL    HW113443   0.098   4.209   1.328  1.5998  2.3088 -1.0698
 1113SOL    HW213444   0.084   4.166   1.172 -0.8979  1.1605 -0.5515
 1114SOL     OW13445   3.826   9.077   0.521 -0.6304 -0.1071 -0.6826
 1114SOL    HW113446   3.774   9.116   0.596 -0.9079  0.4053 -1.1374
 1114SOL    HW213447   3.859   9.150   0.461  0.9306 -0.3913 -0.1941
 1115SOL     OW13448   4.302   3.865   2.038 -0.1220 -0.3574 -0.5881
 1115SOL    HW113449   4.298   3.798   1.964  1.3497 -2.4684  1.1577
 1115SOL    HW213450   4.231   3.846   2.105  2.0493 -2.0049  1.3335
 1116SOL     OW13451   1.964   4.947   0.172  0.1139  0.7110 -0.3379
 1116SOL    HW113452   1.927   4.859   0.201 -0.9252  0.6281 -1.8123
 1116SOL    HW213453   1.935   5.018   0.236 -2.5550  0.6217 -1.3905
 1117SOL     OW13454   3.761   2.272   2.668 -0.0102 -0.4382  0.1324
 1117SOL    HW113455   3.829   2.311   2.607 -0.7374  0.9543  0.2005
 1117SOL    HW213456   3.764   2.318   2.757 -1.4830  0.0859 -0.0834
 1118SOL     OW13457   2.363   5.385   2.778 -0.1278  0.1689 -0.2150
 1118SOL    HW113458   2.372   5.482   2.798  1.7214  0.5864 -2.8849
 1118SOL    HW213459   2.408   5.332   2.850 -0.9530  1.2770  1.1345
 1119SOL     OW13460   2.764   7.822   0.890 -0.1305  0.1693 -0.1909
 1119SOL    HW113461   2.733   7.727   0.896 -1.1170  0.4149 -1.1436
 1119SOL    HW213462   2.743   7.858   0.799 -1.6070  1.9384  0.8209
 1120SOL     OW13463   1.217   2.227   2.459  0.4902  0.6771  0.0842
 1120SOL    HW113464   1.308   2.257   2.431  0.4546  1.1355  0.4386
 1120SOL    HW213465   1.164   2.200   2.379  1.1634 -0.2379 -0.0593
 1121SOL     OW13466   2.236   0.805   1.183  0.2525 -0.1746  0.1377
 1121SOL    HW113467   2.249   0.855   1.097 -1.6373  0.2356  0.0573
 1121SOL    HW213468   2.246   0.868   1.260  2.7673 -0.7127  0.2714
 1122SOL     OW13469   2.850   1.877   2.874 -0.4505 -0.1015  0.4883
 1122SOL    HW113470   2.776   1.934   2.838  0.1899  0.2184 -0.3329
 1122SOL    HW213471   2.818   1.829   2.955 -0.6437  2.2820  1.8608
 1123SOL     OW13472   3.430   8.431   2.886 -0.2418 -0.3060  0.0844
 1123SOL    HW113473   3.393   8.412   2.977 -1.2962  0.0137 -0.2590
 1123SOL    HW213474   3.528   8.413   2.885  0.1982  1.8751  1.9045
 1124SOL     OW13475   0.305   9.770   2.271  0.4124 -0.0313 -0.0093
 1124SOL    HW113476   0.343   9.855   2.235 -2.4670  0.8366 -1.1173
 1124SOL    HW213477   0.239   9.790   2.343 -2.4949 -1.1027 -2.2758
 1125SOL     OW13478   9.241   1.989   2.878  0.7702  1.0701  0.7764
 1125SOL    HW113479   9.212   2.042   2.798  0.4693  0.5901  0.5679
 1125SOL    HW213480   9.226   1.892   2.861  0.9376  0.9487  1.3207
 1126SOL     OW13481   0.175   9.171   2.061  0.2301 -0.3377  0.1067
 1126SOL    HW113482   0.274   9.158   2.067  0.2222 -0.4172  0.0556
 1126SOL    HW213483   0.130   9.082   2.056  0.2089 -0.2731 -0.7884
 1127SOL     OW13484   0.873   5.425   1.809  0.1466  0.2801 -0.4945
 1127SOL    HW113485   0.916   5.483   1.878 -0.0207  0.2881 -0.3952
 1127SOL    HW213486   0.854   5.479   1.727  1.2919  0.0189 -0.9342
 1128SOL     OW13487   2.171   8.051   0.837 -0.1385 -0.0115 -0.3325
 1128SOL    HW113488   2.205   8.061   0.744  1.7841  0.2031  0.3732
 1128SOL    HW213489   2.169   7.954   0.862 -0.3117 -0.0428 -0.4689
 1129SOL     OW13490   2.268   6.121   2.547 -0.0649 -0.1691 -0.1381
 1129SOL    HW113491   2.253   6.061   2.468 -0.4329 -0.3644  0.0801
 1129SOL    HW213492   2.219   6.085   2.626 -0.4562  0.5182 -0.0577
 1130SOL     OW13493   2.505   7.590   2.461  0.4212 -0.8936 -0.2811
 1130SOL    HW113494   2.504   7.689   2.445  1.4962 -0.8352 -0.0356
 1130SOL    HW213495   2.430   7.547   2.411 -0.2736  0.0930 -0.0963
 1131SOL     OW13496   1.462   2.679   2.767  0.6799  0.3609  0.2377
 1131SOL    HW113497   1.464   2.642   2.675  2.5720  0.5198  0.1805
 1131SOL    HW213498   1.556   2.688   2.801  0.0252  0.6042  2.0514
 1132SOL     OW13499   2.117   2.540   2.358  0.0223 -0.1464 -0.1088
 1132SOL    HW113500   2.138   2.607   2.287 -1.9709 -1.0739 -1.6356
 1132SOL    HW213501   2.100   2.587   2.445 -0.4450  1.2592 -0.9492
 1133SOL     OW13502   3.668   2.013   0.097 -0.2321  0.0268  0.5059
 1133SOL    HW113503   3.634   2.031   0.005  0.9216  1.7987  0.3980
 1133SOL    HW213504   3.767   1.998   0.094 -0.8076 -4.2801  0.9108
 1134SOL     OW13505   2.633   6.753   2.765 -0.2463 -0.0894  0.1333
 1134SOL    HW113506   2.582   6.669   2.784 -2.2023  1.0115 -0.1539
 1134SOL    HW213507   2.722   6.748   2.810 -0.1492 -2.5031 -0.2640
 1135SOL     OW13508   9.343   5.429   1.721  0.1484  0.2250  0.3814
 1135SOL    HW113509   9.340   5.410   1.623  0.5932 -0.1076  0.4287
 1135SOL    HW213510   9.287   5.363   1.771 -0.2034  0.4914  0.3356
 1136SOL     OW13511   3.875   4.830   0.942  0.2651 -0.0662  0.3075
 1136SOL    HW113512   3.918   4.896   1.004 -1.4607  1.7051 -0.3116
 1136SOL    HW213513   3.909   4.844   0.849 -0.6878  0.5284  0.0318
 1137SOL     OW13514   0.504   7.221   0.033 -0.1786  0.1727  0.4516
 1137SOL    HW113515   0.554   7.135   0.022 -1.9406 -0.6747 -1.2870
 1137SOL    HW213516   0.563   7.297   0.005  0.7693 -0.6329  0.2046
 1138SOL     OW13517   2.964   2.133   2.145 -0.4895 -0.0577  0.3980
 1138SOL    HW113518   2.940   2.037   2.156  0.5931 -0.7167 -2.5527
 1138SOL    HW213519   3.063   2.144   2.159 -1.0272  1.1743  3.7202
 1139SOL     OW13520   9.537   7.203   2.078 -0.1896 -0.5184  0.1140
 1139SOL    HW113521   9.469   7.187   2.149  0.5179 -0.8876  0.7244
 1139SOL    HW213522   9.516   7.288   2.029 -0.7753 -0.3502  0.6551
 1140SOL     OW13523   2.283   3.197   0.314  0.1197 -0.2029  0.1576
 1140SOL    HW113524   2.279   3.219   0.411 -0.8233  1.4464 -0.2417
 1140SOL    HW213525   2.195   3.215   0.271  1.1850  1.4282 -1.4732
 1141SOL     OW13526   1.549   9.657   0.740 -0.0023 -0.0033 -0.1279
 1141SOL    HW113527   1.524   9.624   0.649  1.6041  0.2403 -0.6706
 1141SOL    HW213528   1.643   9.692   0.739 -0.1951  0.6212  1.4644
 1142SOL     OW13529   9.916   0.728   1.600 -0.1388  0.4067 -0.2751
 1142SOL    HW113530   9.914   0.752   1.503 -1.1516 -1.2599 -0.6871
 1142SOL    HW213531   9.938   0.809   1.654  0.4312  1.3484 -1.8923
 1143SOL     OW13532   9.103   4.042   1.022 -0.1256 -0.1952 -0.7419
 1143SOL    HW113533   9.123   3.948   1.049 -1.3375  0.0683  1.2023
 1143SOL    HW213534   9.004   4.056   1.022  0.0899  1.4976  0.5041
 1144SOL     OW13535   0.759   0.922   1.643  0.2197 -0.2601 -0.9896
 1144SOL    HW113536   0.661   0.908   1.629 -0.3933 -0.6056  3.1871
 1144SOL    HW213537   0.776   1.017   1.670  0.7274 -0.7846  0.5829
 1145SOL     OW13538   1.454   3.862   0.957 -0.2865  0.8755  0.2657
 1145SOL    HW113539   1.511   3.942   0.972 -1.2223  1.6456 -0.2557
 1145SOL    HW213540   1.381   3.859   1.026 -1.7488  1.8515 -1.1914
 1146SOL     OW13541   9.820   6.364   0.551 -0.2240 -0.2641  0.0995
 1146SOL    HW113542   9.864   6.277   0.574 -1.1996 -0.9461 -0.5736
 1146SOL    HW213543   9.753   6.349   0.478 -1.1041  0.8742  0.6572
 1147SOL     OW13544   3.166   0.460   1.744  0.3684 -0.0007  0.6363
 1147SOL    HW113545   3.180   0.505   1.656  0.8140 -2.2057 -0.4601
 1147SOL    HW213546   3.086   0.499   1.789  0.0635  1.0812 -0.8036
 1148SOL     OW13547   3.780   4.387   2.138  0.2285  0.4516 -0.3238
 1148SOL    HW113548   3.802   4.293   2.113 -0.3622  0.1410  0.3110
 1148SOL    HW213549   3.724   4.429   2.066  2.0785  0.9442 -1.5017
 1149SOL     OW13550   8.679   5.989   0.283 -0.2908 -0.0342 -0.3613
 1149SOL    HW113551   8.594   6.041   0.289 -0.8993 -1.0319 -0.2383
 1149SOL    HW213552   8.750   6.035   0.335 -0.5019  1.3026 -1.2238
 1150SOL     OW13553   3.585   5.173   0.027  0.1463  0.6644  0.0342
 1150SOL    HW113554   3.651   5.247   0.016  0.1242  0.4681 -1.4768
 1150SOL    HW213555   3.625   5.087  -0.004 -0.6392  0.4566 -0.4200
 1151SOL     OW13556   2.008   0.304   2.460 -0.2358 -0.4718  0.1845
 1151SOL    HW113557   2.031   0.363   2.383 -3.8604  0.9801  0.1372
 1151SOL    HW213558   1.995   0.210   2.428  2.0445 -0.6499 -0.3078
 1152SOL     OW13559   9.330   2.518   1.926  0.2801 -1.0854  0.5381
 1152SOL    HW113560   9.255   2.583   1.941  1.4993  0.2840  0.7212
 1152SOL    HW213561   9.410   2.546   1.978  1.5779 -1.4492 -1.2198
 1153SOL     OW13562   3.312   1.512   2.207  0.4807 -0.0422  0.0537
 1153SOL    HW113563   3.317   1.438   2.273 -2.0262  3.0063  3.8738
 1153SOL    HW213564   3.235   1.497   2.146 -0.2949 -0.3832  1.1059
 1154SOL     OW13565   9.409   5.043   0.945 -0.2939  0.0271 -0.0078
 1154SOL    HW113566   9.441   5.137   0.957  1.2092 -0.5068  0.2853
 1154SOL    HW213567   9.351   5.038   0.864  0.6181  0.9606 -0.7351
 1155SOL     OW13568   4.668   9.008   0.562  0.0580 -0.1269  0.5362
 1155SOL    HW113569   4.751   8.954   0.546 -1.6953 -2.1229 -2.3535
 1155SOL    HW213570   4.628   8.981   0.649  0.9299 -1.2533  0.6119
 1156SOL     OW13571   1.740   6.940   1.362 -0.4970 -0.1122 -0.1528
 1156SOL    HW113572   1.825   6.951   1.414 -1.4747  1.1541  1.2110
 1156SOL    HW213573   1.687   6.865   1.400 -0.8287  0.2855  0.1840
 1157SOL     OW13574   0.847   7.685   0.754 -0.5630 -0.4115  0.2767
 1157SOL    HW113575   0.881   7.740   0.677 -0.2359  1.6179  1.8509
 1157SOL    HW213576   0.922   7.629   0.790  0.1013  1.0624  1.1895
 1158SOL     OW13577   3.819   4.383   0.789 -0.2818  0.1353 -0.3642
 1158SOL    HW113578   3.743   4.333   0.831  0.1496 -0.6416 -0.5151
 1158SOL    HW213579   3.816   4.479   0.820 -1.8687  0.3431 -1.1042
 1159SOL     OW13580   0.338   6.132   0.483  0.2070 -0.6005 -0.2123
 1159SOL    HW113581   0.329   6.136   0.383 -0.4996 -1.7058 -0.2004
 1159SOL    HW213582   0.344   6.037   0.512  0.7273 -0.2698  0.7778
 1160SOL     OW13583   9.695   2.179   2.721 -0.2741  0.0023 -0.0318
 1160SOL    HW113584   9.777   2.226   2.754  1.5054 -0.9965 -2.7897
 1160SOL    HW213585   9.650   2.132   2.797  2.2200 -0.1778  1.4052
 1161SOL     OW13586   3.073   0.941   0.033  0.1660 -0.3725 -0.2153
 1161SOL    HW113587   3.147   0.957   0.098 -1.5924 -0.8406  1.9694
 1161SOL    HW213588   3.000   1.008   0.047 -1.0628 -1.6289 -0.4096
 1162SOL     OW13589   0.529   2.527   0.312  0.9463  0.4181 -0.3674
 1162SOL    HW113590   0.457   2.468   0.275  0.4104 -0.4937  2.0470
 1162SOL    HW213591   0.487   2.607   0.355  1.3949  0.0908  0.6832
 1163SOL     OW13592   1.614   2.971   2.738  0.1645 -0.6359  0.1949
 1163SOL    HW113593   1.552   3.049   2.732  0.1601 -0.6321  0.2931
 1163SOL    HW213594   1.599   2.924   2.825  0.6639 -0.3262  0.4504
 1164SOL     OW13595   2.658   8.053   0.511 -0.0659 -0.2326 -0.2990
 1164SOL    HW113596   2.567   8.013   0.502 -0.2405  0.0625  0.1323
 1164SOL    HW213597   2.670   8.123   0.441 -1.0327  1.3273  1.0424
 1165SOL     OW13598   1.005   0.911   0.161  0.2189  0.7426 -0.1197
 1165SOL    HW113599   1.029   0.963   0.079 -0.4802  1.4132  0.0924
 1165SOL    HW213600   1.077   0.922   0.230  1.7245 -1.3604 -1.3268
 1166SOL     OW13601   9.115   3.949   2.474 -0.5133  0.6270 -0.5673
 1166SOL    HW113602   9.132   4.022   2.408  0.9010  0.5131 -0.3539
 1166SOL    HW213603   9.201   3.902   2.494 -0.5057  1.8308  2.7021
 1167SOL     OW13604   2.072   7.312   1.267  0.5279 -0.5396 -0.5257
 1167SOL    HW113605   2.100   7.216   1.261 -0.5594 -1.0998  2.4104
 1167SOL    HW213606   2.101   7.350   1.355 -0.3326  1.3973 -1.0398
 1168SOL     OW13607   1.081   5.703   1.614  0.5739  0.2315 -0.0376
 1168SOL    HW113608   1.145   5.674   1.685  0.4567  0.7071  0.2672
 1168SOL    HW213609   1.110   5.791   1.577  1.7950 -0.9856 -2.0448
 1169SOL     OW13610   1.998   4.301   1.734 -0.0471  0.4038  0.0794
 1169SOL    HW113611   1.918   4.247   1.710 -0.4712  0.5490  1.1289
 1169SOL    HW213612   2.060   4.247   1.792 -0.0113  0.7171  0.3368
 1170SOL     OW13613   0.535   6.458   1.399 -0.1850  0.2160 -0.1337
 1170SOL    HW113614   0.481   6.541   1.413  1.1416  0.7748  1.7384
 1170SOL    HW213615   0.622   6.465   1.448  0.4012 -1.8491 -0.8130
 1171SOL     OW13616   1.305   7.664   2.525  0.6623  0.7773 -0.1088
 1171SOL    HW113617   1.259   7.577   2.507  0.1436  0.9198  0.5184
 1171SOL    HW213618   1.329   7.671   2.622 -0.8259  2.0555  0.1854
 1172SOL     OW13619   3.790   3.757   2.246 -0.9149 -0.2399  0.1303
 1172SOL    HW113620   3.836   3.840   2.215 -1.0497  0.4198  1.6632
 1172SOL    HW213621   3.691   3.771   2.243 -0.9169  0.0789  1.5099
 1173SOL     OW13622   3.815   3.301   1.300  0.1162  0.2929  0.8029
 1173SOL    HW113623   3.800   3.400   1.308  1.0691  0.6230 -1.1774
 1173SOL    HW213624   3.726   3.254   1.300 -0.3336  1.1281  1.9452
 1174SOL     OW13625   1.696   3.636   0.094 -1.2578  0.6189 -0.5146
 1174SOL    HW113626   1.699   3.701   0.170 -0.9030 -1.2511  1.1026
 1174SOL    HW213627   1.722   3.545   0.127 -2.0602 -0.4139 -2.6664
 1175SOL     OW13628   1.367   3.445   0.784 -0.2515 -0.4730 -0.1776
 1175SOL    HW113629   1.288   3.401   0.741  0.3814  0.3302 -2.2701
 1175SOL    HW213630   1.356   3.544   0.779  0.2333 -0.3705  0.7996
 1176SOL     OW13631   8.482   6.182   1.603 -0.0158  0.0960 -0.4199
 1176SOL    HW113632   8.553   6.186   1.533  0.7424  1.2680  0.3812
 1176SOL    HW213633   8.492   6.261   1.664 -0.7625 -0.8051  0.8982
 1177SOL     OW13634   2.408   1.876   1.137 -0.1180 -0.2809 -0.2024
 1177SOL    HW113635   2.468   1.951   1.107 -1.4502  1.2239  0.8112
 1177SOL    HW213636   2.326   1.914   1.179 -1.6377 -2.3212 -1.2359
 1178SOL     OW13637   3.694   3.643   0.015 -0.0776  0.6762 -0.1748
 1178SOL    HW113638   3.755   3.716   0.047  0.0687 -0.2628  1.7712
 1178SOL    HW213639   3.728   3.555   0.047 -0.0102 -0.3266 -2.8727
 1179SOL     OW13640   9.969   0.122   2.209 -0.0126  0.1652  0.0323
 1179SOL    HW113641  10.000   0.027   2.214  0.1334  0.2442  0.6768
 1179SOL    HW213642   9.973   0.153   2.114  1.9429  0.1888  0.0826
 1180SOL     OW13643   9.183   6.508   2.893 -0.2915  0.1300  0.3574
 1180SOL    HW113644   9.199   6.536   2.987  1.1545  0.4592  0.0252
 1180SOL    HW213645   9.271   6.488   2.849 -0.8642  1.1534 -1.2787
 1181SOL     OW13646   2.935   2.049   1.143 -0.3067  0.7110 -0.6562
 1181SOL    HW113647   2.938   2.124   1.077  1.5229  0.0461 -1.3706
 1181SOL    HW213648   2.857   1.990   1.124 -0.3645  1.0821 -1.5955
 1182SOL     OW13649   9.727   7.518   2.713 -0.1890  0.0870 -0.4636
 1182SOL    HW113650   9.772   7.537   2.626 -2.5305  0.0263 -1.7100
 1182SOL    HW213651   9.728   7.600   2.770 -0.2536  0.6546 -1.2750
 1183SOL     OW13652   3.416   3.287   2.274  0.0967 -0.3659  0.2037
 1183SOL    HW113653   3.417   3.195   2.314 -0.7202 -0.6279 -0.3670
 1183SOL    HW213654   3.330   3.302   2.225  1.0580 -0.0486 -1.4556
 1184SOL     OW13655   3.173   1.701   2.011  0.1461 -0.3727  0.3046
 1184SOL    HW113656   3.271   1.690   2.002  0.1525 -0.6561  0.7261
 1184SOL    HW213657   3.131   1.615   2.038 -0.0471  0.0830  1.5133
 1185SOL     OW13658   2.173   4.090   1.063 -0.2902 -0.4825 -0.0078
 1185SOL    HW113659   2.146   4.173   1.111  1.3765 -0.3495  0.7415
 1185SOL    HW213660   2.166   4.012   1.124 -0.3590 -0.6599 -0.2404
 1186SOL     OW13661   1.157   5.262   2.290  0.0332  0.5140 -0.2683
 1186SOL    HW113662   1.200   5.185   2.243 -1.5773 -0.2560 -0.4935
 1186SOL    HW213663   1.226   5.309   2.345  1.0469 -1.0779 -0.1345
 1187SOL     OW13664   1.353   1.325   2.547 -0.3313 -0.0826 -0.3414
 1187SOL    HW113665   1.322   1.414   2.512  0.3082  0.5744  0.7411
 1187SOL    HW213666   1.355   1.327   2.647 -1.8901 -1.8647 -0.2547
 1188SOL     OW13667   2.338   9.675   2.815 -0.3352 -0.1267  0.4998
 1188SOL    HW113668   2.287   9.600   2.773  0.3302 -0.0067 -0.5578
 1188SOL    HW213669   2.415   9.700   2.755 -0.4573  1.2793  0.9179
 1189SOL     OW13670   3.748   3.372   0.127  0.4229 -0.4696  0.4618
 1189SOL    HW113671   3.729   3.287   0.077  0.1476  0.1892 -0.5753
 1189SOL    HW213672   3.705   3.368   0.217 -0.7997 -0.8631 -0.1211
 1190SOL     OW13673   3.407   0.639   0.664 -0.6004 -0.0637  0.5107
 1190SOL    HW113674   3.368   0.555   0.626 -2.6367  0.3673  1.6155
 1190SOL    HW213675   3.411   0.709   0.593  1.0751 -1.0592 -0.4107
 1191SOL     OW13676   1.116   8.228   2.863 -0.2161  0.5159 -0.3480
 1191SOL    HW113677   1.129   8.250   2.767 -0.8273  0.3079 -0.4791
 1191SOL    HW213678   1.180   8.156   2.890  0.2691  0.8940 -0.4776
 1192SOL     OW13679   0.797   5.958   0.197 -0.0771 -0.3155  0.1213
 1192SOL    HW113680   0.785   5.986   0.102 -2.4421  2.1952  1.0753
 1192SOL    HW213681   0.729   5.888   0.220 -0.4920  0.1636  0.3610
 1193SOL     OW13682   2.819   1.350   0.932 -0.1086  0.1438  0.0393
 1193SOL    HW113683   2.755   1.299   0.990 -0.2422  1.2265  0.8503
 1193SOL    HW213684   2.873   1.412   0.988  0.1648  0.7873 -0.9277
 1194SOL     OW13685   3.824   2.001   1.460  0.4714  0.8537  0.0179
 1194SOL    HW113686   3.748   2.020   1.398 -0.5887 -1.8727  0.4209
 1194SOL    HW213687   3.904   1.971   1.408  0.0995  0.1527 -0.1499
 1195SOL     OW13688   2.803   3.287   0.217 -0.1710 -0.3162  0.3132
 1195SOL    HW113689   2.814   3.364   0.279 -0.3656 -1.3018  1.5863
 1195SOL    HW213690   2.706   3.273   0.198 -0.1334 -0.2281  0.0552
 1196SOL     OW13691   1.162   2.969   1.861 -0.4697 -0.0935  0.0446
 1196SOL    HW113692   1.118   2.945   1.948 -0.4873  0.7842  0.2867
 1196SOL    HW213693   1.240   3.030   1.879 -0.9297  0.6940 -0.6163
 1197SOL     OW13694   9.923   0.237   0.012  0.3672 -0.7146  0.2623
 1197SOL    HW113695   9.844   0.295  -0.009  0.6250 -1.0103 -1.5810
 1197SOL    HW213696   9.929   0.225   0.111  0.3147  2.4009  0.7169
 1198SOL     OW13697   9.487   2.836   1.775  0.6420  0.0162 -0.2872
 1198SOL    HW113698   9.564   2.812   1.715 -0.9779 -1.9246 -1.6324
 1198SOL    HW213699   9.445   2.920   1.742  0.3704 -0.5120 -1.3137
 1199SOL     OW13700   3.115   3.199   0.369  0.2919 -0.2702  0.4700
 1199SOL    HW113701   3.098   3.176   0.273 -1.2001 -0.2555  0.7288
 1199SOL    HW213702   3.098   3.296   0.384 -1.8958 -0.7476  1.2691
 1200SOL     OW13703   1.150   1.471   0.032  0.1974 -0.2084 -0.0754
 1200SOL    HW113704   1.124   1.562   0.064  1.0864 -0.0430  0.1783
 1200SOL    HW213705   1.246   1.471   0.006 -0.1363 -0.7222 -1.3568
 1201SOL     OW13706   8.782   2.547   1.311 -0.1494 -0.0514 -0.0924
 1201SOL    HW113707   8.808   2.460   1.268 -1.8706 -0.8385  0.3885
 1201SOL    HW213708   8.848   2.569   1.383  1.0922 -0.2317 -1.1489
 1202SOL     OW13709   1.238   2.388   1.082 -0.0286  0.0069  0.5934
 1202SOL    HW113710   1.220   2.314   1.017 -1.1284 -0.3516  1.2715
 1202SOL    HW213711   1.154   2.442   1.094  0.9285  1.7192 -0.3225
 1203SOL     OW13712   9.297   2.671   0.401  0.4847 -0.4807 -0.2138
 1203SOL    HW113713   9.256   2.760   0.422  0.7050 -0.0807 -1.4591
 1203SOL    HW213714   9.225   2.602   0.393  0.3725 -0.5968  1.5679
 1204SOL     OW13715   9.241   3.491   0.492 -0.1204 -0.5503  0.1694
 1204SOL    HW113716   9.178   3.517   0.419 -0.8099 -3.1725 -0.2261
 1204SOL    HW213717   9.206   3.409   0.539 -0.1655  1.5624  4.0482
 1205SOL     OW13718   0.944   3.349   0.268 -0.0928  0.7621  1.1831
 1205SOL    HW113719   1.036   3.344   0.230  0.1904  0.6842  1.8748
 1205SOL    HW213720   0.891   3.271   0.237 -0.6155  1.9178 -1.0020
 1206SOL     OW13721   0.406   2.707   0.473 -0.1209 -0.7600 -0.3186
 1206SOL    HW113722   0.361   2.770   0.537 -0.1259 -1.6683  0.5920
 1206SOL    HW213723   0.372   2.614   0.489 -0.5628 -0.9092 -2.0583
 1207SOL     OW13724   1.842   2.200   2.188 -0.2314  0.1202 -0.1914
 1207SOL    HW113725   1.748   2.168   2.199 -1.2518  3.1844  0.3821
 1207SOL    HW213726   1.900   2.154   2.255 -1.4246 -1.3178 -0.1176
 1208SOL     OW13727   3.244   3.924   2.720  0.3577 -0.3884 -0.2793
 1208SOL    HW113728   3.281   3.854   2.659  1.7254  0.9486 -1.0050
 1208SOL    HW213729   3.156   3.893   2.757  0.6976 -2.2527 -0.9977
 1209SOL     OW13730   0.261   0.632   0.830 -0.1681  0.4161  0.6294
 1209SOL    HW113731   0.166   0.653   0.807 -0.4835 -0.2769  1.2683
 1209SOL    HW213732   0.310   0.604   0.748 -0.4435  1.0465  0.2475
 1210SOL     OW13733   8.539   6.495   0.593 -0.4694  0.0759 -0.1361
 1210SOL    HW113734   8.476   6.558   0.638 -1.3381 -0.4968 -0.5428
 1210SOL    HW213735   8.535   6.509   0.494  1.1637  1.0730 -0.0783
 1211SOL     OW13736   0.437   6.556   2.467  0.8051 -0.3851  0.2454
 1211SOL    HW113737   0.338   6.570   2.459  0.8509  0.0813  0.5175
 1211SOL    HW213738   0.485   6.624   2.412  0.9815 -0.5240  0.2254
 1212SOL     OW13739   2.946   9.790   1.790  0.0028  0.0124  0.0150
 1212SOL    HW113740   3.035   9.823   1.821  0.6137 -1.2051 -0.3807
 1212SOL    HW213741   2.890   9.765   1.868 -0.2217  1.3373  0.2890
 1213SOL     OW13742   8.896   1.912   1.192  0.2449 -0.2601  0.7916
 1213SOL    HW113743   8.933   1.819   1.182 -1.7504 -0.9814 -0.1602
 1213SOL    HW213744   8.823   1.912   1.259 -1.7837 -0.0224 -1.3531
 1214SOL     OW13745   9.825   8.041   1.256  0.1303 -0.4110 -0.1780
 1214SOL    HW113746   9.842   8.129   1.301  1.7957 -0.4547 -0.6752
 1214SOL    HW213747   9.812   7.970   1.325  1.5557 -0.2778  0.2378
 1215SOL     OW13748   0.060   7.974   2.758  0.1162 -0.6951 -0.4977
 1215SOL    HW113749   0.085   8.055   2.706 -0.0348 -0.8694 -0.8418
 1215SOL    HW213750  -0.019   7.995   2.817 -0.1208 -0.6805 -0.8203
 1216SOL     OW13751   4.407   0.330   2.488  0.4875 -0.1589 -1.0164
 1216SOL    HW113752   4.412   0.311   2.390  0.9947 -0.5696 -0.9152
 1216SOL    HW213753   4.405   0.429   2.502  1.4921 -0.0755 -1.4048
 1217SOL     OW13754   2.119   4.324   0.718  0.0147  0.2458  0.6575
 1217SOL    HW113755   2.164   4.333   0.807  0.7808  0.4267  0.2615
 1217SOL    HW213756   2.124   4.412   0.670  4.7603 -1.2487 -1.9588
 1218SOL     OW13757   2.627   2.334   0.028 -0.0122 -0.2428 -0.0374
 1218SOL    HW113758   2.551   2.346  -0.036 -1.6496  1.2848  2.1437
 1218SOL    HW213759   2.702   2.395   0.003 -0.6556  0.3727 -0.4864
 1219SOL     OW13760   0.903   5.638   0.169 -0.4255 -0.5491 -0.2162
 1219SOL    HW113761   0.832   5.583   0.126  0.6122 -0.3130 -2.3168
 1219SOL    HW213762   0.959   5.681   0.098  0.8664  0.4898  1.3938
 1220SOL     OW13763   1.979   6.660   1.511 -0.3893  0.5370 -0.5256
 1220SOL    HW113764   1.939   6.603   1.440  0.5670  0.9765 -1.4241
 1220SOL    HW213765   1.906   6.701   1.566 -1.1037 -1.7574  0.3365
 1221SOL     OW13766   8.716   3.334   2.793 -0.3477  0.1382  0.1283
 1221SOL    HW113767   8.748   3.240   2.787 -1.2383 -0.1733  0.2586
 1221SOL    HW213768   8.685   3.365   2.703 -1.4184 -0.1785  0.3862
 1222SOL     OW13769   1.414   8.459   2.417 -0.5134  0.2325 -0.0659
 1222SOL    HW113770   1.461   8.492   2.335 -0.9044  2.4263  0.5655
 1222SOL    HW213771   1.481   8.441   2.489 -0.4778  2.2370  0.4469
 1223SOL     OW13772   9.588   2.047   1.667 -0.1326 -0.2058 -0.6903
 1223SOL    HW113773   9.600   2.146   1.660 -0.0446 -0.1178  0.5223
 1223SOL    HW213774   9.524   2.015   1.597 -0.8636  0.8328 -0.5040
 1224SOL     OW13775   2.469   9.251   1.321 -0.6508 -0.5252  0.2209
 1224SOL    HW113776   2.371   9.264   1.337 -0.8301  0.2702 -1.3934
 1224SOL    HW213777   2.482   9.197   1.238  0.2760 -0.5555  0.3870
 1225SOL     OW13778   1.492   6.901   2.935 -0.7819  0.5075  0.0663
 1225SOL    HW113779   1.457   6.992   2.916 -0.6541  0.6277  0.4160
 1225SOL    HW213780   1.418   6.844   2.971 -0.5402  0.8533  1.1034
 1226SOL     OW13781   2.713   7.762   1.183 -0.0735  0.5355 -0.1688
 1226SOL    HW113782   2.618   7.793   1.193 -1.0325 -1.7155 -2.0611
 1226SOL    HW213783   2.770   7.840   1.158 -1.7226  1.6060 -0.7030
 1227SOL     OW13784   1.630   9.544   0.233  0.2921  0.4946  0.4252
 1227SOL    HW113785   1.573   9.625   0.214  0.1707  0.9418  2.5515
 1227SOL    HW213786   1.722   9.574   0.257  0.4686 -0.0423  0.4055
 1228SOL     OW13787   1.318   6.861   0.549  0.5385 -0.5481 -0.9849
 1228SOL    HW113788   1.310   6.766   0.518  0.4631 -0.7706 -0.2884
 1228SOL    HW213789   1.342   6.862   0.646  0.4669  0.1459 -0.9767
 1229SOL     OW13790   9.861   1.493   1.259  0.0366 -0.3063  0.4510
 1229SOL    HW113791   9.935   1.430   1.234 -2.0912 -2.4352 -0.7007
 1229SOL    HW213792   9.894   1.587   1.253  2.7383 -1.2220  0.2850
 1230SOL     OW13793   2.455   1.488   0.177  0.1677  0.2184  0.1558
 1230SOL    HW113794   2.391   1.538   0.235 -0.2677 -0.5808  0.3757
 1230SOL    HW213795   2.437   1.507   0.081  1.4486  2.2304  0.2946
 1231SOL     OW13796   9.075   4.098   2.719 -0.7934  0.0092 -0.2228
 1231SOL    HW113797   9.052   4.036   2.794 -2.2323  0.2293 -0.4704
 1231SOL    HW213798   9.087   4.045   2.635 -0.4100 -0.0999 -0.1017
 1232SOL     OW13799   4.008   9.236   0.361 -0.3665  0.1921 -0.4141
 1232SOL    HW113800   3.977   9.330   0.376 -0.6673  0.1264 -0.6129
 1232SOL    HW213801   4.054   9.230   0.273 -1.9036 -0.2170 -1.2080
 1233SOL     OW13802   3.430   1.230   2.131 -0.7542  0.4591 -0.0965
 1233SOL    HW113803   3.349   1.222   2.072 -0.7985 -1.5184  0.2044
 1233SOL    HW213804   3.414   1.180   2.216  0.2663  1.2309  0.5612
 1234SOL     OW13805   3.412   3.334   0.730  0.5480 -0.0622  0.0832
 1234SOL    HW113806   3.441   3.246   0.692  0.1063 -0.3559  0.4152
 1234SOL    HW213807   3.448   3.344   0.823 -1.0844 -0.8035  0.8161
 1235SOL     OW13808   4.910   3.593   0.624 -0.4569  0.3291  0.1325
 1235SOL    HW113809   4.833   3.646   0.586 -1.0460 -0.0186  0.8248
 1235SOL    HW213810   4.986   3.595   0.560 -1.2085  0.3033 -0.7760
 1236SOL     OW13811   0.730   3.845   1.497 -0.5541 -0.2273  0.3094
 1236SOL    HW113812   0.720   3.749   1.524 -0.0905 -0.0282  1.2109
 1236SOL    HW213813   0.797   3.889   1.556 -1.7195  0.9827  0.7522
 1237SOL     OW13814   2.891   3.801   0.056 -0.5673  0.1128  0.2519
 1237SOL    HW113815   2.802   3.772   0.092 -1.7226  0.8322 -1.9262
 1237SOL    HW213816   2.888   3.899   0.034  0.9435  0.2673  0.6799
 1238SOL     OW13817   9.066   3.884   1.444 -0.3287  0.1049  0.2782
 1238SOL    HW113818   9.089   3.929   1.530  0.2164 -0.3953  0.3970
 1238SOL    HW213819   8.970   3.902   1.421 -1.3437 -2.2211  2.4957
 1239SOL     OW13820   0.652   8.044   2.935 -0.4904 -0.0859  0.5122
 1239SOL    HW113821   0.700   8.069   3.018 -1.3217  0.1331  0.9365
 1239SOL    HW213822   0.588   7.969   2.954  1.1473 -1.7681 -0.4942
 1240SOL     OW13823   8.148   3.363   0.588  0.0403 -0.1780  0.2741
 1240SOL    HW113824   8.224   3.393   0.646 -0.1137 -0.8560  0.8262
 1240SOL    HW213825   8.073   3.331   0.645 -1.7423  3.0062 -0.1865
 1241SOL     OW13826   8.454   6.773   0.654  0.5144  0.1236 -0.0778
 1241SOL    HW113827   8.502   6.839   0.595  0.2766  1.2439  0.9466
 1241SOL    HW213828   8.378   6.732   0.604  0.5053  0.8309 -0.6516
 1242SOL     OW13829   0.343   3.018   2.371  0.1100  0.2604  0.2239
 1242SOL    HW113830   0.257   3.057   2.339 -0.5926  0.4417  2.2839
 1242SOL    HW213831   0.358   2.929   2.327 -0.8361  0.5011 -0.5884
 1243SOL     OW13832   9.984   8.734   1.776 -0.3715 -0.0981 -0.0283
 1243SOL    HW113833   9.927   8.809   1.808 -1.0907 -0.0217 -1.4369
 1243SOL    HW213834   9.995   8.667   1.849  0.0076  1.2071  1.1368
 1244SOL     OW13835   2.420   9.853   2.111 -0.0565  0.0259  0.2498
 1244SOL    HW113836   2.514   9.822   2.098  0.7163  1.4986  2.1029
 1244SOL    HW213837   2.367   9.781   2.157  0.4424 -0.3795  0.1928
 1245SOL     OW13838   8.782   7.012   0.539 -0.2098 -0.1273  0.2500
 1245SOL    HW113839   8.735   7.073   0.603 -1.5370  1.2921 -1.9944
 1245SOL    HW213840   8.717   6.980   0.470  1.4153 -0.7604 -1.0085
 1246SOL     OW13841   0.250   6.434   1.742 -0.1557  0.9978 -0.5554
 1246SOL    HW113842   0.198   6.382   1.809  0.5259  1.4285  0.3279
 1246SOL    HW213843   0.202   6.435   1.655 -1.0248  0.3833 -0.0853
 1247SOL     OW13844   9.726   5.696   2.206  0.1077  0.2104  1.2390
 1247SOL    HW113845   9.760   5.749   2.128 -0.9411  0.9850  1.3013
 1247SOL    HW213846   9.638   5.654   2.183 -1.0433  1.8308  2.5704
 1248SOL     OW13847   9.186   5.109   0.291  0.0143  0.2752  0.0455
 1248SOL    HW113848   9.114   5.177   0.301  0.2053  0.8115 -2.0701
 1248SOL    HW213849   9.217   5.106   0.196 -0.2681 -3.0252 -0.0283
 1249SOL     OW13850   1.615   1.897   1.728 -0.5701  0.1227  0.5145
 1249SOL    HW113851   1.655   1.978   1.684  0.6767 -0.3747  0.6985
 1249SOL    HW213852   1.686   1.849   1.780 -1.8245  0.2445  2.4140
 1250SOL     OW13853   0.260   6.890   2.171  0.3542  0.1577 -0.2838
 1250SOL    HW113854   0.209   6.825   2.114  0.2075 -1.0793  1.2344
 1250SOL    HW213855   0.258   6.980   2.128 -0.9528 -0.4410 -1.5277
 1251SOL     OW13856   0.834   1.831   1.710 -0.3216  0.3627 -0.1066
 1251SOL    HW113857   0.889   1.888   1.770  0.9006 -0.5695 -0.3294
 1251SOL    HW213858   0.740   1.866   1.707 -0.4154  0.3506  2.3928
 1252SOL     OW13859   2.087   7.139   0.338  0.2553  0.4124  0.4932
 1252SOL    HW113860   2.002   7.096   0.308  0.5078  0.1256  0.1995
 1252SOL    HW213861   2.065   7.212   0.403 -0.2116  0.2914  0.4756
 1253SOL     OW13862   3.907   1.924   1.943 -0.7097 -0.0033 -0.0683
 1253SOL    HW113863   3.840   1.963   2.006 -0.2241  1.2011 -0.2884
 1253SOL    HW213864   3.898   1.824   1.942 -0.6593 -0.0488  1.9717
 1254SOL     OW13865   1.646   4.395   1.631 -0.1016 -0.3262  0.1069
 1254SOL    HW113866   1.566   4.358   1.585 -2.0215  1.8094  1.6151
 1254SOL    HW213867   1.682   4.473   1.580  0.1961 -0.4227  0.1630
 1255SOL     OW13868   2.186   9.237   1.351  0.2120  0.4152  0.6634
 1255SOL    HW113869   2.102   9.269   1.393 -0.1496  1.1670 -0.6252
 1255SOL    HW213870   2.179   9.243   1.252  0.2818 -3.2313  0.3538
 1256SOL     OW13871   1.143   0.901   2.032  0.1621 -0.1830 -0.7686
 1256SOL    HW113872   1.055   0.896   1.985  0.2285  0.0066 -0.9138
 1256SOL    HW213873   1.200   0.823   2.005 -0.4497 -1.0319  0.3269
 1257SOL     OW13874   3.207   0.542   2.406 -0.1445 -0.1103  0.8600
 1257SOL    HW113875   3.229   0.604   2.481  0.0290  1.1739 -0.2416
 1257SOL    HW213876   3.216   0.447   2.437  0.4952  0.4104  2.2827
 1258SOL     OW13877   2.760   7.525   2.226 -0.0698  0.2509 -0.3408
 1258SOL    HW113878   2.727   7.608   2.180  1.2999  0.4030 -1.0743
 1258SOL    HW213879   2.682   7.475   2.263 -1.1414  0.6516 -1.9648
 1259SOL     OW13880   0.724   3.805   2.606  0.2962 -0.1052  0.0554
 1259SOL    HW113881   0.809   3.780   2.651  1.3520  1.6324 -0.8836
 1259SOL    HW213882   0.650   3.746   2.637  2.2197 -2.8878 -0.5084
 1260SOL     OW13883   2.623   2.671   0.409  0.0643  0.2187  0.0176
 1260SOL    HW113884   2.534   2.628   0.396 -0.9336  2.2130 -0.0066
 1260SOL    HW213885   2.648   2.721   0.326  0.0223  1.7468  0.9035
 1261SOL     OW13886   2.745   1.108   0.001  0.5507  0.1790 -0.4467
 1261SOL    HW113887   2.709   1.166   0.075  0.1740 -0.3332 -0.2226
 1261SOL    HW213888   2.705   1.136  -0.086  0.2122  0.1290 -0.3085
 1262SOL     OW13889   1.450   2.401   1.927  0.1234 -0.4606 -0.0174
 1262SOL    HW113890   1.360   2.385   1.968  0.8155 -1.7298  1.0605
 1262SOL    HW213891   1.446   2.382   1.829 -0.7659 -0.5371  0.0278
 1263SOL     OW13892   1.582   8.794   2.734  0.0115  0.3237  0.0475
 1263SOL    HW113893   1.562   8.882   2.692 -1.1184 -0.7099 -1.6313
 1263SOL    HW213894   1.675   8.796   2.771 -0.3027  2.4907  0.7950
 1264SOL     OW13895   3.249   4.698   0.408 -0.4817 -0.1296  0.0254
 1264SOL    HW113896   3.262   4.794   0.433 -1.3011 -0.6288  2.4672
 1264SOL    HW213897   3.338   4.655   0.394 -0.0474  0.5163  0.7238
 1265SOL     OW13898   3.193   8.606   2.018  0.3287  0.3518 -0.5724
 1265SOL    HW113899   3.229   8.520   2.054 -1.3404  0.0573  0.4391
 1265SOL    HW213900   3.202   8.678   2.087  2.9231  1.3388 -1.8820
 1266SOL     OW13901   8.952   4.806   0.283 -0.6147 -0.0273 -0.2509
 1266SOL    HW113902   9.012   4.785   0.206 -1.1423  0.2544 -0.7401
 1266SOL    HW213903   8.865   4.844   0.249  0.0426  2.2928  0.5692
 1267SOL     OW13904   2.124   5.356   1.114 -0.0464  0.6722 -0.6706
 1267SOL    HW113905   2.157   5.415   1.040 -0.9327 -0.1970 -1.7760
 1267SOL    HW213906   2.046   5.398   1.159 -0.2388  0.6788 -1.0046
 1268SOL     OW13907   4.325   0.049   0.008  0.8938  0.0783  0.4690
 1268SOL    HW113908   4.375   0.016  -0.072 -2.1627  0.4031 -1.6462
 1268SOL    HW213909   4.317   0.148   0.004  2.6036  0.3202  2.3552
 1269SOL     OW13910   0.837   7.707   1.742 -0.4255 -0.1018  0.4177
 1269SOL    HW113911   0.749   7.705   1.693  0.3888  0.9840 -1.1229
 1269SOL    HW213912   0.897   7.636   1.704  0.7344  1.7114 -1.2064
 1270SOL     OW13913   3.188   0.117   1.965  0.3872 -0.8488 -0.3960
 1270SOL    HW113914   3.218   0.163   1.881 -2.2707 -1.5902 -1.8189
 1270SOL    HW213915   3.171   0.020   1.945 -0.5793 -0.9590  0.9041
 1271SOL     OW13916   3.876   1.252   2.159 -0.3522 -0.4113 -0.1815
 1271SOL    HW113917   3.799   1.254   2.223  0.2207 -1.2637  0.5630
 1271SOL    HW213918   3.847   1.213   2.072 -1.1021  0.6088 -0.4011
 1272SOL     OW13919   1.521   4.124   1.575 -0.6844 -0.4794 -0.6579
 1272SOL    HW113920   1.425   4.148   1.564 -0.7319 -0.0946  0.5903
 1272SOL    HW213921   1.537   4.089   1.667  0.8437  1.7659 -0.0518
 1273SOL     OW13922   2.868   3.951   1.719 -0.3768 -0.0583  0.1688
 1273SOL    HW113923   2.903   3.883   1.783 -1.2094 -0.5815  0.0833
 1273SOL    HW213924   2.824   4.025   1.769 -0.1798  0.0122  0.2369
 1274SOL     OW13925   1.735   6.929   1.060 -0.1686  0.4179  0.6597
 1274SOL    HW113926   1.646   6.942   1.016 -0.6895 -0.1258  1.5363
 1274SOL    HW213927   1.726   6.944   1.159 -0.4955 -4.7780  1.5452
 1275SOL     OW13928   9.016   2.591   1.938 -0.5307 -0.2234 -0.0310
 1275SOL    HW113929   9.020   2.652   2.018  0.2637 -0.1326 -0.1383
 1275SOL    HW213930   8.971   2.639   1.863 -0.4762  0.0052  0.0818
 1276SOL     OW13931   9.532   2.480   1.500  0.6335  0.1931  0.0488
 1276SOL    HW113932   9.437   2.504   1.524  0.5300 -1.5287  1.4799
 1276SOL    HW213933   9.535   2.448   1.406 -0.0892  0.8893 -0.2239
 1277SOL     OW13934   9.095   6.733   0.540  0.0282 -0.0097  0.1793
 1277SOL    HW113935   9.168   6.667   0.525 -1.0311 -1.1511 -0.0658
 1277SOL    HW213936   9.083   6.788   0.457  1.1546  0.7634  0.5082
 1278SOL     OW13937  10.000   5.149   0.285  0.2023 -0.1289 -0.3297
 1278SOL    HW113938  10.019   5.086   0.360 -0.3780  0.6918  0.5199
 1278SOL    HW213939   9.901   5.153   0.269  0.1340  1.4840  0.4419
 1279SOL     OW13940   0.705   5.177   2.169 -0.6033 -0.4363 -0.6671
 1279SOL    HW113941   0.763   5.161   2.249  2.4169  1.9603 -2.2762
 1279SOL    HW213942   0.712   5.100   2.106 -0.1443 -0.7074 -0.2863
 1280SOL     OW13943   2.847   4.413   0.029 -0.0963  0.2473 -0.3627
 1280SOL    HW113944   2.766   4.397  -0.026 -0.5299 -0.6194  0.5319
 1280SOL    HW213945   2.822   4.458   0.114  0.2830 -0.6037  0.2041
 1281SOL     OW13946   9.652   3.268   1.118 -0.0372  0.7032  0.8359
 1281SOL    HW113947   9.662   3.297   1.023  1.3076  0.1325  0.7874
 1281SOL    HW213948   9.555   3.255   1.139 -0.3606  1.0932 -0.3788
 1282SOL     OW13949   3.216   5.590   1.940 -0.1986 -0.3371  0.2106
 1282SOL    HW113950   3.235   5.670   1.996  0.6565  0.4959 -1.2212
 1282SOL    HW213951   3.302   5.554   1.904 -0.9258  1.0707 -3.1234
 1283SOL     OW13952   3.720   2.613   0.218 -0.2813 -0.4980  0.0912
 1283SOL    HW113953   3.806   2.644   0.258 -1.3532 -0.3359  2.4088
 1283SOL    HW213954   3.679   2.687   0.164 -0.8861  0.8581  2.3177
 1284SOL     OW13955   0.968   4.644   0.722 -0.5996 -0.3944  0.0869
 1284SOL    HW113956   0.993   4.720   0.782 -0.4457 -1.8237  1.8611
 1284SOL    HW213957   0.869   4.637   0.716 -0.6135 -0.5621  0.5567
 1285SOL     OW13958   0.853   4.028   1.986 -0.0829 -0.1136  0.0779
 1285SOL    HW113959   0.910   3.999   2.063 -1.1516 -0.2468  0.8158
 1285SOL    HW213960   0.817   4.119   2.004  0.1283  0.0909 -0.5238
 1286SOL     OW13961   1.268   4.685   2.010  0.0591 -0.0524 -0.4319
 1286SOL    HW113962   1.306   4.630   2.084 -0.6379  0.8110  0.5718
 1286SOL    HW213963   1.326   4.766   1.996 -0.5449  0.4655  0.0593
 1287SOL     OW13964   9.831   5.628   0.335  0.4573  0.1270 -0.4144
 1287SOL    HW113965   9.770   5.572   0.391 -0.4356  2.2312  0.7729
 1287SOL    HW213966   9.868   5.573   0.260 -1.6395 -1.6041 -0.2163
 1288SOL     OW13967   4.245   9.420   1.156  0.1230 -0.6020  0.0740
 1288SOL    HW113968   4.155   9.391   1.126  0.1482  0.0944 -0.6651
 1288SOL    HW213969   4.237   9.499   1.217  0.2989  0.1159 -0.8257
 1289SOL     OW13970   9.686   8.878   1.732  0.2778  0.5250 -0.2126
 1289SOL    HW113971   9.676   8.779   1.727 -0.3057  0.5397  0.4810
 1289SOL    HW213972   9.713   8.914   1.643  0.7284 -0.2839 -0.4060
 1290SOL     OW13973   0.955   5.643   1.946 -0.4493 -0.3993 -0.2251
 1290SOL    HW113974   1.017   5.611   2.018  0.3679 -2.5738 -1.8335
 1290SOL    HW213975   0.866   5.664   1.986  0.9143  1.5617  1.9296
 1291SOL     OW13976   2.514   4.650   0.757  0.0455 -0.1331 -0.2043
 1291SOL    HW113977   2.499   4.552   0.770 -2.2438  0.4199  1.4989
 1291SOL    HW213978   2.554   4.690   0.839 -0.6027  0.6717 -0.2702
 1292SOL     OW13979   1.944   3.969   0.538 -0.2309  0.3301  0.2333
 1292SOL    HW113980   2.021   4.031   0.520 -0.4137  0.4112 -0.3033
 1292SOL    HW213981   1.859   4.017   0.518 -0.5020  0.7789  2.4310
 1293SOL     OW13982   3.670   3.760   0.725 -0.2758 -0.5003 -0.4680
 1293SOL    HW113983   3.634   3.679   0.679  0.4251 -1.0057 -0.1277
 1293SOL    HW213984   3.716   3.819   0.658 -0.7921 -0.3805 -0.7152
 1294SOL     OW13985   3.870   9.736   1.572  0.2464  0.2385 -0.3956
 1294SOL    HW113986   3.811   9.814   1.594  1.2649  1.2487 -1.1939
 1294SOL    HW213987   3.833   9.688   1.492  0.3894  0.7659 -0.7864
 1295SOL     OW13988   1.440   7.939   1.338 -0.0956 -0.5871 -0.0864
 1295SOL    HW113989   1.344   7.967   1.328 -0.5934 -2.5197 -0.9874
 1295SOL    HW213990   1.458   7.916   1.434 -0.3542  0.3674  0.1981
 1296SOL     OW13991   1.147   6.283   2.626  0.4285 -0.1780 -0.3338
 1296SOL    HW113992   1.240   6.249   2.637 -0.1108 -1.2538  1.0279
 1296SOL    HW213993   1.082   6.208   2.639 -0.6131  0.3289 -2.3033
 1297SOL     OW13994   1.247   8.640   1.448  0.0486  0.0683  0.3675
 1297SOL    HW113995   1.262   8.729   1.491 -1.8142 -0.3214  1.8751
 1297SOL    HW213996   1.268   8.568   1.514  1.9329 -0.6656 -0.9663
 1298SOL     OW13997   0.309   6.015   2.828 -0.2987 -0.8321  0.0257
 1298SOL    HW113998   0.377   5.972   2.769  1.0508 -1.2028  1.8041
 1298SOL    HW213999   0.288   5.954   2.905 -1.2795  0.0527  0.4692
 1299SOL     OW14000   2.492   6.941   2.876 -0.4551 -0.2424  0.1212
 1299SOL    HW114001   2.473   6.945   2.974 -1.9836 -0.5370 -0.1415
 1299SOL    HW214002   2.520   6.848   2.852  1.4926  0.2267  0.5376
 1300SOL     OW14003   1.242   1.541   2.272  0.2393  0.7437  0.3819
 1300SOL    HW114004   1.159   1.572   2.318 -1.5328 -1.0897 -1.4651
 1300SOL    HW214005   1.295   1.620   2.242 -1.4625  1.9561  0.4870
 1301SOL     OW14006   0.237   6.369   0.593 -0.0929  0.2553  0.3933
 1301SOL    HW114007   0.272   6.282   0.560 -1.1799  0.1391 -0.4805
 1301SOL    HW214008   0.202   6.423   0.516  0.3703  1.3771  0.9494
 1302SOL     OW14009   2.009   0.291   0.121 -0.4827  0.6192 -0.5688
 1302SOL    HW114010   1.998   0.198   0.085 -0.5223  0.3292  0.1877
 1302SOL    HW214011   2.089   0.294   0.181  1.0400  1.6724 -2.5888
 1303SOL     OW14012   1.617   1.028   0.411  0.0350  0.3510 -0.3111
 1303SOL    HW114013   1.655   0.984   0.330 -1.0544 -0.3613 -0.4451
 1303SOL    HW214014   1.661   0.990   0.493  0.0033 -0.0609 -0.4859
 1304SOL     OW14015   3.936   3.444   1.073  0.0538  0.1198 -0.4684
 1304SOL    HW114016   3.876   3.513   1.115  1.4700 -0.0929  2.0122
 1304SOL    HW214017   3.920   3.355   1.116  0.7574 -0.3457 -1.1507
 1305SOL     OW14018   0.261   7.816   0.643 -0.3404 -0.1083  0.4644
 1305SOL    HW114019   0.207   7.876   0.583 -0.2893  0.3443  0.8688
 1305SOL    HW214020   0.307   7.871   0.712 -1.4477 -0.7591  1.7383
 1306SOL     OW14021   2.955   0.995   0.646 -0.1043 -0.6163  0.5382
 1306SOL    HW114022   2.927   1.084   0.682 -0.7383 -0.4109 -0.4271
 1306SOL    HW214023   2.919   0.922   0.705 -1.2098 -0.2923  0.2782
 1307SOL     OW14024   2.384   0.263   2.355  0.0714  0.4410  1.1026
 1307SOL    HW114025   2.303   0.289   2.304  0.2923 -2.7270 -0.9738
 1307SOL    HW214026   2.453   0.336   2.349 -1.2988  1.6601 -0.0031
 1308SOL     OW14027   3.616   1.993   1.257 -0.5825  0.5954  0.7532
 1308SOL    HW114028   3.591   1.900   1.231 -2.0256  1.0602  0.4384
 1308SOL    HW214029   3.680   2.030   1.189 -2.4523  0.9464 -0.8513
 1309SOL     OW14030   8.904   6.569   1.174  0.1114 -0.7777  0.8869
 1309SOL    HW114031   8.932   6.518   1.255 -1.1566  0.0803  1.8961
 1309SOL    HW214032   8.807   6.592   1.181  0.0786 -0.3789 -0.7065
 1310SOL     OW14033   4.434   4.260   0.389 -0.4567 -0.7202 -0.0005
 1310SOL    HW114034   4.529   4.255   0.356 -0.0794 -0.5542  1.0295
 1310SOL    HW214035   4.374   4.212   0.324  0.2925 -0.6103 -0.7899
 1311SOL     OW14036   0.323   9.921   0.047 -0.3485 -0.1330 -0.3732
 1311SOL    HW114037   0.340  10.000  -0.012 -1.0421  0.1282 -0.2361
 1311SOL    HW214038   0.250   9.865   0.007  0.7576 -1.1954 -0.9266
 1312SOL     OW14039   2.671   2.353   1.067 -0.0084 -0.5353 -0.5106
 1312SOL    HW114040   2.763   2.320   1.087  0.3250  0.0052 -1.1547
 1312SOL    HW214041   2.675   2.449   1.039 -0.8535 -0.2710  0.2464
 1313SOL     OW14042   0.258   8.148   0.805 -0.3764  0.2765  0.1470
 1313SOL    HW114043   0.219   8.237   0.779 -0.9503  0.4227  1.5010
 1313SOL    HW214044   0.184   8.083   0.822  0.0435 -0.5101 -0.9718
 1314SOL     OW14045   8.980   4.988   0.512 -0.0990  0.6661  0.1951
 1314SOL    HW114046   9.023   4.945   0.433 -0.5194  1.4543 -0.4670
 1314SOL    HW214047   8.983   4.925   0.590  1.7400  0.4992 -0.0019
 1315SOL     OW14048   3.065   3.267   1.203  0.6576  0.0527  0.5295
 1315SOL    HW114049   3.052   3.210   1.122  0.7181 -0.1238  0.6441
 1315SOL    HW214050   3.142   3.328   1.188  2.6461 -2.1111  1.6283
 1316SOL     OW14051   9.927   8.991   1.145 -0.6445 -0.0613 -0.4036
 1316SOL    HW114052   9.916   8.899   1.108 -0.4504 -0.3377  0.2341
 1316SOL    HW214053  10.022   9.020   1.136 -0.3451 -0.6037  1.0021
 1317SOL     OW14054   9.208   3.651   2.090  0.3773  0.3644  0.2775
 1317SOL    HW114055   9.178   3.618   2.001 -0.5222  0.9538  0.3519
 1317SOL    HW214056   9.239   3.746   2.082 -0.1267  0.5647  0.6769
 1318SOL     OW14057   8.974   6.496   0.713 -0.0998  0.0829 -0.2107
 1318SOL    HW114058   8.903   6.497   0.784  1.4443  0.9731  1.3359
 1318SOL    HW214059   9.028   6.579   0.719  1.1696 -0.6523 -1.3081
 1319SOL     OW14060   2.617   7.063   1.183 -0.2531  0.1101  0.3181
 1319SOL    HW114061   2.579   6.974   1.157  0.1235  0.1901 -0.5239
 1319SOL    HW214062   2.716   7.062   1.169 -0.1103  0.3253  1.2839
 1320SOL     OW14063   0.844   3.917   0.469  0.6863  0.2332 -0.4481
 1320SOL    HW114064   0.865   3.994   0.529 -2.9551  0.8348  0.2106
 1320SOL    HW214065   0.900   3.838   0.494  0.3473  0.9411  2.7329
 1321SOL     OW14066   2.218   8.857   0.867 -0.5800 -0.2653  0.4112
 1321SOL    HW114067   2.169   8.889   0.948 -1.0215  1.6464 -0.5667
 1321SOL    HW214068   2.153   8.817   0.802 -0.8171  1.6443 -0.5869
 1322SOL     OW14069   3.694   0.208   1.076 -0.1520 -0.1071 -0.1236
 1322SOL    HW114070   3.751   0.174   1.151  2.3878  0.7184 -1.6180
 1322SOL    HW214071   3.645   0.290   1.106  0.4865 -0.0474  0.7722
 1323SOL     OW14072   8.596   6.198   0.022  0.4037  0.2684 -1.0878
 1323SOL    HW114073   8.644   6.267  -0.031  2.4897 -0.0301  0.3608
 1323SOL    HW214074   8.662   6.135   0.064 -1.3729 -1.7597 -1.2084
 1324SOL     OW14075   4.460   0.496   1.439 -0.7668 -0.6195  0.2440
 1324SOL    HW114076   4.449   0.577   1.497  0.0890 -0.0483 -0.3933
 1324SOL    HW214077   4.403   0.422   1.476 -1.0257  0.0495  1.2255
 1325SOL     OW14078   2.887   8.048   0.662  0.6919  0.5222  0.1201
 1325SOL    HW114079   2.893   8.113   0.737  2.1364 -0.1115  0.5798
 1325SOL    HW214080   2.809   8.071   0.604 -0.4041  1.0560  1.7681
 1326SOL     OW14081   3.675   5.877   1.959 -0.3585 -0.1848 -0.3003
 1326SOL    HW114082   3.699   5.870   1.862 -0.6905 -0.9347 -0.3372
 1326SOL    HW214083   3.609   5.950   1.972  0.6738  0.7791 -0.4464
 1327SOL     OW14084   3.284   4.784   1.822  0.5459 -0.4287  0.5887
 1327SOL    HW114085   3.285   4.686   1.804 -2.1754 -0.5523  0.9765
 1327SOL    HW214086   3.196   4.823   1.795  1.5581  1.9044  0.4931
 1328SOL     OW14087   0.771   6.095   0.449  0.4825  0.5078  0.3525
 1328SOL    HW114088   0.795   6.082   0.352 -0.7247 -0.4597  0.1776
 1328SOL    HW214089   0.694   6.158   0.455  0.4262  0.4048  0.6769
 1329SOL     OW14090   9.926   7.346   1.018 -0.2231 -1.0163  0.4596
 1329SOL    HW114091   9.939   7.261   0.968 -0.5639 -0.2066 -1.0226
 1329SOL    HW214092   9.839   7.388   0.991  0.6850  0.6099 -0.0056
 1330SOL     OW14093   2.532   7.839   0.201  0.2832 -0.5757  0.5556
 1330SOL    HW114094   2.477   7.758   0.178  0.4483 -0.7538  0.7904
 1330SOL    HW214095   2.629   7.819   0.189  0.3659 -0.6263  1.2579
 1331SOL     OW14096   0.292   4.218   1.451  0.1575 -0.9258  0.0239
 1331SOL    HW114097   0.391   4.210   1.459  0.2292 -2.3827 -1.9169
 1331SOL    HW214098   0.251   4.127   1.456 -0.9410 -0.4889 -0.9328
 1332SOL     OW14099   9.288   7.077   0.604 -0.0819  0.8234  0.2170
 1332SOL    HW114100   9.305   6.987   0.644 -1.4804 -0.6057 -2.2274
 1332SOL    HW214101   9.294   7.071   0.504  0.6049  3.6425  0.0370
 1333SOL     OW14102   1.910   6.889   2.165  0.4770 -0.3871 -0.6372
 1333SOL    HW114103   1.961   6.807   2.188 -0.7238 -0.9249  0.1112
 1333SOL    HW214104   1.974   6.966   2.154  1.1998 -0.2675  3.6324
 1334SOL     OW14105   9.963   0.548   0.650 -0.3315  0.0829  0.1433
 1334SOL    HW114106   9.953   0.618   0.721 -2.4425  0.4769 -0.5258
 1334SOL    HW214107   9.978   0.459   0.693  0.1837  0.5983  1.0452
 1335SOL     OW14108   2.075   3.848   0.767 -0.0104  0.0327 -0.0830
 1335SOL    HW114109   2.162   3.893   0.786  0.7195 -0.8912 -1.2201
 1335SOL    HW214110   2.029   3.895   0.691  0.4871 -0.7809 -0.8915
 1336SOL     OW14111   1.021   0.179   0.600  0.3620  0.4146 -0.0593
 1336SOL    HW114112   1.047   0.257   0.656  0.9742  0.5955 -0.5881
 1336SOL    HW214113   0.934   0.142   0.632  1.4026 -0.3660  1.8967
 1337SOL     OW14114   2.608   8.133   0.946 -0.8263 -0.1444  0.5319
 1337SOL    HW114115   2.675   8.077   0.994  0.0048  1.5247  1.3706
 1337SOL    HW214116   2.654   8.188   0.876 -1.8160 -1.4189 -1.1555
 1338SOL     OW14117   2.160   7.060   1.236 -0.1455 -0.3422  0.8611
 1338SOL    HW114118   2.117   7.048   1.147 -1.1740 -1.1763  1.4553
 1338SOL    HW214119   2.151   6.976   1.290 -0.2703  0.4178  2.0561
 1339SOL     OW14120   9.175   5.466   0.557  0.0055 -0.2274  0.0022
 1339SOL    HW114121   9.103   5.536   0.557  0.2885  0.1089  2.7647
 1339SOL    HW214122   9.232   5.477   0.476 -2.3948  0.1705 -1.7001
 1340SOL     OW14123   0.780   0.632   0.625 -0.5081 -0.3222  0.4825
 1340SOL    HW114124   0.717   0.709   0.630 -1.1922 -0.6601 -1.9842
 1340SOL    HW214125   0.740   0.559   0.569  0.9172 -1.6936  1.1927
 1341SOL     OW14126   3.238   1.534   1.127 -0.2498  0.3350 -0.0154
 1341SOL    HW114127   3.271   1.622   1.092 -0.7387  0.3830 -0.3555
 1341SOL    HW214128   3.141   1.523   1.104 -0.8054  0.7269  2.0332
 1342SOL     OW14129   2.063   4.286   1.259  0.5069 -0.6199 -0.0566
 1342SOL    HW114130   2.107   4.308   1.346  0.7910 -3.1809  0.4793
 1342SOL    HW214131   1.973   4.331   1.255  1.6581  1.7788  0.3400
 1343SOL     OW14132   8.523   3.663   1.095 -0.3623 -0.2530 -0.0878
 1343SOL    HW114133   8.575   3.641   1.178  0.9011  1.6320 -0.3448
 1343SOL    HW214134   8.449   3.597   1.084 -0.3668 -0.7156  2.3763
 1344SOL     OW14135   9.145   7.662   0.773  0.2238 -0.3681  0.3670
 1344SOL    HW114136   9.124   7.760   0.782 -0.2334 -0.4692  0.3980
 1344SOL    HW214137   9.242   7.651   0.754 -0.1213  0.2069 -1.8262
 1345SOL     OW14138   9.554   6.905   1.191 -0.1483  0.0584  0.3266
 1345SOL    HW114139   9.536   6.943   1.101  1.2155 -0.4438 -0.1694
 1345SOL    HW214140   9.545   6.805   1.188  1.0871 -0.0646  0.4406
 1346SOL     OW14141   0.004   7.402   0.745  0.5822 -0.0409  0.6529
 1346SOL    HW114142  -0.094   7.411   0.726  1.1626  3.0115 -1.2639
 1346SOL    HW214143   0.035   7.481   0.798  2.5533  0.6133 -1.3719
 1347SOL     OW14144   2.258   2.802   1.443 -0.0182  0.0740  0.2147
 1347SOL    HW114145   2.195   2.770   1.373  0.0549  1.2179 -0.3970
 1347SOL    HW214146   2.240   2.899   1.462  1.2140  0.2689  0.4124
 1348SOL     OW14147   2.584   4.544   1.865 -0.5436  0.0094 -0.3972
 1348SOL    HW114148   2.586   4.633   1.911  0.9946 -0.8779  1.3014
 1348SOL    HW214149   2.580   4.471   1.933  0.5338 -1.2941 -1.6936
 1349SOL     OW14150   1.249   5.465   1.060  0.2054  0.0556 -0.4652
 1349SOL    HW114151   1.261   5.396   1.131  1.5112  0.7692  0.0376
 1349SOL    HW214152   1.311   5.542   1.078 -0.6073  0.9676 -1.4876
 1350SOL     OW14153   2.866   8.328   2.714  0.0345 -0.0035  0.8727
 1350SOL    HW114154   2.917   8.255   2.760  1.4977  0.2331 -0.3388
 1350SOL    HW214155   2.859   8.407   2.775  2.1197  0.3797  0.6442
 1351SOL     OW14156   3.776   0.306   0.252 -0.7389 -0.5449  0.3337
 1351SOL    HW114157   3.845   0.306   0.323  0.1176  0.2692 -0.4816
 1351SOL    HW214158   3.705   0.239   0.274  0.2992 -1.3815  1.1769
 1352SOL     OW14159   3.311   4.952   0.496  0.1547 -0.0561 -0.1264
 1352SOL    HW114160   3.320   5.046   0.464 -1.0734  0.2671  0.4322
 1352SOL    HW214161   3.367   4.939   0.577  0.2950  0.2075 -0.1807
 1353SOL     OW14162   2.863   0.760   2.927 -0.8519  0.1186 -0.1913
 1353SOL    HW114163   2.948   0.812   2.933  0.3516 -1.9426  1.2567
 1353SOL    HW214164   2.834   0.755   2.832  0.8073  0.5893 -0.7376
 1354SOL     OW14165   1.389   9.548   2.007  0.8590 -0.1197 -0.6922
 1354SOL    HW114166   1.456   9.551   2.080 -1.0584  0.4476  1.1073
 1354SOL    HW214167   1.325   9.472   2.023 -0.5440  0.9985 -0.8753
 1355SOL     OW14168   2.115   2.757   2.160 -0.4942  0.4804  0.0698
 1355SOL    HW114169   2.185   2.828   2.150 -0.7452  0.6105 -0.8047
 1355SOL    HW214170   2.089   2.723   2.070 -0.6837 -0.4272  0.4657
 1356SOL     OW14171   1.193   6.805   1.817  0.0732  0.1511 -0.0480
 1356SOL    HW114172   1.200   6.901   1.789  1.3864  0.1791  0.3454
 1356SOL    HW214173   1.103   6.790   1.859 -0.8943  0.7336 -1.8479
 1357SOL     OW14174   2.988   0.495   2.258  0.4943  0.1723  0.4440
 1357SOL    HW114175   3.076   0.515   2.302  0.2388  0.4300  0.8434
 1357SOL    HW214176   2.917   0.552   2.300  0.1716  0.0981 -0.0056
 1358SOL     OW14177   1.768   8.646   1.402 -0.0419  0.0369 -0.5792
 1358SOL    HW114178   1.696   8.603   1.348 -2.3026  2.1562  0.6587
 1358SOL    HW214179   1.758   8.746   1.399  0.7296  0.2785  2.3978
 1359SOL     OW14180   9.533   4.961   1.186 -0.6825  0.5466 -0.6896
 1359SOL    HW114181   9.521   4.988   1.091  2.6776  0.9048 -1.0449
 1359SOL    HW214182   9.594   5.025   1.232 -1.2409 -0.3548  1.3659
 1360SOL     OW14183   3.003   9.148   0.440  0.2548  0.0863 -0.0058
 1360SOL    HW114184   2.951   9.106   0.365 -0.5679  0.1384  0.5221
 1360SOL    HW214185   3.031   9.077   0.505  1.5574 -0.0513 -0.7027
 1361SOL     OW14186   0.732   3.097   0.549  0.2816 -0.6272 -0.0619
 1361SOL    HW114187   0.688   3.095   0.460  2.0753  1.4881 -1.0624
 1361SOL    HW214188   0.665   3.117   0.620 -1.2158 -2.6770 -0.8919
 1362SOL     OW14189   9.580   2.605   0.856  0.5774 -0.1211 -0.3617
 1362SOL    HW114190   9.592   2.601   0.955  2.3295  0.2541 -0.5504
 1362SOL    HW214191   9.665   2.635   0.813 -0.5073  0.8082 -1.8999
 1363SOL     OW14192   2.288   0.557   2.711 -0.3527  0.7758  0.7578
 1363SOL    HW114193   2.385   0.578   2.697 -0.6212  1.8271  0.5052
 1363SOL    HW214194   2.273   0.539   2.809  0.2980 -0.4517  0.6436
 1364SOL     OW14195   1.463   2.645   1.667  0.3037  0.4805  0.8493
 1364SOL    HW114196   1.450   2.714   1.596  0.1540 -0.8845 -0.4925
 1364SOL    HW214197   1.527   2.575   1.634  1.9426  0.9542  2.8958
 1365SOL     OW14198   0.291   3.350   2.912 -0.4531  0.0338  0.2601
 1365SOL    HW114199   0.260   3.431   2.962 -0.7524  0.2107 -0.2149
 1365SOL    HW214200   0.230   3.273   2.934  0.1781 -0.2224  1.1741
 1366SOL     OW14201   2.078   9.880   0.832  0.3096 -0.0493  0.2078
 1366SOL    HW114202   2.101   9.975   0.811  1.0806 -0.2263  0.2594
 1366SOL    HW214203   2.141   9.844   0.900  0.8050 -0.9970 -0.7452
 1367SOL     OW14204   1.392   6.604   2.337  0.2539  0.1608  0.0642
 1367SOL    HW114205   1.348   6.585   2.250 -0.4494 -0.1440  0.4761
 1367SOL    HW214206   1.459   6.532   2.357  0.0354 -0.0566  0.0212
 1368SOL     OW14207   9.474   5.251   1.957 -0.0522 -0.2678  0.0941
 1368SOL    HW114208   9.465   5.312   1.878  0.2543  0.2240  0.4409
 1368SOL    HW214209   9.383   5.221   1.986 -0.1852 -0.1921 -0.2439
 1369SOL     OW14210   1.825   7.699   1.863 -0.4988  0.3383  0.0699
 1369SOL    HW114211   1.803   7.603   1.879 -1.5030  0.6168  0.3704
 1369SOL    HW214212   1.881   7.733   1.939  0.9972 -0.3697 -0.6989
 1370SOL     OW14213   1.628   2.165   2.377 -0.1595 -0.3783  0.0738
 1370SOL    HW114214   1.548   2.216   2.344  0.4557  1.8545  1.9276
 1370SOL    HW214215   1.623   2.070   2.344 -1.2072  0.8930 -3.6590
 1371SOL     OW14216   2.082   7.545   1.035 -0.0428 -0.3777  0.3958
 1371SOL    HW114217   2.082   7.448   1.012  2.0751 -1.0823  3.1414
 1371SOL    HW214218   2.005   7.564   1.097 -1.4344  0.0819 -1.4116
 1372SOL     OW14219   3.649   1.842   2.682  0.4634  0.2078 -0.3027
 1372SOL    HW114220   3.685   1.780   2.751  0.1661 -0.6613 -0.9108
 1372SOL    HW214221   3.695   1.826   2.595  0.5771  1.0403 -0.4066
 1373SOL     OW14222   8.589   5.086   1.134 -0.3120  0.3870  0.4863
 1373SOL    HW114223   8.528   5.037   1.197  0.5719 -0.3676  0.7769
 1373SOL    HW214224   8.555   5.078   1.041 -0.4272 -0.3981  0.5937
 1374SOL     OW14225   3.004   5.909   0.971 -0.2906  0.0118  0.2952
 1374SOL    HW114226   2.909   5.930   0.993 -0.1425 -0.1786  1.1449
 1374SOL    HW214227   3.008   5.832   0.908 -0.7312  0.6076 -0.4703
 1375SOL     OW14228   2.277   4.748   2.879  0.2748  0.0931  0.1297
 1375SOL    HW114229   2.289   4.731   2.781  1.7935  1.7170  0.0166
 1375SOL    HW214230   2.358   4.717   2.928 -0.5723 -0.9212  0.9174
 1376SOL     OW14231   4.467   1.150   1.797  0.5741  0.2519  0.1533
 1376SOL    HW114232   4.547   1.105   1.757 -1.3309 -2.1925 -0.9639
 1376SOL    HW214233   4.447   1.234   1.746  4.4192  2.7764  2.5300
 1377SOL     OW14234   9.485   2.991   2.032 -0.0433  1.1213 -0.0094
 1377SOL    HW114235   9.467   3.079   1.988  0.3455  0.9345 -0.5518
 1377SOL    HW214236   9.492   2.920   1.962 -0.5397  0.6278  0.4390
 1378SOL     OW14237   9.202   4.299   2.063 -0.3538  0.0375  0.5679
 1378SOL    HW114238   9.228   4.247   1.981  0.7910 -1.6055  1.9174
 1378SOL    HW214239   9.250   4.386   2.064 -0.2736  0.0077 -0.4462
 1379SOL     OW14240   1.969   0.931   2.207  0.4188  0.0800  0.4087
 1379SOL    HW114241   1.901   0.907   2.276 -1.2559  1.9981 -0.5212
 1379SOL    HW214242   1.946   1.020   2.166  1.1062 -1.2192 -2.9571
 1380SOL     OW14243   0.733   0.662   1.768  0.5880 -0.3526  0.1334
 1380SOL    HW114244   0.820   0.626   1.802  0.3649 -0.9218  0.0974
 1380SOL    HW214245   0.751   0.733   1.700  1.0246 -0.5633  0.0259
 1381SOL     OW14246   3.951   9.043   1.674 -0.8226  0.2266 -0.1000
 1381SOL    HW114247   3.878   8.982   1.703  0.3480 -1.0386  0.2129
 1381SOL    HW214248   4.039   8.996   1.680  0.3052  2.4264  1.7354
 1382SOL     OW14249   4.225   9.675   1.292  0.1594 -0.2781  0.2064
 1382SOL    HW114250   4.258   9.721   1.209 -2.5332 -0.5406 -1.0882
 1382SOL    HW214251   4.267   9.716   1.372  2.1493  0.5969 -1.2416
 1383SOL     OW14252   8.956   3.445   2.742  0.0397 -0.8923  0.3836
 1383SOL    HW114253   8.912   3.517   2.688  1.7599 -0.9041 -1.0576
 1383SOL    HW214254   8.888   3.402   2.801 -1.0610  1.7694  1.1394
 1384SOL     OW14255   1.997   2.096   2.778 -0.2281 -0.2690 -0.2594
 1384SOL    HW114256   1.995   2.041   2.694  2.3624  1.5776 -1.6091
 1384SOL    HW214257   1.910   2.145   2.787 -1.4900 -2.3857 -0.5108
 1385SOL     OW14258   0.927   8.773   1.672 -0.0650 -0.3349 -0.7813
 1385SOL    HW114259   0.987   8.711   1.722  1.0866  0.1868 -1.4965
 1385SOL    HW214260   0.930   8.750   1.574  0.4195  0.8719 -1.0565
 1386SOL     OW14261   2.262   1.354   2.410  0.1548 -0.5033  0.4205
 1386SOL    HW114262   2.281   1.371   2.506  1.1650 -1.7435  0.4630
 1386SOL    HW214263   2.242   1.257   2.397  0.7835 -0.4955 -0.7191
 1387SOL     OW14264   1.284   5.441   2.763  0.1167 -0.1102 -0.6746
 1387SOL    HW114265   1.200   5.436   2.817  2.2341 -1.2329  2.7283
 1387SOL    HW214266   1.293   5.533   2.724 -1.1691  1.0034  1.5481
 1388SOL     OW14267   3.222   8.128   2.250 -0.2012 -0.0007 -0.0300
 1388SOL    HW114268   3.312   8.155   2.283  0.1166 -2.5422  1.3592
 1388SOL    HW214269   3.232   8.059   2.179 -1.0366  0.6572 -0.8003
 1389SOL     OW14270   1.878   8.450   1.715  0.1909  0.0797  0.1341
 1389SOL    HW114271   1.810   8.391   1.760 -0.2360 -0.9832 -1.8466
 1389SOL    HW214272   1.913   8.404   1.633  2.2807  1.2192  0.3493
 1390SOL     OW14273   3.247   5.516   0.731 -0.7204 -0.4013 -0.4306
 1390SOL    HW114274   3.291   5.583   0.671 -0.6041 -0.4697 -0.4200
 1390SOL    HW214275   3.313   5.480   0.797 -0.8157 -0.4258 -0.3483
 1391SOL     OW14276   3.901   0.482   2.652  0.2954 -0.2677 -0.4273
 1391SOL    HW114277   3.969   0.528   2.596 -0.5012  1.9437  0.3716
 1391SOL    HW214278   3.810   0.501   2.617 -0.1572  0.3569  1.0295
 1392SOL     OW14279   0.411   2.915   1.048  0.0745  0.5264  0.5552
 1392SOL    HW114280   0.340   2.867   1.100  1.6206 -1.5151  0.8399
 1392SOL    HW214281   0.380   2.929   0.954 -1.0238  0.4034  0.8891
 1393SOL     OW14282   1.989   7.013   1.038  0.0663 -0.2734 -0.1645
 1393SOL    HW114283   2.024   6.991   0.948  0.5008  0.7370 -0.2475
 1393SOL    HW214284   1.896   6.977   1.047 -0.0763 -0.1529 -1.1058
 1394SOL     OW14285   3.269   4.327   1.286 -0.6516  0.3304  0.1979
 1394SOL    HW114286   3.341   4.343   1.218 -1.3790  0.0571 -0.6545
 1394SOL    HW214287   3.180   4.344   1.244 -1.2227 -1.7206  0.5003
 1395SOL     OW14288   9.825   3.037   2.735 -0.2693 -0.5943  0.0170
 1395SOL    HW114289   9.763   3.111   2.761  0.9300 -0.0663  1.4059
 1395SOL    HW214290   9.773   2.952   2.725 -1.4240  0.1225 -0.1625
 1396SOL     OW14291   3.255   4.392   0.245 -0.5193 -0.3261 -0.0533
 1396SOL    HW114292   3.309   4.476   0.245 -1.1623  0.1210 -2.7060
 1396SOL    HW214293   3.315   4.313   0.237 -0.1194  0.0342 -0.5639
 1397SOL     OW14294   2.868   5.312   0.234 -0.1639 -0.1719  0.5187
 1397SOL    HW114295   2.787   5.295   0.289 -0.7228  0.3888 -0.1168
 1397SOL    HW214296   2.862   5.259   0.149  0.5228 -0.7556  0.8244
 1398SOL     OW14297   1.879   1.288   1.486 -0.6829  0.1968 -0.0525
 1398SOL    HW114298   1.839   1.196   1.483 -2.0024  0.7819 -0.5009
 1398SOL    HW214299   1.940   1.295   1.565  2.0502 -2.1358 -1.8286
 1399SOL     OW14300   4.094   4.229   1.831 -0.1205 -0.0542 -0.1854
 1399SOL    HW114301   4.180   4.181   1.842 -0.5514 -1.2387 -1.8743
 1399SOL    HW214302   4.103   4.299   1.760 -0.4579  0.0580 -0.1214
 1400SOL     OW14303   9.530   7.701   0.059  0.1359  0.0212 -0.8383
 1400SOL    HW114304   9.607   7.637   0.069 -1.4561 -1.8249 -0.0631
 1400SOL    HW214305   9.444   7.651   0.065 -1.2314  2.5329  2.3416
 1401SOL     OW14306   2.738   5.801   1.260 -0.1114 -0.3316 -0.6302
 1401SOL    HW114307   2.668   5.871   1.273 -0.3478 -0.5847 -0.5549
 1401SOL    HW214308   2.821   5.827   1.311 -0.9916 -1.2692  1.3250
 1402SOL     OW14309   1.213   0.156   1.994  0.2125 -0.5062  0.6948
 1402SOL    HW114310   1.204   0.092   2.070  1.2978 -0.3663  0.9393
 1402SOL    HW214311   1.283   0.124   1.930 -1.7957 -1.4591 -1.1047
 1403SOL     OW14312   9.548   2.929   1.388 -0.3588 -0.0845 -0.3680
 1403SOL    HW114313   9.507   3.017   1.413 -1.4930 -0.4992 -0.7505
 1403SOL    HW214314   9.487   2.855   1.415  0.7952 -0.7871  0.3489
 1404SOL     OW14315   1.847   7.995   0.880 -0.2814 -0.0166  0.3248
 1404SOL    HW114316   1.920   8.061   0.900 -1.3056  1.3758 -0.4047
 1404SOL    HW214317   1.799   7.972   0.964 -0.2980  0.6382  0.4968
 1405SOL     OW14318   0.713   2.522   0.836  0.4335 -0.4039 -0.3092
 1405SOL    HW114319   0.641   2.467   0.878  0.4395 -0.7189 -0.7112
 1405SOL    HW214320   0.673   2.590   0.775  0.5799 -1.8957 -2.0747
 1406SOL     OW14321   0.807   4.077   2.585  0.9091  0.3296  0.4397
 1406SOL    HW114322   0.906   4.089   2.573  0.6286  1.1983 -1.2739
 1406SOL    HW214323   0.785   3.979   2.582  1.5472  0.2015 -0.8887
 1407SOL     OW14324   4.108   1.361   0.926  0.0196 -0.2459 -0.3974
 1407SOL    HW114325   4.047   1.375   1.004  1.9159  0.6177  0.9768
 1407SOL    HW214326   4.188   1.421   0.936  1.7165 -2.2860 -1.4737
 1408SOL     OW14327   1.269   4.185   0.558 -0.3960 -0.0472 -0.1088
 1408SOL    HW114328   1.347   4.191   0.620  0.6147 -0.5247 -1.3357
 1408SOL    HW214329   1.217   4.270   0.562  0.2200  0.3013  0.6517
 1409SOL     OW14330   2.368   3.880   0.001  0.3898 -0.0215  0.0962
 1409SOL    HW114331   2.310   3.928  -0.065  1.6837 -0.7822 -1.6591
 1409SOL    HW214332   2.464   3.887  -0.028  0.8474 -1.4770  1.1839
 1410SOL     OW14333   2.519   8.541   2.380 -0.1492  0.4566 -0.2952
 1410SOL    HW114334   2.569   8.480   2.441 -1.5765 -0.0842  0.3599
 1410SOL    HW214335   2.526   8.507   2.286  1.4073  0.8649 -0.3420
 1411SOL     OW14336   1.658   5.016   0.189 -0.0090 -0.1266  0.4528
 1411SOL    HW114337   1.654   4.926   0.145  0.4509 -0.1290  0.4181
 1411SOL    HW214338   1.605   5.013   0.274  1.9793 -1.1385  1.6850
 1412SOL     OW14339   0.535   5.889   2.678 -0.2175  0.0478  0.0903
 1412SOL    HW114340   0.556   5.987   2.681 -1.0920  0.2115  1.3910
 1412SOL    HW214341   0.488   5.867   2.592  1.8251  0.3714 -1.1314
 1413SOL     OW14342   3.495   1.813   0.181  0.5639 -0.1599  0.0695
 1413SOL    HW114343   3.400   1.841   0.174  0.3003 -1.3365 -1.3784
 1413SOL    HW214344   3.553   1.876   0.129  0.6316  0.7669  1.2533
 1414SOL     OW14345   3.691   2.422   2.937 -0.3229 -0.4600  0.0149
 1414SOL    HW114346   3.767   2.364   2.966  1.0152  0.5657 -1.3431
 1414SOL    HW214347   3.671   2.489   3.009  0.1847 -0.6238  0.3137
 1415SOL     OW14348   2.135   7.682   2.074 -0.4220  0.1887  0.0788
 1415SOL    HW114349   2.069   7.608   2.088  0.7203 -0.8001  0.3279
 1415SOL    HW214350   2.167   7.681   1.980 -2.0827  1.8092 -0.5521
 1416SOL     OW14351   3.233   1.583   2.531  0.0409  0.5344 -0.1465
 1416SOL    HW114352   3.170   1.569   2.606  0.1245 -0.9497 -0.3264
 1416SOL    HW214353   3.291   1.663   2.549  0.8849 -0.5251  1.9316
 1417SOL     OW14354   2.635   4.173   1.469  0.0523 -0.4399 -0.0140
 1417SOL    HW114355   2.673   4.081   1.470  0.2082 -0.3764 -0.0350
 1417SOL    HW214356   2.693   4.232   1.413  1.1970  0.2068  1.7959
 1418SOL     OW14357   3.992   8.524   1.051 -0.7131 -0.2324  0.0844
 1418SOL    HW114358   3.903   8.542   1.009 -1.0693  0.0022  0.9308
 1418SOL    HW214359   4.022   8.604   1.102 -0.2412 -0.4868  0.2128
 1419SOL     OW14360   3.889   9.061   0.015 -0.0979 -0.8686 -0.0062
 1419SOL    HW114361   3.960   9.119   0.055  0.7437 -1.5270 -0.5347
 1419SOL    HW214362   3.917   8.965   0.018  0.1708 -0.9182 -2.5008
 1420SOL     OW14363   8.416   6.384   0.910  0.2963  0.0955  0.0677
 1420SOL    HW114364   8.397   6.480   0.933 -0.3815  0.1467 -0.6793
 1420SOL    HW214365   8.503   6.379   0.861 -0.2762  0.5015 -1.0241
 1421SOL     OW14366   3.030   1.513   2.714  0.7492  0.3295  0.7336
 1421SOL    HW114367   2.970   1.561   2.778  0.4179 -2.2068  2.3705
 1421SOL    HW214368   2.997   1.420   2.699  2.2560  0.0553 -1.1771
 1422SOL     OW14369   0.509   9.540   0.178 -0.1794  0.7353  0.1692
 1422SOL    HW114370   0.509   9.460   0.117  0.9781  0.7280  0.1679
 1422SOL    HW214371   0.442   9.606   0.147 -0.6147  0.0877 -0.2719
 1423SOL     OW14372   2.147   8.729   2.047  0.7273 -0.3981  0.4881
 1423SOL    HW114373   2.141   8.644   2.100  0.5345 -1.3271 -1.0096
 1423SOL    HW214374   2.071   8.733   1.982  0.1130  1.4441  1.2819
 1424SOL     OW14375   0.215   6.928   0.344  0.0584  0.4205  0.1124
 1424SOL    HW114376   0.204   6.994   0.270 -0.8786 -0.3794 -0.4634
 1424SOL    HW214377   0.287   6.960   0.406 -0.6360  2.1715  0.0450
 1425SOL     OW14378   9.645   6.664   0.358  0.4067  0.1229  0.2153
 1425SOL    HW114379   9.662   6.584   0.302  1.4940 -0.2234  1.0263
 1425SOL    HW214380   9.629   6.636   0.453 -1.1525  0.7161  0.1458
 1426SOL     OW14381   1.142   0.332   0.999  0.5881 -0.2343  0.1547
 1426SOL    HW114382   1.201   0.309   0.922  1.0779 -1.1566  0.7931
 1426SOL    HW214383   1.196   0.369   1.073  0.4861 -1.7014  0.9909
 1427SOL     OW14384   2.087   2.428   1.904  0.1521  0.0111  0.1819
 1427SOL    HW114385   2.117   2.520   1.881  0.7196 -0.7517 -2.2630
 1427SOL    HW214386   2.029   2.431   1.986  0.3503  2.4823  0.2582
 1428SOL     OW14387   0.717   7.037   1.645  0.1834 -0.4227  0.1087
 1428SOL    HW114388   0.640   6.989   1.686 -0.2404 -0.4159 -0.6622
 1428SOL    HW214389   0.798   6.978   1.645  0.6564  0.1709  2.4708
 1429SOL     OW14390   3.016   3.151   0.086 -0.4671  0.0249  0.1478
 1429SOL    HW114391   3.096   3.190   0.041  0.2507 -0.8267  0.6622
 1429SOL    HW214392   2.946   3.222   0.098  0.9549  1.2525  1.4002
 1430SOL     OW14393   0.594   6.599   0.746  0.3169 -0.4088  0.3498
 1430SOL    HW114394   0.623   6.681   0.697 -1.0017  0.6321  1.3105
 1430SOL    HW214395   0.654   6.523   0.720  1.2381  0.7215 -0.9204
 1431SOL     OW14396   9.562   1.620   0.288  0.5710  0.0662  0.1020
 1431SOL    HW114397   9.583   1.524   0.308  0.3496  0.5489  2.7790
 1431SOL    HW214398   9.602   1.679   0.358  0.4306  1.9156 -1.3319
 1432SOL     OW14399   1.058   2.037   0.108 -0.0946 -0.1514 -0.7760
 1432SOL    HW114400   0.985   2.080   0.161 -0.4541 -1.0517 -0.5402
 1432SOL    HW214401   1.112   2.108   0.063 -1.3905  0.5268 -1.3210
 1433SOL     OW14402   8.460   6.195   2.037 -0.0985  0.0080 -0.0101
 1433SOL    HW114403   8.496   6.258   1.968 -1.5254  0.2394 -0.5709
 1433SOL    HW214404   8.533   6.137   2.071  0.9463  1.0026 -0.5380
 1434SOL     OW14405   8.468   2.518   1.828 -0.3350 -0.2503 -0.2158
 1434SOL    HW114406   8.506   2.484   1.914 -1.3915 -1.6817 -0.2996
 1434SOL    HW214407   8.458   2.442   1.764  1.2152  0.9210 -1.9189
 1435SOL     OW14408   2.506   9.250   0.610 -0.1401 -0.1875 -0.2293
 1435SOL    HW114409   2.604   9.233   0.607 -0.0367 -0.2492  2.3890
 1435SOL    HW214410   2.458   9.163   0.626 -0.3190  0.4349  2.7401
 1436SOL     OW14411   3.337   0.900   2.503 -0.7370 -0.8310 -0.0279
 1436SOL    HW114412   3.377   0.907   2.412 -3.0996 -0.8318 -1.1060
 1436SOL    HW214413   3.341   0.988   2.549  1.2397 -1.0333  0.2366
 1437SOL     OW14414   9.532   1.939   2.676 -0.6605 -0.2833 -0.6409
 1437SOL    HW114415   9.527   1.993   2.760 -0.5617 -1.7934  0.3556
 1437SOL    HW214416   9.493   1.991   2.600 -0.8959  1.0325  0.3721
 1438SOL     OW14417   2.204   6.637   0.495  0.1334  0.6175  0.5368
 1438SOL    HW114418   2.162   6.726   0.478  0.4574  0.8219  0.7865
 1438SOL    HW214419   2.226   6.593   0.408 -0.2131  0.6915  0.4119
 1439SOL     OW14420   8.803   7.228   2.839  0.3146 -0.1049 -0.2805
 1439SOL    HW114421   8.886   7.265   2.882  0.0116 -1.3012  1.3764
 1439SOL    HW214422   8.732   7.298   2.840  0.3694 -0.0525  1.0287
 1440SOL     OW14423   9.094   3.206   2.548  0.0289  0.4969  0.0971
 1440SOL    HW114424   9.043   3.267   2.608  1.0233  0.2641  1.2076
 1440SOL    HW214425   9.143   3.260   2.480 -0.0773  0.8595  0.3058
 1441SOL     OW14426   0.897   1.684   0.962 -0.1546  0.1269 -0.4275
 1441SOL    HW114427   0.970   1.617   0.948 -0.2360  0.0411 -0.4432
 1441SOL    HW214428   0.854   1.669   1.051 -0.4329 -0.0916 -0.5987
 1442SOL     OW14429   2.645   3.902   1.571  0.2191 -0.0367  0.3755
 1442SOL    HW114430   2.742   3.920   1.588 -0.0105  1.5865  0.0845
 1442SOL    HW214431   2.594   3.911   1.656  0.1245  0.5578  0.2575
 1443SOL     OW14432   4.260   8.961   0.292 -0.1351  0.1076  0.3549
 1443SOL    HW114433   4.313   8.913   0.363 -0.8374 -1.9402 -0.4693
 1443SOL    HW214434   4.323   9.011   0.233  0.8514 -1.5946 -0.0900
 1444SOL     OW14435   0.387   6.683   1.440 -0.0121  0.2814  0.9043
 1444SOL    HW114436   0.319   6.693   1.369 -0.0129 -2.1703  0.4987
 1444SOL    HW214437   0.395   6.768   1.492 -2.2001  1.1048 -0.0614
 1445SOL     OW14438   4.201   2.011   0.235 -0.1503  0.1001 -0.4143
 1445SOL    HW114439   4.232   2.094   0.280 -1.4621  0.2738  0.1877
 1445SOL    HW214440   4.273   1.942   0.239  0.7915  1.0696 -0.5655
 1446SOL     OW14441   3.377   2.306   2.374 -0.6938  0.3259 -0.8923
 1446SOL    HW114442   3.362   2.365   2.295 -1.0352 -1.4799 -2.2018
 1446SOL    HW214443   3.289   2.273   2.409 -0.5028  0.5124 -0.2199
 1447SOL     OW14444   4.154   9.383   2.871  0.2326 -0.5653 -0.1942
 1447SOL    HW114445   4.219   9.443   2.825 -0.1838  1.1754  1.4195
 1447SOL    HW214446   4.066   9.430   2.882 -0.4595 -1.8839  0.0834
 1448SOL     OW14447   1.880   1.989   0.655  0.6381 -0.0137  0.3402
 1448SOL    HW114448   1.955   1.923   0.650 -0.9501 -1.9106  1.0343
 1448SOL    HW214449   1.831   1.978   0.742 -2.1262 -0.7481 -1.2244
 1449SOL     OW14450   1.214   4.844   0.467  0.5399  0.7582  0.2453
 1449SOL    HW114451   1.247   4.864   0.559 -0.6894  1.3461  0.5839
 1449SOL    HW214452   1.115   4.829   0.470  0.8757 -1.8050 -0.5921
 1450SOL     OW14453   2.976   1.374   2.411  0.6148  0.4072 -0.3449
 1450SOL    HW114454   2.950   1.354   2.317 -0.0997 -2.0590  0.3355
 1450SOL    HW214455   3.056   1.434   2.412 -0.0178  1.3140 -2.4976
 1451SOL     OW14456   0.991   5.771   1.349  0.2149  0.3020  0.0704
 1451SOL    HW114457   0.981   5.738   1.443  0.3095 -0.5446 -0.2153
 1451SOL    HW214458   0.943   5.858   1.339 -2.6019 -1.1712  0.0712
 1452SOL     OW14459   8.474   4.116   1.879  0.0115  0.2273  0.1087
 1452SOL    HW114460   8.495   4.053   1.953  0.5258  0.5267  0.2180
 1452SOL    HW214461   8.493   4.210   1.908  0.1417  0.3542 -0.3720
 1453SOL     OW14462   3.618   8.438   2.032 -0.6794  0.5640  0.0054
 1453SOL    HW114463   3.642   8.404   1.941 -3.3653 -1.5352  0.0315
 1453SOL    HW214464   3.699   8.441   2.089  0.7319  0.2523 -1.9396
 1454SOL     OW14465   1.832   1.438   2.648 -0.5089  0.1451  0.0125
 1454SOL    HW114466   1.865   1.369   2.712 -2.4771  0.5702  1.5564
 1454SOL    HW214467   1.901   1.511   2.640  0.5474 -0.8151  0.2214
 1455SOL     OW14468   2.533   4.202   2.258  0.1619  0.3192 -0.0849
 1455SOL    HW114469   2.575   4.201   2.348  0.2663 -0.1377 -0.1395
 1455SOL    HW214470   2.508   4.109   2.231  1.0754  0.3128 -0.9646
 1456SOL     OW14471   9.477   1.459   1.748 -0.1233 -1.1150 -0.7612
 1456SOL    HW114472   9.430   1.430   1.664  0.7376 -3.0834 -0.5844
 1456SOL    HW214473   9.571   1.486   1.726 -0.8076  1.3011 -0.8684
 1457SOL     OW14474   3.043   5.189   2.397  0.4798  0.3409  0.2497
 1457SOL    HW114475   3.108   5.240   2.453 -0.0598  0.5516  0.6915
 1457SOL    HW214476   2.952   5.229   2.407 -0.3142 -1.8092  2.0671
 1458SOL     OW14477   0.622   8.031   1.143  0.3782 -0.4547  0.0338
 1458SOL    HW114478   0.532   8.043   1.102  0.8112 -0.6183 -1.0083
 1458SOL    HW214479   0.615   8.033   1.242 -0.4862  1.5805 -0.0448
 1459SOL     OW14480   4.507   3.097   0.136  0.6689  0.1073 -0.2591
 1459SOL    HW114481   4.522   3.195   0.149 -1.7629  0.2756  1.7063
 1459SOL    HW214482   4.581   3.046   0.180  1.1795  1.0325 -0.0259
 1460SOL     OW14483   9.310   2.620   0.911  0.3015 -0.0970  0.4471
 1460SOL    HW114484   9.287   2.569   0.994 -0.5113 -0.2320  0.1440
 1460SOL    HW214485   9.400   2.591   0.878  0.1320 -0.8672  0.6413
 1461SOL     OW14486   0.185   4.088   2.690 -0.4487 -0.3887  0.1544
 1461SOL    HW114487   0.231   4.142   2.761  2.2571  0.7238 -2.3706
 1461SOL    HW214488   0.210   3.992   2.700  0.1464 -0.1969  0.5223
 1462SOL     OW14489   9.393   6.822   1.613 -0.1459 -0.3999  0.5327
 1462SOL    HW114490   9.437   6.894   1.667  0.4318  0.6699 -1.3268
 1462SOL    HW214491   9.296   6.842   1.603  0.4935  1.5554 -2.1896
 1463SOL     OW14492   1.848   2.199   0.464  0.4767  0.3450 -0.7241
 1463SOL    HW114493   1.939   2.235   0.443 -0.5943  2.1600 -2.3741
 1463SOL    HW214494   1.856   2.127   0.534  3.2461 -0.0769 -1.4140
 1464SOL     OW14495   0.260   7.794   2.749 -0.1416  0.3324 -0.3459
 1464SOL    HW114496   0.178   7.851   2.756 -0.6696 -0.0367 -2.7152
 1464SOL    HW214497   0.280   7.777   2.652  1.3854 -1.5112  0.2545
 1465SOL     OW14498   0.573   6.272   0.452  0.1838 -0.0839 -0.2732
 1465SOL    HW114499   0.504   6.221   0.503  0.5760 -0.2488  0.0958
 1465SOL    HW214500   0.531   6.355   0.414 -0.0096  0.2709  0.6967
 1466SOL     OW14501   0.941   5.906   1.826 -0.1829 -0.0619 -0.5820
 1466SOL    HW114502   0.937   5.810   1.852  1.8921  0.1322  0.5017
 1466SOL    HW214503   0.890   5.920   1.741 -0.9485 -2.0031 -0.4490
 1467SOL     OW14504   3.573   2.684   1.119 -0.6430 -0.0379  0.5327
 1467SOL    HW114505   3.500   2.747   1.145  0.0367  1.5189 -1.2002
 1467SOL    HW214506   3.558   2.653   1.025  0.5367 -0.2261  0.3973
 1468SOL     OW14507   2.884   0.001   0.755  0.3898 -0.0900  0.1675
 1468SOL    HW114508   2.900  -0.093   0.728  0.2236 -0.2431  0.5964
 1468SOL    HW214509   2.855   0.055   0.676 -0.8088 -0.6997  0.1795
 1469SOL     OW14510   2.626   4.667   1.017 -0.2957 -0.2857 -0.1943
 1469SOL    HW114511   2.585   4.731   1.081  0.4915 -0.6620  0.7018
 1469SOL    HW214512   2.675   4.596   1.067 -0.1304 -0.8997 -1.2014
 1470SOL     OW14513   9.746   1.811   1.035  0.5058  0.1277  0.0237
 1470SOL    HW114514   9.710   1.717   1.034 -1.1650  0.7424 -0.7501
 1470SOL    HW214515   9.768   1.839   0.941 -0.4962  1.0487  0.0548
 1471SOL     OW14516   2.560   9.532   2.029  0.1433 -0.5370 -0.1774
 1471SOL    HW114517   2.483   9.516   1.968  0.8475 -1.3246 -0.8844
 1471SOL    HW214518   2.604   9.444   2.050  0.0715 -0.2324  1.2351
 1472SOL     OW14519   9.771   0.845   0.272 -0.0982  0.1286  0.1766
 1472SOL    HW114520   9.789   0.747   0.260  2.4353  0.6553 -0.7028
 1472SOL    HW214521   9.776   0.868   0.369 -2.3726 -0.8797  0.5708
 1473SOL     OW14522   8.274   6.735   1.114 -0.4635 -0.7061  0.2924
 1473SOL    HW114523   8.324   6.743   1.201 -2.2643  1.0647  1.2165
 1473SOL    HW214524   8.208   6.660   1.121 -0.2971 -0.8497  0.3086
 1474SOL     OW14525   2.478   8.840   0.136 -0.0957  0.1405  0.0232
 1474SOL    HW114526   2.398   8.900   0.140  0.7048  1.1295  1.4599
 1474SOL    HW214527   2.535   8.865   0.059 -0.2506  0.6081  0.0610
 1475SOL     OW14528   2.754   1.342   2.582 -0.5973 -0.7297 -0.2174
 1475SOL    HW114529   2.833   1.361   2.525 -0.4698 -0.6390 -0.0107
 1475SOL    HW214530   2.712   1.428   2.612 -1.2815 -0.7684 -1.0204
 1476SOL     OW14531   0.613   8.725   0.509  0.2821 -0.4531  0.2562
 1476SOL    HW114532   0.518   8.703   0.485  0.4863  0.2628 -1.3019
 1476SOL    HW214533   0.675   8.670   0.453  0.7871 -0.4731  0.8339
 1477SOL     OW14534   8.753   5.334   1.535 -1.0085  0.0670 -0.2361
 1477SOL    HW114535   8.724   5.429   1.549  1.2136  0.6731  0.3958
 1477SOL    HW214536   8.791   5.298   1.620  0.1489 -0.6935 -1.0674
 1478SOL     OW14537   2.153   3.030   2.839 -0.2800  0.5745  0.0626
 1478SOL    HW114538   2.184   3.109   2.892  0.3525  1.1943 -1.2149
 1478SOL    HW214539   2.134   3.058   2.745 -1.0327 -0.5904 -0.1433
 1479SOL     OW14540   9.827   3.208   0.069  0.0609  0.0463  0.6215
 1479SOL    HW114541   9.788   3.183   0.158 -0.6278  1.4431  0.7312
 1479SOL    HW214542   9.753   3.234   0.007  0.5629 -0.6773 -0.2840
 1480SOL     OW14543   1.098   4.132   2.635  0.0715  0.5548  0.1830
 1480SOL    HW114544   1.053   4.201   2.692  1.2474  1.1972  0.3492
 1480SOL    HW214545   1.171   4.175   2.582 -1.8387  0.2187 -2.8215
 1481SOL     OW14546   3.744   9.525   1.310  0.1642 -0.4570 -0.1020
 1481SOL    HW114547   3.646   9.545   1.311  0.3910  0.6931 -0.3804
 1481SOL    HW214548   3.773   9.495   1.401 -0.2364  0.2510  0.2666
 1482SOL     OW14549   8.643   6.620   1.470 -0.2406  0.1434 -0.6707
 1482SOL    HW114550   8.716   6.552   1.477  0.7397  1.1448 -0.8817
 1482SOL    HW214551   8.681   6.711   1.491 -1.6414  0.5508  0.1502
 1483SOL     OW14552   9.105   6.874   1.484  0.2478 -0.2553 -0.1085
 1483SOL    HW114553   9.032   6.873   1.551  0.0347 -1.5004 -0.3499
 1483SOL    HW214554   9.082   6.937   1.410 -0.4456 -0.4293 -0.0399
 1484SOL     OW14555   0.901   1.229   1.629  0.1930 -0.2759 -0.5181
 1484SOL    HW114556   0.933   1.215   1.535  0.6662  0.5274 -0.4759
 1484SOL    HW214557   0.804   1.254   1.628 -0.2880 -2.0495 -0.6807
 1485SOL     OW14558   9.621   2.042   1.145 -0.6624  0.3921  0.2140
 1485SOL    HW114559   9.645   1.946   1.136 -0.0355  0.4980  0.7611
 1485SOL    HW214560   9.599   2.063   1.240 -0.1014  0.9531  0.2206
 1486SOL     OW14561   4.121   3.161   0.934 -0.1746 -0.4305  0.0805
 1486SOL    HW114562   4.129   3.073   0.888  0.1161  0.1240 -0.9381
 1486SOL    HW214563   4.029   3.169   0.974 -1.0612 -0.1956 -1.9402
 1487SOL     OW14564   3.005   3.892   2.378  0.1983 -0.0866 -0.2182
 1487SOL    HW114565   3.101   3.919   2.368 -0.1156  0.8260 -0.8445
 1487SOL    HW214566   2.988   3.863   2.472  1.2931 -1.0777 -0.3233
 1488SOL     OW14567   5.045   3.403   1.384 -0.3717  0.4338  0.4618
 1488SOL    HW114568   4.974   3.389   1.315 -0.9862 -1.7430  1.4902
 1488SOL    HW214569   5.002   3.430   1.471  0.0577 -0.7081  1.0386
 1489SOL     OW14570   1.352   9.625   1.274  0.2341 -0.3771 -0.8268
 1489SOL    HW114571   1.316   9.666   1.190 -0.9728 -0.4853 -0.3727
 1489SOL    HW214572   1.405   9.693   1.324  1.6911 -0.5507 -2.0852
 1490SOL     OW14573   0.485   1.991   1.532 -0.1859 -0.0307 -0.0749
 1490SOL    HW114574   0.523   1.916   1.478  0.2611  1.1981 -1.4983
 1490SOL    HW214575   0.509   1.979   1.628  1.2390 -0.8682 -0.5319
 1491SOL     OW14576   1.055   7.031   2.039  0.1028  0.0598  0.4911
 1491SOL    HW114577   1.113   7.082   1.975 -1.1619  0.5607 -0.2590
 1491SOL    HW214578   1.014   6.953   1.991 -0.5309  0.2051  0.7944
 1492SOL     OW14579   2.370   6.096   1.065 -0.1055 -0.1845 -0.1001
 1492SOL    HW114580   2.411   6.006   1.050  0.7961 -0.0113  1.2280
 1492SOL    HW214581   2.369   6.116   1.163 -0.1217  1.3409 -0.3980
 1493SOL     OW14582   1.713   1.579   0.096 -0.1691  0.3177  0.1059
 1493SOL    HW114583   1.739   1.497   0.148 -0.5415  1.1689  1.6531
 1493SOL    HW214584   1.789   1.643   0.096  0.4457 -0.3919 -1.8751
 1494SOL     OW14585   8.526   2.815   2.071 -0.9466 -0.0776 -0.2641
 1494SOL    HW114586   8.613   2.848   2.108 -0.7580  1.4541 -2.0489
 1494SOL    HW214587   8.506   2.724   2.110 -0.3880  1.1211  3.0024
 1495SOL     OW14588   8.165   3.267   1.244 -0.5275 -0.0325  0.7222
 1495SOL    HW114589   8.145   3.177   1.204 -0.5877 -0.0385  0.7656
 1495SOL    HW214590   8.223   3.255   1.325 -0.4336 -0.0233  0.6573
 1496SOL     OW14591   3.041   2.028   0.096  0.3990  0.3549 -0.4789
 1496SOL    HW114592   2.984   1.974   0.034  0.1814 -1.3456  1.1802
 1496SOL    HW214593   2.998   2.118   0.110 -0.2563  0.2434 -1.6812
 1497SOL     OW14594   0.045   4.934   1.192  0.7442  0.4382  0.2615
 1497SOL    HW114595   0.006   4.850   1.232  0.1698  0.2034 -0.7762
 1497SOL    HW214596  -0.015   5.011   1.214 -0.2651  0.0982 -1.2216
 1498SOL     OW14597   4.648   9.855   1.933  0.3827 -0.5561 -0.6914
 1498SOL    HW114598   4.565   9.823   1.978  0.8380 -2.1157 -0.9424
 1498SOL    HW214599   4.658   9.954   1.947 -1.3709 -0.4063 -0.4533
 1499SOL     OW14600   2.620   8.800   0.395  0.8940  0.2739 -0.0627
 1499SOL    HW114601   2.719   8.812   0.387  1.1970 -1.0928  1.2826
 1499SOL    HW214602   2.573   8.860   0.330  2.5482  2.2539  0.5097
 1500SOL     OW14603   2.368   4.420   2.708  0.5882 -0.0966  0.5076
 1500SOL    HW114604   2.373   4.323   2.685  0.1356  0.4265 -1.8587
 1500SOL    HW214605   2.461   4.457   2.716  0.7855  0.0913 -2.2191
 1501SOL     OW14606   2.691   7.149   2.531 -0.3307 -0.3112  0.3762
 1501SOL    HW114607   2.706   7.239   2.572 -1.0186 -0.3397  0.6887
 1501SOL    HW214608   2.780   7.109   2.505 -0.0691  0.7320 -0.3620
 1502SOL     OW14609   0.851   6.651   2.901  0.2350  0.1646  0.1048
 1502SOL    HW114610   0.868   6.745   2.931 -1.2240  0.0019  1.5623
 1502SOL    HW214611   0.784   6.609   2.962  0.1067 -1.4928 -1.1456
 1503SOL     OW14612   0.052   5.436   0.395 -0.1333 -0.1618  0.1538
 1503SOL    HW114613  -0.002   5.460   0.475 -3.7520 -1.6989 -1.6849
 1503SOL    HW214614   0.055   5.337   0.385 -0.6129  0.0122 -2.1128
 1504SOL     OW14615   9.490   8.130   2.940  0.0427  0.3100  0.7413
 1504SOL    HW114616   9.566   8.120   3.004  0.6930 -2.8324 -0.4476
 1504SOL    HW214617   9.512   8.204   2.875  1.5001  0.3200  1.2127
 1505SOL     OW14618   2.539   1.819   1.368 -0.1499  0.3587  0.0104
 1505SOL    HW114619   2.503   1.847   1.279 -1.7174 -0.0088  0.5074
 1505SOL    HW214620   2.575   1.899   1.416  2.1657  0.3138 -1.5780
 1506SOL     OW14621   2.000   7.670   1.326  0.0274 -0.7199  0.0439
 1506SOL    HW114622   2.034   7.742   1.387 -0.4448  0.6409 -1.2764
 1506SOL    HW214623   1.988   7.586   1.378  0.6150  0.1369  1.6091
 1507SOL     OW14624   0.946   4.756   0.447 -0.4980 -0.0915  0.1584
 1507SOL    HW114625   0.955   4.660   0.474  2.7422  0.1267  0.0596
 1507SOL    HW214626   0.897   4.806   0.518  0.7054 -1.1713  1.7746
 1508SOL     OW14627   0.694   9.840   0.376  0.1220  0.3321  0.5271
 1508SOL    HW114628   0.759   9.890   0.319 -0.4555 -0.9089 -1.2571
 1508SOL    HW214629   0.708   9.741   0.363 -1.8273  0.0527  0.4311
 1509SOL     OW14630   1.934   9.125   1.292  0.3285 -0.6705  0.3353
 1509SOL    HW114631   1.891   9.165   1.211  0.0508 -0.4265  0.5989
 1509SOL    HW214632   1.933   9.192   1.366  1.3287 -0.6041  0.2908
 1510SOL     OW14633   2.148   7.263   1.940  0.8138  0.2993  0.1919
 1510SOL    HW114634   2.088   7.239   2.016  1.6422 -1.7591  0.2531
 1510SOL    HW214635   2.242   7.273   1.974  0.8665  1.3169 -0.2483
 1511SOL     OW14636   2.096   5.735   0.406  0.2167  0.4447  0.0937
 1511SOL    HW114637   2.032   5.659   0.407 -0.7732  1.2547  0.0055
 1511SOL    HW214638   2.150   5.735   0.490  0.3561 -0.4502  0.0092
 1512SOL     OW14639   1.613   1.290   0.535 -0.8700  0.4561  0.4938
 1512SOL    HW114640   1.598   1.212   0.475  0.2431  1.7493 -1.5213
 1512SOL    HW214641   1.536   1.299   0.598 -3.1390  0.3413 -2.1461
 1513SOL     OW14642   9.815   3.767   1.142 -0.3269  0.2668 -0.2229
 1513SOL    HW114643   9.746   3.818   1.092  0.0671  1.1973  0.1604
 1513SOL    HW214644   9.904   3.777   1.097  0.0672  1.2658  0.7475
 1514SOL     OW14645   0.902   5.983   2.676 -0.0421  0.2912 -0.0928
 1514SOL    HW114646   0.864   5.898   2.714  0.2540  0.9609  1.7410
 1514SOL    HW214647   0.907   6.052   2.748  0.9909  1.4473 -1.2605
 1515SOL     OW14648   8.780   3.219   1.723  0.1879  0.5809  0.2262
 1515SOL    HW114649   8.835   3.223   1.807 -1.0752  1.1860  1.0486
 1515SOL    HW214650   8.731   3.132   1.721  1.3111 -0.0464 -0.6088
 1516SOL     OW14651   9.837   2.419   0.447  0.6747  0.1213  0.1885
 1516SOL    HW114652   9.936   2.421   0.464  0.4098  0.8395  1.6794
 1516SOL    HW214653   9.804   2.511   0.426 -0.5955  1.0414  5.3676
 1517SOL     OW14654   1.117   8.258   1.103 -0.1125  0.0084 -0.4547
 1517SOL    HW114655   1.114   8.352   1.135  1.0433  0.0963 -0.6049
 1517SOL    HW214656   1.028   8.234   1.064 -0.7207  0.7123  0.4811
 1518SOL     OW14657   3.269   9.049   1.031 -0.2549  0.0314 -0.2004
 1518SOL    HW114658   3.177   9.058   0.992 -0.4781  0.3313  0.3838
 1518SOL    HW214659   3.313   9.138   1.033 -1.1516  0.4733  2.3982
 1519SOL     OW14660   1.835   3.625   1.371  0.2743 -0.1656  0.2350
 1519SOL    HW114661   1.738   3.649   1.385  0.4379  0.2992  0.5845
 1519SOL    HW214662   1.842   3.529   1.347 -0.6363  0.6046 -3.5645
 1520SOL     OW14663   2.065   5.331   2.486 -0.4836  0.1668  0.0784
 1520SOL    HW114664   1.987   5.268   2.497 -0.0917 -0.1462  1.1138
 1520SOL    HW214665   2.150   5.282   2.502 -0.2347  1.2489  2.2628
 1521SOL     OW14666   0.114   0.948   2.429 -0.2461  0.1794 -0.3407
 1521SOL    HW114667   0.080   0.905   2.512  0.9895 -0.4618 -0.1493
 1521SOL    HW214668   0.074   0.903   2.349 -0.0846 -0.3616 -0.1151
 1522SOL     OW14669   9.806   4.466   0.593 -0.1768 -0.2121 -0.4106
 1522SOL    HW114670   9.883   4.403   0.605  0.2841  0.6378  1.1682
 1522SOL    HW214671   9.722   4.414   0.580  0.4250 -1.1453 -0.5859
 1523SOL     OW14672   1.925   8.784   0.425 -0.2298  0.8519 -0.0035
 1523SOL    HW114673   1.873   8.868   0.405  0.0009  1.5010  1.9841
 1523SOL    HW214674   1.862   8.711   0.450 -0.3494  0.8616 -0.2764
 1524SOL     OW14675   9.366   7.471   0.042  0.0910  0.2959 -0.0610
 1524SOL    HW114676   9.393   7.404  -0.026 -2.3348 -2.0777  1.1922
 1524SOL    HW214677   9.323   7.424   0.120  0.8457  3.0817  2.1302
 1525SOL     OW14678   8.839   5.685   0.800  0.5240  0.2484  0.3453
 1525SOL    HW114679   8.850   5.600   0.852  2.5008 -0.2420 -0.8082
 1525SOL    HW214680   8.751   5.727   0.822 -0.9845 -2.6745  0.0997
 1526SOL     OW14681   3.019   8.291   1.020  0.8832  0.7299 -0.1063
 1526SOL    HW114682   3.082   8.232   0.970  0.8594  0.8618 -0.2900
 1526SOL    HW214683   2.999   8.373   0.966  1.4486  1.2270  0.4244
 1527SOL     OW14684   1.787   5.644   0.169  0.2319 -0.4172  0.1202
 1527SOL    HW114685   1.688   5.654   0.159  0.0776 -1.1009  0.9204
 1527SOL    HW214686   1.828   5.627   0.079 -0.4628 -0.8751 -0.1150
 1528SOL     OW14687   4.308   2.908   0.592 -0.1696 -0.5948  0.2352
 1528SOL    HW114688   4.325   2.967   0.671 -0.0288  0.7164 -0.7499
 1528SOL    HW214689   4.226   2.854   0.608 -0.8192  0.5356  0.8008
 1529SOL     OW14690   2.964   1.182   0.266  0.1411 -0.2028 -0.0917
 1529SOL    HW114691   2.984   1.099   0.317 -2.1527 -0.9394 -0.3404
 1529SOL    HW214692   2.907   1.243   0.322  0.2418  0.3790 -0.6126
 1530SOL     OW14693   1.124   7.601   0.735 -0.5018 -0.5697 -0.6453
 1530SOL    HW114694   1.164   7.642   0.653  0.3139 -0.3582 -0.1481
 1530SOL    HW214695   1.132   7.501   0.730  1.3213 -0.4821  0.0531
 1531SOL     OW14696   1.461   8.413   0.325 -0.0189  0.1445 -0.1321
 1531SOL    HW114697   1.441   8.495   0.271 -1.8596 -0.4255 -0.3634
 1531SOL    HW214698   1.375   8.368   0.351  0.9546 -2.0363 -0.5239
 1532SOL     OW14699   3.159   0.098   1.505 -0.0698 -0.4749 -0.3980
 1532SOL    HW114700   3.119   0.154   1.433 -1.0003  1.3710  1.4914
 1532SOL    HW214701   3.150   0.001   1.482 -0.4750  0.0918 -2.6612
 1533SOL     OW14702   8.218   3.311   2.301 -0.3977  0.1366  0.6153
 1533SOL    HW114703   8.249   3.393   2.350  1.0393 -0.6496  1.0513
 1533SOL    HW214704   8.131   3.281   2.340 -0.1712  0.5737  1.4916
 1534SOL     OW14705   4.088   1.384   0.054  1.5431 -0.2331 -0.4768
 1534SOL    HW114706   4.127   1.465   0.098  1.0558  0.8062 -1.8845
 1534SOL    HW214707   4.001   1.361   0.098  0.4619  1.5209 -1.6146
 1535SOL     OW14708   8.208   6.240   2.921 -0.6632 -0.0965  0.1229
 1535SOL    HW114709   8.202   6.310   2.992 -2.9599 -1.2830  1.1508
 1535SOL    HW214710   8.283   6.177   2.942 -1.3630 -0.4706  1.5463
 1536SOL     OW14711   1.053   3.583   1.696 -0.1602  0.5260 -0.1148
 1536SOL    HW114712   1.097   3.590   1.607 -0.0234 -1.2622 -0.2090
 1536SOL    HW214713   0.984   3.510   1.693  1.3507 -1.0168  1.8468
 1537SOL     OW14714   3.143   6.340   0.940  0.3901 -0.1311 -0.4052
 1537SOL    HW114715   3.219   6.326   0.876  0.5520 -0.1184 -0.2132
 1537SOL    HW214716   3.140   6.265   1.006  1.2519  0.7376  0.6199
 1538SOL     OW14717   9.833   6.165   2.566  0.3964  0.2539  0.3778
 1538SOL    HW114718   9.915   6.123   2.606  0.0735 -0.9446 -0.2121
 1538SOL    HW214719   9.859   6.215   2.483  0.4045 -0.9314 -0.3522
 1539SOL     OW14720   0.873   4.999   0.716 -0.4170 -0.0135 -0.0466
 1539SOL    HW114721   0.871   5.071   0.647  3.6687  1.2295  0.9751
 1539SOL    HW214722   0.831   5.032   0.800 -1.0552  0.1913 -0.4459
 1540SOL     OW14723   0.702   3.071   2.532  0.3475 -0.0623  0.1275
 1540SOL    HW114724   0.625   3.126   2.500  0.1633 -0.7584 -0.6544
 1540SOL    HW214725   0.719   2.997   2.467  2.8350  1.1282 -0.6397
 1541SOL     OW14726   9.039   7.227   0.616 -0.3923 -0.1220 -0.1146
 1541SOL    HW114727   8.985   7.144   0.630  0.0981 -0.7850 -2.0652
 1541SOL    HW214728   9.133   7.202   0.592 -0.2068  1.0150 -0.6075
 1542SOL     OW14729   9.531   7.231   1.144 -0.1605 -0.2444 -0.4666
 1542SOL    HW114730   9.505   7.316   1.099  0.4406 -0.4827 -1.2717
 1542SOL    HW214731   9.500   7.233   1.239 -0.7001  0.6086 -0.6565
 1543SOL     OW14732   0.699   8.707   1.778  0.5720  0.1303 -0.0809
 1543SOL    HW114733   0.688   8.748   1.868 -2.4402  1.3570 -0.9675
 1543SOL    HW214734   0.779   8.747   1.732  0.1055  1.9740  0.7023
 1544SOL     OW14735   8.675   2.905   1.431 -0.6434 -0.4469 -0.2601
 1544SOL    HW114736   8.774   2.910   1.438 -0.5177 -1.2873 -1.3379
 1544SOL    HW214737   8.645   2.809   1.441 -1.4814 -0.0267  1.6118
 1545SOL     OW14738   1.712   2.453   1.908  0.4951 -0.0913 -0.2029
 1545SOL    HW114739   1.771   2.480   1.984  0.8565  0.6101 -0.7228
 1545SOL    HW214740   1.621   2.433   1.942  0.9247 -0.7793  0.5571
 1546SOL     OW14741   3.782   8.810   1.665  0.1418 -0.1318  0.3796
 1546SOL    HW114742   3.733   8.745   1.723  0.5346 -0.2032  0.6338
 1546SOL    HW214743   3.846   8.761   1.606 -0.7131 -0.1187 -0.5760
 1547SOL     OW14744   2.808   5.819   1.920 -0.4930 -0.6414  0.5148
 1547SOL    HW114745   2.786   5.860   1.832  1.1260  2.0086  1.2945
 1547SOL    HW214746   2.856   5.733   1.906  1.4912  0.7029 -1.2393
 1548SOL     OW14747   2.388   0.929   1.780 -0.4511  0.7387  0.1689
 1548SOL    HW114748   2.292   0.952   1.765 -0.3603  0.9079 -0.1624
 1548SOL    HW214749   2.395   0.850   1.841 -0.7995  0.7059  0.1632
 1549SOL     OW14750   2.923   1.031   0.949 -0.3830 -0.0976 -0.1470
 1549SOL    HW114751   2.839   1.085   0.941 -0.9530 -0.4946  2.5936
 1549SOL    HW214752   2.905   0.938   0.919  0.2397  0.8276 -3.5830
 1550SOL     OW14753   0.732   7.508   0.379 -0.0208 -0.3626  0.0677
 1550SOL    HW114754   0.688   7.480   0.294  1.1445 -1.2656 -0.2515
 1550SOL    HW214755   0.754   7.606   0.375  1.2349 -0.6851 -1.2263
 1551SOL     OW14756   1.656   0.064   1.530 -0.4374 -0.5836 -0.2218
 1551SOL    HW114757   1.618   0.005   1.459  1.6153 -0.6155 -1.3207
 1551SOL    HW214758   1.702   0.009   1.599 -3.2968 -0.6315  1.7372
 1552SOL     OW14759   1.890   3.024   0.392  0.0433 -0.6397 -0.3610
 1552SOL    HW114760   1.950   3.058   0.319  1.8708  0.5283  1.6110
 1552SOL    HW214761   1.836   3.100   0.429  2.4024 -0.2480  2.4678
 1553SOL     OW14762   0.590   0.178   2.444  0.2753  0.4105 -0.2552
 1553SOL    HW114763   0.669   0.118   2.456 -1.1684 -1.6650 -1.0274
 1553SOL    HW214764   0.519   0.154   2.510 -1.3290 -0.4710 -2.2597
 1554SOL     OW14765   0.954   0.421   2.463 -0.4357 -0.1656  0.3077
 1554SOL    HW114766   0.856   0.439   2.470  0.1024  3.4021 -0.2967
 1554SOL    HW214767   0.978   0.394   2.370 -0.7586 -0.4868  0.3191
 1555SOL     OW14768   0.184   9.595   1.445 -0.4689  0.7676 -0.1383
 1555SOL    HW114769   0.194   9.536   1.364  1.2909  0.4920  0.2437
 1555SOL    HW214770   0.174   9.537   1.526 -0.0022  1.0024  0.0890
 1556SOL     OW14771   0.403   6.299   1.013 -0.0288  0.1980 -0.1024
 1556SOL    HW114772   0.373   6.329   0.923  0.0561 -1.2264 -0.6287
 1556SOL    HW214773   0.455   6.371   1.058  1.6396  0.1960 -2.0024
 1557SOL     OW14774   2.948   6.311   1.514  0.4452  0.0298 -0.0352
 1557SOL    HW114775   2.946   6.295   1.612 -0.4449  1.3419  0.1739
 1557SOL    HW214776   2.975   6.227   1.467  0.9873 -0.5727  1.3277
 1558SOL     OW14777   0.394   2.092   2.562  0.0180 -0.4768  0.0675
 1558SOL    HW114778   0.296   2.108   2.550  0.1758 -0.7924 -1.7649
 1558SOL    HW214779   0.429   2.155   2.632 -1.6116 -0.8500  1.2588
 1559SOL     OW14780   0.833   7.153   2.140  0.4088  0.3914  0.0579
 1559SOL    HW114781   0.904   7.087   2.114  0.9666 -0.1222  2.7336
 1559SOL    HW214782   0.743   7.115   2.119  0.8144 -0.2877 -0.4676
 1560SOL     OW14783   4.606   3.594   1.396 -0.7463  0.7389  0.3725
 1560SOL    HW114784   4.654   3.525   1.342  1.0123  0.8983  1.6871
 1560SOL    HW214785   4.551   3.651   1.335 -1.0193 -0.8596 -0.9016
 1561SOL     OW14786   3.634   4.747   2.108 -0.4674  0.2542  0.0729
 1561SOL    HW114787   3.722   4.778   2.070 -1.2420  0.4355 -1.6546
 1561SOL    HW214788   3.582   4.826   2.139  0.1303  0.1127  1.4712
 1562SOL     OW14789   8.767   5.374   1.882 -0.0343 -0.2662 -0.0482
 1562SOL    HW114790   8.781   5.385   1.980 -0.2465 -0.5843  0.0186
 1562SOL    HW214791   8.700   5.441   1.850 -0.9349 -1.0019  0.2633
 1563SOL     OW14792   1.641   6.118   0.043  0.0422  0.3004  0.1086
 1563SOL    HW114793   1.666   6.041  -0.016 -0.9177 -0.6199  0.8672
 1563SOL    HW214794   1.636   6.202  -0.011 -1.6072 -0.6644 -1.2672
 1564SOL     OW14795   0.753   1.567   2.727 -0.7025 -0.1487 -0.2686
 1564SOL    HW114796   0.731   1.581   2.630 -1.3159 -0.5265 -0.1921
 1564SOL    HW214797   0.851   1.553   2.738 -0.8275 -1.7861 -1.0457
 1565SOL     OW14798   2.556   2.452   2.239  0.4377 -0.4626 -0.0543
 1565SOL    HW114799   2.493   2.454   2.161 -0.4474 -1.3282  0.6313
 1565SOL    HW214800   2.631   2.389   2.220  1.7267  1.3840 -1.3263
 1566SOL     OW14801   9.117   5.294   1.258  0.2350 -0.3617  0.4074
 1566SOL    HW114802   9.054   5.365   1.289 -0.3604 -0.6571 -0.1290
 1566SOL    HW214803   9.202   5.300   1.311  0.5611  1.3594 -0.2659
 1567SOL     OW14804   2.675   2.500   2.726  0.0025 -0.6281  0.2641
 1567SOL    HW114805   2.641   2.594   2.737 -1.9116 -1.5825  3.0677
 1567SOL    HW214806   2.773   2.497   2.746 -0.1196  0.6245  1.0839
 1568SOL     OW14807   2.179   3.638   2.496  0.1729 -0.6074  0.1331
 1568SOL    HW114808   2.095   3.596   2.462 -1.0979  2.3813 -0.5569
 1568SOL    HW214809   2.226   3.574   2.557 -2.6679 -2.2909  0.6461
 1569SOL     OW14810   1.295   0.481   0.411 -0.0574 -0.5816  0.2740
 1569SOL    HW114811   1.222   0.470   0.477 -0.3451 -1.2881 -0.1554
 1569SOL    HW214812   1.368   0.415   0.430  0.5723  0.2693  0.8379
 1570SOL     OW14813   0.007   0.914   1.076  0.2695  0.3719 -0.8977
 1570SOL    HW114814  -0.066   0.982   1.082 -0.7110 -0.4880 -2.6502
 1570SOL    HW214815   0.096   0.960   1.071 -0.3519  1.5108 -1.5495
 1571SOL     OW14816   1.667   3.928   2.917  0.1856 -0.0858  0.3812
 1571SOL    HW114817   1.759   3.907   2.885  0.4880  1.1218  0.4372
 1571SOL    HW214818   1.652   3.886   3.007  0.1763 -1.4505 -0.2352
 1572SOL     OW14819   1.690   4.881   1.277  0.1186  0.1992  0.6103
 1572SOL    HW114820   1.592   4.894   1.264  0.2141 -0.2705 -0.7820
 1572SOL    HW214821   1.717   4.794   1.235  1.1029  0.2472  1.1266
 1573SOL     OW14822   0.688   0.279   1.903 -0.0868  0.1435  0.5518
 1573SOL    HW114823   0.777   0.301   1.944  0.3254 -0.1800 -0.1596
 1573SOL    HW214824   0.634   0.363   1.894  1.0697  0.7337 -1.1920
 1574SOL     OW14825   1.195   1.198   0.654  0.0981  0.8508 -0.8307
 1574SOL    HW114826   1.262   1.211   0.581  1.7046  0.7304  0.5980
 1574SOL    HW214827   1.222   1.250   0.735 -0.6532 -0.4918  0.3202
 1575SOL     OW14828   0.556   4.813   2.611 -0.0339 -0.5957  0.1741
 1575SOL    HW114829   0.489   4.869   2.563  0.1832 -0.3315  0.1759
 1575SOL    HW214830   0.533   4.717   2.601  0.9756 -0.6422 -1.9413
 1576SOL     OW14831   9.736   1.470   2.729 -0.1949  0.5961 -0.2102
 1576SOL    HW114832   9.782   1.395   2.776  0.7286 -0.1574 -2.2605
 1576SOL    HW214833   9.708   1.540   2.795  2.4082  0.2731  1.2585
 1577SOL     OW14834   2.354   0.521   0.505  0.6630  0.5199  0.3826
 1577SOL    HW114835   2.313   0.431   0.518  1.8624  0.0846  1.1869
 1577SOL    HW214836   2.330   0.580   0.582  2.4417 -0.0799  1.4227
 1578SOL     OW14837   2.171   1.350   1.253 -0.3002 -0.2135 -1.0879
 1578SOL    HW114838   2.078   1.351   1.291 -0.3255  0.6050 -1.1519
 1578SOL    HW214839   2.165   1.356   1.153 -0.1654  0.7342 -1.0468
 1579SOL     OW14840   9.948   6.949   1.060 -0.1431  0.2049 -0.3131
 1579SOL    HW114841   9.917   7.019   0.995  0.8788 -0.1071 -1.1483
 1579SOL    HW214842  10.046   6.961   1.077  0.3589 -1.9068 -1.5976
 1580SOL     OW14843   0.344   6.613   2.010  0.1740  0.1348 -0.2469
 1580SOL    HW114844   0.375   6.616   1.915  0.3242 -0.5256 -0.2254
 1580SOL    HW214845   0.391   6.684   2.063 -0.6081  1.1232 -0.8644
 1581SOL     OW14846   2.022   3.759   1.879 -0.3169  0.1708  0.1830
 1581SOL    HW114847   2.004   3.704   1.797  0.3701 -0.1195  0.2275
 1581SOL    HW214848   1.983   3.851   1.867  0.9024  0.5439 -0.9832
 1582SOL     OW14849   1.753   4.967   1.617  0.2445  0.2846  0.3470
 1582SOL    HW114850   1.751   5.009   1.708  0.2708  1.4212 -0.1749
 1582SOL    HW214851   1.757   5.038   1.547 -0.7214 -0.5520 -0.5819
 1583SOL     OW14852   1.215   8.208   1.508 -0.0240  0.0678 -0.1252
 1583SOL    HW114853   1.224   8.298   1.551  1.4925  0.1792 -0.6358
 1583SOL    HW214854   1.205   8.138   1.579 -1.7957  0.6828  0.2584
 1584SOL     OW14855   1.681   8.362   2.047 -0.2111 -0.2067 -0.0291
 1584SOL    HW114856   1.678   8.292   2.118 -1.0267 -0.7950 -0.6213
 1584SOL    HW214857   1.755   8.342   1.983  0.9284  0.6786  1.0074
 1585SOL     OW14858   2.309   4.512   1.150  0.0562 -0.6470 -0.4649
 1585SOL    HW114859   2.372   4.519   1.227  1.5750  0.3575 -1.7743
 1585SOL    HW214860   2.305   4.600   1.101 -0.0380 -1.5859 -2.1859
 1586SOL     OW14861   0.168   4.291   1.001  0.0490 -0.1119  0.3803
 1586SOL    HW114862   0.105   4.367   1.020 -0.5377  0.0268 -1.8944
 1586SOL    HW214863   0.214   4.308   0.914  2.1310 -0.9623  1.2916
 1587SOL     OW14864   8.401   5.938   0.576 -0.0627 -0.2427 -0.3310
 1587SOL    HW114865   8.343   5.894   0.644  1.5052 -1.8555 -0.0080
 1587SOL    HW214866   8.428   5.871   0.506  0.9997  0.6026 -0.7442
 1588SOL     OW14867   2.384   5.074   0.785 -0.2078 -0.4283 -0.2988
 1588SOL    HW114868   2.433   5.089   0.870  1.0837  1.0199 -1.2589
 1588SOL    HW214869   2.302   5.020   0.802  0.1031 -0.2554  1.8297
 1589SOL     OW14870   0.316   4.022   2.318  0.4329  0.3238 -0.4280
 1589SOL    HW114871   0.361   3.995   2.403  0.9365  0.6167 -0.5979
 1589SOL    HW214872   0.376   3.999   2.240  0.6008  1.3623 -0.6107
 1590SOL     OW14873   3.489   4.974   2.172 -0.7608 -0.3887  0.2179
 1590SOL    HW114874   3.390   4.964   2.185 -0.5363 -1.0208  1.5512
 1590SOL    HW214875   3.525   5.036   2.242 -0.2296 -0.0913 -0.3212
 1591SOL     OW14876   0.242   6.349   2.099 -0.5495 -0.9550 -0.3387
 1591SOL    HW114877   0.286   6.429   2.060 -1.1235 -0.5179 -0.0909
 1591SOL    HW214878   0.203   6.293   2.025 -1.2640 -0.3465 -0.4249
 1592SOL     OW14879   3.687   2.883   2.588  0.0785  0.7328  0.4195
 1592SOL    HW114880   3.596   2.876   2.546  0.6740 -0.3423 -0.7540
 1592SOL    HW214881   3.729   2.792   2.591  0.5635  0.9949  2.2407
 1593SOL     OW14882   1.322   6.333   0.998 -0.0059 -0.1192 -0.1783
 1593SOL    HW114883   1.268   6.296   0.922 -1.0166 -1.6521  1.2520
 1593SOL    HW214884   1.263   6.388   1.057 -0.0513 -1.8456  1.4246
 1594SOL     OW14885   0.916   0.088   0.078  0.0536 -0.5148  0.2167
 1594SOL    HW114886   0.823   0.099   0.043  0.2899 -0.2622 -0.3518
 1594SOL    HW214887   0.928  -0.004   0.115 -0.4619 -0.5028  0.4096
 1595SOL     OW14888   1.079   1.745   2.077  0.1527  0.4096  0.0657
 1595SOL    HW114889   1.179   1.750   2.081  0.1307  1.2213 -0.2517
 1595SOL    HW214890   1.050   1.649   2.078  0.9262  0.1746  0.3176
 1596SOL     OW14891   3.407   4.894   2.484 -0.7632  0.0778 -0.2923
 1596SOL    HW114892   3.417   4.938   2.573  2.7193  0.9084 -1.0073
 1596SOL    HW214893   3.351   4.951   2.425 -0.0195  1.3650  0.2239
 1597SOL     OW14894   2.395   4.812   1.125  0.0362  0.0129  0.0718
 1597SOL    HW114895   2.309   4.823   1.076 -0.0750 -2.8237 -0.4433
 1597SOL    HW214896   2.376   4.783   1.219  0.3822  0.8374  0.3963
 1598SOL     OW14897   8.068   3.420   2.771 -0.2784 -0.1776 -0.0330
 1598SOL    HW114898   8.076   3.377   2.861 -0.1104 -1.1891 -0.5282
 1598SOL    HW214899   7.996   3.489   2.774  0.9189  1.0353  1.3559
 1599SOL     OW14900   8.757   7.100   2.491  0.4802 -0.0852 -0.6624
 1599SOL    HW114901   8.742   7.024   2.555 -1.7741  3.0431  2.7434
 1599SOL    HW214902   8.853   7.126   2.493  0.9276 -1.6775 -0.5070
 1600SOL     OW14903   0.321   0.631   2.884 -0.0860  0.1090 -0.7679
 1600SOL    HW114904   0.284   0.632   2.791 -0.2753 -1.6953 -0.7156
 1600SOL    HW214905   0.411   0.675   2.884  0.8783 -1.7934 -2.2121
 1601SOL     OW14906   2.601   0.260   1.211  0.4755  0.2740 -0.5284
 1601SOL    HW114907   2.639   0.217   1.293 -0.5973 -1.0154 -0.6847
 1601SOL    HW214908   2.596   0.359   1.224  0.0951  0.0566  1.0592
 1602SOL     OW14909   2.260   7.270   2.448  0.1280 -0.2438  0.2556
 1602SOL    HW114910   2.186   7.240   2.509  1.9056 -0.6952  2.2256
 1602SOL    HW214911   2.330   7.318   2.501  2.2104 -1.5165 -1.2615
 1603SOL     OW14912   2.107   7.889   1.142 -0.7522 -0.5691  0.0765
 1603SOL    HW114913   2.072   7.823   1.208 -0.3417 -0.7103  0.1510
 1603SOL    HW214914   2.125   7.843   1.055  0.6073 -0.7882  0.4619
 1604SOL     OW14915   0.015   2.563   1.235 -0.6841  0.3472  0.1275
 1604SOL    HW114916  -0.034   2.515   1.162  0.7389 -0.9615  0.0176
 1604SOL    HW214917  -0.016   2.529   1.324  0.5272 -1.0237  0.0462
 1605SOL     OW14918   8.393   5.168   2.447 -0.6649  0.2730 -0.1812
 1605SOL    HW114919   8.351   5.079   2.426 -1.5666  0.4297  0.8784
 1605SOL    HW214920   8.391   5.182   2.546  0.0850  1.1807 -0.2967
 1606SOL     OW14921   0.936   4.096   0.262  0.6377  0.5562 -0.2660
 1606SOL    HW114922   0.902   4.070   0.171 -1.2866  2.2682 -0.0788
 1606SOL    HW214923   0.896   4.037   0.331  1.2553 -0.0430 -0.4077
 1607SOL     OW14924   3.332   5.253   0.403  0.2212  0.8500 -0.3449
 1607SOL    HW114925   3.265   5.223   0.335 -1.0882  0.0957  1.2617
 1607SOL    HW214926   3.305   5.341   0.441 -0.0478  0.3884  0.5482
 1608SOL     OW14927   2.579   3.832   0.703  0.1507  0.1645  0.1101
 1608SOL    HW114928   2.512   3.783   0.760 -0.2853  0.9400  0.2696
 1608SOL    HW214929   2.671   3.799   0.725  0.0591  1.0644  1.8956
 1609SOL     OW14930   9.881   2.185   1.863 -0.8256 -0.4188  0.3238
 1609SOL    HW114931   9.800   2.182   1.921 -0.6867 -2.2494  0.4502
 1609SOL    HW214932   9.963   2.194   1.920 -0.6801 -2.3373  0.4570
 1610SOL     OW14933   3.165   8.571   1.410 -0.2626 -0.8352 -0.0394
 1610SOL    HW114934   3.146   8.500   1.342  0.5519 -1.1714  0.0720
 1610SOL    HW214935   3.226   8.639   1.371 -0.7593 -0.3851 -0.0303
 1611SOL     OW14936   9.243   1.848   1.621 -0.1008  0.3815  0.1711
 1611SOL    HW114937   9.258   1.753   1.651 -1.7306 -0.1830 -0.7489
 1611SOL    HW214938   9.272   1.910   1.694  0.1503 -0.8392  1.1431
 1612SOL     OW14939   2.053   1.600   2.581 -0.1199  0.0814 -0.1045
 1612SOL    HW114940   2.076   1.618   2.677 -1.8851  0.9138  0.1705
 1612SOL    HW214941   2.128   1.632   2.523  0.0033  1.6321  0.8644
 1613SOL     OW14942   2.644   7.724   2.062 -0.0982  0.0608 -0.2333
 1613SOL    HW114943   2.724   7.776   2.031  1.0708 -1.6211 -0.1262
 1613SOL    HW214944   2.603   7.676   1.985  1.0896 -1.8237  0.2602
 1614SOL     OW14945   3.396   3.899   1.524  0.1558  0.2935  0.2557
 1614SOL    HW114946   3.385   3.940   1.434 -0.3596  0.3235  0.3337
 1614SOL    HW214947   3.331   3.824   1.535 -0.2681  0.7463  0.8662
 1615SOL     OW14948   9.204   6.017   1.894 -0.1961 -0.1295  0.4569
 1615SOL    HW114949   9.227   5.960   1.816  1.5731  1.3787 -0.1554
 1615SOL    HW214950   9.269   6.093   1.900 -0.8052  0.2313  2.9110
 1616SOL     OW14951   3.646   3.240   1.565  0.1042 -0.0027  0.0164
 1616SOL    HW114952   3.643   3.194   1.477  0.0001 -0.5608  0.3075
 1616SOL    HW214953   3.740   3.245   1.597  0.2418  0.9834 -0.5312
 1617SOL     OW14954   1.792   6.048   1.110  0.1518 -0.4582 -0.2655
 1617SOL    HW114955   1.719   6.107   1.077  0.3324 -0.2071 -0.2167
 1617SOL    HW214956   1.791   5.962   1.058 -0.6244 -0.7435  0.2253
 1618SOL     OW14957   1.820   6.250   2.701  0.0615 -0.3475  0.8494
 1618SOL    HW114958   1.742   6.311   2.714 -0.2605 -0.3729 -0.9023
 1618SOL    HW214959   1.899   6.302   2.669 -0.3779 -0.8965 -1.2191
 1619SOL     OW14960   0.246   8.355   2.920  0.0861 -0.0283  0.1146
 1619SOL    HW114961   0.267   8.383   2.827  1.6155 -1.0948  0.1208
 1619SOL    HW214962   0.208   8.432   2.971 -0.4105  0.6563 -1.2791
 1620SOL     OW14963   9.849   4.113   0.748  0.0035 -0.4609  0.1915
 1620SOL    HW114964   9.841   4.120   0.847  1.2368  0.7216  0.2232
 1620SOL    HW214965   9.763   4.142   0.705 -0.9916 -2.2748  0.9443
 1621SOL     OW14966   9.466   7.839   1.590  0.0539  0.2812 -0.3933
 1621SOL    HW114967   9.564   7.860   1.598  0.1697 -0.9028  1.3419
 1621SOL    HW214968   9.447   7.805   1.498  1.4995 -0.6639 -0.3529
 1622SOL     OW14969   9.398   5.993   2.781  0.3219  0.0948 -0.6319
 1622SOL    HW114970   9.379   6.050   2.701 -0.3081  3.1036  1.5593
 1622SOL    HW214971   9.476   5.933   2.761  0.0394  0.6040 -3.5363
 1623SOL     OW14972   0.415   8.469   0.174 -0.4246 -0.2330 -0.0869
 1623SOL    HW114973   0.409   8.415   0.090 -0.7944 -0.8543  0.3311
 1623SOL    HW214974   0.459   8.414   0.246  1.5708  0.9354 -0.3890
 1624SOL     OW14975   0.875   0.580   0.265 -0.2810 -0.8517 -0.5669
 1624SOL    HW114976   0.911   0.668   0.233 -0.7085 -0.9858 -1.4231
 1624SOL    HW214977   0.950   0.514   0.274 -0.1995 -0.9245 -1.6592
 1625SOL     OW14978   3.713   2.513   1.462  0.0947  0.1772 -0.2064
 1625SOL    HW114979   3.789   2.469   1.511 -1.3816 -1.0843  0.9950
 1625SOL    HW214980   3.688   2.457   1.383 -1.3470 -0.8426  0.9460
 1626SOL     OW14981   4.107   8.683   0.329 -0.0627 -0.3922 -0.7634
 1626SOL    HW114982   4.080   8.760   0.386  0.7945 -0.3329 -0.4309
 1626SOL    HW214983   4.204   8.663   0.343 -0.2236 -1.3927 -1.0000
 1627SOL     OW14984   4.346   3.092   0.803  0.0910 -0.3225 -0.1624
 1627SOL    HW114985   4.326   3.145   0.886  2.1202  0.2092  0.0083
 1627SOL    HW214986   4.410   3.142   0.745 -0.7487 -1.0091 -1.7356
 1628SOL     OW14987   1.174   5.486   0.367 -0.4698  0.0263 -0.1082
 1628SOL    HW114988   1.250   5.510   0.306  0.7893 -0.1672  1.3532
 1628SOL    HW214989   1.118   5.567   0.383  0.4761  0.6311  0.2287
 1629SOL     OW14990   2.205   9.329   0.580 -0.0536 -0.2945  0.2554
 1629SOL    HW114991   2.300   9.346   0.557 -0.2920  0.4176 -0.2241
 1629SOL    HW214992   2.186   9.231   0.573  0.6593 -0.4463  0.4318
 1630SOL     OW14993   3.606   9.264   1.238  0.6569  0.2402 -0.6528
 1630SOL    HW114994   3.642   9.340   1.292 -0.1024 -0.2040  0.4893
 1630SOL    HW214995   3.516   9.288   1.202  0.3721 -0.1489 -0.2077
 1631SOL     OW14996   9.403   6.172   1.986 -0.5076 -0.1148  0.3996
 1631SOL    HW114997   9.455   6.157   1.902 -0.8460  1.0328 -0.0258
 1631SOL    HW214998   9.403   6.269   2.008 -0.9131 -0.3428  1.4101
 1632SOL     OW14999   1.679   4.977   2.453  0.3516 -0.0775 -0.0996
 1632SOL    HW115000   1.697   4.939   2.362  1.7563  0.7133 -0.1703
 1632SOL    HW215001   1.582   4.998   2.462 -0.7157 -4.5993  0.3049
 1633SOL     OW15002   1.904   0.262   0.771 -0.2148  0.7082  0.0216
 1633SOL    HW115003   1.992   0.220   0.791  1.6890  3.2780 -2.6493
 1633SOL    HW215004   1.855   0.207   0.703  0.2394  0.3668 -0.0300
 1634SOL     OW15005   2.552   5.765   0.711 -0.2235 -0.1116  0.6171
 1634SOL    HW115006   2.554   5.669   0.684 -1.9439  0.0805 -0.2774
 1634SOL    HW215007   2.535   5.772   0.809  0.2625 -0.7320  0.7477
 1635SOL     OW15008   1.757   0.575   2.734  0.1585 -0.1943  0.0327
 1635SOL    HW115009   1.851   0.541   2.738  0.5001  0.7079 -0.1300
 1635SOL    HW215010   1.695   0.501   2.706  1.1310 -0.2139 -2.1546
 1636SOL     OW15011   0.609   9.463   1.353  0.2722 -0.1265 -0.1109
 1636SOL    HW115012   0.597   9.555   1.389 -0.8191  0.0479 -0.9087
 1636SOL    HW215013   0.615   9.466   1.253 -1.2895 -1.0617 -0.2428
 1637SOL     OW15014   4.098   4.907   0.455 -0.2286 -0.0909 -0.1691
 1637SOL    HW115015   4.069   5.000   0.436  1.2112  0.5867  0.8311
 1637SOL    HW215016   4.147   4.870   0.375 -0.7372  0.0285 -0.5366
 1638SOL     OW15017   2.470   5.889   2.828 -0.0559 -0.0214 -0.1863
 1638SOL    HW115018   2.557   5.919   2.866 -0.7894  1.6404  0.2101
 1638SOL    HW215019   2.398   5.952   2.856 -1.1500 -0.5827 -1.6846
 1639SOL     OW15020   2.234   0.950   1.393  0.3706 -0.2788 -0.2880
 1639SOL    HW115021   2.269   1.043   1.408  1.7227 -0.7272 -0.6441
 1639SOL    HW215022   2.210   0.908   1.480  0.6823  0.0441 -0.0462
 1640SOL     OW15023   0.598   4.436   0.378  0.0182 -0.0164 -0.6663
 1640SOL    HW115024   0.559   4.364   0.435 -0.4395  0.4196 -0.4233
 1640SOL    HW215025   0.689   4.409   0.347  0.0113 -0.5253 -0.2472
 1641SOL     OW15026   4.379   8.618   0.367 -0.8171 -0.0301 -0.3449
 1641SOL    HW115027   4.403   8.691   0.431 -1.9654  0.3883 -0.3663
 1641SOL    HW215028   4.413   8.642   0.276 -0.9340  0.3450 -0.2933
 1642SOL     OW15029   2.083   4.957   1.847 -0.1212 -0.1781  0.3367
 1642SOL    HW115030   2.120   5.050   1.844  0.3982 -0.4204 -1.2962
 1642SOL    HW215031   2.041   4.936   1.759 -0.4876 -1.3904  0.8038
 1643SOL     OW15032   3.022   5.471   1.578 -0.5627  0.4011 -0.0833
 1643SOL    HW115033   3.114   5.489   1.611 -0.6964 -0.1136  0.5684
 1643SOL    HW215034   3.026   5.435   1.484 -0.0278 -0.8391  0.4039
 1644SOL     OW15035   9.895   8.466   0.694  0.0981  0.4688  0.4841
 1644SOL    HW115036   9.862   8.532   0.761 -0.1363  0.9574 -0.1060
 1644SOL    HW215037   9.819   8.433   0.638  0.5377  1.3709 -0.6768
 1645SOL     OW15038   3.283   5.267   0.072 -0.3296  0.4447 -0.4613
 1645SOL    HW115039   3.352   5.202   0.039  0.0987  0.8367 -0.3431
 1645SOL    HW215040   3.220   5.220   0.133  0.2712  0.2478  0.0114
 1646SOL     OW15041   1.186   3.001   1.081  0.0298  0.5208 -0.0946
 1646SOL    HW115042   1.177   3.101   1.076  0.3065  0.5831  0.5228
 1646SOL    HW215043   1.273   2.974   1.041  0.3424  0.6142  0.5085
 1647SOL     OW15044   1.803   4.555   2.022  0.1325  0.7974  0.3232
 1647SOL    HW115045   1.732   4.497   1.982 -1.2081  1.7525  1.2397
 1647SOL    HW215046   1.831   4.625   1.956  0.2005  0.4285 -0.0360
 1648SOL     OW15047   2.814   5.374   1.985  0.3991 -0.1343  0.7649
 1648SOL    HW115048   2.866   5.442   1.932  0.6645 -0.9642 -0.0537
 1648SOL    HW215049   2.765   5.314   1.922  0.8829 -1.2651  1.4485
 1649SOL     OW15050   3.455   5.491   1.425  0.0822 -0.5524 -0.1318
 1649SOL    HW115051   3.542   5.540   1.423  0.4887 -1.2890 -2.2752
 1649SOL    HW215052   3.442   5.444   1.338 -1.9371 -1.3854  0.5958
 1650SOL     OW15053   8.445   5.691   0.371 -0.0714 -0.2145  0.2825
 1650SOL    HW115054   8.438   5.725   0.277  1.2235 -1.0068 -0.1167
 1650SOL    HW215055   8.387   5.611   0.382 -2.7430  1.7528  1.0858
 1651SOL     OW15056   0.028   2.551   1.583 -0.3527  0.1118  0.0111
 1651SOL    HW115057   0.042   2.566   1.681  0.2786  0.5553 -0.1478
 1651SOL    HW215058   0.097   2.488   1.548 -1.0513 -0.6678  0.0059
 1652SOL     OW15059   9.511   2.968   0.144 -0.3047  0.4523 -0.0986
 1652SOL    HW115060   9.459   3.028   0.084 -1.3524 -1.6495 -1.3416
 1652SOL    HW215061   9.477   2.874   0.136  1.6359 -0.4252  1.4091
 1653SOL     OW15062   8.183   3.524   0.348  0.0778  0.1000  0.0818
 1653SOL    HW115063   8.145   3.493   0.436  0.8378  0.7028  0.6329
 1653SOL    HW215064   8.218   3.617   0.358 -0.6096  0.4944 -1.0980
 1654SOL     OW15065   4.044   1.812   0.472  0.1451  0.2215 -0.8326
 1654SOL    HW115066   4.139   1.837   0.454  1.4165 -1.6452  2.8525
 1654SOL    HW215067   4.028   1.718   0.439 -0.4061  0.4642 -1.2743
 1655SOL     OW15068   3.235   5.803   0.417 -0.2094 -0.4588 -0.0539
 1655SOL    HW115069   3.216   5.852   0.332 -0.2288  0.5815  0.5532
 1655SOL    HW215070   3.150   5.764   0.453 -0.3542 -0.0961 -0.0053
 1656SOL     OW15071   8.552   5.532   1.066 -0.4321 -0.0795  0.1235
 1656SOL    HW115072   8.577   5.458   1.128  0.5819 -1.1258 -1.4899
 1656SOL    HW215073   8.568   5.620   1.110  0.5772 -0.8070  1.2371
 1657SOL     OW15074   0.068   1.378   1.150  0.0647  0.2720  0.0312
 1657SOL    HW115075   0.161   1.379   1.187 -0.4347  0.7398  1.3028
 1657SOL    HW215076   0.069   1.417   1.058  0.6508  3.4226  1.2768
 1658SOL     OW15077   1.916   8.291   2.263 -0.4461  0.3388 -0.3095
 1658SOL    HW115078   2.002   8.243   2.244  0.3380  1.9083 -0.7645
 1658SOL    HW215079   1.905   8.302   2.362 -0.7385 -0.9378 -0.1837
 1659SOL     OW15080   0.123   4.583   2.463 -0.2354 -0.5489 -0.1481
 1659SOL    HW115081   0.215   4.590   2.424 -0.2284 -0.1514 -0.0569
 1659SOL    HW215082   0.129   4.554   2.558 -0.0275  2.4643  0.8166
 1660SOL     OW15083   0.255   2.959   2.007 -0.0123  0.3377 -0.0051
 1660SOL    HW115084   0.225   2.995   2.096  1.8262  0.6440  0.5131
 1660SOL    HW215085   0.236   3.027   1.936  0.8772  1.1986  0.5581
 1661SOL     OW15086   2.722   7.645   0.407 -0.3084 -0.2660  0.1382
 1661SOL    HW115087   2.704   7.714   0.336  0.1569  0.2614  0.5325
 1661SOL    HW215088   2.689   7.556   0.375  1.9942 -0.5060 -1.7337
 1662SOL     OW15089   0.607   8.786   2.049  0.2219  0.3470 -0.5411
 1662SOL    HW115090   0.679   8.719   2.071 -0.6800 -0.0471  1.3252
 1662SOL    HW215091   0.636   8.877   2.079 -0.2125  0.1210  0.5787
 1663SOL     OW15092   1.121   7.857   2.730 -0.2822  0.1520  0.4243
 1663SOL    HW115093   1.169   7.778   2.691  0.4058  0.5174  0.5102
 1663SOL    HW215094   1.189   7.926   2.758 -0.7747  0.0547  1.9184
 1664SOL     OW15095   3.691   2.613   2.304  0.2717 -0.1824 -0.0341
 1664SOL    HW115096   3.635   2.642   2.382  0.6013 -0.1984  0.2093
 1664SOL    HW215097   3.633   2.600   2.224 -0.0635 -0.1326  0.2016
 1665SOL     OW15098   4.965   3.742   1.714  0.0359 -0.1836  0.0488
 1665SOL    HW115099   4.876   3.759   1.755  0.8402 -0.0106  1.7438
 1665SOL    HW215100   5.033   3.804   1.754  0.8751 -0.1238 -1.4123
 1666SOL     OW15101   2.940   0.686   2.497 -0.1020 -0.0091  0.3248
 1666SOL    HW115102   3.018   0.662   2.555  1.4557  0.3138 -1.5418
 1666SOL    HW215103   2.964   0.766   2.442 -0.9655 -1.1708 -1.8059
 1667SOL     OW15104   0.460   6.116   1.246 -0.1280  0.0345 -0.0557
 1667SOL    HW115105   0.423   6.184   1.182  0.1490  1.5408  1.3599
 1667SOL    HW215106   0.388   6.086   1.308  0.1185  0.2069  0.3175
 1668SOL     OW15107   9.018   5.454   0.960  0.2533 -0.4886  0.4440
 1668SOL    HW115108   8.921   5.429   0.973  0.0648  0.1331  0.2440
 1668SOL    HW215109   9.037   5.539   1.009  0.8547 -0.9389  0.9859
 1669SOL     OW15110   3.798   3.566   2.049  0.3794 -0.0094 -0.3291
 1669SOL    HW115111   3.793   3.632   2.124 -0.1461 -0.7694  0.3109
 1669SOL    HW215112   3.877   3.507   2.062  0.0521 -0.4094 -0.1470
 1670SOL     OW15113   3.446   0.553   2.085  0.2440 -0.4218 -0.1286
 1670SOL    HW115114   3.367   0.542   2.146  0.5346 -0.5324  0.2329
 1670SOL    HW215115   3.472   0.649   2.082 -0.4706 -0.2555 -0.9671
 1671SOL     OW15116   1.717   4.241   0.384 -0.0875  0.4479 -0.5276
 1671SOL    HW115117   1.655   4.253   0.462  0.3316  1.7678 -0.3786
 1671SOL    HW215118   1.742   4.145   0.377 -0.6536  0.1995  0.5684
 1672SOL     OW15119   0.203   1.899   0.245 -0.4074  0.2715 -0.3672
 1672SOL    HW115120   0.172   1.822   0.189 -0.6750 -0.4621  0.7670
 1672SOL    HW215121   0.241   1.864   0.331 -0.8573  1.4231  0.3102
 1673SOL     OW15122   8.063   3.302   0.098  0.4956  0.2292 -0.2953
 1673SOL    HW115123   8.118   3.219   0.100  0.9451  0.5721  1.4915
 1673SOL    HW215124   8.081   3.357   0.179 -0.4528  1.6571 -1.0342
 1674SOL     OW15125   0.336   0.588   0.554 -0.0360  0.1225  0.3202
 1674SOL    HW115126   0.370   0.494   0.557 -1.4993 -0.4507 -0.2114
 1674SOL    HW215127   0.346   0.624   0.461 -0.5838  0.0542  0.2321
 1675SOL     OW15128   3.635   0.582   2.584  0.3313  0.3866  0.0109
 1675SOL    HW115129   3.621   0.671   2.626 -0.1116  0.8512 -1.0847
 1675SOL    HW215130   3.593   0.511   2.640  1.8409  0.7071  1.5671
 1676SOL     OW15131   0.206   7.510   2.733 -0.0093 -0.2347  0.4228
 1676SOL    HW115132   0.164   7.593   2.771 -3.2702 -1.1746 -1.0231
 1676SOL    HW215133   0.216   7.520   2.634  0.6303 -1.1338  0.3935
 1677SOL     OW15134   2.467   9.349   2.626 -0.3341 -0.3437 -0.2953
 1677SOL    HW115135   2.539   9.324   2.691 -0.4413 -0.2244 -0.1319
 1677SOL    HW215136   2.445   9.270   2.569 -1.4398 -0.9373  0.9487
 1678SOL     OW15137   3.627   9.006   0.104 -0.3364  0.1222  0.1810
 1678SOL    HW115138   3.542   9.034   0.059 -0.0976  2.4729  1.1346
 1678SOL    HW215139   3.705   9.033   0.049 -0.1076  1.1138  0.9845
 1679SOL     OW15140   1.195   3.928   0.113 -0.1341 -0.0363 -0.2153
 1679SOL    HW115141   1.234   3.982   0.187 -0.0605  3.0706 -2.3945
 1679SOL    HW215142   1.269   3.879   0.066 -0.1316 -1.6717  1.4398
 1680SOL     OW15143   0.935   1.381   0.175 -0.1499 -0.5291 -0.4724
 1680SOL    HW115144   0.979   1.379   0.265  1.2989  1.5065 -1.0975
 1680SOL    HW215145   1.005   1.391   0.104 -1.3569 -1.0121 -1.7628
 1681SOL     OW15146   9.982   6.629   0.225 -0.0469 -0.0447  0.4105
 1681SOL    HW115147  10.028   6.670   0.146  2.8269 -1.1377  1.4642
 1681SOL    HW215148   9.883   6.630   0.210  0.3503  1.3618 -2.4108
 1682SOL     OW15149   1.168   4.230   1.143  0.4817 -0.0973 -0.0836
 1682SOL    HW115150   1.079   4.217   1.099  0.0309  1.0378  0.5069
 1682SOL    HW215151   1.170   4.316   1.193  1.6655 -0.4560  0.5267
 1683SOL     OW15152   2.663   9.309   1.516 -0.1251  0.1574 -0.6684
 1683SOL    HW115153   2.588   9.270   1.464 -0.6002 -1.0205  0.8572
 1683SOL    HW215154   2.630   9.389   1.567  0.0157  0.5158 -1.1374
 1684SOL     OW15155   1.559   6.362   2.827 -0.0809  0.5356 -0.2265
 1684SOL    HW115156   1.543   6.426   2.751  1.5339  2.1568  0.7669
 1684SOL    HW215157   1.522   6.402   2.911  2.4976  0.9746  0.7232
 1685SOL     OW15158   1.877   9.010   1.708  0.3492  0.3711 -0.3251
 1685SOL    HW115159   1.954   8.969   1.659 -0.7232 -1.4093 -0.5413
 1685SOL    HW215160   1.820   8.938   1.748  1.5040  1.7023  4.0664
 1686SOL     OW15161   2.659   8.875   0.663  0.5431  0.2144  0.1370
 1686SOL    HW115162   2.643   8.799   0.726 -2.4181  0.1644 -0.5908
 1686SOL    HW215163   2.656   8.842   0.569  0.8407  0.9746 -0.1445
 1687SOL     OW15164   3.258   5.037   1.390  0.3035  0.3675 -0.5971
 1687SOL    HW115165   3.253   5.083   1.301  3.8825 -0.8073 -1.5314
 1687SOL    HW215166   3.300   5.098   1.457  2.1711 -0.3693 -1.0438
 1688SOL     OW15167   3.703   0.023   0.714  0.1983  0.0150  0.1699
 1688SOL    HW115168   3.767  -0.054   0.720  0.9540  0.6417  0.1762
 1688SOL    HW215169   3.754   0.109   0.716 -0.7355  0.5456  1.3995
 1689SOL     OW15170   2.690   1.546   0.402 -0.1424 -0.4591  0.0268
 1689SOL    HW115171   2.659   1.597   0.322 -1.6884 -0.2027  0.7759
 1689SOL    HW215172   2.634   1.570   0.481  2.0216  0.0583  1.4399
 1690SOL     OW15173   2.422   6.051   0.251 -0.0557 -0.3797 -0.4437
 1690SOL    HW115174   2.360   6.067   0.328 -1.4704  0.9043 -1.7909
 1690SOL    HW215175   2.369   6.053   0.166  1.4566 -1.9364 -1.4385
 1691SOL     OW15176   1.870   4.734   1.787 -0.5154 -0.7128  0.8527
 1691SOL    HW115177   1.809   4.701   1.715 -0.3945 -0.8846  0.8299
 1691SOL    HW215178   1.928   4.807   1.750 -0.8833 -0.3738  0.9427
 1692SOL     OW15179   1.392   7.837   2.318 -0.6530 -0.0570  0.4987
 1692SOL    HW115180   1.406   7.801   2.226 -0.8286 -0.6214  0.6976
 1692SOL    HW215181   1.379   7.762   2.383 -1.0049  0.3555  0.9108
 1693SOL     OW15182   3.581   9.339   0.037 -0.0166 -0.3647 -0.3404
 1693SOL    HW115183   3.512   9.373  -0.027 -0.3787  0.9307  0.7169
 1693SOL    HW215184   3.598   9.242   0.019 -0.1235 -0.0260 -2.3695
 1694SOL     OW15185   0.403   5.073   2.529 -0.4385 -0.3153  0.3574
 1694SOL    HW115186   0.464   5.134   2.478 -0.4818 -1.1603 -0.7234
 1694SOL    HW215187   0.313   5.116   2.539  0.3027  0.9103  1.9059
 1695SOL     OW15188   1.276   8.764   0.855  0.4099 -0.7088 -0.3530
 1695SOL    HW115189   1.296   8.839   0.918  1.0508 -0.0958 -1.2575
 1695SOL    HW215190   1.338   8.688   0.873 -0.1611 -0.9754  0.4894
 1696SOL     OW15191   9.965   1.174   1.305  0.3014 -0.0956 -0.3143
 1696SOL    HW115192   9.885   1.175   1.245 -0.0131  0.0675  0.1123
 1696SOL    HW215193  10.036   1.234   1.267  0.3574 -0.5046 -0.8709
 1697SOL     OW15194   3.408   2.502   0.952  0.2623  0.4016  0.2407
 1697SOL    HW115195   3.330   2.536   0.900  1.9408 -0.9631 -3.3269
 1697SOL    HW215196   3.386   2.412   0.991 -0.2108  0.3819 -0.0759
 1698SOL     OW15197   2.188   5.065   0.441  0.4869  0.7251 -0.0243
 1698SOL    HW115198   2.200   4.981   0.493 -0.0877  1.3377  1.1250
 1698SOL    HW215199   2.130   5.128   0.493  0.3994  1.5825 -1.1485
 1699SOL     OW15200   8.562   2.334   1.632 -0.3055  0.0994 -0.2907
 1699SOL    HW115201   8.515   2.374   1.553 -0.3141  0.0835 -0.2939
 1699SOL    HW215202   8.649   2.295   1.602 -0.4687 -0.2150 -0.3545
 1700SOL     OW15203   0.744   7.464   1.899  1.0265  0.0668 -0.2763
 1700SOL    HW115204   0.751   7.564   1.905 -2.1955  0.2732  1.4994
 1700SOL    HW215205   0.827   7.422   1.934  3.1705  2.1087 -2.7064
 1701SOL     OW15206   1.118   0.600   1.202  0.0416  0.3581 -0.1065
 1701SOL    HW115207   1.108   0.674   1.269 -1.7636 -0.3818  0.4742
 1701SOL    HW215208   1.190   0.537   1.232 -0.3044  0.3879  0.8032
 1702SOL     OW15209   2.337   8.638   0.243 -0.2304 -0.0924  0.3094
 1702SOL    HW115210   2.393   8.557   0.263 -0.5340 -0.4101 -0.1273
 1702SOL    HW215211   2.396   8.714   0.217  0.0722 -0.1088  0.9336
 1703SOL     OW15212   3.999   4.179   0.826 -0.5090 -0.3141 -0.1625
 1703SOL    HW115213   3.924   4.245   0.822  0.4767  0.9304  1.1536
 1703SOL    HW215214   4.051   4.183   0.740 -0.5510  0.5402 -0.1603
 1704SOL     OW15215   1.921   3.851   2.330 -0.2765  0.1523  0.3475
 1704SOL    HW115216   1.963   3.762   2.348  0.4080  0.4431  0.2036
 1704SOL    HW215217   1.986   3.924   2.355 -0.1047  0.5905 -1.3358
 1705SOL     OW15218   2.355   7.524   1.167 -0.2558 -0.5658  0.2035
 1705SOL    HW115219   2.258   7.549   1.172  0.0708  0.6934  0.2974
 1705SOL    HW215220   2.371   7.472   1.083 -1.1371 -1.3456  0.5035
 1706SOL     OW15221   8.895   6.148   0.942 -0.3434  0.0506 -0.1571
 1706SOL    HW115222   8.807   6.174   0.982  1.3780  0.5102  3.5099
 1706SOL    HW215223   8.923   6.060   0.978  0.8947  0.0931 -0.9943
 1707SOL     OW15224   4.194   9.030   1.865 -0.1762 -0.5063 -0.3649
 1707SOL    HW115225   4.216   9.126   1.882  1.8382 -0.8714 -0.7644
 1707SOL    HW215226   4.130   8.997   1.934 -0.6032  1.0356 -0.0275
 1708SOL     OW15227   1.730   6.449   2.184 -0.0046 -0.3025 -0.1847
 1708SOL    HW115228   1.667   6.455   2.261  0.1623 -1.5918  0.0622
 1708SOL    HW215229   1.702   6.513   2.112 -1.3439 -0.5605  0.1008
 1709SOL     OW15230   9.934   6.906   0.084  0.3787 -0.0542 -0.5060
 1709SOL    HW115231   9.901   6.864   0.169  0.2777  1.6901  0.3450
 1709SOL    HW215232   9.981   6.992   0.106  0.1492  0.5324 -2.2410
 1710SOL     OW15233   0.086   3.376   2.626 -0.0179  0.2120 -0.2383
 1710SOL    HW115234   0.056   3.402   2.717  0.8271  2.3162 -0.5278
 1710SOL    HW215235   0.075   3.277   2.613 -0.9184  0.0371  1.8274
 1711SOL     OW15236   2.398   5.624   2.921 -0.6395  0.4201  0.3735
 1711SOL    HW115237   2.380   5.624   3.019  1.8540  0.8753  0.8850
 1711SOL    HW215238   2.398   5.718   2.887  0.8532  0.4740  0.4572
 1712SOL     OW15239   2.515   6.923   2.566  0.3936  0.0611  0.1389
 1712SOL    HW115240   2.535   7.021   2.567  0.0406  0.1320  1.2947
 1712SOL    HW215241   2.573   6.877   2.633  0.0593 -0.4123  0.1026
 1713SOL     OW15242   9.352   5.444   1.419  0.1314  0.0628  0.8585
 1713SOL    HW115243   9.400   5.523   1.381  0.0725 -0.0208  0.6144
 1713SOL    HW215244   9.256   5.467   1.434  0.1760  0.1269  1.0455
 1714SOL     OW15245   3.498   4.321   1.125  0.7950  0.1295  0.7876
 1714SOL    HW115246   3.525   4.304   1.030  1.8866  0.2466  1.0731
 1714SOL    HW215247   3.574   4.298   1.186 -0.2214 -0.8694  1.7149
 1715SOL     OW15248   9.996   7.603   2.219 -0.1163  0.6571  0.2004
 1715SOL    HW115249  10.020   7.555   2.134  0.8098  1.8718 -0.2281
 1715SOL    HW215250  10.039   7.557   2.297 -1.2047 -0.6359  0.0529
 1716SOL     OW15251   1.363   7.540   1.725  0.3438 -0.3270  0.1101
 1716SOL    HW115252   1.442   7.599   1.707  0.6401 -0.8756 -0.4099
 1716SOL    HW215253   1.294   7.591   1.775  0.5446  0.4960 -0.4564
 1717SOL     OW15254   1.487   8.257   0.072 -0.2033  0.3713  0.1769
 1717SOL    HW115255   1.463   8.338   0.125 -0.3002 -0.1991  1.0230
 1717SOL    HW215256   1.461   8.271  -0.024  1.3408  2.0007 -0.0243
 1718SOL     OW15257   0.988   7.821   1.905  0.2696 -0.9424  0.2188
 1718SOL    HW115258   0.938   7.770   1.835  1.6383 -1.5020 -0.3829
 1718SOL    HW215259   0.933   7.829   1.987 -1.1316 -0.8121 -0.7174
 1719SOL     OW15260   1.897   1.436   0.963 -0.4068  0.3838 -0.2329
 1719SOL    HW115261   1.962   1.370   0.998 -0.2819  1.2252  1.1358
 1719SOL    HW215262   1.823   1.388   0.916 -0.7885 -0.7875  1.5242
 1720SOL     OW15263   4.429   2.755   0.422 -0.1287  0.4140  0.0357
 1720SOL    HW115264   4.355   2.703   0.380 -0.1019  0.2885  0.1450
 1720SOL    HW215265   4.391   2.826   0.481 -0.1585  0.1223  0.3690
 1721SOL     OW15266   0.926   5.566   1.177 -0.4042  0.2517  0.3282
 1721SOL    HW115267   0.947   5.482   1.228 -0.6518 -0.1729 -0.2584
 1721SOL    HW215268   0.959   5.645   1.228 -0.4117 -0.1845  1.0242
 1722SOL     OW15269   2.068   8.032   0.443 -0.5645 -0.3963  0.4237
 1722SOL    HW115270   2.024   8.102   0.500  0.3093  1.3055 -0.9188
 1722SOL    HW215271   2.163   8.023   0.470 -0.2821  0.0459 -0.3800
 1723SOL     OW15272   1.369   6.293   0.541 -0.1587  0.6472 -0.0253
 1723SOL    HW115273   1.464   6.324   0.534  0.0910 -0.0591  0.2846
 1723SOL    HW215274   1.344   6.244   0.457  1.2481 -3.3442  1.7762
 1724SOL     OW15275   0.676   3.579   1.575  0.4582  0.1448  0.4172
 1724SOL    HW115276   0.653   3.558   1.480 -2.1982 -3.3626  1.7558
 1724SOL    HW215277   0.746   3.516   1.608 -0.0874  0.0159  1.3677
 1725SOL     OW15278   1.535   5.270   2.699  0.6753 -0.5264  0.0269
 1725SOL    HW115279   1.476   5.311   2.769 -0.1476 -1.1374 -0.2951
 1725SOL    HW215280   1.579   5.189   2.736  1.0190 -0.2822  0.1508
 1726SOL     OW15281   0.837   1.648   0.108  0.2861 -0.1778 -0.0417
 1726SOL    HW115282   0.862   1.555   0.138 -0.3292  0.2599  1.8643
 1726SOL    HW215283   0.784   1.642   0.023 -0.1994 -1.6102  0.3433
 1727SOL     OW15284   2.415   2.314   2.458 -0.5866 -0.1098 -0.3835
 1727SOL    HW115285   2.438   2.243   2.391  0.7855 -1.1983  1.1906
 1727SOL    HW215286   2.460   2.400   2.431 -2.8943  0.4481 -2.7263
 1728SOL     OW15287   1.085   9.333   2.746  0.3629  0.3333  0.0044
 1728SOL    HW115288   1.005   9.382   2.783  0.4580  0.9801 -0.6415
 1728SOL    HW215289   1.067   9.235   2.747 -0.9549  0.5423 -1.3064
 1729SOL     OW15290   8.491   3.232   0.631 -0.0642 -0.3308  0.4203
 1729SOL    HW115291   8.515   3.207   0.724  0.3154  0.0786  0.4337
 1729SOL    HW215292   8.571   3.271   0.585 -0.5287  0.4398  0.2603
 1730SOL     OW15293   2.058   8.617   0.284  0.6373  0.5920 -1.4009
 1730SOL    HW115294   2.154   8.637   0.264  0.9043  2.1918  1.2026
 1730SOL    HW215295   2.016   8.697   0.326 -0.7064 -1.4143  1.2072
 1731SOL     OW15296   9.430   3.950   0.046  0.3594  0.6002  0.5290
 1731SOL    HW115297   9.487   3.927  -0.032 -0.5670 -1.0108  0.3046
 1731SOL    HW215298   9.334   3.934   0.023 -0.1810  2.9051  1.0219
 1732SOL     OW15299   1.794   0.218   1.810  0.9054  0.9208  0.3453
 1732SOL    HW115300   1.773   0.255   1.720 -1.2968 -0.4609  0.2637
 1732SOL    HW215301   1.715   0.230   1.871  1.6218  0.0046  1.4937
 1733SOL     OW15302   1.370   0.315   0.841 -0.0934  0.5704 -0.7931
 1733SOL    HW115303   1.361   0.414   0.846 -2.4235  0.3173  1.0325
 1733SOL    HW215304   1.434   0.284   0.912 -0.9460  0.6141  0.0072
 1734SOL     OW15305   1.903   6.636   1.054 -0.1047  0.4409  0.1505
 1734SOL    HW115306   1.866   6.607   0.965 -0.8154  1.9972 -0.0890
 1734SOL    HW215307   1.889   6.735   1.065  0.5654  0.3778  1.7201
 1735SOL     OW15308   9.105   4.268   1.551 -0.4768 -0.1158 -0.9464
 1735SOL    HW115309   9.075   4.228   1.464 -5.0011 -0.3624  0.6265
 1735SOL    HW215310   9.079   4.208   1.626  1.4518  1.1309  0.7684
 1736SOL     OW15311   0.531   8.047   0.866 -0.0260 -0.7838  0.3364
 1736SOL    HW115312   0.447   8.097   0.847  1.0196  0.0837 -2.2229
 1736SOL    HW215313   0.558   8.063   0.961 -1.6851  0.5160  0.6226
 1737SOL     OW15314   3.819   3.881   0.291 -0.2737  0.3143 -0.1263
 1737SOL    HW115315   3.727   3.890   0.253 -0.2542  0.7560 -0.0727
 1737SOL    HW215316   3.880   3.844   0.220 -0.9471 -2.1009  0.4980
 1738SOL     OW15317   4.385   9.740   2.007 -0.0346 -0.0703 -0.5933
 1738SOL    HW115318   4.350   9.750   2.100  0.5028 -2.8024 -0.0304
 1738SOL    HW215319   4.323   9.681   1.955  1.3635 -1.2773 -0.9328
 1739SOL     OW15320   3.371   8.847   1.921 -0.0558  0.0088 -0.0640
 1739SOL    HW115321   3.293   8.788   1.899 -1.1118  1.3461 -0.0007
 1739SOL    HW215322   3.427   8.804   1.991 -0.8707 -0.8668  0.0610
 1740SOL     OW15323   3.964   4.628   0.302 -0.6031  0.2950  0.0942
 1740SOL    HW115324   3.963   4.671   0.393  0.8602  0.5670 -0.0028
 1740SOL    HW215325   4.025   4.549   0.304  0.5199  1.1141 -0.9980
 1741SOL     OW15326   9.104   5.828   0.833  0.7351 -0.6039 -1.1297
 1741SOL    HW115327   9.169   5.760   0.799 -0.1485 -1.8751 -0.3183
 1741SOL    HW215328   9.011   5.793   0.823  0.5059 -2.3103  5.1695
 1742SOL     OW15329   0.695   5.113   1.230  0.6303  0.1552  0.0380
 1742SOL    HW115330   0.621   5.171   1.265 -0.0029  1.0949 -2.7546
 1742SOL    HW215331   0.664   5.018   1.226  0.6187  0.0728  1.6816
 1743SOL     OW15332   0.535   1.119   0.650 -0.2095  0.3030  0.0038
 1743SOL    HW115333   0.586   1.041   0.687  1.7718  0.8886 -1.3923
 1743SOL    HW215334   0.458   1.086   0.595  0.6823 -0.6891 -0.6739
 1744SOL     OW15335   0.406   0.366   1.027 -0.1843  0.3323 -0.0654
 1744SOL    HW115336   0.448   0.432   0.965  1.2102 -0.0018  0.5053
 1744SOL    HW215337   0.307   0.365   1.013  0.0450  0.7207 -1.8380
 1745SOL     OW15338   1.232   2.442   2.105  0.6241 -0.1689 -0.1579
 1745SOL    HW115339   1.235   2.486   2.195  0.9191 -0.8128  0.1540
 1745SOL    HW215340   1.169   2.491   2.046  0.9759  0.6893  0.1740
 1746SOL     OW15341   0.720   3.820   2.259  0.1424  0.1598 -0.3108
 1746SOL    HW115342   0.655   3.744   2.263  0.1022  0.1321 -1.3610
 1746SOL    HW215343   0.813   3.784   2.264  0.0963  0.1334  0.3575
 1747SOL     OW15344   3.305   8.840   2.927 -0.0307  0.0721  0.4925
 1747SOL    HW115345   3.316   8.753   2.879  1.8717  0.9632 -0.7825
 1747SOL    HW215346   3.369   8.844   3.003  0.5902  0.7308 -0.0526
 1748SOL     OW15347   1.711   7.660   1.353  0.1541 -0.3154  0.1647
 1748SOL    HW115348   1.793   7.714   1.335 -0.7358  0.6016 -1.3428
 1748SOL    HW215349   1.642   7.681   1.283 -1.1144 -1.5611  1.0139
 1749SOL     OW15350   1.387   5.828   2.835  0.4128 -0.1676 -0.5774
 1749SOL    HW115351   1.473   5.793   2.871 -0.5056 -2.6332 -0.6802
 1749SOL    HW215352   1.312   5.801   2.896 -0.8955 -2.6104 -3.1453
 1750SOL     OW15353   3.004   3.298   2.722  0.0832  0.4671 -0.3055
 1750SOL    HW115354   2.968   3.312   2.629 -0.9000 -1.7714 -0.2950
 1750SOL    HW215355   2.928   3.277   2.784  1.1247 -1.7832  0.2410
 1751SOL     OW15356   9.761   6.589   0.671  0.0202 -0.2704 -0.7777
 1751SOL    HW115357   9.850   6.634   0.681 -0.4325  0.6037 -0.6125
 1751SOL    HW215358   9.775   6.494   0.642  1.1172 -0.9574  1.8169
 1752SOL     OW15359   0.492   6.976   1.827 -0.2842  0.0038 -0.2117
 1752SOL    HW115360   0.441   7.062   1.840 -1.3936 -0.7515  0.5127
 1752SOL    HW215361   0.559   6.966   1.901 -1.3849 -0.6176  0.7069
 1753SOL     OW15362   9.905   0.034   0.475  0.8332  0.3472 -0.7818
 1753SOL    HW115363  10.004   0.030   0.486  0.7177 -2.5879 -0.5680
 1753SOL    HW215364   9.865   0.083   0.553  1.8588 -1.1475  0.7133
 1754SOL     OW15365   1.394   5.272   1.906  0.0851 -0.0779  0.3156
 1754SOL    HW115366   1.361   5.183   1.937 -2.2133  0.3985 -0.6370
 1754SOL    HW215367   1.416   5.268   1.809  1.5349 -0.0148  0.6303
 1755SOL     OW15368   0.344   4.252   2.523 -0.2291 -0.7473 -0.2386
 1755SOL    HW115369   0.305   4.166   2.556  0.0373 -0.8988 -0.3159
 1755SOL    HW215370   0.442   4.252   2.540 -0.4093  0.0300  0.8120
 1756SOL     OW15371   0.658   0.500   0.395 -0.0512  0.0555  0.5073
 1756SOL    HW115372   0.574   0.528   0.348  0.2219 -3.4195 -2.2493
 1756SOL    HW215373   0.737   0.540   0.349 -0.0054  0.3415  0.8330
 1757SOL     OW15374   9.030   4.979   1.740  0.2895  0.2257  0.0660
 1757SOL    HW115375   9.039   4.888   1.780  0.1105 -0.7851 -2.1283
 1757SOL    HW215376   9.117   5.006   1.699  0.2813  0.9785  0.5154
 1758SOL     OW15377   1.101   8.982   0.727 -0.6549 -0.2341  0.1146
 1758SOL    HW115378   1.023   8.967   0.788 -0.0751 -1.4161  0.5714
 1758SOL    HW215379   1.150   8.896   0.712 -0.4844  0.1315 -1.6149
 1759SOL     OW15380   1.188   2.542   1.629  0.0589 -0.0892  0.0209
 1759SOL    HW115381   1.284   2.571   1.636 -0.4398  1.6267  0.1239
 1759SOL    HW215382   1.145   2.549   1.719 -0.0709 -1.2308  0.0521
 1760SOL     OW15383   8.650   3.085   2.357  0.4794  0.0847 -0.6764
 1760SOL    HW115384   8.572   3.043   2.310  0.9675  0.4612 -1.8510
 1760SOL    HW215385   8.619   3.162   2.413 -0.3547 -1.5208  1.1186
 1761SOL     OW15386   3.803   3.298   2.375  0.7336  0.1169 -0.6708
 1761SOL    HW115387   3.757   3.250   2.300 -0.1453 -0.4047  0.1884
 1761SOL    HW215388   3.900   3.308   2.353  0.9629 -2.1622 -0.8229
 1762SOL     OW15389   2.490   4.660   2.229  0.5391 -0.3827  0.2271
 1762SOL    HW115390   2.516   4.751   2.263  1.2181  0.5807 -2.7421
 1762SOL    HW215391   2.566   4.620   2.178 -0.5136 -1.6834 -0.3613
 1763SOL     OW15392   1.579   1.377   1.093 -0.3979  0.0090  0.1074
 1763SOL    HW115393   1.665   1.386   1.142  0.0881  1.0474 -0.9379
 1763SOL    HW215394   1.526   1.461   1.101  0.0738  0.5002 -1.8938
 1764SOL     OW15395   9.086   3.581   0.302  0.5471 -0.4578  0.2005
 1764SOL    HW115396   9.000   3.592   0.252 -0.4141  0.2430  1.9575
 1764SOL    HW215397   9.162   3.615   0.246 -0.4585 -0.0986 -0.9515
 1765SOL     OW15398   1.248   7.042   0.210 -0.4873  0.1172 -0.6707
 1765SOL    HW115399   1.273   7.136   0.189 -1.1181  0.3381 -0.4529
 1765SOL    HW215400   1.330   6.987   0.225 -0.1220  0.6346 -0.7915
 1766SOL     OW15401   3.893   9.822   2.682  0.6382  0.5594  0.6133
 1766SOL    HW115402   3.829   9.823   2.758  0.7435  1.0827  0.7004
 1766SOL    HW215403   3.933   9.913   2.671  1.9534  0.0473  1.0513
 1767SOL     OW15404   3.942   0.147   0.070 -0.0734 -0.2481  0.1874
 1767SOL    HW115405   3.853   0.176   0.104 -0.0640 -2.3300  2.1465
 1767SOL    HW215406   3.985   0.088   0.138  2.2211 -0.3682 -1.3245
 1768SOL     OW15407   9.715   5.977   1.727  0.5096 -0.2325 -0.5103
 1768SOL    HW115408   9.638   5.917   1.749  0.6763 -0.0070  0.6972
 1768SOL    HW215409   9.774   5.932   1.659 -0.5427 -0.5053 -1.2555
 1769SOL     OW15410   4.414   3.739   0.648  0.2411 -0.0009  0.6664
 1769SOL    HW115411   4.396   3.795   0.567  2.5006 -1.0619 -0.6291
 1769SOL    HW215412   4.334   3.740   0.708 -1.2070  1.3913 -1.2154
 1770SOL     OW15413   3.098   2.869   1.970 -0.2869  0.0755 -0.6409
 1770SOL    HW115414   3.053   2.795   2.019 -0.2714  0.2241 -0.4001
 1770SOL    HW215415   3.032   2.916   1.911 -0.3732  0.0835 -0.5385
 1771SOL     OW15416   9.389   3.744   2.749 -0.2272  0.1867 -0.1483
 1771SOL    HW115417   9.375   3.675   2.678  1.4237  1.2779 -1.5871
 1771SOL    HW215418   9.396   3.834   2.707 -0.3912  1.0041  1.5295
 1772SOL     OW15419   1.997   3.448   2.783  0.2059  0.0397 -0.3472
 1772SOL    HW115420   2.025   3.503   2.863 -0.3652  0.2632 -0.2998
 1772SOL    HW215421   1.964   3.509   2.711 -0.2697 -0.2368 -0.3603
 1773SOL     OW15422   2.424   5.533   1.980 -0.6242 -0.5553  0.4340
 1773SOL    HW115423   2.454   5.620   2.019 -0.9547 -0.4634  0.4763
 1773SOL    HW215424   2.430   5.461   2.049  0.8299 -0.8103  0.0583
 1774SOL     OW15425   4.070   3.601   2.811 -0.3524 -0.6754 -0.4943
 1774SOL    HW115426   4.022   3.514   2.801  0.7788 -1.3435 -0.2073
 1774SOL    HW215427   4.015   3.675   2.772 -1.8994 -1.3307  0.3999
 1775SOL     OW15428   3.053   2.142   2.692  0.0316  0.4323 -0.2506
 1775SOL    HW115429   2.963   2.117   2.656  0.1970 -0.0920 -0.3161
 1775SOL    HW215430   3.124   2.095   2.639  0.3732  1.3342 -0.5992
 1776SOL     OW15431   0.435   3.332   1.686 -0.5122  0.0003 -0.2926
 1776SOL    HW115432   0.452   3.234   1.676 -2.2908 -0.2296 -1.3357
 1776SOL    HW215433   0.412   3.370   1.596 -0.7592  1.1996  0.2757
 1777SOL     OW15434   9.611   5.145   2.582 -0.5348  0.5418  0.4231
 1777SOL    HW115435   9.599   5.152   2.483  0.6037  1.0279  0.3028
 1777SOL    HW215436   9.611   5.237   2.622  2.9001  0.6628  0.3435
 1778SOL     OW15437   0.443   9.110   1.202  0.2986  0.3189 -0.5091
 1778SOL    HW115438   0.485   9.021   1.185  0.6615  0.5642 -0.8987
 1778SOL    HW215439   0.440   9.127   1.301 -1.6054 -1.0010 -0.2960
 1779SOL     OW15440   3.197   6.399   0.307  0.1775 -0.1262  0.1661
 1779SOL    HW115441   3.262   6.341   0.258  0.1901 -0.5618  0.6929
 1779SOL    HW215442   3.167   6.352   0.390 -0.9490 -0.0073 -0.1663
 1780SOL     OW15443   0.476   1.192   2.519 -0.3219 -0.2856 -0.3513
 1780SOL    HW115444   0.445   1.097   2.529 -0.8854 -0.0423  0.2133
 1780SOL    HW215445   0.434   1.232   2.438  0.4844 -0.7448 -1.0014
 1781SOL     OW15446   2.392   6.344   0.063  0.2965  0.2019 -0.4159
 1781SOL    HW115447   2.480   6.325   0.106  1.1397  1.9234 -1.3192
 1781SOL    HW215448   2.362   6.264   0.011  0.6482 -0.8752  1.0067
 1782SOL     OW15449   9.957   6.016   1.371  0.3724 -0.2850  0.7900
 1782SOL    HW115450   9.875   6.073   1.372  0.4084 -0.1796 -0.7272
 1782SOL    HW215451   9.955   5.952   1.448 -0.9004  0.0447  1.0359
 1783SOL     OW15452   0.388   1.107   1.699 -0.3937  0.1939  0.2051
 1783SOL    HW115453   0.323   1.118   1.774 -0.8729 -0.1601 -0.1520
 1783SOL    HW215454   0.354   1.155   1.618 -0.1386  0.1322  0.0614
 1784SOL     OW15455   9.164   4.004   0.449  0.3390 -0.2096  0.0251
 1784SOL    HW115456   9.091   3.971   0.509  0.1700  0.3758  0.1384
 1784SOL    HW215457   9.131   4.005   0.354 -1.1084  3.7514  0.5075
 1785SOL     OW15458   1.115   7.059   0.567 -0.0848  0.4755 -0.8401
 1785SOL    HW115459   1.090   6.964   0.585 -0.4160  0.7713  0.3636
 1785SOL    HW215460   1.210   7.065   0.537  0.6983 -0.0175  1.4637
 1786SOL     OW15461   4.910   9.821   2.310 -0.1971  0.4825 -0.8612
 1786SOL    HW115462   4.923   9.841   2.212 -0.4926 -0.7609 -1.1656
 1786SOL    HW215463   4.828   9.867   2.343  0.5484  1.8531 -0.9141
 1787SOL     OW15464   1.684   3.842   0.260  0.9001 -0.3370  0.2967
 1787SOL    HW115465   1.768   3.895   0.271  1.6760 -1.6744  0.8411
 1787SOL    HW215466   1.615   3.875   0.325  1.2514  0.2253  0.3882
 1788SOL     OW15467   9.660   4.727   1.315 -0.6037 -0.1301  0.0096
 1788SOL    HW115468   9.663   4.649   1.253  1.5028 -0.4256  0.4625
 1788SOL    HW215469   9.590   4.792   1.283 -0.8424 -1.1514 -1.5939
 1789SOL     OW15470   8.708   6.759   1.838 -0.5148 -0.4850  0.5690
 1789SOL    HW115471   8.741   6.738   1.930  0.4651 -1.8541 -0.0648
 1789SOL    HW215472   8.673   6.676   1.795  0.2240 -0.1431 -0.7493
 1790SOL     OW15473   2.766   6.606   0.677  0.5392  0.5187  0.3088
 1790SOL    HW115474   2.817   6.616   0.591  1.1323  0.2742  0.6285
 1790SOL    HW215475   2.786   6.684   0.737 -3.0881  2.9049 -1.3830
 1791SOL     OW15476   0.074   4.951   1.607  0.1934 -0.0723 -0.0219
 1791SOL    HW115477   0.145   4.882   1.601  0.1432 -0.1400  0.1860
 1791SOL    HW215478  -0.011   4.915   1.567  0.6948  0.5527 -1.7216
 1792SOL     OW15479   2.825   2.808   2.741  0.7189 -0.4293 -0.0065
 1792SOL    HW115480   2.908   2.825   2.689  0.9239 -0.7368  0.2145
 1792SOL    HW215481   2.750   2.787   2.679  0.6563  0.4765 -0.2359
 1793SOL     OW15482   2.241   5.738   2.495  0.0115  0.3296  0.0228
 1793SOL    HW115483   2.322   5.761   2.550 -1.5277  0.0662  2.4997
 1793SOL    HW215484   2.231   5.805   2.422  2.0401  0.8124  0.1536
 1794SOL     OW15485   0.538   9.070   1.742 -0.5054  0.0345 -0.2820
 1794SOL    HW115486   0.568   9.026   1.657  0.3502 -1.5262  0.8007
 1794SOL    HW215487   0.482   9.005   1.794  2.5646 -0.6428  2.3621
 1795SOL     OW15488   9.285   3.897   1.773  0.0364  0.2586 -0.3890
 1795SOL    HW115489   9.375   3.871   1.738  0.5614  1.7338 -0.1569
 1795SOL    HW215490   9.296   3.948   1.858 -1.0822 -0.5612  0.2542
 1796SOL     OW15491   3.880   0.060   2.229 -0.5006 -0.4476 -0.1860
 1796SOL    HW115492   3.805   0.051   2.294 -0.3574  0.6431  0.1376
 1796SOL    HW215493   3.885  -0.022   2.172 -0.7986 -1.3029  0.9910
 1797SOL     OW15494   1.296   8.755   2.829 -0.0192 -0.0350 -0.4651
 1797SOL    HW115495   1.236   8.755   2.748  1.1029  0.0047 -1.3126
 1797SOL    HW215496   1.391   8.762   2.799  0.5705 -2.6291  0.7584
 1798SOL     OW15497   2.058   9.952   2.568  0.3274 -0.3274 -0.6682
 1798SOL    HW115498   2.009  10.037   2.545 -0.5076 -0.3511  0.9776
 1798SOL    HW215499   2.107   9.919   2.487  2.0381  2.6243 -0.8843
 1799SOL     OW15500   3.492   9.611   1.208  0.1554 -0.1339  0.0066
 1799SOL    HW115501   3.393   9.607   1.192  0.0063 -0.7955  1.0768
 1799SOL    HW215502   3.515   9.697   1.251 -0.1499 -0.5736  1.0599
 1800SOL     OW15503   1.584   6.414   2.399 -0.6219 -0.4441  0.9263
 1800SOL    HW115504   1.577   6.450   2.492  2.1817 -3.5707  2.4537
 1800SOL    HW215505   1.542   6.324   2.394  2.5139 -1.9271  0.1752
 1801SOL     OW15506   3.295   1.488   1.391 -0.1154 -0.2870  0.1366
 1801SOL    HW115507   3.309   1.566   1.452 -0.7101 -1.5105  1.8439
 1801SOL    HW215508   3.292   1.521   1.296  6.6137  0.9447  0.1404
 1802SOL     OW15509   2.274   3.724   2.243 -0.2378  0.0418  0.2217
 1802SOL    HW115510   2.372   3.707   2.245  0.1750  2.0480 -1.4771
 1802SOL    HW215511   2.233   3.696   2.330  1.4457 -2.9204  0.1368
 1803SOL     OW15512   2.911   0.302   1.576  0.3327 -0.4250  0.1535
 1803SOL    HW115513   2.841   0.246   1.620 -0.9919  0.6637 -0.4907
 1803SOL    HW215514   3.001   0.282   1.615 -0.5043 -1.0219  1.8025
 1804SOL     OW15515   1.677   9.176   2.038 -0.1483  0.0477  0.0556
 1804SOL    HW115516   1.702   9.120   2.117 -0.8173 -1.0534 -0.4858
 1804SOL    HW215517   1.655   9.269   2.067  0.1763 -0.1963  1.0816
 1805SOL     OW15518   3.618   4.993   1.313 -0.2117  0.2147 -0.3543
 1805SOL    HW115519   3.574   4.996   1.403 -1.2302 -0.0246 -0.8401
 1805SOL    HW215520   3.596   5.076   1.262 -1.9702 -0.8999 -1.4559
 1806SOL     OW15521   3.415   2.622   1.468 -0.5817 -0.0572 -0.2937
 1806SOL    HW115522   3.384   2.627   1.563  1.7286  0.8338  0.4514
 1806SOL    HW215523   3.474   2.542   1.456  0.0077  0.4373 -0.7105
 1807SOL     OW15524   0.000   0.299   0.768  0.3002  0.2070  0.3567
 1807SOL    HW115525   0.100   0.288   0.767  0.2515 -0.1848 -1.0823
 1807SOL    HW215526  -0.040   0.238   0.835  1.1496  1.3808  1.9546
 1808SOL     OW15527   2.963   6.047   1.950 -0.1607  0.0715  0.9737
 1808SOL    HW115528   2.948   6.110   2.026 -0.0277  0.8812  0.3404
 1808SOL    HW215529   2.912   5.963   1.965 -0.8139  0.5697  1.5454
 1809SOL     OW15530   1.297   0.167   0.636  0.7054  0.4887  0.8150
 1809SOL    HW115531   1.326   0.238   0.701 -0.3626  1.5729  0.1197
 1809SOL    HW215532   1.202   0.183   0.609  0.6943 -0.7778  0.0713
 1810SOL     OW15533   2.049   1.208   0.752 -0.0513  0.0516  0.1519
 1810SOL    HW115534   2.065   1.161   0.839  1.9463  0.4582  0.0271
 1810SOL    HW215535   2.087   1.153   0.677 -1.5322 -0.1699 -0.4581
 1811SOL     OW15536   1.072   0.423   1.654  0.4693 -0.0963 -0.6645
 1811SOL    HW115537   1.101   0.341   1.703  0.4683 -0.8378 -1.8816
 1811SOL    HW215538   1.041   0.492   1.720  1.9331 -0.4865  0.4531
 1812SOL     OW15539   1.641   1.256   2.589 -0.6306 -0.0821  0.9793
 1812SOL    HW115540   1.554   1.263   2.637  0.0283  0.3668  2.1501
 1812SOL    HW215541   1.697   1.336   2.611 -0.7749  0.7396 -1.5242
 1813SOL     OW15542   2.625   7.408   0.323  0.0301  0.7982 -0.7616
 1813SOL    HW115543   2.644   7.352   0.242 -0.2248 -0.7623  0.2223
 1813SOL    HW215544   2.620   7.348   0.403 -0.1603  2.2725  0.3351
 1814SOL     OW15545   2.251   9.325   0.116 -0.2960 -0.3159 -0.6412
 1814SOL    HW115546   2.237   9.411   0.165 -0.6888 -1.8198  1.9434
 1814SOL    HW215547   2.346   9.319   0.085  0.6488 -0.3943  2.1136
 1815SOL     OW15548   2.129   5.706   1.256 -0.2822  0.1494  0.3009
 1815SOL    HW115549   2.110   5.700   1.158  1.9367 -0.5109 -0.0940
 1815SOL    HW215550   2.116   5.801   1.286 -1.6304  0.2234 -0.4768
 1816SOL     OW15551   3.478   0.167   2.055 -0.0476 -0.1435 -1.0638
 1816SOL    HW115552   3.381   0.167   2.030 -0.4843  0.4102  0.5523
 1816SOL    HW215553   3.521   0.250   2.019 -0.6878  0.6752 -0.0148
 1817SOL     OW15554   4.587   3.832   2.122  0.1628 -0.2091  0.9062
 1817SOL    HW115555   4.596   3.732   2.123 -2.0769 -0.4441 -0.0212
 1817SOL    HW215556   4.491   3.857   2.111  0.9274  2.0596 -1.0948
 1818SOL     OW15557   9.841   8.736   0.571 -0.3061  0.0312 -0.5196
 1818SOL    HW115558   9.754   8.703   0.608 -0.1814  0.9688  0.6179
 1818SOL    HW215559   9.865   8.682   0.490 -0.7519 -1.8196  0.5553
 1819SOL     OW15560   3.181   9.639   2.623  0.2629  0.8869  0.3797
 1819SOL    HW115561   3.123   9.720   2.618 -0.3022  0.4162 -0.9612
 1819SOL    HW215562   3.232   9.639   2.709 -1.3293  1.5771  1.3337
 1820SOL     OW15563   2.344   5.671   0.237 -0.0086  0.2877  0.5814
 1820SOL    HW115564   2.291   5.746   0.276 -1.4937 -0.0277 -0.8227
 1820SOL    HW215565   2.441   5.682   0.262 -0.7032  0.8372  3.1707
 1821SOL     OW15566   8.867   3.637   0.135  0.0763 -0.2011  0.0128
 1821SOL    HW115567   8.802   3.563   0.121  0.3568 -0.7101  1.2943
 1821SOL    HW215568   8.908   3.662   0.048 -1.3012 -0.3653 -0.6918
 1822SOL     OW15569   9.252   1.833   0.950  0.1187  0.1002  0.3970
 1822SOL    HW115570   9.314   1.803   1.022 -0.9388 -1.6368  0.6039
 1822SOL    HW215571   9.200   1.755   0.916 -0.5317  1.1819 -1.1570
 1823SOL     OW15572   2.899   2.687   2.083  0.2281  0.0530 -0.7935
 1823SOL    HW115573   2.960   2.650   2.153  2.3345  3.9947 -0.3794
 1823SOL    HW215574   2.813   2.715   2.125 -0.1848 -1.4896 -0.5861
 1824SOL     OW15575   2.282   8.904   1.892 -0.4325 -0.8022  0.0211
 1824SOL    HW115576   2.255   8.812   1.921 -0.3561 -0.7427  0.2838
 1824SOL    HW215577   2.254   8.970   1.962 -1.5609 -0.4785 -0.7213
 1825SOL     OW15578   2.100   7.175   1.649  0.3824 -0.1572  0.4215
 1825SOL    HW115579   2.121   7.251   1.588 -1.4477 -0.9891 -1.3053
 1825SOL    HW215580   2.100   7.208   1.744  0.2483  1.8451 -0.2508
 1826SOL     OW15581   4.504   3.531   2.705  0.5492  0.7837  0.1819
 1826SOL    HW115582   4.418   3.540   2.655  0.8582 -0.0561 -0.5198
 1826SOL    HW215583   4.545   3.442   2.684  1.5609  1.1584  0.5521
 1827SOL     OW15584   1.086   5.457   0.006  0.0054  0.0231  0.1466
 1827SOL    HW115585   1.001   5.480  -0.041 -0.4169  1.1635  1.4441
 1827SOL    HW215586   1.071   5.378   0.065  0.4325 -1.1601 -1.3146
 1828SOL     OW15587   1.886   5.143   2.549  0.3717 -0.3141 -0.5797
 1828SOL    HW115588   1.854   5.175   2.638 -1.2949  0.9723 -1.6014
 1828SOL    HW215589   1.824   5.071   2.515  0.1957  0.1699 -1.3014
 1829SOL     OW15590   0.029   6.519   0.473  0.4290 -0.0078  0.3846
 1829SOL    HW115591  -0.051   6.472   0.510  0.9671 -1.6682 -0.5289
 1829SOL    HW215592   0.008   6.552   0.381 -0.4425  2.8962  1.5739
 1830SOL     OW15593   1.782   0.182   0.409  0.2971 -0.3516  0.5600
 1830SOL    HW115594   1.788   0.249   0.335  0.6302  1.7661  2.4398
 1830SOL    HW215595   1.861   0.121   0.405  1.7119  1.4360  0.7513
 1831SOL     OW15596   1.278   7.902   0.687 -0.7504  0.4121 -0.3288
 1831SOL    HW115597   1.314   7.991   0.660  3.8135 -1.0177  0.5884
 1831SOL    HW215598   1.282   7.840   0.609  2.0753 -0.6642  0.6076
 1832SOL     OW15599   3.846   4.198   1.925  0.5686  0.1009 -0.2781
 1832SOL    HW115600   3.938   4.195   1.887  0.9546  5.0418 -0.0376
 1832SOL    HW215601   3.781   4.228   1.855 -0.6963 -2.2206 -0.1328
 1833SOL     OW15602   0.191   9.649   1.877 -0.7008  0.3929  0.4622
 1833SOL    HW115603   0.250   9.726   1.903  0.0556 -0.2532  0.6611
 1833SOL    HW215604   0.123   9.634   1.949 -1.6888  1.7195 -0.1871
 1834SOL     OW15605   1.723   5.522   0.771 -0.0688 -0.0548  0.7797
 1834SOL    HW115606   1.691   5.524   0.866 -1.5006 -0.1788  0.3188
 1834SOL    HW215607   1.699   5.608   0.726  2.0185  0.6374  0.9606
 1835SOL     OW15608   8.628   4.288   2.344  0.3347 -0.0703  0.2927
 1835SOL    HW115609   8.653   4.372   2.392  1.8678 -0.2592 -0.1265
 1835SOL    HW215610   8.688   4.276   2.265  0.0261 -1.4664  0.2550
 1836SOL     OW15611   2.472   6.327   2.610  0.5579 -0.3687 -0.5998
 1836SOL    HW115612   2.442   6.232   2.604  0.3301 -0.3557  0.3162
 1836SOL    HW215613   2.547   6.343   2.545  0.2204 -1.0274 -1.1468
 1837SOL     OW15614   3.117   8.318   2.882 -0.3637 -0.2387  0.7901
 1837SOL    HW115615   3.116   8.416   2.865  1.0929 -0.2631  0.5529
 1837SOL    HW215616   3.133   8.269   2.796  0.0780 -0.6330  1.0959
 1838SOL     OW15617   0.803   8.437   1.796 -0.6324  0.3044  0.0593
 1838SOL    HW115618   0.741   8.367   1.831 -1.1271 -0.8378 -2.9441
 1838SOL    HW215619   0.755   8.525   1.792 -0.1129  0.8169  3.5065
 1839SOL     OW15620   1.301   3.949   1.173  0.0789 -0.5272 -0.4138
 1839SOL    HW115621   1.395   3.977   1.192 -0.5993 -0.0717  2.4281
 1839SOL    HW215622   1.242   4.031   1.171 -0.4654 -0.9248 -1.0211
 1840SOL     OW15623   2.618   9.715   0.593 -0.4315 -0.0089 -0.1552
 1840SOL    HW115624   2.714   9.687   0.599 -0.2120  0.4061 -1.4753
 1840SOL    HW215625   2.595   9.772   0.672  1.1176  1.8950 -1.0437
 1841SOL     OW15626   0.522   6.805   2.824 -0.0599 -0.0722  0.1205
 1841SOL    HW115627   0.528   6.729   2.889 -0.3079 -0.8508 -0.7531
 1841SOL    HW215628   0.429   6.810   2.788  0.0091  0.5251  0.0295
 1842SOL     OW15629   2.275   4.328   0.948  0.3923  0.2989  0.0485
 1842SOL    HW115630   2.284   4.384   1.030 -2.1311 -1.2262  1.4422
 1842SOL    HW215631   2.284   4.231   0.971  1.5125 -0.0728 -1.8018
 1843SOL     OW15632   0.124   0.168   1.228  0.6615 -0.3696 -0.5385
 1843SOL    HW115633   0.171   0.088   1.189  2.7060  0.9477 -0.8584
 1843SOL    HW215634   0.141   0.248   1.169 -0.7271  0.4663  0.1801
 1844SOL     OW15635   1.297   9.330   1.248 -0.9082 -0.3288 -0.5456
 1844SOL    HW115636   1.202   9.359   1.235 -0.7374  0.9266  0.8965
 1844SOL    HW215637   1.355   9.410   1.262 -0.2069 -1.2697  2.2078
 1845SOL     OW15638   0.539   9.227   2.286 -0.0418  0.3550  0.0323
 1845SOL    HW115639   0.630   9.268   2.276  0.1699  0.3726  1.7914
 1845SOL    HW215640   0.476   9.296   2.321  0.3540 -0.7894  3.1688
 1846SOL     OW15641   9.225   1.716   2.814 -0.1241  0.1987  0.1135
 1846SOL    HW115642   9.178   1.629   2.834  0.4661 -0.2498 -0.4383
 1846SOL    HW215643   9.296   1.700   2.745 -0.4526  1.2473 -0.4736
 1847SOL     OW15644   9.552   4.391   2.718  0.2715 -0.2117  0.0688
 1847SOL    HW115645   9.548   4.385   2.818  1.8934 -1.0615  0.0969
 1847SOL    HW215646   9.534   4.302   2.679 -0.8628  0.2290 -0.4268
 1848SOL     OW15647   3.886   0.646   2.868  0.7902 -0.1400  0.2444
 1848SOL    HW115648   3.813   0.611   2.927 -2.4623  0.3645 -3.2978
 1848SOL    HW215649   3.885   0.597   2.781  1.4502  3.1940 -1.7117
 1849SOL     OW15650   0.953   7.600   2.136  0.0462 -0.0929  0.1366
 1849SOL    HW115651   1.027   7.550   2.090 -0.2214 -0.5017  0.1468
 1849SOL    HW215652   0.904   7.538   2.197 -0.0466  0.2791  0.4435
 1850SOL     OW15653   2.255   2.019   0.241  0.0523 -0.1494  0.3822
 1850SOL    HW115654   2.310   2.050   0.318 -0.0863  0.3952  0.2662
 1850SOL    HW215655   2.179   1.963   0.274 -0.5880  0.9050  0.7342
 1851SOL     OW15656   1.470   6.436   1.644 -0.0786 -0.2189 -0.4979
 1851SOL    HW115657   1.523   6.367   1.694 -0.5070  0.4908  0.9683
 1851SOL    HW215658   1.436   6.504   1.708 -1.0764  0.4411 -1.7093
 1852SOL     OW15659   3.045   0.935   2.386  0.0825  0.2501  0.2668
 1852SOL    HW115660   3.084   0.907   2.299 -0.8189 -0.9316  0.2304
 1852SOL    HW215661   3.118   0.950   2.453  0.7464  0.7706 -0.5708
 1853SOL     OW15662   1.012   2.645   0.586 -0.1141  0.0281 -0.3624
 1853SOL    HW115663   0.956   2.727   0.584  0.1309  0.1913 -0.4800
 1853SOL    HW215664   1.041   2.621   0.493  0.5342  0.3006 -0.2328
 1854SOL     OW15665   2.624   4.091   0.619 -0.2929 -0.1036 -0.1574
 1854SOL    HW115666   2.565   4.112   0.542  0.7985 -1.2614 -1.3277
 1854SOL    HW215667   2.604   3.999   0.653  0.1864 -0.1402  0.0419
 1855SOL     OW15668   0.928   7.258   0.063  0.9675 -0.5095 -0.9087
 1855SOL    HW115669   0.912   7.197   0.140  1.0873 -0.7147 -1.0440
 1855SOL    HW215670   1.013   7.309   0.078 -0.0901  1.0020  0.0758
 1856SOL     OW15671   3.589   2.433   1.195  0.4727 -0.5966  0.2693
 1856SOL    HW115672   3.500   2.403   1.160  0.3082  1.1866 -0.9188
 1856SOL    HW215673   3.611   2.523   1.157  2.7796 -1.0000  0.5727
 1857SOL     OW15674   1.287   0.409   1.211 -0.1154 -0.7548  0.0259
 1857SOL    HW115675   1.368   0.467   1.204 -0.8497  0.0317 -2.1705
 1857SOL    HW215676   1.265   0.395   1.308  2.6881 -1.0881  0.6662
 1858SOL     OW15677   0.435   8.206   1.693 -0.3666  0.0137 -0.1501
 1858SOL    HW115678   0.496   8.210   1.614 -0.6458 -0.1783 -0.3729
 1858SOL    HW215679   0.341   8.217   1.663 -0.3818  1.2232  0.2914
 1859SOL     OW15680   1.978   5.494   0.397 -0.1155  0.1199 -0.5704
 1859SOL    HW115681   1.937   5.501   0.307 -0.9415 -2.9610 -0.4821
 1859SOL    HW215682   2.069   5.453   0.389  0.2162  0.7609 -0.1091
 1860SOL     OW15683   2.303   3.440   2.625 -0.1374 -0.2056  0.3575
 1860SOL    HW115684   2.362   3.418   2.703  2.0486 -0.4754 -1.3220
 1860SOL    HW215685   2.283   3.357   2.574 -0.8605  0.0966  0.1385
 1861SOL     OW15686   1.387   2.845   1.016 -0.0190 -0.2312 -0.2470
 1861SOL    HW115687   1.435   2.763   1.047  1.0417 -0.0829 -1.4696
 1861SOL    HW215688   1.347   2.828   0.926 -0.2586  0.4262 -0.2680
 1862SOL     OW15689   3.748   0.950   2.039  0.7355  0.3447  0.2542
 1862SOL    HW115690   3.708   0.859   2.024  0.2749  0.2754  1.8710
 1862SOL    HW215691   3.839   0.953   1.997  1.6784 -1.6106  2.0606
 1863SOL     OW15692   1.845   3.092   2.682 -0.3455 -0.5789  0.5002
 1863SOL    HW115693   1.931   3.045   2.664 -1.0673 -2.0015  0.6559
 1863SOL    HW215694   1.770   3.026   2.679 -1.5660  0.8194 -0.6927
 1864SOL     OW15695   1.083   2.567   1.896  0.0349  0.3356 -0.1847
 1864SOL    HW115696   1.046   2.648   1.941 -3.6016 -0.4380 -1.5587
 1864SOL    HW215697   1.030   2.486   1.924  0.7926 -0.8690 -2.1050
 1865SOL     OW15698   8.270   5.100   0.422  0.0912  0.1906 -0.2322
 1865SOL    HW115699   8.229   5.105   0.331 -0.0689 -0.4928 -0.1990
 1865SOL    HW215700   8.281   5.192   0.459 -1.1740  0.3885 -0.3392
 1866SOL     OW15701   2.210   2.211   1.072  0.2582 -0.0616 -0.0269
 1866SOL    HW115702   2.144   2.249   1.007  1.8343  0.6834 -1.2437
 1866SOL    HW215703   2.209   2.265   1.156 -0.7932 -0.1561  0.0259
 1867SOL     OW15704   0.103   6.766   1.401  0.4724 -0.5032  0.8167
 1867SOL    HW115705   0.007   6.791   1.397  0.6795  0.1990  0.0890
 1867SOL    HW215706   0.149   6.822   1.470 -0.0854 -2.4095  2.8121
 1868SOL     OW15707   1.743   0.587   0.585  0.1410  0.2585 -0.0552
 1868SOL    HW115708   1.824   0.558   0.635 -0.5144  2.2866  2.2973
 1868SOL    HW215709   1.664   0.592   0.647 -1.6601 -1.0450 -2.1457
 1869SOL     OW15710   1.842   8.269   2.586 -0.3805 -0.3590 -0.4110
 1869SOL    HW115711   1.892   8.186   2.607 -0.0188  0.1160  0.6379
 1869SOL    HW215712   1.844   8.331   2.665  0.2468  1.0821 -1.5225
 1870SOL     OW15713   0.181   6.638   2.445  0.4384 -0.1385 -0.4544
 1870SOL    HW115714   0.183   6.704   2.371 -1.6077  2.5516  1.7666
 1870SOL    HW215715   0.113   6.568   2.426  0.2842  0.2520 -1.3376
 1871SOL     OW15716   1.465   5.976   1.670 -0.2974  0.2883  0.2578
 1871SOL    HW115717   1.509   5.888   1.656 -1.5446 -0.0333 -1.8080
 1871SOL    HW215718   1.376   5.962   1.714 -0.3300  0.5631  0.2819
 1872SOL     OW15719   0.632   0.831   1.962  0.4186  0.3781 -0.0205
 1872SOL    HW115720   0.667   0.768   1.893  1.4065  1.0668 -0.1554
 1872SOL    HW215721   0.533   0.841   1.951  0.0796 -1.9280  0.6432
 1873SOL     OW15722   2.443   5.049   1.987 -0.1584 -0.5392  0.2233
 1873SOL    HW115723   2.407   4.955   1.990 -1.7285  0.0136 -0.7619
 1873SOL    HW215724   2.367   5.113   1.977  0.9517  0.8133  0.4023
 1874SOL     OW15725   4.107   1.080   0.553 -0.0660 -0.5480 -0.6754
 1874SOL    HW115726   4.032   1.084   0.619 -0.3742  0.9058 -1.0926
 1874SOL    HW215727   4.183   1.028   0.592 -0.4689 -0.2006  0.6004
 1875SOL     OW15728   1.542   6.855   2.319 -0.3693 -0.5666 -0.4921
 1875SOL    HW115729   1.560   6.901   2.232  0.7949 -2.0286 -1.0397
 1875SOL    HW215730   1.500   6.766   2.301 -4.7381  1.1369  0.6143
 1876SOL     OW15731   1.743   7.184   1.745  0.8239 -0.1887  0.1294
 1876SOL    HW115732   1.706   7.195   1.653  1.5689 -0.1396 -0.1704
 1876SOL    HW215733   1.827   7.131   1.741  0.9094 -0.1106  0.7750
 1877SOL     OW15734   3.116   3.669   0.127 -0.4293  0.7754 -0.3227
 1877SOL    HW115735   3.141   3.619   0.045 -0.3901  0.5992 -0.2021
 1877SOL    HW215736   3.026   3.711   0.115 -0.4544  0.6893 -0.4270
 1878SOL     OW15737   0.157   3.676   1.595 -0.2794 -0.0325  0.5791
 1878SOL    HW115738   0.256   3.677   1.605 -0.1606  0.6503 -0.5777
 1878SOL    HW215739   0.133   3.696   1.500 -1.5153 -0.4127  0.8046
 1879SOL     OW15740   4.132   0.574   1.473 -0.1804  0.3434  0.8918
 1879SOL    HW115741   4.126   0.511   1.395  0.7103  0.1623  0.9602
 1879SOL    HW215742   4.051   0.563   1.530 -0.9058  0.5646 -0.0655
 1880SOL     OW15743   0.779   5.129   0.947 -0.0943 -0.4332  0.1479
 1880SOL    HW115744   0.730   5.130   1.034  1.4938  0.7582  1.0468
 1880SOL    HW215745   0.722   5.173   0.877  1.0588  4.2856  2.0027
 1881SOL     OW15746   9.978   3.496   0.264  0.1253 -0.1129 -0.5366
 1881SOL    HW115747   9.883   3.526   0.252  0.5935  1.9599  0.6783
 1881SOL    HW215748   9.984   3.437   0.345  0.3091  1.9629  0.9898
 1882SOL     OW15749   2.433   9.085   2.882  0.1884  0.2529  0.2671
 1882SOL    HW115750   2.418   9.074   2.784  0.9049  2.8532 -0.1767
 1882SOL    HW215751   2.350   9.060   2.932 -0.2263 -0.9505 -0.9982
 1883SOL     OW15752   2.767   9.146   0.301  0.7601 -0.1994  0.3181
 1883SOL    HW115753   2.789   9.098   0.216  1.7835 -1.1746  1.1192
 1883SOL    HW215754   2.672   9.127   0.325 -0.1121  1.6056 -1.5804
 1884SOL     OW15755   0.433   3.612   2.356  0.1401 -0.3630 -0.5150
 1884SOL    HW115756   0.460   3.660   2.272 -0.0155  1.9398  0.7281
 1884SOL    HW215757   0.335   3.595   2.354  0.0637  0.0744 -0.6164
 1885SOL     OW15758   3.072   4.335   0.421  0.2166  0.5621  0.4200
 1885SOL    HW115759   3.097   4.241   0.444 -1.1492 -0.2165 -1.1563
 1885SOL    HW215760   3.137   4.371   0.353 -1.3531 -0.5515 -1.7271
 1886SOL     OW15761   9.680   7.492   0.973  0.5506  0.3544  0.2601
 1886SOL    HW115762   9.680   7.574   1.030 -0.4976  0.1564  0.5573
 1886SOL    HW215763   9.586   7.458   0.964  0.8936 -0.4225 -0.4237
 1887SOL     OW15764   4.267   3.163   0.457 -0.3044 -0.0792  0.0142
 1887SOL    HW115765   4.279   3.067   0.484  2.8870  0.3860  0.4065
 1887SOL    HW215766   4.353   3.212   0.471 -1.9287  2.8742 -0.1364
 1888SOL     OW15767   3.105   9.303   1.043  0.2886 -0.0089 -0.2173
 1888SOL    HW115768   3.078   9.393   1.076  1.7218 -0.0564  1.1369
 1888SOL    HW215769   3.092   9.235   1.115  0.6801 -0.6291 -0.7205
 1889SOL     OW15770   3.977   0.925   1.015 -0.8700 -0.0797  0.3191
 1889SOL    HW115771   3.965   0.969   1.104 -0.2132  0.6333  0.0627
 1889SOL    HW215772   3.975   0.994   0.943 -0.9817 -0.6050 -0.1862
 1890SOL     OW15773   9.033   3.920   2.939 -0.5027  0.1056  0.0731
 1890SOL    HW115774   8.948   3.927   2.886 -0.0277  1.9059 -0.4918
 1890SOL    HW215775   9.072   3.829   2.928 -1.3155 -0.0867 -1.3179
 1891SOL     OW15776   2.759   5.281   2.915  0.3568 -0.3848 -0.0715
 1891SOL    HW115777   2.728   5.376   2.906  1.8183  0.2292  1.2024
 1891SOL    HW215778   2.732   5.230   2.833  0.0134  1.2518 -1.0126
 1892SOL     OW15779   2.632   4.903   2.283  0.5190 -0.1122  0.3835
 1892SOL    HW115780   2.711   4.877   2.339  0.7842 -1.2108 -0.4940
 1892SOL    HW215781   2.649   4.993   2.241  1.5289 -0.5785 -0.2183
 1893SOL     OW15782   0.827   3.593   0.211  0.1162 -0.1039  0.2504
 1893SOL    HW115783   0.874   3.508   0.235 -0.0691 -0.2102  0.2409
 1893SOL    HW215784   0.892   3.658   0.173  0.4606  0.1620  1.2811
 1894SOL     OW15785   3.686   1.559   0.955  0.0364  0.2570 -0.5675
 1894SOL    HW115786   3.668   1.461   0.964  1.1807  0.1604  0.9253
 1894SOL    HW215787   3.608   1.603   0.912 -0.8026 -1.1934 -0.5804
 1895SOL     OW15788   0.297   9.414   1.290  0.3078  0.1298 -0.0109
 1895SOL    HW115789   0.341   9.355   1.357 -1.1037 -1.1091 -0.1490
 1895SOL    HW215790   0.350   9.414   1.205 -1.0460 -3.1477 -0.9558
 1896SOL     OW15791   3.007   8.165   2.388 -0.6926  0.2277 -0.2170
 1896SOL    HW115792   2.954   8.229   2.333 -1.2676  1.1699  1.4377
 1896SOL    HW215793   3.094   8.147   2.341  0.1788  3.4328  0.0371
 1897SOL     OW15794   2.397   9.110   1.745  0.1672 -0.0875 -0.2171
 1897SOL    HW115795   2.368   9.036   1.806 -0.6444 -0.7644 -1.4017
 1897SOL    HW215796   2.338   9.189   1.758 -0.2105 -0.3462 -0.3429
 1898SOL     OW15797   0.605   1.071   2.125 -0.3654  0.1270  0.4223
 1898SOL    HW115798   0.626   0.974   2.120 -1.3359 -0.0464 -0.3744
 1898SOL    HW215799   0.679   1.119   2.173  0.3203 -0.9311  0.4296
 1899SOL     OW15800   3.013   4.908   1.448  0.4983  0.6145 -0.5645
 1899SOL    HW115801   2.991   4.847   1.372  1.2864 -1.0223  0.4638
 1899SOL    HW215802   3.097   4.958   1.427 -0.2459  1.4926 -1.4913
 1900SOL     OW15803   3.090   5.491   1.009  0.2955  0.2422  0.7884
 1900SOL    HW115804   3.131   5.523   1.095  1.6217  0.0345  0.2395
 1900SOL    HW215805   3.126   5.400   0.987 -0.1189  0.2554  0.0582
 1901SOL     OW15806   9.980   0.079   2.549 -0.0861  0.4131 -0.8588
 1901SOL    HW115807   9.979  -0.018   2.525 -0.7138 -0.0665  1.0313
 1901SOL    HW215808   9.989   0.134   2.466  1.0276 -1.2737 -1.8883
 1902SOL     OW15809   0.161   7.527   2.461 -0.5578 -0.0802  0.6656
 1902SOL    HW115810   0.087   7.594   2.473 -0.8354 -0.2216 -0.2042
 1902SOL    HW215811   0.247   7.575   2.448 -0.9904  0.1766 -1.5613
 1903SOL     OW15812   0.312   1.114   0.468  0.2289 -0.5891  0.0444
 1903SOL    HW115813   0.382   1.154   0.409 -0.3887 -1.0334 -0.9900
 1903SOL    HW215814   0.255   1.051   0.416  0.0039 -1.3954  1.2306
 1904SOL     OW15815   2.837   8.928   0.130 -0.7579  0.6529  0.7648
 1904SOL    HW115816   2.765   8.922   0.060 -0.1108 -0.3126  0.1669
 1904SOL    HW215817   2.924   8.949   0.086 -0.0935 -1.2924  1.1056
 1905SOL     OW15818   2.540   4.884   1.760 -0.0224  0.0828  0.4875
 1905SOL    HW115819   2.460   4.827   1.743 -0.7625  0.4935  2.4927
 1905SOL    HW215820   2.577   4.863   1.851  1.5997  0.5549 -0.0428
 1906SOL     OW15821   4.265   0.848   1.756 -0.2568  0.0821  0.0391
 1906SOL    HW115822   4.222   0.904   1.686  2.3205 -0.7462 -2.2832
 1906SOL    HW215823   4.289   0.905   1.835  0.6249  1.8988 -1.5112
 1907SOL     OW15824   0.461   7.294   2.267 -0.1723 -0.3714 -0.2588
 1907SOL    HW115825   0.530   7.291   2.339  0.1466 -1.2247 -0.6031
 1907SOL    HW215826   0.373   7.263   2.304 -0.5148  1.2470  0.3280
 1908SOL     OW15827   0.003   3.859   2.158 -0.1058  0.6786  0.3845
 1908SOL    HW115828  -0.015   3.906   2.071  0.3581  0.2600  0.0591
 1908SOL    HW215829  -0.019   3.920   2.234  0.2515  1.3335 -0.0347
 1909SOL     OW15830   0.504   1.523   0.482  0.1794 -0.2515  0.3293
 1909SOL    HW115831   0.500   1.541   0.580 -0.6428 -0.2756  0.3046
 1909SOL    HW215832   0.509   1.424   0.467 -0.7945 -0.3067  0.3247
 1910SOL     OW15833   3.960   2.079   0.806  0.3029  0.8426 -0.2951
 1910SOL    HW115834   3.944   2.100   0.709 -0.3964 -0.3088 -0.4364
 1910SOL    HW215835   3.874   2.090   0.856 -0.3706 -2.6176 -0.5538
 1911SOL     OW15836   4.439   9.515   2.466 -0.4572  0.2301 -0.0709
 1911SOL    HW115837   4.502   9.479   2.397 -1.4790 -0.3445 -0.7259
 1911SOL    HW215838   4.375   9.578   2.422 -0.2481  0.9154  0.6103
 1912SOL     OW15839   0.096   5.168   2.532 -1.1905  0.5723 -0.1131
 1912SOL    HW115840   0.143   5.217   2.605 -0.4583 -0.8382  0.3900
 1912SOL    HW215841   0.010   5.130   2.567 -1.2286  0.5750 -0.2040
 1913SOL     OW15842   2.029   1.395   0.346 -0.3267  0.2714 -0.0627
 1913SOL    HW115843   2.109   1.335   0.337 -1.3281 -1.0042 -0.7034
 1913SOL    HW215844   1.979   1.370   0.430  1.3177  2.7755  1.7284
 1914SOL     OW15845   0.086   4.977   0.453 -0.2669  0.2274  0.3364
 1914SOL    HW115846   0.169   4.922   0.450 -0.6914 -0.3744 -0.6567
 1914SOL    HW215847   0.061   4.994   0.548  1.7628  1.6117  0.6431
 1915SOL     OW15848   1.106   7.091   2.341  0.4626  0.0195  0.2124
 1915SOL    HW115849   1.033   7.069   2.406  1.7735 -0.1486  1.6723
 1915SOL    HW215850   1.082   7.056   2.251 -1.0273 -0.4837  0.7878
 1916SOL     OW15851   3.551   9.627   2.190  0.2331  0.2732  0.4306
 1916SOL    HW115852   3.512   9.652   2.279  0.7675 -0.5814  0.9072
 1916SOL    HW215853   3.592   9.708   2.148 -0.2666  0.7391  0.8346
 1917SOL     OW15854   1.322   9.097   2.105  0.2068 -0.2622  0.2402
 1917SOL    HW115855   1.398   9.092   2.170 -0.3778  1.7112  1.1025
 1917SOL    HW215856   1.347   9.049   2.021  2.2422  0.0187  0.6624
 1918SOL     OW15857   1.091   3.363   0.706 -0.3860  0.1320  0.1523
 1918SOL    HW115858   1.044   3.398   0.787 -0.0962 -1.8586  1.2000
 1918SOL    HW215859   1.023   3.339   0.637 -0.6987  0.7827  0.2305
 1919SOL     OW15860   3.166   0.571   0.100  0.7601  0.1752  0.3730
 1919SOL    HW115861   3.151   0.483   0.056  1.4096  0.3548 -0.2157
 1919SOL    HW215862   3.080   0.603   0.140  0.9686 -1.6493  2.3159
 1920SOL     OW15863   4.011   4.206   2.584 -0.4632  0.8810  0.4014
 1920SOL    HW115864   3.993   4.300   2.554  0.3537  1.0239  0.3422
 1920SOL    HW215865   3.925   4.160   2.601 -0.8592  1.9886  1.5155
 1921SOL     OW15866   1.249   2.740   0.673  0.6581  0.6837 -0.3416
 1921SOL    HW115867   1.155   2.710   0.656  0.5073  1.0731 -0.1820
 1921SOL    HW215868   1.297   2.670   0.726 -0.1191  1.3480  1.2700
 1922SOL     OW15869   1.294   0.604   0.893  0.1503 -0.4528 -0.0747
 1922SOL    HW115870   1.217   0.620   0.955  1.2421 -1.0761  1.4564
 1922SOL    HW215871   1.358   0.681   0.898  0.7778 -1.0012  0.3805
 1923SOL     OW15872   9.815   1.196   1.514  0.2044 -0.6023 -1.3649
 1923SOL    HW115873   9.872   1.187   1.432 -0.1891  0.3634 -1.7467
 1923SOL    HW215874   9.748   1.269   1.500 -1.0430 -1.6192 -0.8773
 1924SOL     OW15875   9.268   5.422   0.018  0.3156  0.3908 -0.6815
 1924SOL    HW115876   9.172   5.397   0.017  0.8099 -1.6985  0.5197
 1924SOL    HW215877   9.297   5.447  -0.075 -1.0521 -0.3266 -1.3137
 1925SOL     OW15878   0.192   8.090   1.840 -0.1368 -0.3191  0.0818
 1925SOL    HW115879   0.285   8.121   1.858 -0.2500  0.4636 -0.6833
 1925SOL    HW215880   0.193   8.019   1.770 -0.0075 -1.1088  0.8818
 1926SOL     OW15881   9.889   6.856   2.751 -0.1824 -0.3022  0.4777
 1926SOL    HW115882   9.921   6.844   2.845  1.4763  0.5652  0.0552
 1926SOL    HW215883   9.919   6.946   2.717 -1.3682 -0.3129 -0.6380
 1927SOL     OW15884   0.461   4.461   1.543 -0.0844  0.0463 -0.1394
 1927SOL    HW115885   0.442   4.473   1.445 -0.0309  0.1848 -0.1326
 1927SOL    HW215886   0.376   4.439   1.591 -0.4193  1.7835  0.0671
 1928SOL     OW15887   0.306   1.187   1.456  0.0196 -0.6088 -0.3366
 1928SOL    HW115888   0.326   1.277   1.417 -1.4726 -0.0778  0.0944
 1928SOL    HW215889   0.267   1.128   1.386  3.3099 -1.7835 -1.2904
 1929SOL     OW15890   1.864   3.024   2.030 -0.3772 -0.3274  0.2016
 1929SOL    HW115891   1.839   3.088   1.958 -1.9179 -0.1542  0.8703
 1929SOL    HW215892   1.804   2.944   2.026  0.0282 -0.6645  0.8108
 1930SOL     OW15893   3.456   5.490   0.134  0.0480  0.3736  0.0842
 1930SOL    HW115894   3.407   5.405   0.116 -0.8145  0.6761  0.9599
 1930SOL    HW215895   3.537   5.470   0.190 -0.1350  0.1175  0.2610
 1931SOL     OW15896   2.428   7.414   1.389 -0.5274  0.1369  0.0720
 1931SOL    HW115897   2.434   7.314   1.384 -1.2160  0.0444  0.8800
 1931SOL    HW215898   2.407   7.450   1.298 -0.8499 -0.5079 -0.1173
 1932SOL     OW15899   3.154   4.212   1.526  0.1208 -0.5278 -0.5319
 1932SOL    HW115900   3.210   4.258   1.457  1.2562 -0.3490  0.4891
 1932SOL    HW215901   3.200   4.128   1.555 -0.9076 -1.1962 -0.8204
 1933SOL     OW15902   9.302   5.835   1.421  0.0776  0.2067  0.1062
 1933SOL    HW115903   9.394   5.824   1.459 -0.6270 -0.9790  1.5396
 1933SOL    HW215904   9.291   5.774   1.343  0.0076 -0.7703  0.8764
 1934SOL     OW15905   4.040   4.794   2.185 -0.0675 -0.2393  0.1840
 1934SOL    HW115906   4.051   4.887   2.220  1.0849 -0.5309  0.6172
 1934SOL    HW215907   4.121   4.740   2.207 -1.0249 -1.5523  0.5678
 1935SOL     OW15908   4.460   9.302   2.878  0.2698  0.2100 -0.0723
 1935SOL    HW115909   4.451   9.401   2.889 -0.3516  0.0559  0.9259
 1935SOL    HW215910   4.497   9.281   2.788  0.8266  1.3702 -0.1149
 1936SOL     OW15911   2.062   0.166   1.904 -0.2117  0.0696 -0.5217
 1936SOL    HW115912   2.005   0.193   1.827  0.8589  1.4323 -0.8435
 1936SOL    HW215913   2.158   0.179   1.881  0.3004 -2.6006 -0.1401
 1937SOL     OW15914   1.998   9.856   1.604 -0.5720 -0.3968 -0.4746
 1937SOL    HW115915   1.930   9.890   1.669 -0.5024 -0.5022 -0.3444
 1937SOL    HW215916   2.015   9.924   1.533  0.4516  0.3330  0.4536
 1938SOL     OW15917   1.627   2.448   1.596 -0.2547  0.4168 -0.0422
 1938SOL    HW115918   1.562   2.381   1.631 -0.3432  0.7132  0.3527
 1938SOL    HW215919   1.720   2.423   1.625 -0.3340  0.6955  0.4566
 1939SOL     OW15920   3.478   9.182   1.654  0.4286 -0.2020  0.2985
 1939SOL    HW115921   3.521   9.209   1.567  0.7884 -0.8022  0.2864
 1939SOL    HW215922   3.383   9.155   1.637  0.8187 -1.3725 -0.0917
 1940SOL     OW15923   4.164   2.118   0.488  0.4860 -0.7847 -0.1260
 1940SOL    HW115924   4.070   2.093   0.468  0.5003 -1.2435  0.3785
 1940SOL    HW215925   4.169   2.160   0.579  0.9877 -2.1098  0.4689
 1941SOL     OW15926   0.916   9.040   1.594 -0.0244  0.0791 -0.3500
 1941SOL    HW115927   0.861   9.017   1.514 -2.0500  2.1774  0.3546
 1941SOL    HW215928   0.907   8.967   1.662  0.1917 -0.8332 -1.2877
 1942SOL     OW15929   1.131   0.826   1.343 -0.5122 -0.6289 -0.6578
 1942SOL    HW115930   1.220   0.870   1.354 -0.2406 -0.5689 -2.7645
 1942SOL    HW215931   1.074   0.843   1.424  1.6673 -1.3768  1.0708
 1943SOL     OW15932   0.487   1.265   0.294  0.1727 -0.0095  0.4072
 1943SOL    HW115933   0.416   1.295   0.229  0.6003 -1.0829 -0.5693
 1943SOL    HW215934   0.576   1.268   0.249  0.6075  0.2020  1.2739
 1944SOL     OW15935   2.756   8.509   1.453 -0.3286 -0.1494  0.0900
 1944SOL    HW115936   2.783   8.442   1.384  1.0076 -0.6475  1.0726
 1944SOL    HW215937   2.706   8.584   1.409  0.9202 -0.2168 -1.4882
 1945SOL     OW15938   9.103   7.288   1.564  0.4994  0.2030  0.3493
 1945SOL    HW115939   9.123   7.386   1.565 -2.4497  0.8260  1.6580
 1945SOL    HW215940   9.103   7.255   1.469  1.8756  1.3525 -0.0701
 1946SOL     OW15941   0.581   3.974   1.704  0.0642 -0.0030  0.0227
 1946SOL    HW115942   0.632   3.984   1.619 -1.4743 -0.9664 -1.0423
 1946SOL    HW215943   0.619   3.899   1.757  1.5248  1.1011  0.5781
 1947SOL     OW15944   3.608   6.433   0.364  0.3461  0.1972  0.3134
 1947SOL    HW115945   3.568   6.523   0.345 -1.1763 -0.6963 -0.8338
 1947SOL    HW215946   3.539   6.362   0.351  1.5027 -1.1492  1.2926
 1948SOL     OW15947   3.964   1.152   0.816  0.1589  0.2604 -0.1071
 1948SOL    HW115948   3.888   1.200   0.772 -1.1310 -0.7372  1.0006
 1948SOL    HW215949   4.034   1.218   0.844  0.2813  1.0601 -2.2363
 1949SOL     OW15950   9.584   6.446   1.550 -0.6521  0.1348  0.5494
 1949SOL    HW115951   9.643   6.385   1.602  0.5277  0.9939  0.2287
 1949SOL    HW215952   9.636   6.488   1.475 -1.7438  0.6369  0.0586
 1950SOL     OW15953   9.287   2.478   1.157  0.1737 -0.0613 -0.2153
 1950SOL    HW115954   9.345   2.417   1.103  1.6633  0.7810  0.3906
 1950SOL    HW215955   9.237   2.424   1.224  0.3523 -0.7985 -0.6647
 1951SOL     OW15956   4.488   1.253   2.076  0.2372 -0.3029  0.0468
 1951SOL    HW115957   4.457   1.239   1.982  0.9478 -0.0682 -0.2291
 1951SOL    HW215958   4.441   1.332   2.115  0.1857 -0.1976 -0.2249
 1952SOL     OW15959   1.455   2.726   1.940  0.0681  0.3171 -0.0601
 1952SOL    HW115960   1.428   2.655   2.005  2.9616  0.4900  1.4365
 1952SOL    HW215961   1.458   2.687   1.848 -1.4081 -0.6647  0.2903
 1953SOL     OW15962   1.205   9.955   1.308 -0.1219 -0.4835  0.1947
 1953SOL    HW115963   1.125  10.016   1.312 -1.3234 -1.6228 -4.2755
 1953SOL    HW215964   1.176   9.861   1.328  0.2249 -0.8126 -0.8661
 1954SOL     OW15965   9.365   6.312   0.848  0.0809  0.2079  0.1630
 1954SOL    HW115966   9.266   6.308   0.859  0.1857  0.2474  1.1165
 1954SOL    HW215967   9.410   6.300   0.937  0.8845  2.9733  0.1611
 1955SOL     OW15968   4.388   3.540   1.961  0.4432  0.1771 -0.2279
 1955SOL    HW115969   4.414   3.568   2.054 -0.9092 -0.3624  0.3246
 1955SOL    HW215970   4.471   3.528   1.906  1.4204 -1.6055  1.5177
 1956SOL     OW15971   8.552   6.910   0.406  0.6984 -0.0346 -0.2324
 1956SOL    HW115972   8.551   6.973   0.328  1.8748  0.4698  0.1635
 1956SOL    HW215973   8.495   6.830   0.384  1.3424 -0.0911 -1.7715
 1957SOL     OW15974   1.255   7.331   0.914 -0.3063 -0.5775 -0.1143
 1957SOL    HW115975   1.346   7.290   0.915  0.0617  0.1639 -1.6667
 1957SOL    HW215976   1.222   7.336   0.820 -0.1156  3.1103 -0.0739
 1958SOL     OW15977   9.610   3.743   0.409  0.6197  0.1866  0.0838
 1958SOL    HW115978   9.532   3.723   0.468 -0.6022  0.7124 -1.3344
 1958SOL    HW215979   9.628   3.664   0.350  1.9525 -0.4079  1.2561
 1959SOL     OW15980   3.936   1.528   2.002  0.2861  0.7263 -0.0192
 1959SOL    HW115981   3.934   1.446   2.060 -0.1042  0.1860 -0.7748
 1959SOL    HW215982   3.995   1.597   2.043  0.0891  0.3177  0.9705
 1960SOL     OW15983   8.350   3.199   1.487 -0.3938 -0.3336 -0.5613
 1960SOL    HW115984   8.437   3.191   1.438 -0.2477 -0.6287 -0.2582
 1960SOL    HW215985   8.356   3.274   1.552 -0.6232  0.1275 -1.0709
 1961SOL     OW15986   2.157   7.955   2.437 -0.5845 -0.6301  0.7129
 1961SOL    HW115987   2.174   7.859   2.455  0.0280 -0.7361 -0.3662
 1961SOL    HW215988   2.243   8.005   2.441 -0.7217 -0.3355  0.0435
 1962SOL     OW15989   8.747   6.891   1.412 -0.2170 -0.3177 -0.1686
 1962SOL    HW115990   8.797   6.882   1.326 -0.8059 -0.5674 -0.4881
 1962SOL    HW215991   8.650   6.905   1.393 -0.6404 -2.2320  0.4824
 1963SOL     OW15992   2.356   1.182   1.395 -0.0059  0.2388  0.8710
 1963SOL    HW115993   2.307   1.249   1.338 -0.9974 -1.7281 -0.6558
 1963SOL    HW215994   2.448   1.216   1.413  0.4693  0.7959 -2.2320
 1964SOL     OW15995   1.181   6.877   0.967 -0.3540  0.1045 -0.2216
 1964SOL    HW115996   1.152   6.829   1.050 -0.1961 -1.5828 -1.1262
 1964SOL    HW215997   1.159   6.974   0.976  3.0257  0.6550  3.3396
 1965SOL     OW15998   2.257   5.694   1.796 -0.5770 -0.0311 -0.0078
 1965SOL    HW115999   2.286   5.601   1.820  1.3524  1.1885  2.6404
 1965SOL    HW216000   2.200   5.731   1.870 -1.8311  0.6961 -1.3249
 1966SOL     OW16001   0.582   0.820   0.629  0.2152 -0.2268 -0.1405
 1966SOL    HW116002   0.520   0.799   0.704  0.0428 -1.2753 -0.5619
 1966SOL    HW216003   0.530   0.849   0.549  0.4297  1.3899  0.2965
 1967SOL     OW16004   2.370   7.872   2.649  0.4903 -0.9326 -0.1749
 1967SOL    HW116005   2.367   7.779   2.685  1.9943 -0.6499  0.7688
 1967SOL    HW216006   2.426   7.874   2.566  3.7075 -0.2716  1.9144
 1968SOL     OW16007   1.461   7.169   1.772 -0.4180  0.5191 -0.5137
 1968SOL    HW116008   1.548   7.208   1.804 -0.4051 -0.6027  0.8861
 1968SOL    HW216009   1.429   7.221   1.693  1.1978  1.3576 -0.6568
 1969SOL     OW16010   0.375   8.275   2.055  0.3012  0.1833  0.0288
 1969SOL    HW116011   0.462   8.306   2.018 -0.3001  0.4772 -1.1789
 1969SOL    HW216012   0.304   8.341   2.032 -0.2430 -0.0597  0.9905
 1970SOL     OW16013   2.399   5.612   1.190 -0.0511  0.1668  0.0370
 1970SOL    HW116014   2.306   5.588   1.215 -0.5862  0.6854 -1.4473
 1970SOL    HW216015   2.448   5.530   1.158 -0.4924  0.2015 -0.7273
 1971SOL     OW16016   1.226   9.644   2.587  0.0603 -0.1806  0.4691
 1971SOL    HW116017   1.135   9.672   2.617  0.0758 -0.3332  0.6641
 1971SOL    HW216018   1.245   9.552   2.620 -0.3550 -0.7878 -0.9699
 1972SOL     OW16019   1.340   5.685   0.632  0.1667  0.3468  0.2998
 1972SOL    HW116020   1.298   5.652   0.716 -0.8745 -0.4382 -0.5132
 1972SOL    HW216021   1.380   5.608   0.582  1.7851  0.9643  0.6167
 1973SOL     OW16022   3.520   9.526   1.565  0.3732  0.2457  0.3184
 1973SOL    HW116023   3.505   9.619   1.531  0.4048  0.2618  0.3483
 1973SOL    HW216024   3.617   9.513   1.585  0.6493 -0.3435 -1.3339
 1974SOL     OW16025   2.651   3.741   0.187 -0.0301  0.2821  0.5978
 1974SOL    HW116026   2.574   3.683   0.160  0.4114 -0.0381  0.0043
 1974SOL    HW216027   2.621   3.807   0.255 -0.0905 -1.9468  2.7914
 1975SOL     OW16028   1.283   1.792   1.852  0.2055 -0.0194 -0.1918
 1975SOL    HW116029   1.256   1.696   1.853  1.0701 -0.3636 -3.5140
 1975SOL    HW216030   1.234   1.840   1.780  0.6349  1.7794  0.6823
 1976SOL     OW16031   0.702   2.545   1.916 -0.0289  0.1876 -0.3526
 1976SOL    HW116032   0.603   2.557   1.925 -0.0003 -1.3009  2.6886
 1976SOL    HW216033   0.721   2.451   1.887  0.4690  0.9006 -2.3853
 1977SOL     OW16034   9.923   5.517   1.017 -0.0370  0.0357  0.7702
 1977SOL    HW116035  10.005   5.490   0.966 -0.2811 -0.1839  0.4934
 1977SOL    HW216036   9.862   5.438   1.026 -0.0316  0.0914  1.3356
 1978SOL     OW16037   0.440   6.247   1.827  0.5337  0.6081 -0.4022
 1978SOL    HW116038   0.355   6.299   1.815 -0.5498 -0.3320  2.5446
 1978SOL    HW216039   0.432   6.159   1.780  0.5134  1.1698 -1.4601
 1979SOL     OW16040   0.655   7.762   1.171 -0.5832 -0.2750 -0.8559
 1979SOL    HW116041   0.732   7.722   1.221 -0.8532 -1.1486 -1.1291
 1979SOL    HW216042   0.668   7.861   1.163 -0.0252 -0.2755  0.0322
 1980SOL     OW16043   0.761   5.069   1.709  0.0330  0.1446 -0.2576
 1980SOL    HW116044   0.714   5.010   1.644 -1.3870  0.2411  0.6353
 1980SOL    HW216045   0.699   5.143   1.737  0.1992 -0.5596  2.0666
 1981SOL     OW16046   2.764   0.838   0.341 -0.4335 -1.1795 -0.3911
 1981SOL    HW116047   2.713   0.801   0.264 -0.6119  0.7583 -1.2209
 1981SOL    HW216048   2.858   0.803   0.339 -0.6391 -1.6925 -1.0893
 1982SOL     OW16049   3.838   2.882   1.771  0.1162  0.6380  0.3025
 1982SOL    HW116050   3.911   2.865   1.705 -0.3471  1.6900 -0.4975
 1982SOL    HW216051   3.878   2.908   1.859  0.7582 -1.9065  0.7867
 1983SOL     OW16052   4.026   1.544   0.411  0.0128 -0.1725  0.2745
 1983SOL    HW116053   4.110   1.512   0.456 -0.2920 -0.7558  0.4394
 1983SOL    HW216054   3.950   1.484   0.438 -0.3362 -0.0072 -0.3527
 1984SOL     OW16055   1.387   1.211   1.202 -0.1529 -0.2243 -0.2831
 1984SOL    HW116056   1.455   1.272   1.162 -0.1154  1.3820  2.1912
 1984SOL    HW216057   1.295   1.245   1.182 -0.1446  0.2492  0.4858
 1985SOL     OW16058   2.941   6.569   1.036 -0.1232 -0.7935  0.2522
 1985SOL    HW116059   3.015   6.507   1.008 -0.4036 -1.0348  0.0409
 1985SOL    HW216060   2.949   6.588   1.133  0.6532 -0.2260  0.0778
 1986SOL     OW16061   3.585   4.001   0.857 -0.4286  0.1844  0.0960
 1986SOL    HW116062   3.618   3.965   0.944 -2.2285 -1.3160  0.1799
 1986SOL    HW216063   3.591   3.930   0.786 -2.0834  0.3273 -0.2130
 1987SOL     OW16064   1.634   0.071   2.723  0.4909 -0.0448 -0.2117
 1987SOL    HW116065   1.700  -0.004   2.724  0.3981 -0.1289 -0.3160
 1987SOL    HW216066   1.637   0.120   2.810  2.2912  1.3513 -1.0232
 1988SOL     OW16067   1.610   2.695   1.170  0.1028 -0.2900  0.0327
 1988SOL    HW116068   1.613   2.635   1.250 -1.7454 -0.8891 -0.3126
 1988SOL    HW216069   1.703   2.715   1.140  0.7883 -1.3029  1.4038
 1989SOL     OW16070   2.070   5.896   0.998 -0.4389 -0.5038 -0.0274
 1989SOL    HW116071   2.103   5.804   0.975 -0.5264 -0.7726  0.9227
 1989SOL    HW216072   2.026   5.894   1.087 -0.4450  0.4713 -0.0075
 1990SOL     OW16073   8.685   4.176   1.690 -0.8395  0.8250  0.3597
 1990SOL    HW116074   8.607   4.140   1.741  0.3128 -2.5064 -0.0835
 1990SOL    HW216075   8.768   4.165   1.744 -0.0864  0.4118 -0.8694
 1991SOL     OW16076   8.296   3.155   0.446 -0.7020  0.5772  0.0447
 1991SOL    HW116077   8.373   3.172   0.508 -0.0160 -2.1295  0.0054
 1991SOL    HW216078   8.217   3.208   0.475  0.0587  0.5110  2.3470
 1992SOL     OW16079   1.245   2.040   0.401  0.0430 -0.0099  0.0291
 1992SOL    HW116080   1.150   2.048   0.430  1.0381  0.8158  3.2966
 1992SOL    HW216081   1.300   2.001   0.475  2.6708  1.8667 -0.8293
 1993SOL     OW16082   0.012   4.717   2.250  0.1483  0.2380  0.0631
 1993SOL    HW116083   0.056   4.657   2.316  1.1047  0.4405 -0.3844
 1993SOL    HW216084  -0.081   4.684   2.231  0.5628 -0.9237  0.0431
 1994SOL     OW16085   2.474   3.184   2.675 -0.2571  0.4786 -0.4404
 1994SOL    HW116086   2.483   3.175   2.774 -0.4057  2.6829 -0.1871
 1994SOL    HW216087   2.559   3.221   2.637 -0.0067 -0.8744 -1.2212
 1995SOL     OW16088   2.302   9.018   1.491 -0.0484 -0.1988 -0.0858
 1995SOL    HW116089   2.261   9.075   1.420 -0.1605  0.0880  0.2094
 1995SOL    HW216090   2.320   9.073   1.573  0.4988 -0.4284 -0.0494
 1996SOL     OW16091   3.208   8.040   1.782  0.4840  0.5873 -0.4797
 1996SOL    HW116092   3.215   8.036   1.683  1.1067  0.4349 -0.4313
 1996SOL    HW216093   3.123   8.086   1.808  2.4739  4.8045 -1.0841
 1997SOL     OW16094   2.417   2.365   2.808  0.0769 -0.5360  0.5516
 1997SOL    HW116095   2.413   2.395   2.713  1.1377 -0.7902  0.4178
 1997SOL    HW216096   2.349   2.293   2.823  0.7352 -1.3545 -0.3340
 1998SOL     OW16097   1.484   5.909   0.548 -0.3846  0.3523  0.2103
 1998SOL    HW116098   1.573   5.864   0.551 -0.2951  0.3389 -1.8114
 1998SOL    HW216099   1.413   5.843   0.572  0.0171 -0.0525  0.2962
 1999SOL     OW16100   9.268   5.682   2.734 -0.5566  0.1604 -0.3710
 1999SOL    HW116101   9.309   5.636   2.656 -0.9368  0.7635 -0.9337
 1999SOL    HW216102   9.313   5.770   2.747  0.1366 -0.3444  0.6660
 2000SOL     OW16103   4.323   3.407   0.267  1.1196  0.0351 -0.1995
 2000SOL    HW116104   4.288   3.339   0.331 -1.5210  0.9490 -0.6128
 2000SOL    HW216105   4.412   3.377   0.232 -0.1703 -3.3909 -0.7096
 2001SOL     OW16106   0.352   2.332   0.244  0.5263 -0.3706 -0.1935
 2001SOL    HW116107   0.355   2.282   0.157  2.1275  0.5621 -0.6935
 2001SOL    HW216108   0.340   2.267   0.319 -0.0882 -1.2611 -1.0417
 2002SOL     OW16109   4.037   3.176   2.591  0.1580  0.1823 -0.7108
 2002SOL    HW116110   4.136   3.187   2.586  0.1208  0.5621 -0.6751
 2002SOL    HW216111   3.999   3.245   2.653 -0.0728 -0.3126 -0.3035
 2003SOL     OW16112   9.389   4.997   1.410  0.2412 -0.0462  0.2540
 2003SOL    HW116113   9.434   4.972   1.325  1.2334 -2.1374  1.3595
 2003SOL    HW216114   9.292   4.973   1.404  0.5041 -1.0660  0.0635
 2004SOL     OW16115   1.781   6.739   1.718  0.0355  0.4957 -0.1950
 2004SOL    HW116116   1.771   6.661   1.779  1.9914 -0.1742 -0.6722
 2004SOL    HW216117   1.711   6.808   1.739 -0.5267 -0.5522  1.4786
 2005SOL     OW16118   3.945   1.974   0.081 -0.3188  0.2289 -0.5648
 2005SOL    HW116119   4.021   1.989   0.144 -0.9439 -0.5458  0.4019
 2005SOL    HW216120   3.928   1.876   0.072  0.2089  0.3022 -2.5063
 2006SOL     OW16121   2.484   8.030   1.194 -0.2569 -0.0225  0.2803
 2006SOL    HW116122   2.504   8.033   1.096  0.1979  1.2278  0.4047
 2006SOL    HW216123   2.387   8.050   1.209  0.2606  2.6393  0.2648
 2007SOL     OW16124   3.372   3.479   2.783  0.8426  0.3870 -0.4711
 2007SOL    HW116125   3.377   3.501   2.881  0.4120  0.2175 -0.4127
 2007SOL    HW216126   3.455   3.514   2.738  0.1903  2.1191 -0.3829
 2008SOL     OW16127   3.100   9.836   1.416 -0.2970  0.3246 -0.6664
 2008SOL    HW116128   3.100   9.873   1.323  0.2531  2.4082  0.1143
 2008SOL    HW216129   3.012   9.792   1.434 -0.3159 -0.3152 -2.2478
 2009SOL     OW16130   0.901   8.882   0.889 -0.1217 -0.2658  0.0317
 2009SOL    HW116131   0.859   8.814   0.830 -0.0810  0.0048 -0.3095
 2009SOL    HW216132   0.890   8.854   0.985 -0.9120 -0.2922 -0.0598
 2010SOL     OW16133   1.833   3.621   1.033  0.0889  0.0375 -0.0165
 2010SOL    HW116134   1.766   3.594   1.101  0.9670 -1.6387  0.1957
 2010SOL    HW216135   1.919   3.573   1.049  1.4275  2.3042 -0.1646
 2011SOL     OW16136   9.412   3.849   2.022  0.5249 -0.2743  0.3986
 2011SOL    HW116137   9.452   3.772   2.070  1.1087 -1.6526 -2.1938
 2011SOL    HW216138   9.482   3.894   1.966 -0.3416  0.6423  0.0262
 2012SOL     OW16139   1.537   7.982   0.037 -0.2207  0.9854  0.5508
 2012SOL    HW116140   1.633   7.971   0.010  0.0633  2.1833  1.0561
 2012SOL    HW216141   1.528   8.060   0.098 -1.5599  1.0190  0.3283
 2013SOL     OW16142   8.316   3.760   0.388 -0.6409  0.6851  0.4865
 2013SOL    HW116143   8.296   3.782   0.483 -0.0776 -2.6432  1.4576
 2013SOL    HW216144   8.398   3.808   0.359 -1.4810  2.6467  1.2823
 2014SOL     OW16145   4.514   8.961   0.808  0.0185  0.6162 -0.4012
 2014SOL    HW116146   4.494   9.048   0.851  1.4198 -0.1525  1.8864
 2014SOL    HW216147   4.471   8.887   0.859  2.5770 -0.4057  0.3845
 2015SOL     OW16148   9.815   1.910   1.748 -0.3453  0.5661  0.0502
 2015SOL    HW116149   9.730   1.959   1.725 -0.2041  0.8851  0.2086
 2015SOL    HW216150   9.856   1.952   1.829 -0.4778 -0.1257  0.4758
 2016SOL     OW16151   8.267   4.090   1.675 -0.5053  0.0895 -0.2510
 2016SOL    HW116152   8.331   4.107   1.751 -2.4530  1.3506  1.1647
 2016SOL    HW216153   8.278   4.163   1.607 -0.8736  0.6733  0.3044
 2017SOL     OW16154   1.994   2.832   2.926 -0.4397  0.2039  0.0527
 2017SOL    HW116155   2.061   2.896   2.888 -1.1985  1.1822  0.3464
 2017SOL    HW216156   1.945   2.787   2.851  0.4227 -0.4045 -0.1623
 2018SOL     OW16157   9.152   2.986   2.086  0.3267 -0.4165 -0.0479
 2018SOL    HW116158   9.192   2.942   2.006 -0.2762 -2.6232  0.8282
 2018SOL    HW216159   9.171   2.931   2.168  1.8702  2.3321  1.5278
 2019SOL     OW16160   0.289   2.901   0.663 -0.2229 -0.3323 -0.1867
 2019SOL    HW116161   0.309   2.993   0.698 -0.5304 -0.2009 -0.3485
 2019SOL    HW216162   0.221   2.858   0.722 -0.4490 -0.2622 -0.3944
 2020SOL     OW16163   2.269   4.239   2.105 -0.8036  0.4381  0.3880
 2020SOL    HW116164   2.360   4.205   2.129  0.7798  3.1650 -1.4007
 2020SOL    HW216165   2.248   4.214   2.010 -1.2034  1.1450  0.2834
 2021SOL     OW16166   8.936   6.559   2.795  0.1323  0.2248 -0.1358
 2021SOL    HW116167   9.024   6.526   2.829 -0.5512 -0.0573  1.3851
 2021SOL    HW216168   8.944   6.657   2.773  0.4752  0.5221  1.2539
 2022SOL     OW16169   1.659   1.887   2.280 -0.5685 -0.2520  0.2435
 2022SOL    HW116170   1.709   1.840   2.352 -0.3639  0.5648  0.6344
 2022SOL    HW216171   1.708   1.877   2.193  0.7986  1.3598  0.8027
 2023SOL     OW16172   3.089   8.848   0.735  0.0805 -0.5078  0.3832
 2023SOL    HW116173   3.066   8.936   0.777  0.2051  0.3711 -1.3346
 2023SOL    HW216174   3.113   8.782   0.806 -1.7274  0.3350  1.8066
 2024SOL     OW16175   9.389   8.101   0.614  0.2984 -0.1980  0.4146
 2024SOL    HW116176   9.400   8.195   0.582  0.0754 -0.5848 -0.8276
 2024SOL    HW216177   9.411   8.038   0.539 -0.3102 -1.1202  1.0072
 2025SOL     OW16178   2.308   0.610   1.670 -0.4525  0.0640 -0.0118
 2025SOL    HW116179   2.230   0.554   1.697 -0.8384 -0.0347 -1.3270
 2025SOL    HW216180   2.293   0.704   1.699 -1.1644  0.0879 -0.4592
 2026SOL     OW16181   9.733   6.417   0.254  0.0104 -0.0171  0.4225
 2026SOL    HW116182   9.826   6.383   0.241 -0.5447 -0.6815 -2.1317
 2026SOL    HW216183   9.674   6.342   0.283 -0.3536 -0.3259 -1.0737
 2027SOL     OW16184   1.480   9.032   2.363 -0.8553  0.1190 -0.5463
 2027SOL    HW116185   1.503   8.936   2.381  0.0099  0.3488 -0.3812
 2027SOL    HW216186   1.558   9.089   2.387 -1.3608  0.8644 -0.6756
 2028SOL     OW16187   4.677   3.779   1.583  0.2969 -0.0530  0.4482
 2028SOL    HW116188   4.750   3.835   1.545  0.5992 -0.8592 -0.1923
 2028SOL    HW216189   4.654   3.706   1.518 -1.0244  0.1540  0.6776
 2029SOL     OW16190   3.439   5.346   1.848  0.4096  0.4437 -0.5172
 2029SOL    HW116191   3.512   5.285   1.818  0.7936 -0.2361  1.7329
 2029SOL    HW216192   3.447   5.363   1.946 -2.0967  0.8365 -0.3424
 2030SOL     OW16193   2.005   6.168   0.278  0.3144 -0.1948 -0.2751
 2030SOL    HW116194   1.939   6.134   0.345  0.9748 -0.3572  0.2967
 2030SOL    HW216195   2.034   6.260   0.302  1.5424 -0.7529  0.3966
 2031SOL     OW16196   2.424   7.914   1.757  0.0529  0.0615 -0.6579
 2031SOL    HW116197   2.468   7.897   1.669 -0.4860  1.8239 -1.2757
 2031SOL    HW216198   2.465   7.994   1.800 -2.1089  1.3501 -0.9440
 2032SOL     OW16199   2.766   0.567   0.128  0.4819 -0.3634 -0.5752
 2032SOL    HW116200   2.667   0.578   0.127  0.7618  2.5189 -0.7692
 2032SOL    HW216201   2.807   0.630   0.061  2.4585 -1.3774 -0.3584
 2033SOL     OW16202   0.402   6.098   0.220  0.3899 -0.4429 -0.3263
 2033SOL    HW116203   0.495   6.063   0.231 -0.2449 -2.2348 -0.5780
 2033SOL    HW216204   0.401   6.166   0.146  1.6088  0.0603  0.0994
 2034SOL     OW16205   8.640   4.519   0.804  0.8872  0.2667  0.2592
 2034SOL    HW116206   8.617   4.512   0.706 -1.5799 -3.0803  0.9593
 2034SOL    HW216207   8.571   4.575   0.850  0.2205 -0.8048  0.5815
 2035SOL     OW16208   9.539   1.510   1.180 -0.2556 -0.3126  0.4108
 2035SOL    HW116209   9.579   1.491   1.270 -1.0005  3.3685  1.6353
 2035SOL    HW216210   9.612   1.535   1.116  0.0827 -0.7065  0.6408
 2036SOL     OW16211   9.371   3.249   1.209 -0.6465  0.1992 -0.1796
 2036SOL    HW116212   9.284   3.275   1.250 -0.9431 -0.7879 -0.1892
 2036SOL    HW216213   9.376   3.150   1.199  1.6127 -0.0232  2.4682
 2037SOL     OW16214   4.897   3.311   0.906  0.0887 -0.0171  0.0064
 2037SOL    HW116215   4.991   3.343   0.918  0.8240 -1.0428 -2.6405
 2037SOL    HW216216   4.834   3.389   0.910  1.5198  1.3454 -2.9391
 2038SOL     OW16217   0.663   5.979   1.380 -0.0892  0.3603  0.0946
 2038SOL    HW116218   0.649   5.897   1.324  0.8705  1.3069 -1.5877
 2038SOL    HW216219   0.597   6.049   1.353 -0.8653  0.1722  1.4814
 2039SOL     OW16220   1.737   8.058   2.011 -0.1563 -0.4492  0.3056
 2039SOL    HW116221   1.692   8.097   2.092 -2.6780 -0.2204 -1.1326
 2039SOL    HW216222   1.717   8.114   1.931  5.1539  1.2848  0.0074
 2040SOL     OW16223   8.776   5.816   0.074 -0.0755  0.4225  0.2841
 2040SOL    HW116224   8.801   5.887   0.008 -0.2721  0.5969  0.3961
 2040SOL    HW216225   8.729   5.858   0.152  2.1077  0.4849  1.5834
 2041SOL     OW16226   0.666   6.396   2.890  0.2349 -0.6357 -0.5731
 2041SOL    HW116227   0.669   6.404   2.790  1.5666 -1.2399 -0.5885
 2041SOL    HW216228   0.583   6.347   2.917  1.7909 -3.9689 -1.6279
 2042SOL     OW16229   9.681   4.756   2.380  0.0083  0.3811 -0.7332
 2042SOL    HW116230   9.726   4.682   2.331  1.0124  0.3714  0.1976
 2042SOL    HW216231   9.607   4.719   2.437 -0.3492  0.2518 -1.2822
 2043SOL     OW16232   0.125   7.007   1.890  0.1255  0.2220  1.2303
 2043SOL    HW116233   0.075   7.036   1.809  1.5553  0.6954  0.5169
 2043SOL    HW216234   0.115   6.908   1.902 -0.7184  0.2675  0.9235
 2044SOL     OW16235   0.086   8.153   2.547  0.0734  0.8914  0.0390
 2044SOL    HW116236   0.000   8.122   2.506 -1.1594 -0.9414  3.7851
 2044SOL    HW216237   0.112   8.241   2.507 -2.6058  0.6401 -2.4163
 2045SOL     OW16238   0.745   9.477   1.100 -0.0773  0.3613  0.1152
 2045SOL    HW116239   0.692   9.517   1.026  0.1464  1.7081  0.6608
 2045SOL    HW216240   0.756   9.379   1.084 -1.2036  0.3866 -0.9084
 2046SOL     OW16241   9.673   1.742   2.395  0.0633 -0.5732  0.0446
 2046SOL    HW116242   9.627   1.725   2.482 -1.4239 -0.1488 -0.6404
 2046SOL    HW216243   9.701   1.838   2.390  0.5830 -0.7086  0.2376
 2047SOL     OW16244   0.702   4.823   2.357 -0.0190  0.4689  0.2403
 2047SOL    HW116245   0.749   4.909   2.338  0.2567  0.2317 -0.1519
 2047SOL    HW216246   0.691   4.812   2.455 -0.1954  1.0303  0.2856
 2048SOL     OW16247   4.005   2.874   1.536 -0.1739 -0.3430  0.0394
 2048SOL    HW116248   3.996   2.790   1.484  0.6212  0.0366 -0.7330
 2048SOL    HW216249   3.964   2.950   1.484 -1.8145 -0.4195  1.1886
 2049SOL     OW16250   2.385   6.883   0.173  0.2855  0.3759 -0.1571
 2049SOL    HW116251   2.309   6.876   0.237  1.5232  0.8005  1.3948
 2049SOL    HW216252   2.471   6.875   0.223  1.2538 -0.8462 -1.9825
 2050SOL     OW16253   9.983   9.296   0.741  0.1463 -0.4633  0.1672
 2050SOL    HW116254   9.954   9.202   0.761  0.2566 -0.7428 -0.9331
 2050SOL    HW216255  10.062   9.293   0.679  1.6197  0.3113  1.9573
 2051SOL     OW16256   3.099   1.881   2.416 -0.0655  0.1992  0.2021
 2051SOL    HW116257   3.042   1.842   2.487 -2.6204  0.0607 -1.8601
 2051SOL    HW216258   3.142   1.965   2.450 -0.1828 -0.5823  2.3138
 2052SOL     OW16259   4.085   1.108   1.453  0.1194  0.8733 -0.1134
 2052SOL    HW116260   4.006   1.113   1.391  0.5902  2.3958 -0.6056
 2052SOL    HW216261   4.122   1.016   1.452 -0.8739  0.4687 -0.8543
 2053SOL     OW16262   2.913   4.541   0.506 -0.1849  0.1371  0.3217
 2053SOL    HW116263   2.862   4.537   0.591 -0.5846  0.5770  0.1086
 2053SOL    HW216264   2.961   4.455   0.491 -1.1547 -0.4173  0.3517
 2054SOL     OW16265   0.061   8.032   0.540 -0.1480  0.1856 -0.1489
 2054SOL    HW116266   0.035   8.045   0.635 -1.1442 -0.4183 -0.3353
 2054SOL    HW216267  -0.021   8.020   0.484  0.5036 -1.5295 -0.7665
 2055SOL     OW16268   0.135   2.287   2.260  0.2476  0.4802 -0.2301
 2055SOL    HW116269   0.105   2.255   2.170 -1.2133  1.7128 -0.2079
 2055SOL    HW216270   0.230   2.317   2.254  0.8805 -1.5460 -0.8080
 2056SOL     OW16271   4.808   2.639   1.212 -0.2226 -0.1611 -0.1424
 2056SOL    HW116272   4.852   2.550   1.200 -0.2897 -0.2518  0.2743
 2056SOL    HW216273   4.876   2.712   1.206 -0.3379 -0.1586 -1.6924
 2057SOL     OW16274   1.835   2.728   2.158  0.0858  0.2154  0.9580
 2057SOL    HW116275   1.919   2.775   2.185 -0.0018  1.2193 -0.4398
 2057SOL    HW216276   1.857   2.637   2.123  1.0444  1.7812 -2.7900
 2058SOL     OW16277   4.230   0.615   2.813  0.1191 -0.1991  0.4263
 2058SOL    HW116278   4.282   0.554   2.754 -3.6433 -1.9478 -1.2299
 2058SOL    HW216279   4.194   0.563   2.890 -0.7001  0.5852  0.5735
 2059SOL     OW16280   8.791   3.577   2.001 -0.2624  0.1468 -0.4860
 2059SOL    HW116281   8.807   3.483   1.971 -0.2674  0.3072 -1.0093
 2059SOL    HW216282   8.693   3.595   2.003 -0.3436 -0.4613  1.5318
 2060SOL     OW16283   1.343   4.654   1.556  0.5184  0.1855  0.0562
 2060SOL    HW116284   1.361   4.597   1.636 -0.7179  0.0442  0.2449
 2060SOL    HW216285   1.297   4.738   1.585 -2.8051 -1.2530 -0.8070
 2061SOL     OW16286   3.314   9.673   2.856  0.6957 -0.8303 -0.1908
 2061SOL    HW116287   3.224   9.672   2.901  0.3862  2.1496 -0.6156
 2061SOL    HW216288   3.386   9.673   2.926  0.3480 -1.6640  0.1770
 2062SOL     OW16289   1.002   2.286   1.889  0.1532 -0.1955 -0.1807
 2062SOL    HW116290   0.933   2.230   1.934 -1.5060  0.9344 -1.2812
 2062SOL    HW216291   1.073   2.227   1.851 -1.9506 -1.6395 -1.9649
 2063SOL     OW16292   2.777   7.376   2.620  0.0532 -0.8268 -0.3890
 2063SOL    HW116293   2.804   7.471   2.605  0.0787 -0.6170  0.9182
 2063SOL    HW216294   2.793   7.352   2.716  1.9541 -2.7682 -1.1501
 2064SOL     OW16295   8.677   3.437   1.554  0.1320 -0.1588 -0.2254
 2064SOL    HW116296   8.581   3.462   1.565 -0.0455 -0.7231 -0.4866
 2064SOL    HW216297   8.697   3.356   1.609  0.2158 -0.6233 -0.9282
 2065SOL     OW16298   3.203   4.535   0.644  0.0455 -0.1157  0.0975
 2065SOL    HW116299   3.133   4.464   0.634 -1.1238  1.1221 -0.7249
 2065SOL    HW216300   3.214   4.584   0.558  0.9225  0.6199  0.6183
 2066SOL     OW16301   0.368   8.972   0.261 -0.2739 -0.2665 -0.3274
 2066SOL    HW116302   0.278   9.015   0.254  0.2696  1.0061  0.4208
 2066SOL    HW216303   0.396   8.938   0.171 -0.7986  0.7782 -0.8836
 2067SOL     OW16304   9.723   7.662   2.460 -0.8270  0.1756  0.5506
 2067SOL    HW116305   9.811   7.707   2.443 -1.2869  1.1560  0.7305
 2067SOL    HW216306   9.690   7.621   2.376 -0.1449 -0.2875  0.5038
 2068SOL     OW16307   1.181   0.128   0.151  0.5755  0.2557 -0.1866
 2068SOL    HW116308   1.086   0.132   0.119  0.4968  0.6938  0.1009
 2068SOL    HW216309   1.243   0.146   0.075  0.4781 -1.4303 -0.6858
 2069SOL     OW16310   1.096   1.766   0.083  0.1221  0.5229  0.3705
 2069SOL    HW116311   1.005   1.730   0.100  0.2787 -0.1503 -0.1745
 2069SOL    HW216312   1.103   1.859   0.118 -0.7403  0.5382  0.4972
 2070SOL     OW16313   1.653   1.519   2.385  0.0455 -0.2215  0.1833
 2070SOL    HW116314   1.573   1.552   2.335  1.7063  1.5646 -1.3809
 2070SOL    HW216315   1.624   1.468   2.466 -2.6603  2.8449  1.2338
 2071SOL     OW16316   0.590   4.660   0.003 -0.1273 -0.2523  0.3413
 2071SOL    HW116317   0.589   4.709  -0.084 -1.8661 -1.0845 -0.1283
 2071SOL    HW216318   0.676   4.679   0.051  0.5312  0.7928 -1.2107
 2072SOL     OW16319   9.860   3.714   0.545  0.1240 -0.2608  0.6897
 2072SOL    HW116320   9.830   3.769   0.623  0.6327  0.4417  0.3909
 2072SOL    HW216321   9.821   3.752   0.461 -0.1113 -0.7903  0.5591
 2073SOL     OW16322   1.456   0.808   0.916 -0.5680 -0.1480  0.1145
 2073SOL    HW116323   1.432   0.843   1.006 -2.2837  0.0264 -0.3873
 2073SOL    HW216324   1.539   0.854   0.883 -0.1492  0.0566  1.4339
 2074SOL     OW16325   1.924   0.358   2.060 -0.4547  0.0823  0.3306
 2074SOL    HW116326   1.840   0.393   2.018 -0.0940 -0.0292 -0.4860
 2074SOL    HW216327   1.972   0.299   1.995  0.2815  0.1796  0.7833
 2075SOL     OW16328   4.659   4.036   2.473 -0.0683  0.8389 -0.3044
 2075SOL    HW116329   4.577   4.005   2.425 -0.0961  2.0068 -1.0189
 2075SOL    HW216330   4.677   3.975   2.549 -2.7735  1.7259  1.1153
 2076SOL     OW16331   1.459   6.959   0.878  0.0436 -0.4570 -0.2241
 2076SOL    HW116332   1.505   6.873   0.854  0.2726 -0.0258 -1.3983
 2076SOL    HW216333   1.372   6.940   0.921  0.8401 -1.2857  1.0441
 2077SOL     OW16334   3.350   3.384   1.217  0.0365 -0.0068  0.5592
 2077SOL    HW116335   3.381   3.292   1.192  0.3100  0.4688 -0.9234
 2077SOL    HW216336   3.387   3.450   1.152  1.4409  1.4018  2.7200
 2078SOL     OW16337   0.158   0.932   0.332  0.3869 -0.0612  0.2925
 2078SOL    HW116338   0.122   0.870   0.402  2.0135  0.2677  1.4507
 2078SOL    HW216339   0.177   0.880   0.249  0.9731 -0.9756  0.9891
 2079SOL     OW16340   3.200   4.737   0.854 -0.4267  0.3333 -0.3468
 2079SOL    HW116341   3.194   4.664   0.785 -0.5156 -0.7587  0.7873
 2079SOL    HW216342   3.161   4.704   0.940  0.9111  1.2061  0.6089
 2080SOL     OW16343   0.931   7.364   2.322 -0.3568  0.4791  0.0443
 2080SOL    HW116344   0.868   7.294   2.290 -0.0782  0.0545  0.4171
 2080SOL    HW216345   0.973   7.335   2.408  0.5138  0.6534 -0.3076
 2081SOL     OW16346   1.268   2.592   2.332  0.7808  0.1578  0.7959
 2081SOL    HW116347   1.197   2.597   2.402  0.5269  1.3278  0.4688
 2081SOL    HW216348   1.295   2.685   2.304  1.6983 -0.2815  0.1751
 2082SOL     OW16349   2.721   5.231   0.474  0.5244  0.0128 -0.7982
 2082SOL    HW116350   2.645   5.171   0.496  0.1680  0.1524 -1.6339
 2082SOL    HW216351   2.806   5.178   0.471  0.6287  0.0529  1.2059
 2083SOL     OW16352   3.012   1.282   2.925  0.0183  0.6198  0.3655
 2083SOL    HW116353   3.009   1.218   2.849 -0.1899 -0.4016  1.2192
 2083SOL    HW216354   2.983   1.236   3.009  0.6134  1.6229  1.1377
 2084SOL     OW16355   0.331   8.538   0.922 -0.6225  0.3987  0.9593
 2084SOL    HW116356   0.287   8.513   0.836 -0.3005  0.2775  0.8288
 2084SOL    HW216357   0.430   8.534   0.911 -0.5764  0.8802  1.1909
 2085SOL     OW16358   9.973   0.667   0.907  0.2715  0.7575 -0.6143
 2085SOL    HW116359   9.874   0.651   0.915  0.5489  0.5256  3.1636
 2085SOL    HW216360   9.997   0.753   0.951  2.2494 -1.0944  2.0576
 2086SOL     OW16361   2.839   1.054   2.512 -0.0249 -0.2783  0.1920
 2086SOL    HW116362   2.898   1.052   2.431  0.0620  1.3899  0.1976
 2086SOL    HW216363   2.821   1.149   2.537 -4.7030 -0.6638 -1.2723
 2087SOL     OW16364   3.676   1.275   0.987  0.1636 -0.1858 -0.5153
 2087SOL    HW116365   3.700   1.180   0.967 -2.2064 -0.7185 -1.0289
 2087SOL    HW216366   3.578   1.288   0.972  0.0303  1.7660  1.8196
 2088SOL     OW16367   9.344   3.754   1.040  0.6170 -0.3119  0.5758
 2088SOL    HW116368   9.363   3.656   1.050  2.1757  0.0338  1.1082
 2088SOL    HW216369   9.288   3.785   1.117  1.0976 -0.5366  1.0182
 2089SOL     OW16370   0.464   7.562   2.919  0.1985 -0.3241 -0.1202
 2089SOL    HW116371   0.452   7.491   2.988 -1.1859 -0.1701 -0.1942
 2089SOL    HW216372   0.390   7.558   2.853  0.6451  0.5631 -0.6916
 2090SOL     OW16373   1.514   9.952   1.286 -0.5179  0.2910  0.0700
 2090SOL    HW116374   1.420   9.970   1.314 -0.3880  1.8407 -0.4215
 2090SOL    HW216375   1.516   9.921   1.191 -0.6235 -0.8984  0.4532
 2091SOL     OW16376   1.719   8.702   0.851  0.9867  0.0952 -0.0798
 2091SOL    HW116377   1.753   8.637   0.919 -0.0505  0.9616  1.2919
 2091SOL    HW216378   1.766   8.789   0.861 -0.0567  0.6120  0.3650
 2092SOL     OW16379   0.403   5.122   1.794  0.4285  0.0056  0.8680
 2092SOL    HW116380   0.370   5.121   1.699  0.0290  0.6006  0.9975
 2092SOL    HW216381   0.474   5.192   1.804 -1.0865  1.4787  1.5158
 2093SOL     OW16382   4.411   8.864   0.528  0.1931 -0.1773 -0.2347
 2093SOL    HW116383   4.482   8.928   0.496  1.4070 -0.9926  0.7657
 2093SOL    HW216384   4.413   8.860   0.628  1.1608 -2.8760 -0.3112
 2094SOL     OW16385   4.153   9.231   2.226  0.0045 -0.3782 -0.6309
 2094SOL    HW116386   4.086   9.228   2.152 -0.9827 -0.4945  0.2618
 2094SOL    HW216387   4.226   9.165   2.207  0.0788  0.0100 -1.7850
 2095SOL     OW16388   3.117   1.395   2.038  0.2373 -0.6544 -0.5666
 2095SOL    HW116389   3.153   1.302   2.038  1.6082 -0.1508 -1.7605
 2095SOL    HW216390   3.043   1.402   1.971  0.5257 -0.7445 -0.8971
 2096SOL     OW16391   3.912   3.401   0.610 -0.3906  0.2376  0.5390
 2096SOL    HW116392   3.836   3.467   0.610  0.4412  1.2108 -0.1608
 2096SOL    HW216393   3.983   3.431   0.673 -0.1522 -0.1581  0.4590
 2097SOL     OW16394   2.178   6.372   2.504 -0.2627  0.5205  0.0300
 2097SOL    HW116395   2.220   6.281   2.501  0.9866  1.0643  0.8252
 2097SOL    HW216396   2.247   6.440   2.528 -0.7370  1.9659 -2.5567
 2098SOL     OW16397   3.597   1.043   2.442  0.0596 -0.0888  0.0867
 2098SOL    HW116398   3.675   1.026   2.502  0.5468  0.5064 -0.3705
 2098SOL    HW216399   3.603   1.136   2.405 -0.9083 -0.0154  0.1088
 2099SOL     OW16400   0.643   7.013   2.921  0.2613 -0.5964 -0.3099
 2099SOL    HW116401   0.600   6.938   2.871 -0.2123 -0.2496 -0.4278
 2099SOL    HW216402   0.742   7.011   2.907  0.5408 -2.7430  1.7427
 2100SOL     OW16403   0.581   8.995   0.575 -0.2425 -0.3141 -0.5969
 2100SOL    HW116404   0.555   9.060   0.504 -1.6560 -1.7203 -1.4075
 2100SOL    HW216405   0.571   8.902   0.540  2.0708 -0.9945  0.4326
 2101SOL     OW16406   3.181   2.853   0.965 -0.4103 -0.1499 -0.4684
 2101SOL    HW116407   3.181   2.778   0.898 -1.0686 -0.1877 -0.4380
 2101SOL    HW216408   3.176   2.814   1.058 -0.6395 -0.0785 -0.4484
 2102SOL     OW16409   3.054   9.210   2.394 -0.3530  0.8168 -0.3818
 2102SOL    HW116410   3.109   9.261   2.459 -0.5114  2.3384 -1.4036
 2102SOL    HW216411   3.111   9.179   2.318 -0.2128 -0.7437  0.3483
 2103SOL     OW16412   0.328   9.887   1.914 -0.4755  0.4256 -0.0637
 2103SOL    HW116413   0.414   9.931   1.890  0.8210 -1.9224  0.0522
 2103SOL    HW216414   0.294   9.925   2.000 -0.4183  2.5172 -0.9548
 2104SOL     OW16415   8.855   5.688   1.542  0.1124  0.1569 -0.1005
 2104SOL    HW116416   8.803   5.711   1.460 -2.9332 -0.4084  1.6033
 2104SOL    HW216417   8.826   5.747   1.617  1.3687 -0.7323  1.1156
 2105SOL     OW16418   1.540   0.318   0.451 -0.2013 -0.5744  0.0601
 2105SOL    HW116419   1.500   0.244   0.504  0.3644 -1.3962 -0.6527
 2105SOL    HW216420   1.634   0.295   0.426  0.0923  0.5227  0.1046
 2106SOL     OW16421   0.540   6.086   2.080 -0.0043 -0.3050 -0.4723
 2106SOL    HW116422   0.636   6.072   2.057  0.0269 -0.8242 -0.0373
 2106SOL    HW216423   0.508   6.172   2.040  1.5996  1.6696  2.2784
 2107SOL     OW16424   0.102   7.465   2.006  0.5957 -0.6045 -0.5078
 2107SOL    HW116425   0.085   7.493   1.911 -1.6901 -0.2967 -0.0398
 2107SOL    HW216426   0.098   7.365   2.012  2.3433 -0.7145 -1.0126
 2108SOL     OW16427   3.592   9.915   2.094 -0.4498 -0.0355 -0.0895
 2108SOL    HW116428   3.572  10.011   2.075  1.1943  0.0460 -1.5837
 2108SOL    HW216429   3.540   9.857   2.031  1.1760  0.0333 -1.5288
 2109SOL     OW16430   0.554   2.837   2.728  0.3639 -0.1522  0.1887
 2109SOL    HW116431   0.548   2.936   2.717  0.1078  0.0119  1.6026
 2109SOL    HW216432   0.584   2.817   2.822 -0.6581 -1.4213  0.2484
 2110SOL     OW16433   1.762   4.693   1.543  0.8448  0.4719  0.3088
 2110SOL    HW116434   1.806   4.651   1.463  1.1062 -1.1015  1.2480
 2110SOL    HW216435   1.777   4.791   1.541 -0.0641  0.5972 -2.1373
 2111SOL     OW16436   1.751   7.035   0.497  0.2742  0.3621 -0.0260
 2111SOL    HW116437   1.782   7.068   0.408  1.4372 -1.0369 -0.1507
 2111SOL    HW216438   1.662   6.992   0.488 -0.2242  1.4128 -0.2583
 2112SOL     OW16439   0.114   4.128   0.439 -0.3723  0.0253  0.4778
 2112SOL    HW116440   0.042   4.062   0.460 -0.7856 -0.0926 -1.2123
 2112SOL    HW216441   0.201   4.097   0.477 -0.9054 -0.6193  1.1808
 2113SOL     OW16442   0.467   5.025   0.948  0.1841 -0.7878  0.0255
 2113SOL    HW116443   0.370   5.014   0.924 -0.7179  1.7511  2.2411
 2113SOL    HW216444   0.512   5.085   0.883 -0.9616  1.9128  1.6648
 2114SOL     OW16445   1.156   9.263   0.458  0.1114  0.3095  0.0486
 2114SOL    HW116446   1.167   9.224   0.549  1.0113  0.1987 -0.1069
 2114SOL    HW216447   1.133   9.191   0.393 -1.5592  0.5367  0.3674
 2115SOL     OW16448   1.038   6.675   1.234  0.0327  0.0192  0.1828
 2115SOL    HW116449   1.008   6.766   1.205  0.8197  0.4107  0.6083
 2115SOL    HW216450   0.979   6.642   1.308  0.2564  0.5225  0.5831
 2116SOL     OW16451   4.199   4.565   2.197  0.1797  0.1677  0.3195
 2116SOL    HW116452   4.263   4.551   2.273 -0.2116 -1.1530  0.4210
 2116SOL    HW216453   4.142   4.483   2.186 -1.0694  1.0928 -0.1755
 2117SOL     OW16454   3.928   0.991   2.245  0.8623  0.7848 -0.6393
 2117SOL    HW116455   3.942   1.090   2.253 -0.3889  0.9982 -0.8823
 2117SOL    HW216456   3.855   0.973   2.178  0.1083 -0.2246  0.4268
 2118SOL     OW16457   1.043   9.073   1.177 -0.2918  0.8665  0.0123
 2118SOL    HW116458   1.068   9.058   1.273 -1.8815 -0.4174  0.2528
 2118SOL    HW216459   1.115   9.039   1.118  0.4966  1.2460  0.7409
 2119SOL     OW16460   2.051   5.001   1.310 -0.1732 -0.2856 -0.0136
 2119SOL    HW116461   2.076   5.029   1.218 -0.5104 -0.6243 -0.2100
 2119SOL    HW216462   1.965   5.045   1.336  0.0336 -0.0201  0.2236
 2120SOL     OW16463   3.895   2.382   0.924 -0.0592  0.1571  0.2091
 2120SOL    HW116464   3.857   2.345   1.009 -1.5361  0.3439 -0.3569
 2120SOL    HW216465   3.970   2.445   0.945  1.1823 -1.6154  1.2643
 2121SOL     OW16466   9.641   7.132   2.620 -0.2008  0.0898  0.5269
 2121SOL    HW116467   9.717   7.162   2.677  1.8999 -0.0121 -2.1267
 2121SOL    HW216468   9.590   7.060   2.668 -0.1906  1.9070  3.3818
 2122SOL     OW16469   3.296   8.040   0.307  0.1512 -0.0222 -0.5634
 2122SOL    HW116470   3.226   8.063   0.239 -0.5332 -0.8061 -0.1358
 2122SOL    HW216471   3.252   8.006   0.389  1.0820 -1.7430 -0.7539
 2123SOL     OW16472   1.554   5.043   0.439 -0.3604  0.0237  0.4030
 2123SOL    HW116473   1.631   5.011   0.494 -2.0287 -1.1483  2.1128
 2123SOL    HW216474   1.532   5.138   0.463 -0.4212 -0.1431  1.0050
 2124SOL     OW16475   3.133   8.828   0.471  0.1027 -0.0610 -0.0224
 2124SOL    HW116476   3.181   8.743   0.448 -1.3227 -1.2269  1.1420
 2124SOL    HW216477   3.138   8.843   0.570 -0.6274  0.5981 -0.0830
 2125SOL     OW16478   2.675   7.564   0.894  0.0825 -0.0330  0.1302
 2125SOL    HW116479   2.708   7.534   0.983  1.3753 -2.6945 -1.1976
 2125SOL    HW216480   2.584   7.526   0.877  0.0050  0.1450  0.1426
 2126SOL     OW16481   1.073   0.387   0.287 -0.1137 -0.0493  0.0776
 2126SOL    HW116482   1.155   0.407   0.340 -0.5427  0.6241  0.4990
 2126SOL    HW216483   1.090   0.309   0.227  0.2768 -1.0214  1.4439
 2127SOL     OW16484   2.458   7.205   1.680 -0.4197  0.3548 -0.7514
 2127SOL    HW116485   2.555   7.229   1.668 -0.3163  0.0617 -0.5258
 2127SOL    HW216486   2.405   7.241   1.604 -0.2668  1.2728 -0.4257
 2128SOL     OW16487   2.717   5.538   1.295  0.6478  0.5405  0.2179
 2128SOL    HW116488   2.644   5.506   1.355  0.3725  0.0467 -0.3808
 2128SOL    HW216489   2.718   5.638   1.293 -0.1119  0.5443  0.1019
 2129SOL     OW16490   3.503   5.171   2.359  0.0335  0.2234  0.1142
 2129SOL    HW116491   3.506   5.208   2.452  0.3792  0.6582 -0.0670
 2129SOL    HW216492   3.459   5.238   2.298 -1.4353 -0.6245  0.2236
 2130SOL     OW16493   0.990   6.895   0.013 -0.2245  0.4079  0.3822
 2130SOL    HW116494   1.047   6.951   0.074 -0.3820  0.1676  0.7453
 2130SOL    HW216495   1.045   6.866  -0.065  0.4101 -0.5938  1.1972
 2131SOL     OW16496   3.366   0.976   1.688 -0.0276 -0.3518  0.0422
 2131SOL    HW116497   3.363   0.912   1.612 -1.6739 -0.4561  0.1873
 2131SOL    HW216498   3.279   0.974   1.738  1.0967 -0.4887  2.0902
 2132SOL     OW16499   8.695   5.735   1.339 -0.1719  0.6576  0.7324
 2132SOL    HW116500   8.637   5.658   1.366  0.6716 -0.1008  0.4343
 2132SOL    HW216501   8.653   5.783   1.262  0.9790 -1.7142 -1.4968
 2133SOL     OW16502   2.407   0.234   1.928  0.1820  0.2666 -0.2045
 2133SOL    HW116503   2.382   0.328   1.952  0.6371  0.5161 -0.7087
 2133SOL    HW216504   2.501   0.216   1.956  0.3827  0.2403 -0.8773
 2134SOL     OW16505   3.957   2.932   1.067  0.1220 -0.7064 -0.1944
 2134SOL    HW116506   3.948   2.974   1.158 -0.1216 -1.2302  0.0238
 2134SOL    HW216507   3.937   2.835   1.073 -2.4983 -0.2809 -1.2715
 2135SOL     OW16508   2.565   3.860   0.432 -0.4071  0.3036  0.3631
 2135SOL    HW116509   2.616   3.938   0.395 -1.9828  0.9454 -0.5157
 2135SOL    HW216510   2.603   3.833   0.520  3.8234 -1.6098 -1.9332
 2136SOL     OW16511   1.793   0.386   0.241 -0.0213 -0.2951 -0.2926
 2136SOL    HW116512   1.809   0.484   0.253  2.3231 -0.8428  1.4058
 2136SOL    HW216513   1.866   0.347   0.185 -0.5303 -1.2074 -0.3310
 2137SOL     OW16514   2.819   3.281   1.380 -0.0790  0.5283 -0.6652
 2137SOL    HW116515   2.888   3.270   1.309  1.1867  1.7993  0.3394
 2137SOL    HW216516   2.830   3.209   1.449 -0.3961  0.1461 -1.0099
 2138SOL     OW16517   4.294   1.747   0.390  0.0870 -0.3167  0.0529
 2138SOL    HW116518   4.349   1.825   0.420  1.6672 -1.2686 -0.3505
 2138SOL    HW216519   4.320   1.665   0.441 -0.2189 -0.9981 -0.8577
 2139SOL     OW16520   3.979   1.406   1.358 -0.2441 -0.2248 -0.0459
 2139SOL    HW116521   4.043   1.480   1.341 -0.7719  0.2841  0.1426
 2139SOL    HW216522   3.956   1.404   1.456 -3.5102  2.1117 -0.6873
 2140SOL     OW16523   3.773   1.302   1.552  0.3219 -0.0355 -0.3376
 2140SOL    HW116524   3.730   1.384   1.513  1.1151 -0.1698 -1.5201
 2140SOL    HW216525   3.702   1.237   1.580 -0.2613 -0.4462 -2.6838
 2141SOL     OW16526   1.150   5.755   0.060  0.2372  0.1452 -0.7330
 2141SOL    HW116527   1.115   5.801   0.141  0.0467 -1.5603  0.1669
 2141SOL    HW216528   1.175   5.661   0.082 -0.1301 -0.4517 -2.7303
 2142SOL     OW16529   8.647   2.990   1.705  0.0591 -0.2856 -0.0011
 2142SOL    HW116530   8.625   2.933   1.784  2.2343 -1.3038 -0.1116
 2142SOL    HW216531   8.622   2.943   1.621  1.8015 -1.0856 -0.0897
 2143SOL     OW16532   2.965   1.605   0.324 -0.5442 -0.6045  0.3740
 2143SOL    HW116533   2.872   1.572   0.338 -1.3720  1.4767 -0.1297
 2143SOL    HW216534   2.967   1.673   0.251  1.2986 -0.3090  0.6582
 2144SOL     OW16535   1.344   3.009   0.702  0.6140 -0.1586 -0.6004
 2144SOL    HW116536   1.304   3.054   0.623 -0.6083 -0.4518 -0.1685
 2144SOL    HW216537   1.310   2.915   0.708  1.8065 -0.5983 -0.5305
 2145SOL     OW16538   3.099   4.959   0.668  0.6077 -0.4618  0.1266
 2145SOL    HW116539   3.071   4.883   0.727  1.8476 -0.6641  0.4570
 2145SOL    HW216540   3.172   4.929   0.607  0.4734  0.2185 -0.3754
 2146SOL     OW16541   1.162   3.697   0.302  0.5707 -0.3142 -0.0692
 2146SOL    HW116542   1.249   3.659   0.272  1.2390 -0.3691  1.8498
 2146SOL    HW216543   1.114   3.737   0.224  3.2786  1.6079 -0.8138
 2147SOL     OW16544   0.752   7.154   1.197  0.5444  0.6746  0.0539
 2147SOL    HW116545   0.698   7.146   1.281  2.9354  0.3457  1.5973
 2147SOL    HW216546   0.718   7.231   1.143 -1.2074  0.7097  1.1685
 2148SOL     OW16547   1.273   4.148   0.904  0.1932  0.0689 -0.3069
 2148SOL    HW116548   1.248   4.208   0.980 -2.6675  0.2393 -1.3258
 2148SOL    HW216549   1.326   4.071   0.939 -1.1963  0.0582  1.9069
 2149SOL     OW16550   9.377   8.039   0.914 -0.1207 -0.7719  0.2944
 2149SOL    HW116551   9.414   8.102   0.982  0.4645  0.0302 -0.7582
 2149SOL    HW216552   9.395   8.074   0.822 -1.8119 -1.3124 -0.2712
 2150SOL     OW16553   2.635   0.590   1.771  0.4482 -0.4323 -0.0649
 2150SOL    HW116554   2.600   0.537   1.694  2.0859 -2.0294  0.2806
 2150SOL    HW216555   2.567   0.659   1.797 -0.2126 -0.0036 -2.7779
 2151SOL     OW16556   2.678   1.234   1.147  0.2216  0.3777 -0.4018
 2151SOL    HW116557   2.757   1.199   1.196  0.6738  0.6800 -0.9041
 2151SOL    HW216558   2.642   1.315   1.194 -0.3531 -0.2910  0.3291
 2152SOL     OW16559   1.321   2.415   2.774  0.0215  0.2933 -0.4000
 2152SOL    HW116560   1.330   2.439   2.677  0.1943  1.6452 -0.0601
 2152SOL    HW216561   1.385   2.470   2.828  1.0073 -1.5237  0.3332
 2153SOL     OW16562   0.205   2.525   0.967 -0.2445 -0.0705 -0.4188
 2153SOL    HW116563   0.209   2.608   1.023 -2.0491  0.6523 -1.3288
 2153SOL    HW216564   0.130   2.467   0.998  0.5670 -1.0504 -0.2408
 2154SOL     OW16565   9.794   2.684   0.371  0.4134 -0.8630 -0.8158
 2154SOL    HW116566   9.788   2.771   0.321  1.2723 -0.7588 -0.7564
 2154SOL    HW216567   9.753   2.694   0.461  1.8224 -0.0823 -0.2450
 2155SOL     OW16568   1.089   7.845   2.252 -0.7008  0.4060 -0.6062
 2155SOL    HW116569   1.042   7.762   2.222 -0.4301  0.1300 -0.2718
 2155SOL    HW216570   1.186   7.824   2.265 -0.5083  0.9385 -1.1627
 2156SOL     OW16571   0.398   0.057   1.116  0.3849 -0.8180 -0.6128
 2156SOL    HW116572   0.367  -0.030   1.156  1.7771 -1.6066 -1.2012
 2156SOL    HW216573   0.458   0.038   1.038  0.0885  0.6860 -1.2192
 2157SOL     OW16574   1.489   7.220   0.905  0.2379  0.2419 -0.0630
 2157SOL    HW116575   1.527   7.220   0.998 -1.8133 -0.3163  0.7898
 2157SOL    HW216576   1.483   7.126   0.872 -0.1217  0.3513 -0.3078
 2158SOL     OW16577   1.180   7.116   1.814  0.4131  0.2917  0.5589
 2158SOL    HW116578   1.278   7.137   1.809  0.5870 -0.2474  1.5816
 2158SOL    HW216579   1.134   7.156   1.735  1.5539 -0.0062 -0.2718
 2159SOL     OW16580   1.597   2.969   1.557  0.6240 -0.2353 -0.4338
 2159SOL    HW116581   1.570   2.911   1.633  0.8419  0.3833  0.1128
 2159SOL    HW216582   1.530   2.961   1.483  0.7879 -1.3818 -0.4665
 2160SOL     OW16583   1.607   3.559   0.433  0.3100 -0.6281 -0.5894
 2160SOL    HW116584   1.669   3.635   0.454  0.9676 -0.6320 -2.4692
 2160SOL    HW216585   1.590   3.506   0.517  2.6151 -0.4685  0.0098
 2161SOL     OW16586   8.862   5.113   1.434  0.0880  1.0012  0.2674
 2161SOL    HW116587   8.820   5.191   1.479  0.1294  1.9581 -1.3196
 2161SOL    HW216588   8.871   5.131   1.336  0.1217 -0.9789 -0.1284
 2162SOL     OW16589   1.343   9.100   1.719 -0.2214 -0.0120 -0.4305
 2162SOL    HW116590   1.260   9.138   1.759  0.9608  0.9892  1.1476
 2162SOL    HW216591   1.370   9.154   1.639  1.1326  2.1882  1.4588
 2163SOL     OW16592   0.532   2.392   2.445  0.6247 -0.1654 -0.2870
 2163SOL    HW116593   0.499   2.340   2.524 -0.9741  2.5361  0.8829
 2163SOL    HW216594   0.608   2.451   2.473 -0.2029  1.0978 -0.6578
 2164SOL     OW16595   3.793   0.893   1.659 -0.3572 -0.2455 -0.0110
 2164SOL    HW116596   3.725   0.966   1.661  0.8511  0.8617  0.4492
 2164SOL    HW216597   3.852   0.899   1.740 -0.1716 -1.6645 -0.0152
 2165SOL     OW16598   2.450   0.646   0.988 -0.0455  0.1873 -0.1042
 2165SOL    HW116599   2.422   0.730   1.034  0.3428  0.9341 -1.1932
 2165SOL    HW216600   2.407   0.568   1.031 -0.7636  0.9894  0.6471
 2166SOL     OW16601   1.425   2.513   0.749 -0.1418 -0.1227  0.8328
 2166SOL    HW116602   1.457   2.534   0.841 -1.5473 -0.7187  1.4852
 2166SOL    HW216603   1.446   2.418   0.727  0.2696  0.0440  0.5076
 2167SOL     OW16604   1.418   6.799   1.509 -0.4244  0.5294  0.0118
 2167SOL    HW116605   1.336   6.840   1.469  0.2976  2.2130  0.2414
 2167SOL    HW216606   1.454   6.729   1.447 -0.2287  2.0033 -1.5574
 2168SOL     OW16607   8.791   5.396   2.135  0.0837 -0.4072  0.0428
 2168SOL    HW116608   8.729   5.347   2.196 -1.0906  1.6527  0.5592
 2168SOL    HW216609   8.818   5.482   2.178  0.4454  0.3796 -1.7089
 2169SOL     OW16610   4.279   9.282   1.925  0.2847  0.8750 -0.7316
 2169SOL    HW116611   4.234   9.297   2.013 -1.0592  0.0923 -1.2733
 2169SOL    HW216612   4.278   9.367   1.872 -0.1442  0.9737 -0.5644
 2170SOL     OW16613   0.789   0.277   0.804 -0.3851 -0.0247 -0.0356
 2170SOL    HW116614   0.726   0.355   0.808  2.3060  2.1939  0.0504
 2170SOL    HW216615   0.793   0.232   0.893 -1.9559 -0.3058 -0.0910
 2171SOL     OW16616   9.478   4.876   2.043  0.0722 -0.0462 -0.0290
 2171SOL    HW116617   9.486   4.781   2.072 -0.5572  0.8454  3.2636
 2171SOL    HW216618   9.551   4.930   2.086  0.3186  1.0239 -1.7252
 2172SOL     OW16619   4.303   2.763   1.921  0.7568 -0.5053 -0.2447
 2172SOL    HW116620   4.366   2.686   1.932  0.2174 -0.8826  0.3050
 2172SOL    HW216621   4.263   2.761   1.829  0.4941 -1.0858 -0.1223
 2173SOL     OW16622   2.490   6.147   0.820  0.4458 -0.0964 -0.2932
 2173SOL    HW116623   2.427   6.170   0.894  2.0129  0.8586  0.7687
 2173SOL    HW216624   2.552   6.223   0.803  2.4392 -1.6305 -0.1562
 2174SOL     OW16625   1.868   6.926   0.707 -0.1926 -0.5567 -0.2537
 2174SOL    HW116626   1.965   6.951   0.714 -0.1732  0.0318 -2.5009
 2174SOL    HW216627   1.828   6.968   0.626 -1.3756 -3.8239 -1.4637
 2175SOL     OW16628   3.741   9.023   1.294  0.2412  0.4095  0.2776
 2175SOL    HW116629   3.692   9.095   1.246 -0.3027  0.6119  1.1238
 2175SOL    HW216630   3.681   8.984   1.365  0.2213 -1.4389 -0.7173
 2176SOL     OW16631   4.145   1.132   1.929  1.3300 -0.1687  0.4619
 2176SOL    HW116632   4.144   1.145   2.028  1.7847 -1.8460  0.6961
 2176SOL    HW216633   4.153   1.221   1.884  1.6017  0.5669  1.9338
 2177SOL     OW16634   2.550   3.666   1.442 -0.0738 -1.1228 -0.0305
 2177SOL    HW116635   2.572   3.746   1.497 -0.5210 -1.0467  0.0399
 2177SOL    HW216636   2.452   3.650   1.444  0.0479 -1.8558  0.2083
 2178SOL     OW16637   1.285   5.501   2.005  0.1698 -0.0537  0.0531
 2178SOL    HW116638   1.320   5.412   1.974  1.2802  0.0453  0.9509
 2178SOL    HW216639   1.208   5.486   2.067 -0.5065 -0.3408 -0.8624
 2179SOL     OW16640   9.842   9.890   0.909  0.0995 -0.0275 -0.1025
 2179SOL    HW116641   9.939   9.899   0.931  0.0437 -0.0631  0.1625
 2179SOL    HW216642   9.832   9.866   0.812  0.3207  0.8924 -0.3631
 2180SOL     OW16643   0.996   6.538   0.725 -0.1426 -0.4406  0.4801
 2180SOL    HW116644   0.923   6.477   0.755 -0.4859 -0.8173 -1.0577
 2180SOL    HW216645   1.082   6.487   0.721 -0.4921 -0.9518 -1.1258
 2181SOL     OW16646   1.488   8.543   2.139 -0.4342  0.6750 -0.0422
 2181SOL    HW116647   1.557   8.475   2.114 -1.6060  0.3249 -2.4641
 2181SOL    HW216648   1.485   8.615   2.069 -2.7183  0.5160 -0.1402
 2182SOL     OW16649   4.007   5.145   0.328 -0.0195 -0.6070  0.1158
 2182SOL    HW116650   3.980   5.222   0.270 -0.0875 -0.8736 -0.2049
 2182SOL    HW216651   3.965   5.155   0.419  1.1301  0.5048  0.5474
 2183SOL     OW16652   0.329   7.473   1.425 -0.1698 -0.1658  0.5497
 2183SOL    HW116653   0.287   7.479   1.334  1.8196 -2.3379 -0.5598
 2183SOL    HW216654   0.427   7.455   1.415  0.2647  0.6627  3.1258
 2184SOL     OW16655   2.080   3.799   1.324 -0.4321  0.2873  0.3395
 2184SOL    HW116656   1.990   3.761   1.345 -1.0298  0.8079 -1.1479
 2184SOL    HW216657   2.102   3.779   1.228 -0.2339  2.6144 -0.1274
 2185SOL     OW16658   1.018   4.093   0.786  0.3258  0.6226 -0.4749
 2185SOL    HW116659   0.963   4.160   0.737  1.0843  0.7376 -1.1773
 2185SOL    HW216660   1.110   4.129   0.801  0.1325  0.5524  0.9591
 2186SOL     OW16661   9.417   3.487   2.587  0.3420  1.4187 -0.1728
 2186SOL    HW116662   9.356   3.432   2.531  0.7358  1.4977 -0.6852
 2186SOL    HW216663   9.512   3.463   2.566  0.4930  1.4540  0.4551
 2187SOL     OW16664   1.499   0.933   2.011 -0.1976 -0.0172  0.1912
 2187SOL    HW116665   1.407   0.972   2.006  0.9385  3.2489  2.6561
 2187SOL    HW216666   1.513   0.895   2.102  1.6114  1.5013  0.5645
 2188SOL     OW16667   4.121   8.500   2.928  0.3769  0.1278 -0.3225
 2188SOL    HW116668   4.185   8.452   2.989  0.4550 -0.4719 -0.8739
 2188SOL    HW216669   4.146   8.597   2.924 -0.6359  0.5213  1.9130
 2189SOL     OW16670   3.361   0.895   0.323 -0.1978  0.1168  0.1939
 2189SOL    HW116671   3.322   0.947   0.247 -1.1890 -0.0252  0.5883
 2189SOL    HW216672   3.327   0.801   0.319  0.0504  0.0109  0.5810
 2190SOL     OW16673   0.996   2.055   0.470  0.7036 -0.0741 -0.0555
 2190SOL    HW116674   0.933   2.090   0.540  1.1563  0.9321 -0.1381
 2190SOL    HW216675   0.973   2.095   0.381  1.1293 -0.0975 -0.1787
 2191SOL     OW16676   9.421   6.461   2.102  0.7129 -0.5336  0.1190
 2191SOL    HW116677   9.491   6.531   2.118  0.1578  0.4287 -1.5659
 2191SOL    HW216678   9.355   6.463   2.177  0.9142  0.4934  0.2767
 2192SOL     OW16679   2.796   4.572   0.260 -0.5241 -0.0272  0.0053
 2192SOL    HW116680   2.840   4.560   0.349 -0.2517  1.2692  0.0536
 2192SOL    HW216681   2.719   4.635   0.269 -0.7236 -0.1805 -0.5987
 2193SOL     OW16682   4.341   9.567   2.700  0.7803  0.2899  0.0798
 2193SOL    HW116683   4.391   9.529   2.623  0.0839 -0.0529 -0.2107
 2193SOL    HW216684   4.285   9.644   2.669 -2.3202 -2.0980 -0.5401
 2194SOL     OW16685   3.435   0.945   2.244 -0.3176  0.3313 -0.8416
 2194SOL    HW116686   3.448   0.934   2.146 -0.3894  1.3426 -0.9699
 2194SOL    HW216687   3.514   0.991   2.284  0.8350 -2.2443 -0.0022
 2195SOL     OW16688   3.671   2.658   1.714  0.1699  0.1936  0.2265
 2195SOL    HW116689   3.715   2.747   1.723 -1.3922  1.2619 -2.2846
 2195SOL    HW216690   3.690   2.620   1.624 -2.0592 -0.3930 -0.0261
 2196SOL     OW16691   1.715   5.861   2.874 -0.4715 -0.1349  0.4581
 2196SOL    HW116692   1.669   5.775   2.897  1.2924 -1.3825 -0.6391
 2196SOL    HW216693   1.813   5.846   2.869 -0.0501  2.1889  1.2599
 2197SOL     OW16694   3.290   5.503   1.655  0.1076  0.3124 -0.0050
 2197SOL    HW116695   3.322   5.456   1.737 -2.0627 -0.2893  0.5306
 2197SOL    HW216696   3.340   5.470   1.575  3.2184  1.9018  1.2115
 2198SOL     OW16697   0.231   9.028   2.634 -0.2424  0.0882  0.1222
 2198SOL    HW116698   0.316   8.975   2.637 -0.5005 -0.4417 -1.5997
 2198SOL    HW216699   0.241   9.102   2.568 -1.0937  0.0840 -0.0079
 2199SOL     OW16700   3.319   4.048   1.234 -0.4596  0.2900 -0.6952
 2199SOL    HW116701   3.415   4.040   1.208  0.1403  1.1890  1.1255
 2199SOL    HW216702   3.307   4.128   1.293 -2.5319  0.8312 -1.8050
 2200SOL     OW16703   3.890   9.717   0.180 -0.4136  0.3568 -0.0903
 2200SOL    HW116704   3.934   9.653   0.242 -0.8763  1.3292  1.2511
 2200SOL    HW216705   3.956   9.785   0.150 -0.3083  0.1622 -0.3031
 2201SOL     OW16706   0.076   5.548   1.670 -0.1788  0.0683  0.6324
 2201SOL    HW116707   0.153   5.572   1.730  0.5260  1.0807 -0.6410
 2201SOL    HW216708   0.110   5.492   1.594 -0.2956  2.1330 -1.0140
 2202SOL     OW16709   9.851   1.247   2.814  0.2807  0.5116  0.1472
 2202SOL    HW116710   9.780   1.189   2.855  0.4997  1.2339  1.5486
 2202SOL    HW216711   9.898   1.195   2.742  0.0285 -0.8290  0.9323
 2203SOL     OW16712   1.205   2.834   0.378  0.1254 -0.4282  0.2066
 2203SOL    HW116713   1.172   2.741   0.365 -0.8111 -0.6383  3.6180
 2203SOL    HW216714   1.234   2.847   0.473  2.9008  1.9591 -0.8640
 2204SOL     OW16715   3.751   5.071   1.915 -0.1053  0.1315 -0.4705
 2204SOL    HW116716   3.766   4.972   1.906 -1.1591 -0.0650 -0.1595
 2204SOL    HW216717   3.655   5.088   1.938  0.4796  1.1092  1.3448
 2205SOL     OW16718   9.855   2.573   0.737 -0.4302 -0.2966 -0.8072
 2205SOL    HW116719   9.878   2.669   0.752  1.4999 -0.9081  0.4017
 2205SOL    HW216720   9.910   2.537   0.662  1.4611 -1.3509  1.0366
 2206SOL     OW16721   1.358   2.854   1.479 -0.1624  0.5650  0.5811
 2206SOL    HW116722   1.364   2.919   1.403  0.3844  1.9204  1.7432
 2206SOL    HW216723   1.300   2.777   1.453  2.1218 -0.3317 -2.1517
 2207SOL     OW16724   4.545   1.782   1.407 -0.8106  0.1552 -0.3073
 2207SOL    HW116725   4.486   1.761   1.485 -0.2462 -3.1473 -0.6783
 2207SOL    HW216726   4.634   1.813   1.440 -1.4536  1.3326  0.3183
 2208SOL     OW16727   8.924   5.601   2.244  0.1146 -0.2150  0.3023
 2208SOL    HW116728   9.001   5.644   2.196 -0.5527  2.5114  1.5938
 2208SOL    HW216729   8.958   5.557   2.328  0.5056 -0.5749 -0.0374
 2209SOL     OW16730   2.268   9.033   0.182 -0.1686  0.0507  0.0822
 2209SOL    HW116731   2.305   9.125   0.194 -0.0598  0.0595 -0.3288
 2209SOL    HW216732   2.185   9.023   0.238 -0.8805  0.8027 -0.8293
 2210SOL     OW16733   3.851   9.693   1.931 -0.0403 -0.4187  0.0805
 2210SOL    HW116734   3.823   9.785   1.904 -0.7824 -0.7326 -0.2396
 2210SOL    HW216735   3.801   9.626   1.876 -1.2350 -1.0552  1.8985
 2211SOL     OW16736   8.689   2.436   0.227 -0.1567 -0.3211 -0.6650
 2211SOL    HW116737   8.758   2.504   0.254  0.1957 -0.7737 -0.4293
 2211SOL    HW216738   8.676   2.371   0.302 -0.3447 -0.6409 -0.9793
 2212SOL     OW16739   2.598   0.784   2.129  0.7242 -0.3178  0.2128
 2212SOL    HW116740   2.665   0.850   2.097  1.4508 -2.1666 -2.1813
 2212SOL    HW216741   2.631   0.741   2.213  1.1816  0.8553  0.6460
 2213SOL     OW16742   0.070   5.514   2.650  0.2250 -0.3358  0.2959
 2213SOL    HW116743   0.147   5.461   2.685  0.2286 -0.1509  0.5752
 2213SOL    HW216744   0.023   5.557   2.727  1.4702  1.7641 -0.0677
 2214SOL     OW16745   4.357   3.462   1.610 -0.5217  0.1554 -0.1890
 2214SOL    HW116746   4.307   3.394   1.665  0.8203 -1.2297 -0.6637
 2214SOL    HW216747   4.444   3.483   1.654 -0.1983  0.3237 -0.9072
 2215SOL     OW16748   1.069   2.314   2.728  0.1826  0.5273 -0.0059
 2215SOL    HW116749   1.100   2.267   2.645  1.4041  3.0493 -1.0401
 2215SOL    HW216750   1.146   2.358   2.772 -0.6201 -0.0525  2.0378
 2216SOL     OW16751   4.085   4.500   2.496 -0.1925 -0.3745 -0.8025
 2216SOL    HW116752   4.075   4.546   2.585  1.3001 -2.2226  0.3787
 2216SOL    HW216753   4.013   4.530   2.434 -2.4837 -0.5380  1.6899
 2217SOL     OW16754   1.344   4.106   0.300 -0.0089  0.0397  0.1904
 2217SOL    HW116755   1.412   4.035   0.319 -1.2220 -1.0430  0.5774
 2217SOL    HW216756   1.304   4.139   0.386  1.2287  1.8808  0.0669
 2218SOL     OW16757   9.763   2.796   1.265  0.1728  0.6755  0.2906
 2218SOL    HW116758   9.688   2.855   1.297 -1.1113  0.0581 -1.4871
 2218SOL    HW216759   9.781   2.725   1.333 -1.8786 -0.0644  0.1043
 2219SOL     OW16760   4.246   2.807   1.658  0.9365  0.7258  0.2608
 2219SOL    HW116761   4.311   2.867   1.611  0.4613  1.8380  1.0040
 2219SOL    HW216762   4.153   2.830   1.629  0.8842 -1.3751 -1.3959
 2220SOL     OW16763   1.166   9.978   2.279 -0.2187 -0.1192 -0.2059
 2220SOL    HW116764   1.093   9.909   2.284 -0.3709 -0.0077 -0.8616
 2220SOL    HW216765   1.255   9.932   2.284 -0.3285 -0.1863  1.4789
 2221SOL     OW16766   9.964   3.445   2.879 -0.7943 -0.1952  0.6019
 2221SOL    HW116767  10.031   3.465   2.950 -1.1260 -0.9166  1.1232
 2221SOL    HW216768   9.899   3.377   2.913 -0.7581 -0.7874 -0.4992
 2222SOL     OW16769   9.968   7.685   0.017  0.0726  0.1333  0.1433
 2222SOL    HW116770   9.927   7.685   0.108 -1.0595 -0.0077 -0.3651
 2222SOL    HW216771   9.961   7.776  -0.023 -1.7906 -0.4068 -0.8433
 2223SOL     OW16772   9.197   3.120   0.307 -0.1792 -0.5078  0.0749
 2223SOL    HW116773   9.120   3.172   0.270 -1.7125 -1.8349  1.3402
 2223SOL    HW216774   9.260   3.097   0.233 -0.9424  0.6694 -0.9665
 2224SOL     OW16775   0.317   1.077   1.971 -0.3996  0.4322  0.3487
 2224SOL    HW116776   0.239   1.111   2.024  0.4629 -0.1144  2.0046
 2224SOL    HW216777   0.321   0.977   1.978  2.2415  0.6540  2.8855
 2225SOL     OW16778   3.503   2.680   2.498  0.2019 -0.0026 -0.1893
 2225SOL    HW116779   3.503   2.596   2.552 -0.3420  0.7798  1.0436
 2225SOL    HW216780   3.409   2.707   2.480  0.3804  0.2418 -0.7603
 2226SOL     OW16781   0.403   7.579   0.519 -0.3615 -0.1820 -0.0164
 2226SOL    HW116782   0.484   7.569   0.576 -0.5038 -2.0980 -0.1343
 2226SOL    HW216783   0.342   7.647   0.559  1.0389  0.8803  0.3598
 2227SOL     OW16784   2.347   9.151   2.228 -0.3020 -0.1333  0.0992
 2227SOL    HW116785   2.253   9.164   2.197 -0.9588 -2.9023  0.7490
 2227SOL    HW216786   2.383   9.066   2.188  1.7837  0.6920  0.1791
 2228SOL     OW16787   9.677   7.057   2.338 -0.2398  0.5825  0.2092
 2228SOL    HW116788   9.583   7.026   2.324 -0.1928  0.0123  1.1057
 2228SOL    HW216789   9.682   7.114   2.420  0.0075  1.4841 -0.4309
 2229SOL     OW16790   0.397   7.529   1.820 -0.0363  0.0047  0.0102
 2229SOL    HW116791   0.403   7.526   1.920  1.7789 -0.4586 -0.0941
 2229SOL    HW216792   0.304   7.555   1.793  0.4811  4.2417  1.8785
 2230SOL     OW16793   2.380   7.234   2.105  0.0212 -0.6465  0.1890
 2230SOL    HW116794   2.440   7.199   2.177 -0.8944 -2.8075 -0.0724
 2230SOL    HW216795   2.285   7.217   2.130 -0.3455 -0.2988 -0.9687
 2231SOL     OW16796   3.007   8.528   2.523 -0.0895  0.4470  0.4335
 2231SOL    HW116797   3.019   8.608   2.581  1.8954 -0.5701  1.4649
 2231SOL    HW216798   2.981   8.449   2.579  2.8453 -0.7948  0.1469
 2232SOL     OW16799   2.394   2.927   2.637  0.4816 -0.1113  0.1179
 2232SOL    HW116800   2.424   3.022   2.645 -0.6808  0.1349  1.9806
 2232SOL    HW216801   2.399   2.883   2.727  1.6049 -1.9975 -0.8634
 2233SOL     OW16802   9.613   6.583   1.017  0.4282  0.0282 -0.1984
 2233SOL    HW116803   9.566   6.567   0.929  1.5677  1.8399 -1.1526
 2233SOL    HW216804   9.546   6.577   1.091 -0.9229  0.4660 -1.3555
 2234SOL     OW16805   0.398   0.335   2.267  0.8434 -0.4234  0.2974
 2234SOL    HW116806   0.459   0.260   2.293 -1.3593 -1.9382  1.2700
 2234SOL    HW216807   0.317   0.299   2.222 -1.0938  1.1706  2.3418
 2235SOL     OW16808   2.982   9.858   0.418  0.2674  0.0949 -0.0215
 2235SOL    HW116809   2.899   9.842   0.364 -0.6877  3.1274  0.4229
 2235SOL    HW216810   3.061   9.822   0.369 -1.0563 -0.8236 -1.5473
 2236SOL     OW16811   1.047   2.793   2.306 -0.7572  0.2009  0.0395
 2236SOL    HW116812   1.123   2.797   2.371 -0.3029 -1.3831 -0.3793
 2236SOL    HW216813   0.976   2.732   2.342 -1.6032  1.2529  0.1807
 2237SOL     OW16814   4.876   2.679   0.764  0.2518  0.3751 -0.5953
 2237SOL    HW116815   4.856   2.777   0.756  2.4532  0.9459  0.5518
 2237SOL    HW216816   4.837   2.631   0.685 -3.0883  1.7666  0.1010
 2238SOL     OW16817   8.961   5.255   0.428 -0.4029 -0.2683  0.2794
 2238SOL    HW116818   8.927   5.165   0.454 -1.2313  0.2798  1.1169
 2238SOL    HW216819   9.014   5.294   0.503 -0.8607  0.3431  0.2949
 2239SOL     OW16820   2.364   3.758   1.963 -0.3510  0.0049 -0.0579
 2239SOL    HW116821   2.342   3.708   2.047 -2.6745  1.4278  0.1989
 2239SOL    HW216822   2.288   3.751   1.898  0.4178  0.9649 -1.0962
 2240SOL     OW16823   2.867   7.912   2.056 -0.5073  0.0393  0.6081
 2240SOL    HW116824   2.852   7.928   1.958 -0.9991  0.6241  0.7792
 2240SOL    HW216825   2.957   7.870   2.069  0.3628  1.6760  0.0531
 2241SOL     OW16826   1.518   7.033   2.517  0.0886  0.1199  0.7466
 2241SOL    HW116827   1.613   7.051   2.543  0.1370  1.7456 -0.4155
 2241SOL    HW216828   1.514   6.957   2.452  0.5262 -0.4008  1.3333
 2242SOL     OW16829   9.432   7.306   0.701  0.3967  0.4116 -0.3932
 2242SOL    HW116830   9.379   7.241   0.647 -1.8072  1.5874  0.3006
 2242SOL    HW216831   9.430   7.279   0.797  1.8891 -0.0644 -0.4793
 2243SOL     OW16832   9.668   3.630   0.870  0.1636  0.2908 -0.1209
 2243SOL    HW116833   9.753   3.677   0.849  0.0792  0.5241  0.0622
 2243SOL    HW216834   9.594   3.665   0.812  0.1391  0.2570 -0.1105
 2244SOL     OW16835   1.163   5.139   2.797 -0.2479 -0.2617 -0.8306
 2244SOL    HW116836   1.134   5.191   2.715 -3.1164 -2.3936 -1.2561
 2244SOL    HW216837   1.175   5.043   2.773 -0.1751 -0.7408  1.0498
 2245SOL     OW16838   1.501   6.616   1.334  0.6405  0.3151 -0.5458
 2245SOL    HW116839   1.533   6.544   1.396 -3.0815  0.0914  1.2712
 2245SOL    HW216840   1.538   6.600   1.243  1.9477 -2.4448  0.4052
 2246SOL     OW16841   3.324   8.386   0.204  0.0398 -0.2517  0.0459
 2246SOL    HW116842   3.387   8.422   0.272 -0.8974 -0.3301  0.9771
 2246SOL    HW216843   3.328   8.286   0.204  0.0740 -0.2507 -0.0392
 2247SOL     OW16844   1.878   2.150   1.592 -0.4421 -0.1695  0.5547
 2247SOL    HW116845   1.848   2.109   1.678 -1.2719  1.4784  1.0761
 2247SOL    HW216846   1.889   2.249   1.604  1.2493 -0.1662 -0.7389
 2248SOL     OW16847   1.489   9.625   2.268  0.2851  0.1637  0.9496
 2248SOL    HW116848   1.492   9.544   2.326 -0.2919  0.2534  1.1061
 2248SOL    HW216849   1.498   9.707   2.325 -1.2203  0.2904  1.0316
 2249SOL     OW16850   2.468   8.072   1.995  0.4245  0.0366 -0.3464
 2249SOL    HW116851   2.565   8.087   2.015  0.8060 -1.6285 -0.9045
 2249SOL    HW216852   2.436   7.991   2.044 -0.8716  0.9537  0.3589
 2250SOL     OW16853   1.187   5.053   0.253 -0.5680 -0.6319 -0.1602
 2250SOL    HW116854   1.232   5.032   0.339  2.4394 -1.0015 -1.7373
 2250SOL    HW216855   1.140   4.972   0.219  0.0738 -1.1109  0.0847
 2251SOL     OW16856   0.157   8.775   0.971 -0.1026  0.1812 -0.0500
 2251SOL    HW116857   0.194   8.692   0.931 -0.7107 -0.1872  0.1477
 2251SOL    HW216858   0.217   8.852   0.949  0.3420 -0.2666 -0.4211
 2252SOL     OW16859   0.745   3.819   1.863  0.4992 -0.4112 -0.2761
 2252SOL    HW116860   0.741   3.730   1.908  1.5000 -0.3430 -0.0423
 2252SOL    HW216861   0.786   3.886   1.926  0.5015  0.0232 -0.7427
 2253SOL     OW16862   9.981   5.546   2.159  0.4186 -0.0339  0.3306
 2253SOL    HW116863   9.982   5.598   2.074 -1.0279 -1.1002 -0.3786
 2253SOL    HW216864   9.908   5.580   2.218 -0.9096 -1.6042 -0.3826
 2254SOL     OW16865   0.539   0.487   1.721  0.0181  0.1340  0.6688
 2254SOL    HW116866   0.560   0.422   1.648 -2.0909  2.3223 -1.9843
 2254SOL    HW216867   0.619   0.545   1.737  0.3185  0.0190 -0.3303
 2255SOL     OW16868   2.983   8.155   1.897  1.1545 -0.6609  0.3433
 2255SOL    HW116869   3.028   8.166   1.986  0.9329 -0.7300  0.4639
 2255SOL    HW216870   2.921   8.232   1.882  1.6529 -0.3239 -0.0279
 2256SOL     OW16871   1.659   2.190   0.997  0.0684  0.5726  0.3246
 2256SOL    HW116872   1.724   2.124   0.959 -1.7336  0.0811 -2.0084
 2256SOL    HW216873   1.670   2.278   0.951 -0.6329  0.6115  0.2338
 2257SOL     OW16874   0.997   7.499   1.575 -0.0219  0.5411  0.1983
 2257SOL    HW116875   0.949   7.415   1.601 -1.2302  1.2348  0.2487
 2257SOL    HW216876   1.091   7.477   1.548  0.0543 -0.6702  1.4002
 2258SOL     OW16877   1.070   1.750   0.460  0.0483  0.1080  0.4539
 2258SOL    HW116878   1.073   1.751   0.560 -2.5032 -0.2437  0.5724
 2258SOL    HW216879   1.007   1.821   0.427 -1.6265 -1.8399 -0.7240
 2259SOL     OW16880   1.716   0.520   1.935 -0.0060  0.2012  0.0528
 2259SOL    HW116881   1.667   0.439   1.904 -1.0194  0.0033  2.0407
 2259SOL    HW216882   1.656   0.600   1.930  1.2795  1.0282 -2.7638
 2260SOL     OW16883   1.511   6.203   1.802 -0.1559  0.3525  0.1549
 2260SOL    HW116884   1.471   6.187   1.892 -0.0766 -0.9038 -0.0228
 2260SOL    HW216885   1.482   6.130   1.739 -0.8778  1.6457 -1.0578
 2261SOL     OW16886   2.956   2.341   1.863  0.1302  0.0571  0.1751
 2261SOL    HW116887   3.050   2.315   1.885  0.1620 -0.6797 -0.7770
 2261SOL    HW216888   2.954   2.435   1.830  0.3916  0.4065  1.1473
 2262SOL     OW16889   0.194   3.821   2.738 -0.7245  0.5737  0.2044
 2262SOL    HW116890   0.185   3.810   2.837 -1.9945  2.0936  0.2848
 2262SOL    HW216891   0.219   3.733   2.697  1.7294  0.3615  2.0592
 2263SOL     OW16892   2.359   1.861   0.640 -0.0672  0.3657 -0.6237
 2263SOL    HW116893   2.424   1.895   0.708  1.5214 -0.0565 -1.8931
 2263SOL    HW216894   2.381   1.899   0.550  0.2272 -2.0148 -1.6142
 2264SOL     OW16895   2.525   9.533   1.339 -0.0336 -0.4700 -1.1856
 2264SOL    HW116896   2.574   9.447   1.321  1.8301  0.2939  0.0595
 2264SOL    HW216897   2.512   9.544   1.437  2.0880  1.8677 -1.1046
 2265SOL     OW16898   3.399   4.102   1.693  0.5053 -0.2514 -0.3664
 2265SOL    HW116899   3.423   4.020   1.641  0.3836  0.1173 -1.0040
 2265SOL    HW216900   3.319   4.083   1.751  2.1980 -1.4471  1.6624
 2266SOL     OW16901   4.161   3.590   1.230 -0.3551 -0.0928  0.0650
 2266SOL    HW116902   4.098   3.585   1.153  1.0554 -1.9351 -1.0034
 2266SOL    HW216903   4.220   3.671   1.219  0.3250 -0.7454 -1.1909
 2267SOL     OW16904   9.436   4.504   0.310 -0.0869  0.3281 -0.3381
 2267SOL    HW116905   9.425   4.544   0.220 -0.9822  0.9415  0.0432
 2267SOL    HW216906   9.421   4.405   0.305  2.4309 -0.0580 -1.3379
 2268SOL     OW16907   0.992   0.265   2.673 -0.2969 -0.0289  0.8336
 2268SOL    HW116908   0.962   0.317   2.753  2.3612 -0.1444  1.9661
 2268SOL    HW216909   0.980   0.320   2.591 -1.6689  0.6598  1.4882
 2269SOL     OW16910   2.907   1.804   2.595  0.3147  0.0811  0.8366
 2269SOL    HW116911   2.890   1.809   2.693 -2.4893  1.3118  0.3475
 2269SOL    HW216912   2.851   1.731   2.555 -1.3101  1.9002 -0.3237
 2270SOL     OW16913   2.384   1.839   1.852 -0.3383 -0.3870  0.3509
 2270SOL    HW116914   2.347   1.874   1.938 -0.8159 -2.1312  0.8923
 2270SOL    HW216915   2.311   1.834   1.784 -0.0602  0.5541 -0.0291
 2271SOL     OW16916   3.412   6.079   0.721 -0.0036 -0.1159  0.2077
 2271SOL    HW116917   3.481   6.023   0.674 -1.5029 -0.1026 -2.0940
 2271SOL    HW216918   3.342   6.019   0.760  0.1319 -0.0100  0.6177
 2272SOL     OW16919   0.483   0.856   1.683  0.1953  0.4565  0.5306
 2272SOL    HW116920   0.427   0.939   1.679 -1.1862 -0.5174 -0.5694
 2272SOL    HW216921   0.425   0.777   1.701  1.4195 -0.3635  0.9133
 2273SOL     OW16922   2.239   5.164   2.650 -0.1347 -0.0252  0.4314
 2273SOL    HW116923   2.190   5.099   2.709 -0.1926  0.0836  0.5017
 2273SOL    HW216924   2.279   5.236   2.706  1.9522 -1.2812  0.6316
 2274SOL     OW16925   3.415   5.571   1.046 -0.6293  0.4106  0.6159
 2274SOL    HW116926   3.477   5.555   0.969 -0.9844 -0.9438  0.6121
 2274SOL    HW216927   3.348   5.640   1.020 -2.7245 -2.3194 -1.4237
 2275SOL     OW16928   4.878   8.850   0.471  0.0802  0.2335  0.2669
 2275SOL    HW116929   4.956   8.902   0.506 -0.4319  1.6834 -0.7019
 2275SOL    HW216930   4.906   8.798   0.391 -0.1353  1.4071 -0.5822
 2276SOL     OW16931   2.105   6.440   0.895  0.5732 -0.0257 -0.0605
 2276SOL    HW116932   2.194   6.430   0.940  0.3172  1.0177  0.6936
 2276SOL    HW216933   2.036   6.390   0.947  0.5273  0.0319 -0.0655
 2277SOL     OW16934   3.187   5.772   1.115 -0.2629  0.0113  0.2593
 2277SOL    HW116935   3.112   5.824   1.074 -2.5167 -2.8059  0.6456
 2277SOL    HW216936   3.156   5.732   1.201  2.4022  0.5166  1.5059
 2278SOL     OW16937   2.317   4.053   1.493  0.2710  0.2193 -0.3847
 2278SOL    HW116938   2.386   4.118   1.523 -0.5849  0.5865  0.8087
 2278SOL    HW216939   2.346   4.011   1.407  1.3765  1.2996 -0.5498
 2279SOL     OW16940   8.568   7.024   0.160  0.3524 -0.2664 -0.0151
 2279SOL    HW116941   8.664   7.000   0.176  1.0965  3.7179  1.8921
 2279SOL    HW216942   8.559   7.068   0.071  0.1099 -1.4816 -0.6004
 2280SOL     OW16943   1.683   5.414   2.246  0.0514 -0.0143  0.6273
 2280SOL    HW116944   1.587   5.434   2.229  0.8091  2.2893 -1.1524
 2280SOL    HW216945   1.698   5.408   2.345 -1.7124  0.7003  0.9650
 2281SOL     OW16946   2.862   9.626   2.809  0.0565  0.2028  0.3077
 2281SOL    HW116947   2.794   9.675   2.864  0.9921  1.1679  0.6226
 2281SOL    HW216948   2.940   9.602   2.867 -0.4511 -1.8094  0.1903
 2282SOL     OW16949   2.264   9.655   2.500 -0.0675  0.4905  0.0958
 2282SOL    HW116950   2.230   9.592   2.570  1.1625 -0.7305 -0.3811
 2282SOL    HW216951   2.188   9.702   2.457 -0.8824  0.8342  1.8669
 2283SOL     OW16952   8.849   4.945   1.100 -0.4892  0.2817 -0.5567
 2283SOL    HW116953   8.769   5.003   1.119  0.5343  1.5231  0.0296
 2283SOL    HW216954   8.932   4.996   1.119  0.4435 -1.4668  0.2142
 2284SOL     OW16955   2.782   9.120   1.899  0.0229 -0.7578  0.6148
 2284SOL    HW116956   2.743   9.107   1.808  1.7957  0.2484 -0.3251
 2284SOL    HW216957   2.719   9.174   1.954 -2.4728 -3.9292  1.0513
 2285SOL     OW16958   2.023   9.281   2.879 -0.0192  0.4570 -0.2401
 2285SOL    HW116959   1.995   9.376   2.863  1.0566  0.9069  0.4914
 2285SOL    HW216960   2.095   9.279   2.948  0.7452 -0.8099 -1.0627
 2286SOL     OW16961   0.693   7.443   0.129  0.4794 -0.1208 -0.7073
 2286SOL    HW116962   0.694   7.510   0.054  1.2637 -0.9940 -1.5057
 2286SOL    HW216963   0.774   7.384   0.121 -0.3555 -1.3467 -0.1944
 2287SOL     OW16964   1.755   0.332   1.580 -0.8566 -0.3194  0.3892
 2287SOL    HW116965   1.839   0.336   1.526 -1.0068  0.2922  0.1983
 2287SOL    HW216966   1.706   0.247   1.559  0.0654 -1.0228  1.0378
 2288SOL     OW16967   9.826   0.577   1.850  0.3139  0.7029  0.6272
 2288SOL    HW116968   9.852   0.591   1.754 -0.2961  0.7487  0.4702
 2288SOL    HW216969   9.789   0.485   1.862  1.4347  0.2966  1.0469
 2289SOL     OW16970   1.337   5.234   0.045  0.4012  0.6656  0.4442
 2289SOL    HW116971   1.296   5.206  -0.042  0.2473 -0.5191  0.8929
 2289SOL    HW216972   1.289   5.191   0.120  0.6277  1.5797  1.1263
 2290SOL     OW16973   2.243   9.771   1.477  0.1482  0.4380  0.3513
 2290SOL    HW116974   2.309   9.839   1.446  1.9765 -1.2799  0.3974
 2290SOL    HW216975   2.157   9.783   1.426  0.7437  2.1593 -0.3020
 2291SOL     OW16976   9.929   9.045   0.830 -0.0975 -0.1689 -0.4299
 2291SOL    HW116977   9.949   9.048   0.928 -0.2060 -0.0096 -0.4124
 2291SOL    HW216978   9.834   9.016   0.817 -0.3279  0.6013 -0.4617
 2292SOL     OW16979   2.146   8.418   2.762  0.0220 -0.1863 -0.1974
 2292SOL    HW116980   2.049   8.398   2.768  0.2063 -1.0849 -0.1992
 2292SOL    HW216981   2.176   8.410   2.667  0.1509 -0.1454 -0.1603
 2293SOL     OW16982   1.484   7.536   0.908  0.3651  0.0382  0.0825
 2293SOL    HW116983   1.444   7.449   0.879  1.9641 -0.7025  0.0072
 2293SOL    HW216984   1.423   7.611   0.884 -0.4962 -0.9678 -0.9259
 2294SOL     OW16985   3.197   4.470   1.867  0.9111  0.6706 -0.2519
 2294SOL    HW116986   3.276   4.408   1.863  0.0809 -0.3148 -1.6975
 2294SOL    HW216987   3.139   4.455   1.787 -0.7189  1.4230  0.7664
 2295SOL     OW16988   2.354   9.949   1.877  0.5976 -0.1020 -0.3877
 2295SOL    HW116989   2.385   9.900   1.958  1.5358  0.9993 -0.0862
 2295SOL    HW216990   2.378  10.046   1.884 -3.2238  0.9168  0.0683
 2296SOL     OW16991   9.320   6.330   0.285 -0.7806 -0.3292 -0.2618
 2296SOL    HW116992   9.247   6.264   0.304 -0.1014 -1.1354 -0.4213
 2296SOL    HW216993   9.365   6.356   0.370 -0.0635 -1.2251 -0.3631
 2297SOL     OW16994   9.712   5.481   0.512  0.5895  0.5566 -0.1780
 2297SOL    HW116995   9.690   5.387   0.537 -1.1618  0.8228 -0.6598
 2297SOL    HW216996   9.743   5.531   0.592  1.9296 -0.5233  0.0050
 2298SOL     OW16997   3.131   5.126   0.273  0.1930 -0.1809  0.8564
 2298SOL    HW116998   3.135   5.047   0.211 -0.3021 -1.2474  2.1623
 2298SOL    HW216999   3.045   5.123   0.325  0.3219  1.0495  1.1472
 2299SOL     OW17000   3.480   4.569   0.214  0.2294 -0.5260 -0.5544
 2299SOL    HW117001   3.450   4.568   0.118  1.0273 -1.3387 -0.7982
 2299SOL    HW217002   3.580   4.571   0.217  0.1824  0.9764  0.2566
 2300SOL     OW17003   1.813   8.079   0.269 -0.3071  0.2687 -0.5944
 2300SOL    HW117004   1.724   8.051   0.305 -1.1873  2.2916 -1.1135
 2300SOL    HW217005   1.863   8.130   0.339  0.2589 -0.4611 -0.4590
 2301SOL     OW17006   9.287   3.392   1.839  0.5347  0.5300  0.0107
 2301SOL    HW117007   9.245   3.481   1.818 -0.9930 -0.2397 -0.2557
 2301SOL    HW217008   9.226   3.339   1.896  2.3246  0.4165  1.8751
 2302SOL     OW17009   3.590   9.116   0.706  0.1069  0.0754 -0.2943
 2302SOL    HW117010   3.592   9.169   0.791  1.3447 -1.2993  0.5422
 2302SOL    HW217011   3.528   9.039   0.716 -0.3207  0.3380 -0.8988
 2303SOL     OW17012   9.694   4.090   2.272 -0.6964 -0.6029  0.4163
 2303SOL    HW117013   9.768   4.151   2.241  0.7802 -1.9539  1.2011
 2303SOL    HW217014   9.668   4.029   2.198 -2.4593  1.1978 -0.5044
 2304SOL     OW17015   9.701   4.970   2.182 -0.1440 -0.4603  0.1786
 2304SOL    HW117016   9.672   4.888   2.232 -0.5720 -0.3821  0.0552
 2304SOL    HW217017   9.801   4.973   2.179 -0.1279 -1.0118  0.1279
 2305SOL     OW17018   2.347   4.756   1.403 -0.5004 -0.2138  0.3451
 2305SOL    HW117019   2.413   4.684   1.425  1.1487  0.5447 -1.8888
 2305SOL    HW217020   2.365   4.837   1.459  1.5769  0.5578 -1.3383
 2306SOL     OW17021   1.902   1.331   0.586  0.1945  0.9178  0.5938
 2306SOL    HW117022   1.942   1.294   0.670  1.8578 -0.2861 -0.7048
 2306SOL    HW217023   1.806   1.304   0.580  0.5546 -0.5671  1.2057
 2307SOL     OW17024   8.456   4.314   1.147 -0.4137 -0.1440 -0.0308
 2307SOL    HW117025   8.543   4.312   1.196 -0.0826 -2.5165 -0.6418
 2307SOL    HW217026   8.389   4.368   1.199  0.0974 -2.1097  2.7855
 2308SOL     OW17027   2.851   6.635   2.909  0.0641  0.3076 -0.4819
 2308SOL    HW117028   2.921   6.651   2.978 -0.4596 -0.6866  0.3018
 2308SOL    HW217029   2.845   6.537   2.889 -1.8228  0.2304  0.2760
 2309SOL     OW17030   2.187   1.969   1.297 -0.1939  0.1275  0.3263
 2309SOL    HW117031   2.179   2.054   1.245 -0.2465 -0.1891 -0.1859
 2309SOL    HW217032   2.173   1.988   1.395 -1.6892  0.4731  0.0595
 2310SOL     OW17033   0.120   1.104   2.166  0.7030  0.0289  0.4612
 2310SOL    HW117034   0.060   1.153   2.229 -0.6075 -1.0010  0.0283
 2310SOL    HW217035   0.089   1.009   2.156  1.6290 -0.1661 -0.7736
 2311SOL     OW17036   1.443   3.242   0.070 -0.2186 -0.2415 -0.5597
 2311SOL    HW117037   1.511   3.314   0.054  0.2051 -0.9801 -2.2464
 2311SOL    HW217038   1.484   3.167   0.121 -0.0407 -0.2396 -0.6993
 2312SOL     OW17039   2.295   6.323   1.731  0.5057 -0.1395 -0.0313
 2312SOL    HW117040   2.248   6.255   1.787  0.6508 -1.1068 -1.0591
 2312SOL    HW217041   2.240   6.406   1.727 -0.1703 -0.5559  0.4108
 2313SOL     OW17042   9.375   4.180   1.825  0.4775 -0.8108  0.6270
 2313SOL    HW117043   9.383   4.252   1.756 -1.3688 -0.1939  1.0222
 2313SOL    HW217044   9.434   4.103   1.800 -0.1386 -0.5891 -1.6378
 2314SOL     OW17045   9.024   2.099   2.293  0.1231 -0.5954  0.1760
 2314SOL    HW117046   9.071   2.047   2.364 -1.6210 -1.7006  0.5441
 2314SOL    HW217047   8.962   2.165   2.336  1.5280  1.0936 -0.3016
 2315SOL     OW17048   1.170   3.841   1.687 -0.4390 -0.5022 -0.2387
 2315SOL    HW117049   1.265   3.822   1.662 -0.5573 -0.8168 -0.4431
 2315SOL    HW217050   1.129   3.758   1.725 -1.3207 -1.0156 -2.2549
 2316SOL     OW17051   0.367   9.840   0.779  0.3535 -1.0244  0.0470
 2316SOL    HW117052   0.425   9.871   0.855  1.1366  0.2455 -1.0505
 2316SOL    HW217053   0.393   9.748   0.753  2.1749 -0.3332 -0.6881
 2317SOL     OW17054   0.737   0.930   0.186 -0.0181 -0.1301 -0.3253
 2317SOL    HW117055   0.836   0.940   0.195 -0.0947  0.0655  0.3428
 2317SOL    HW217056   0.696   1.020   0.166 -0.0632 -0.2081 -0.5859
 2318SOL     OW17057   3.446   0.459   0.073  0.4553  0.4011  0.2043
 2318SOL    HW117058   3.475   0.443  -0.021  1.6327  2.1636  0.2507
 2318SOL    HW217059   3.436   0.371   0.120 -1.9976 -0.6314 -2.0705
 2319SOL     OW17060   4.254   3.542   2.564 -0.2169 -0.3992 -0.5081
 2319SOL    HW117061   4.199   3.557   2.481 -0.5948 -0.6819 -0.3104
 2319SOL    HW217062   4.197   3.554   2.644  0.0474 -0.5530 -0.2966
 2320SOL     OW17063   0.890   1.832   2.555 -0.1310 -0.8274  0.0242
 2320SOL    HW117064   0.870   1.851   2.651  0.1240 -0.1201 -0.0638
 2320SOL    HW217065   0.965   1.766   2.550  2.0043  1.4975  0.3082
 2321SOL     OW17066   0.375   5.616   0.094 -0.0269  0.0685 -0.1558
 2321SOL    HW117067   0.349   5.712   0.092  0.0963  0.0810 -2.1856
 2321SOL    HW217068   0.293   5.559   0.101 -0.1759  0.2777 -0.1962
 2322SOL     OW17069   2.002   9.502   2.217  0.1953  0.0046  0.2172
 2322SOL    HW117070   1.963   9.462   2.133 -1.3467 -0.8738  1.3250
 2322SOL    HW217071   1.945   9.477   2.295  2.5113 -0.5434  1.7818
 2323SOL     OW17072   9.843   6.623   2.574 -0.1103  0.8338  0.0416
 2323SOL    HW117073   9.776   6.642   2.503 -0.2147  0.6255  0.0840
 2323SOL    HW217074   9.853   6.703   2.633  2.1479  2.0891 -1.9706
 2324SOL     OW17075   1.062   5.760   0.495  0.4141 -0.1990  0.2840
 2324SOL    HW117076   1.141   5.724   0.544  1.4506  0.9855 -0.4876
 2324SOL    HW217077   1.000   5.804   0.560  0.1385 -1.5291  0.9517
 2325SOL     OW17078   3.202   4.171   0.979  0.1770 -0.1430 -0.4936
 2325SOL    HW117079   3.252   4.168   1.066  1.4469  2.8210 -1.0560
 2325SOL    HW217080   3.166   4.263   0.965 -2.1002 -1.2294 -1.9923
 2326SOL     OW17081   0.606   6.932   0.260  1.0702 -0.0215  0.0410
 2326SOL    HW117082   0.611   6.949   0.161  2.5774  1.8582  0.4125
 2326SOL    HW217083   0.696   6.906   0.294  0.3311 -1.7008  0.7716
 2327SOL     OW17084   0.166   7.118   0.125 -0.1812 -0.4405 -0.0540
 2327SOL    HW117085   0.264   7.132   0.118 -0.0694 -0.6651  1.0564
 2327SOL    HW217086   0.119   7.176   0.058  0.7169 -0.5657 -0.8011
 2328SOL     OW17087   0.903   9.281   2.313 -0.0085  0.5870  0.1268
 2328SOL    HW117088   0.888   9.184   2.295  0.9993  0.1540  1.5477
 2328SOL    HW217089   0.849   9.336   2.248 -1.5130 -0.9017  0.0873
 2329SOL     OW17090   2.253   7.131   0.119  0.3511  0.4734  0.0852
 2329SOL    HW117091   2.212   7.159   0.207 -0.2792 -0.2974  0.0369
 2329SOL    HW217092   2.307   7.048   0.133 -2.0835 -1.2784 -0.8219
 2330SOL     OW17093   9.353   7.443   1.012 -0.4251 -0.1367 -0.0939
 2330SOL    HW117094   9.306   7.486   1.089  0.1271  0.3255 -0.0069
 2330SOL    HW217095   9.289   7.429   0.937 -0.7783  0.1624  0.1515
 2331SOL     OW17096   3.897   4.604   2.308 -0.0895  0.1677  0.0378
 2331SOL    HW117097   3.959   4.664   2.257 -0.5098  1.2717  0.8013
 2331SOL    HW217098   3.863   4.532   2.248 -0.9434  1.7084 -1.3831
 2332SOL     OW17099   8.884   5.595   2.764  0.2437  0.0029 -0.6189
 2332SOL    HW117100   8.930   5.660   2.824 -2.7800  0.8290  0.9267
 2332SOL    HW217101   8.868   5.637   2.675 -1.7552  1.4807  0.3910
 2333SOL     OW17102   9.135   3.809   1.203  0.8382  0.5357 -0.2334
 2333SOL    HW117103   9.122   3.850   1.294  0.5329  0.2092 -0.1262
 2333SOL    HW217104   9.046   3.779   1.168  1.0340  0.1418 -0.3947
 2334SOL     OW17105   2.253   6.841   0.902 -0.1221  0.3198  0.0940
 2334SOL    HW117106   2.227   6.784   0.981  0.4642 -3.4101 -2.2716
 2334SOL    HW217107   2.327   6.795   0.853  0.0850  3.0214 -2.1642
 2335SOL     OW17108   9.614   4.169   0.601 -0.1385 -0.2519 -0.4010
 2335SOL    HW117109   9.656   4.182   0.511  0.4252  0.9164  0.0056
 2335SOL    HW217110   9.529   4.119   0.592 -1.7358  2.5929 -1.9894
 2336SOL     OW17111   9.282   1.633   1.788  0.9263  0.8335  0.0668
 2336SOL    HW117112   9.362   1.573   1.790  0.1790 -0.1558  0.7195
 2336SOL    HW217113   9.224   1.614   1.867  0.8039  2.6070  0.4127
 2337SOL     OW17114   8.551   4.346   1.972  0.4918  0.6001 -0.5824
 2337SOL    HW117115   8.645   4.333   2.001  0.8167  2.5782 -0.6751
 2337SOL    HW217116   8.530   4.444   1.970 -2.2205  0.1287  1.5907
 2338SOL     OW17117   4.587   3.157   1.416  0.2136  0.0525  0.1441
 2338SOL    HW117118   4.523   3.214   1.364 -0.7606 -0.4595  0.7599
 2338SOL    HW217119   4.659   3.123   1.355 -0.8779 -0.4997 -0.8705
 2339SOL     OW17120   0.163   1.105   2.800  0.2385 -0.1188  0.0380
 2339SOL    HW117121   0.113   1.148   2.725  1.4931 -1.2658 -1.5012
 2339SOL    HW217122   0.099   1.054   2.858 -0.6764  0.2590 -0.6224
 2340SOL     OW17123   0.349   2.166   0.494 -0.5287 -0.4378 -0.0267
 2340SOL    HW117124   0.433   2.114   0.508 -0.1280  0.1850 -0.1162
 2340SOL    HW217125   0.285   2.112   0.438  0.0335 -0.6754 -0.4429
 2341SOL     OW17126   9.771   0.629   2.654  0.7735 -0.0470 -0.3703
 2341SOL    HW117127   9.688   0.575   2.668  0.8430 -0.1097 -0.2131
 2341SOL    HW217128   9.848   0.569   2.634  0.7347  0.0231 -0.7388
 2342SOL     OW17129   2.795   5.173   0.954 -0.1045  0.2542  0.0662
 2342SOL    HW117130   2.794   5.236   0.876 -0.2457  0.8605  0.5503
 2342SOL    HW217131   2.799   5.079   0.921 -1.2585  0.4625 -0.6990
 2343SOL     OW17132   1.571   3.613   2.792 -0.1729  0.2258  0.5810
 2343SOL    HW117133   1.615   3.616   2.882  1.2177 -3.5281  0.1276
 2343SOL    HW217134   1.641   3.608   2.721 -1.2916  0.4279 -0.5622
 2344SOL     OW17135   8.587   5.529   2.547  0.2963  0.3995  0.3626
 2344SOL    HW117136   8.492   5.533   2.580 -0.4985 -0.1810 -1.7830
 2344SOL    HW217137   8.640   5.601   2.591 -1.1736  0.8153  1.4998
 2345SOL     OW17138   9.646   2.414   1.735  0.2021 -0.1000  0.2639
 2345SOL    HW117139   9.605   2.454   1.654  0.7327  0.8333  0.4552
 2345SOL    HW217140   9.741   2.390   1.717 -0.1903 -1.5766  0.0544
 2346SOL     OW17141   9.494   5.505   2.305  0.4392  0.3902  0.0919
 2346SOL    HW117142   9.550   5.500   2.223 -0.8105 -0.5910 -0.7260
 2346SOL    HW217143   9.418   5.441   2.297  0.8163 -0.3905  2.4181
 2347SOL     OW17144   0.084   7.072   2.728  0.3235  0.0364 -0.1956
 2347SOL    HW117145   0.157   7.126   2.771  0.0097 -0.0025  0.3860
 2347SOL    HW217146   0.034   7.130   2.664  0.9947  0.0089 -0.7589
 2348SOL     OW17147   9.408   3.382   0.250  0.1863  0.4290 -0.1805
 2348SOL    HW117148   9.371   3.389   0.343  1.0702  1.7383  0.0842
 2348SOL    HW217149   9.473   3.306   0.245  0.0355  0.2740  0.2335
 2349SOL     OW17150   3.517   0.381   1.871 -0.5334  0.1085 -0.0823
 2349SOL    HW117151   3.443   0.331   1.826 -2.0736  0.3561  2.1236
 2349SOL    HW217152   3.479   0.450   1.932  1.4625 -1.7043  3.3381
 2350SOL     OW17153   3.883   9.183   1.469 -0.1152 -0.1333  0.2600
 2350SOL    HW117154   3.913   9.136   1.552 -0.7649  0.1110  0.6389
 2350SOL    HW217155   3.855   9.115   1.400  0.8586 -0.3448  0.0698
 2351SOL     OW17156   1.082   8.989   2.188 -0.8096  0.5023  0.2727
 2351SOL    HW117157   1.165   9.040   2.165 -0.9575  0.8397  0.4801
 2351SOL    HW217158   1.107   8.901   2.228 -0.5475  0.7315  0.6174
 2352SOL     OW17159   3.824   4.016   0.015 -0.0743  0.1740 -0.6310
 2352SOL    HW117160   3.805   4.056   0.104  3.0779  0.8715 -0.2078
 2352SOL    HW217161   3.792   4.077  -0.057  0.3817  1.2080  0.0346
 2353SOL     OW17162   0.081   6.669   0.733  0.2008 -0.0638 -0.3981
 2353SOL    HW117163   0.086   6.663   0.833  1.5700 -0.1499 -0.4552
 2353SOL    HW217164   0.174   6.682   0.697 -0.1576 -1.1698 -1.7231
 2354SOL     OW17165   1.883   3.258   2.933  0.0051 -0.2725 -0.8249
 2354SOL    HW117166   1.926   3.333   2.882  1.8971 -1.6578 -1.3112
 2354SOL    HW217167   1.852   3.188   2.869  1.1615 -1.3828 -0.1914
 2355SOL     OW17168   9.552   5.797   1.469  0.0896 -0.5220  0.3510
 2355SOL    HW117169   9.602   5.731   1.525  2.5817  2.7448  2.1643
 2355SOL    HW217170   9.594   5.803   1.379  1.0774 -0.0528  0.8293
 2356SOL     OW17171   0.246   9.288   2.380  0.1634 -0.8658  0.1328
 2356SOL    HW117172   0.237   9.319   2.475  0.2766  0.1716 -0.1987
 2356SOL    HW217173   0.154   9.277   2.341  0.1493  1.6443 -0.5922
 2357SOL     OW17174   3.389   0.283   1.258 -0.0286  0.1811 -0.7151
 2357SOL    HW117175   3.384   0.219   1.182  2.0025 -0.0498 -0.6614
 2357SOL    HW217176   3.453   0.357   1.236 -0.3125  0.7508  0.3092
 2358SOL     OW17177   9.343   6.764   2.403  0.1222  0.3005 -0.2203
 2358SOL    HW117178   9.262   6.801   2.358  0.1204  0.9445  0.3111
 2358SOL    HW217179   9.316   6.718   2.488  0.0479 -1.4887 -1.1922
 2359SOL     OW17180   2.523   9.531   1.626 -0.0102 -0.0711  0.4933
 2359SOL    HW117181   2.591   9.564   1.692 -0.3373 -2.7226  2.2182
 2359SOL    HW217182   2.434   9.574   1.646  0.7346  2.0403 -0.6498
 2360SOL     OW17183   0.668   5.067   0.209  0.1318 -0.0616 -0.3262
 2360SOL    HW117184   0.620   5.122   0.278  0.8008  0.6814 -0.4536
 2360SOL    HW217185   0.603   5.037   0.139 -0.5438 -0.7543  0.5682
 2361SOL     OW17186   2.283   3.808   0.473 -0.0852  0.1298  0.0006
 2361SOL    HW117187   2.381   3.816   0.454 -0.6094 -0.1403 -2.9921
 2361SOL    HW217188   2.252   3.890   0.522  1.4105  0.7046  0.0200
 2362SOL     OW17189   9.694   8.918   0.970 -0.5786  0.2154  0.2721
 2362SOL    HW117190   9.759   8.844   0.987  1.0849  0.9326 -2.5374
 2362SOL    HW217191   9.693   8.980   1.048  1.2112 -0.4578  0.8635
 2363SOL     OW17192   2.814   4.519   0.755  0.2725  0.6075 -0.0941
 2363SOL    HW117193   2.716   4.534   0.766  0.4959  2.2825 -0.3695
 2363SOL    HW217194   2.834   4.422   0.768 -1.3238  0.3638  0.6691
 2364SOL     OW17195   1.496   0.501   1.550 -0.4539 -0.0828  0.1165
 2364SOL    HW117196   1.412   0.447   1.551  0.0142 -0.8237  2.8294
 2364SOL    HW217197   1.574   0.441   1.566  0.6121  0.6308 -2.2039
 2365SOL     OW17198   9.252   2.823   1.897 -0.3949  0.5256 -0.2345
 2365SOL    HW117199   9.173   2.808   1.837  1.1828  0.4334 -2.3426
 2365SOL    HW217200   9.336   2.811   1.844  1.0294  1.5281  1.7714
 2366SOL     OW17201   1.036   1.469   0.870  0.2558  0.4024 -0.7029
 2366SOL    HW117202   0.990   1.406   0.808  0.8688 -1.4290  0.6510
 2366SOL    HW217203   1.133   1.447   0.873  0.6269  1.9421 -0.7960
 2367SOL     OW17204   0.010   6.553   1.539 -0.1116 -1.2350  0.3491
 2367SOL    HW117205   0.067   6.627   1.504 -0.2988 -1.6110 -0.7669
 2367SOL    HW217206   0.053   6.465   1.520 -0.8181 -1.5005 -0.0427
 2368SOL     OW17207   0.792   9.349   2.562 -0.0732 -0.1337 -0.3726
 2368SOL    HW117208   0.856   9.366   2.487  0.0737 -1.3818 -0.5445
 2368SOL    HW217209   0.841   9.354   2.649  0.0228  0.0371 -0.4355
 2369SOL     OW17210   1.910   4.225   2.917 -0.3640  0.3821  0.2840
 2369SOL    HW117211   1.819   4.232   2.875 -0.9285 -2.0361  1.0313
 2369SOL    HW217212   1.976   4.195   2.848 -0.3086  1.1158  0.0025
 2370SOL     OW17213   0.839   7.299   0.768 -0.0956 -0.0115  0.7658
 2370SOL    HW117214   0.827   7.324   0.864  0.0910  2.7852  0.0892
 2370SOL    HW217215   0.765   7.340   0.714  0.4627 -0.5871 -0.4444
 2371SOL     OW17216   9.152   3.244   0.570  0.1401  0.1628 -0.2799
 2371SOL    HW117217   9.191   3.207   0.485  0.3465  1.7827 -0.8996
 2371SOL    HW217218   9.136   3.169   0.634 -0.1606 -1.0987 -1.7990
 2372SOL     OW17219   0.890   5.703   0.939  0.0941 -0.4091  0.4887
 2372SOL    HW117220   0.905   5.669   1.032  0.4137  0.2887  0.6930
 2372SOL    HW217221   0.889   5.626   0.875  3.1405 -0.6247  0.6456
 2373SOL     OW17222   4.521   3.424   1.045 -0.2132 -0.4406  0.8702
 2373SOL    HW117223   4.478   3.351   1.098 -2.4622  1.4172  1.6915
 2373SOL    HW217224   4.455   3.499   1.032  1.7746  1.0994 -0.6307
 2374SOL     OW17225   9.280   1.351   1.074 -0.5271  0.1353  1.0638
 2374SOL    HW117226   9.210   1.360   1.145  0.0244  3.0861  1.2846
 2374SOL    HW217227   9.353   1.417   1.091  0.8194 -0.7928 -0.9167
 2375SOL     OW17228   3.588   5.025   1.624 -0.1540  0.2369 -0.1778
 2375SOL    HW117229   3.668   5.019   1.683 -0.1939  0.9179 -0.0492
 2375SOL    HW217230   3.507   4.994   1.675  0.0426 -0.5517 -0.3427
 2376SOL     OW17231   1.144   2.551   0.363 -0.2298 -1.0827 -0.4806
 2376SOL    HW117232   1.159   2.522   0.268  0.2938 -1.0736 -0.4007
 2376SOL    HW217233   1.209   2.504   0.423 -0.1187 -0.5802 -0.2083
 2377SOL     OW17234   0.882   1.911   2.825 -0.1108  0.2675 -0.8500
 2377SOL    HW117235   0.796   1.952   2.856  0.0192 -0.1947  0.1350
 2377SOL    HW217236   0.950   1.916   2.898 -0.1165 -1.7670 -0.6769
 2378SOL     OW17237   1.899   5.938   2.404  0.3145 -0.0080 -0.0927
 2378SOL    HW117238   1.939   5.873   2.468  1.5396  0.6635 -0.1675
 2378SOL    HW217239   1.943   5.928   2.315  0.5607  0.9806 -0.0838
 2379SOL     OW17240   0.375   2.710   1.379 -0.3085 -0.4171  0.3898
 2379SOL    HW117241   0.419   2.792   1.416 -2.5285  0.7813  0.4843
 2379SOL    HW217242   0.311   2.674   1.447  0.0753 -1.8010  0.0361
 2380SOL     OW17243   9.668   2.367   2.089 -0.0183 -0.3234  0.2666
 2380SOL    HW117244   9.569   2.380   2.087 -0.0987 -1.0260 -0.4632
 2380SOL    HW217245   9.713   2.449   2.054 -0.3863 -0.4878 -0.5884
 2381SOL     OW17246   1.137   9.371   2.370 -0.3245 -0.0685  0.2871
 2381SOL    HW117247   1.159   9.463   2.338 -1.2603  0.2018  0.3946
 2381SOL    HW217248   1.044   9.346   2.340 -0.8489 -0.1785  1.9454
 2382SOL     OW17249   4.218   0.835   2.663  0.1641 -0.4395 -0.4512
 2382SOL    HW117250   4.178   0.916   2.705  0.5322 -0.3594 -0.2584
 2382SOL    HW217251   4.192   0.754   2.715  0.4525 -0.3626 -0.1917
 2383SOL     OW17252   4.220   4.800   0.203  0.1004  0.5324  0.0924
 2383SOL    HW117253   4.297   4.742   0.175  0.1664  0.4170  0.5089
 2383SOL    HW217254   4.134   4.758   0.171 -0.0003 -0.8063  2.0303
 2384SOL     OW17255   4.629   3.557   1.765 -0.2068 -0.5665  0.4949
 2384SOL    HW117256   4.645   3.646   1.723 -1.0610 -1.2680 -1.3671
 2384SOL    HW217257   4.672   3.486   1.708 -0.1975 -1.4100  1.5478
 2385SOL     OW17258   3.347   2.783   1.252 -0.2785  0.4167  0.8169
 2385SOL    HW117259   3.362   2.748   1.345  1.6507  2.0672  1.1698
 2385SOL    HW217260   3.271   2.847   1.253  0.5868  1.4599  1.5659
 2386SOL     OW17261   1.784   1.660   0.873  0.4285 -0.6416 -0.2265
 2386SOL    HW117262   1.794   1.667   0.773  1.9103 -1.7373 -0.1709
 2386SOL    HW217263   1.830   1.577   0.905  1.1372  0.4168  1.5384
 2387SOL     OW17264   0.608   8.848   1.252  0.4566  0.2860 -0.0066
 2387SOL    HW117265   0.547   8.770   1.257 -0.0901  0.5332 -2.2838
 2387SOL    HW217266   0.694   8.821   1.208  1.6298  0.1924  2.2316
 2388SOL     OW17267   1.754   7.033   2.652  0.2437 -0.2403  0.7832
 2388SOL    HW117268   1.751   7.030   2.752 -0.9561 -2.3846  0.6998
 2388SOL    HW217269   1.749   6.941   2.615 -1.1312  0.6305 -1.3127
 2389SOL     OW17270   0.390   1.697   2.536 -0.8616 -0.0742  0.0227
 2389SOL    HW117271   0.375   1.759   2.459 -0.4095  1.0490  0.8186
 2389SOL    HW217272   0.392   1.602   2.504  1.7734  0.5231 -1.7327
 2390SOL     OW17273   2.242   6.501   0.240 -0.2780 -0.1824  0.0052
 2390SOL    HW117274   2.292   6.439   0.180  2.6100  0.5480  1.5489
 2390SOL    HW217275   2.204   6.576   0.186  0.8673 -0.4006 -1.1222
 2391SOL     OW17276   4.559   1.072   2.286 -0.6681 -0.2608  0.2518
 2391SOL    HW117277   4.558   1.129   2.204  0.4185 -1.6650 -0.7515
 2391SOL    HW217278   4.650   1.030   2.297 -1.0137 -0.6668  1.7770
 2392SOL     OW17279   9.872   3.890   1.833 -0.1417 -0.1118 -0.0094
 2392SOL    HW117280   9.947   3.955   1.847 -0.2020 -0.6846  3.5382
 2392SOL    HW217281   9.907   3.797   1.842 -1.3846 -0.3680  2.7035
 2393SOL     OW17282   1.699   6.063   2.530  0.6412  0.5828  0.3173
 2393SOL    HW117283   1.761   6.128   2.575  0.8775 -0.7815  2.0090
 2393SOL    HW217284   1.751   6.008   2.465  1.0866 -0.0651  1.2070
 2394SOL     OW17285   3.520   2.474   2.118 -0.5671  0.5551  0.3054
 2394SOL    HW117286   3.452   2.548   2.120 -0.3787  0.7875 -0.9860
 2394SOL    HW217287   3.582   2.489   2.040 -0.9117 -1.2973 -0.3469
 2395SOL     OW17288   8.684   5.946   2.570 -0.2285 -0.0961 -0.1076
 2395SOL    HW117289   8.761   6.006   2.590  0.3979 -0.6482 -0.8437
 2395SOL    HW217290   8.618   5.994   2.512 -0.7623  0.5944  1.0444
 2396SOL     OW17291   3.382   4.827   2.756 -0.1161 -0.0215 -0.4263
 2396SOL    HW117292   3.378   4.728   2.749  0.4006  0.0608 -2.1374
 2396SOL    HW217293   3.379   4.854   2.852 -2.3491 -1.5937 -0.0116
 2397SOL     OW17294   1.560   1.559   1.726 -0.0948 -0.1005  0.8261
 2397SOL    HW117295   1.566   1.521   1.818 -0.5481 -0.7269  0.5954
 2397SOL    HW217296   1.515   1.648   1.730 -2.7065 -1.3771  0.8664
 2398SOL     OW17297   3.090   3.230   1.863  0.2613  0.3690 -0.3390
 2398SOL    HW117298   3.074   3.286   1.782  0.7384 -1.4807 -1.7501
 2398SOL    HW217299   3.010   3.173   1.880  0.3051  0.4905  0.2855
 2399SOL     OW17300   0.343   2.821   0.035  0.5402 -0.0579 -0.0222
 2399SOL    HW117301   0.310   2.763  -0.040 -0.9085 -0.7786  1.1552
 2399SOL    HW217302   0.442   2.829   0.029  0.3403  0.9185 -2.7472
 2400SOL     OW17303   2.115   4.580   1.762 -0.0560  0.1565  0.2984
 2400SOL    HW117304   2.053   4.656   1.780 -0.9245 -1.0189  2.4275
 2400SOL    HW217305   2.064   4.494   1.761  1.2858 -0.6627  0.4146
 2401SOL     OW17306   9.956   9.866   0.246 -0.1935  0.3144  0.0258
 2401SOL    HW117307  10.007   9.788   0.281  0.1414  1.0857  1.2853
 2401SOL    HW217308   9.940   9.932   0.320 -0.5240  1.4137 -1.0036
 2402SOL     OW17309   2.177   9.759   0.552  0.7127 -0.6375 -0.0276
 2402SOL    HW117310   2.204   9.668   0.581 -0.8315 -1.0216  0.2647
 2402SOL    HW217311   2.170   9.819   0.632  0.7379 -0.5279 -0.1066
 2403SOL     OW17312   2.126   2.501   0.645 -0.4868 -0.0065 -0.1450
 2403SOL    HW117313   2.178   2.584   0.660 -0.0056 -0.7973  2.7470
 2403SOL    HW217314   2.028   2.520   0.654 -0.2594 -0.2527  3.2378
 2404SOL     OW17315   0.664   2.735   2.104  0.2467 -0.1827  0.1507
 2404SOL    HW117316   0.689   2.654   2.051  1.8843  0.2194  0.2769
 2404SOL    HW217317   0.697   2.817   2.057 -0.8553  0.3785  0.3333
 2405SOL     OW17318   3.946   2.288   1.329  0.6344  0.2062 -0.2811
 2405SOL    HW117319   3.946   2.213   1.395 -0.1385  0.5181  0.0746
 2405SOL    HW217320   3.885   2.265   1.253  1.4099 -0.0891 -0.8173
 2406SOL     OW17321   0.416   1.029   2.775 -0.5525 -0.0406 -0.2880
 2406SOL    HW117322   0.318   1.045   2.785 -0.5229  0.0466 -0.1294
 2406SOL    HW217323   0.433   0.967   2.698 -0.8609 -1.5003  0.7885
 2407SOL     OW17324   3.932   2.298   0.084 -0.3670  0.9898  0.1702
 2407SOL    HW117325   3.932   2.198   0.083  0.8405  0.9924 -1.8789
 2407SOL    HW217326   3.968   2.331   0.172 -0.0182 -0.3708  0.5423
 2408SOL     OW17327   4.905   2.956   0.744  0.0286  0.1237 -0.0491
 2408SOL    HW117328   4.842   2.986   0.816  2.7367  1.1752  1.9347
 2408SOL    HW217329   4.921   3.032   0.680 -1.5256 -0.4832 -1.2022
 2409SOL     OW17330   2.450   4.987   2.621  0.4621  0.2976 -0.1797
 2409SOL    HW117331   2.376   5.054   2.621  1.0516  0.9479  0.5814
 2409SOL    HW217332   2.411   4.895   2.629 -0.3688  0.5026 -1.7275
 2410SOL     OW17333   2.737   3.278   2.837  0.8447  0.1019 -0.0527
 2410SOL    HW117334   2.675   3.341   2.884  2.4653  2.2552 -0.6574
 2410SOL    HW217335   2.705   3.184   2.847 -0.5752  0.8144  2.6233
 2411SOL     OW17336   9.185   6.971   1.824 -0.4776 -0.4856  0.0648
 2411SOL    HW117337   9.092   6.957   1.790 -1.0240 -0.5288  1.5265
 2411SOL    HW217338   9.226   6.883   1.848  0.1162 -0.5077 -0.9916
 2412SOL     OW17339   0.873   6.680   0.970 -0.1279 -0.4537  0.0086
 2412SOL    HW117340   0.951   6.701   0.911 -1.6229 -1.2043 -2.2874
 2412SOL    HW217341   0.894   6.599   1.025  1.5460  0.6683  1.0888
 2413SOL     OW17342   2.881   7.518   0.084  0.2314  0.2651 -0.3635
 2413SOL    HW117343   2.904   7.546  -0.009 -0.8719 -1.6764 -1.2471
 2413SOL    HW217344   2.869   7.599   0.141 -0.6015  1.5095 -2.2782
 2414SOL     OW17345   3.606   3.598   2.680  0.4808 -0.0985  0.0140
 2414SOL    HW117346   3.649   3.648   2.756  0.9545 -1.7548  0.8515
 2414SOL    HW217347   3.671   3.591   2.604  0.2221  1.0278 -0.3169
 2415SOL     OW17348   3.537   9.539   0.941  0.2641 -0.2370  0.0215
 2415SOL    HW117349   3.630   9.526   0.908  0.6723  1.1506  0.6087
 2415SOL    HW217350   3.537   9.545   1.041 -0.5910 -1.3503  0.1012
 2416SOL     OW17351   2.632   8.912   2.869 -0.1016  0.4760  0.0188
 2416SOL    HW117352   2.598   9.005   2.855 -0.6389  0.4737  1.2498
 2416SOL    HW217353   2.672   8.878   2.784 -1.5371  1.1508 -0.9459
 2417SOL     OW17354   0.967   3.092   1.744  0.4235  0.2782  0.2062
 2417SOL    HW117355   0.923   3.131   1.825 -0.7786 -0.2383 -0.1827
 2417SOL    HW217356   1.045   3.036   1.772  0.7359  1.0661  0.9203
 2418SOL     OW17357   1.239   0.960   0.311  0.8727  0.3092 -0.4253
 2418SOL    HW117358   1.253   0.925   0.403 -0.4089 -1.0053 -0.6977
 2418SOL    HW217359   1.279   1.051   0.303 -0.0093  0.9143  1.7507
 2419SOL     OW17360   2.721   6.006   2.931 -0.1901 -0.2185 -0.0521
 2419SOL    HW117361   2.687   6.086   2.980 -1.8750 -0.9842  0.0538
 2419SOL    HW217362   2.796   5.964   2.983  0.0965  0.7666  0.3282
 2420SOL     OW17363   2.998   3.545   0.677  0.1159 -0.9228 -0.2567
 2420SOL    HW117364   3.028   3.453   0.703  1.4245 -0.0886  1.2712
 2420SOL    HW217365   3.065   3.612   0.708 -0.9618  0.5824 -1.1086
 2421SOL     OW17366   1.798   5.369   0.548 -0.1108 -0.2065  0.4836
 2421SOL    HW117367   1.870   5.432   0.518  0.6369 -0.0296  2.5179
 2421SOL    HW217368   1.753   5.407   0.629 -1.2895 -1.1537  0.2784
 2422SOL     OW17369   2.956   5.171   1.160  0.3826 -0.0356  0.1814
 2422SOL    HW117370   2.903   5.188   1.077 -1.1645  0.3925  1.2310
 2422SOL    HW217371   3.030   5.107   1.140 -0.5731 -0.6944 -1.2997
 2423SOL     OW17372   0.889   5.585   0.415  0.3682 -0.5549  0.1965
 2423SOL    HW117373   0.949   5.643   0.469 -1.5374  0.4268  1.2888
 2423SOL    HW217374   0.896   5.610   0.318  0.5535  0.6043  0.5050
 2424SOL     OW17375   0.920   3.027   2.725 -0.0604  0.0570  0.2316
 2424SOL    HW117376   0.839   2.999   2.673  0.4680 -0.9964 -0.0392
 2424SOL    HW217377   0.902   3.114   2.770 -1.5195 -0.4120  0.5762
 2425SOL     OW17378   9.635   2.001   2.027  0.0536  0.5542 -0.4571
 2425SOL    HW117379   9.582   2.074   2.071 -0.7011 -1.3681  1.9419
 2425SOL    HW217380   9.572   1.939   1.980  0.5694  0.5800 -1.1971
 2426SOL     OW17381   2.223   6.959   2.640 -0.5866 -0.3141 -0.6691
 2426SOL    HW117382   2.310   6.912   2.655  0.0780  0.4471 -1.9739
 2426SOL    HW217383   2.193   6.943   2.547  0.0112  2.3619 -1.3590
 2427SOL     OW17384   4.259   9.010   0.963 -0.1178 -0.3052  0.0334
 2427SOL    HW117385   4.194   9.046   1.029 -0.6391 -0.1239 -0.5670
 2427SOL    HW217386   4.216   9.007   0.873  0.7974  0.1023 -0.4297
 2428SOL     OW17387   2.577   8.660   0.814 -0.1607  0.1924 -0.0357
 2428SOL    HW117388   2.485   8.657   0.853 -0.4840 -0.3259 -0.8204
 2428SOL    HW217389   2.600   8.569   0.778  1.2706 -0.0983  1.5498
 2429SOL     OW17390   0.550   4.185   0.846  0.3622 -0.2861  0.1933
 2429SOL    HW117391   0.456   4.214   0.826  0.6203 -1.7716 -3.4561
 2429SOL    HW217392   0.548   4.109   0.910 -1.1151 -2.1165 -1.9533
 2430SOL     OW17393   1.823   9.499   0.676  0.0348  0.2928  0.3686
 2430SOL    HW117394   1.869   9.512   0.588 -1.1099  2.5274  0.0817
 2430SOL    HW217395   1.830   9.583   0.730 -1.8616 -0.0714  1.1890
 2431SOL     OW17396   0.021   4.316   1.771  0.0001  0.0418 -0.3529
 2431SOL    HW117397  -0.050   4.376   1.732  0.2952 -0.8020 -2.2361
 2431SOL    HW217398   0.111   4.355   1.752  0.0589  1.2406  2.2568
 2432SOL     OW17399   2.322   6.447   1.408 -0.5483  0.0421 -0.5429
 2432SOL    HW117400   2.290   6.456   1.502  0.2323 -0.0289 -0.2748
 2432SOL    HW217401   2.243   6.430   1.348 -1.3372  2.3558 -0.2307
 2433SOL     OW17402   1.190   3.268   0.135  0.3851 -0.8841 -0.0390
 2433SOL    HW117403   1.164   3.326   0.058  1.6117  1.3250  1.1853
 2433SOL    HW217404   1.289   3.266   0.144  0.2487 -0.9842  1.5809
 2434SOL     OW17405   0.101   9.900   0.921  0.2003 -0.2823  0.3002
 2434SOL    HW117406   0.139   9.933   0.835  2.4287  0.2771  1.4417
 2434SOL    HW217407   0.173   9.901   0.991 -1.5356 -0.8159  2.1343
 2435SOL     OW17408   3.241   8.936   2.536 -0.1987  0.3497 -0.9177
 2435SOL    HW117409   3.242   8.837   2.524 -2.4465  0.0734  0.8393
 2435SOL    HW217410   3.333   8.968   2.558  0.1415 -1.6794  0.8285
 2436SOL     OW17411   3.430   4.317   2.175  0.0864 -0.0585  0.6488
 2436SOL    HW117412   3.489   4.387   2.214  1.1635 -0.6258  0.0555
 2436SOL    HW217413   3.339   4.355   2.159  1.0648  1.6281 -1.0208
 2437SOL     OW17414   2.355   5.373   2.245  0.9780  0.2688 -0.0623
 2437SOL    HW117415   2.279   5.433   2.271  1.6462  1.2311 -0.2981
 2437SOL    HW217416   2.403   5.344   2.327 -1.3698 -2.7131  0.3496
 2438SOL     OW17417   0.001   7.015   1.624 -0.0122 -0.1881 -0.4068
 2438SOL    HW117418   0.049   7.100   1.603 -2.6737  1.1357 -1.3491
 2438SOL    HW217419  -0.097   7.029   1.612 -0.5940 -3.0153  0.7986
 2439SOL     OW17420   1.624   2.091   0.337 -0.0217  0.5442 -0.3974
 2439SOL    HW117421   1.641   2.029   0.261  1.0353  0.9851 -0.5266
 2439SOL    HW217422   1.711   2.121   0.376 -0.5076  1.9829 -0.3671
 2440SOL     OW17423   9.433   3.423   1.602 -1.2018  0.1599 -0.0304
 2440SOL    HW117424   9.381   3.411   1.686 -0.9202  1.3895  0.3330
 2440SOL    HW217425   9.386   3.488   1.543 -1.5811 -0.9651 -0.9856
 2441SOL     OW17426   3.921   1.404   1.085  0.9924  0.7099  0.0804
 2441SOL    HW117427   3.827   1.387   1.054  1.5596 -0.8845 -0.7989
 2441SOL    HW217428   3.926   1.390   1.184  0.6433 -0.8484 -0.1047
 2442SOL     OW17429   3.185   9.144   1.653  0.1990 -0.1705  0.3814
 2442SOL    HW117430   3.138   9.076   1.596 -0.0947 -0.4092  0.9042
 2442SOL    HW217431   3.146   9.142   1.745 -0.2913  1.1926  0.2104
 2443SOL     OW17432   9.217   5.134   2.566  0.4487 -0.3337  0.3722
 2443SOL    HW117433   9.126   5.093   2.555 -0.2742  1.5330 -0.9916
 2443SOL    HW217434   9.286   5.074   2.524 -0.5174 -0.4459 -1.1107
 2444SOL     OW17435   0.985   0.813   2.281  0.1931 -0.0577  0.2399
 2444SOL    HW117436   1.047   0.829   2.205 -0.3293  0.4860 -0.0743
 2444SOL    HW217437   1.027   0.749   2.345  0.6406 -0.5006 -0.4916
 2445SOL     OW17438   2.501   2.480   1.250  0.2359  0.2036 -0.1639
 2445SOL    HW117439   2.540   2.432   1.171  0.2500  1.3087 -0.8436
 2445SOL    HW217440   2.575   2.514   1.308  0.3556  2.6076 -1.6383
 2446SOL     OW17441   9.014   6.759   2.016 -0.0248 -0.0560  0.4851
 2446SOL    HW117442   9.023   6.685   2.082  0.0744  0.9190  1.5844
 2446SOL    HW217443   8.943   6.823   2.047 -2.2085 -1.2316 -1.9274
 2447SOL     OW17444   0.785   9.022   2.213  0.0017  0.2383  0.0897
 2447SOL    HW117445   0.725   8.967   2.271 -0.2660 -0.2672 -0.6541
 2447SOL    HW217446   0.867   8.969   2.190  0.5631  0.7891  0.7929
 2448SOL     OW17447   3.335   1.897   0.465 -0.9009  0.0583 -0.1598
 2448SOL    HW117448   3.306   1.808   0.430 -0.3760 -0.0425 -0.3448
 2448SOL    HW217449   3.260   1.963   0.456  0.1150  0.7580 -4.0513
 2449SOL     OW17450   0.378   0.868   0.818 -0.4063  0.3870  0.2886
 2449SOL    HW117451   0.343   0.778   0.840 -0.2046  0.4787  1.0060
 2449SOL    HW217452   0.310   0.919   0.765 -0.5080 -0.1899 -0.1323
 2450SOL     OW17453   2.466   8.917   2.172  0.3642  0.2200  0.1245
 2450SOL    HW117454   2.403   8.868   2.233  0.4462 -2.1773 -1.6342
 2450SOL    HW217455   2.477   8.865   2.088  4.4629  0.7440  0.2589
 2451SOL     OW17456   2.657   7.786   0.623 -0.0302 -0.5269  0.3055
 2451SOL    HW117457   2.658   7.726   0.543  2.7101 -0.1156 -0.0220
 2451SOL    HW217458   2.679   7.879   0.595  1.5323 -0.4849  1.5920
 2452SOL     OW17459   3.477   0.215   0.236 -0.1547  0.7720 -0.6742
 2452SOL    HW117460   3.515   0.288   0.293 -0.2649  0.4400 -0.1683
 2452SOL    HW217461   3.379   0.205   0.255 -0.0884  0.3269 -0.5552
 2453SOL     OW17462   9.424   1.804   0.662 -0.4806  0.3847  0.3951
 2453SOL    HW117463   9.518   1.774   0.676 -0.2398  1.0724  0.2546
 2453SOL    HW217464   9.424   1.892   0.614 -1.2459 -0.7307 -1.6888
 2454SOL     OW17465   0.417   3.141   1.293  0.1123 -0.3074 -0.2395
 2454SOL    HW117466   0.509   3.179   1.293 -0.3998  0.9428 -0.1143
 2454SOL    HW217467   0.407   3.079   1.215  1.4530 -1.4594  0.4750
 2455SOL     OW17468   2.765   1.988   0.755  0.4922  0.5120 -0.6144
 2455SOL    HW117469   2.797   1.982   0.660  2.1196 -0.0205 -0.0460
 2455SOL    HW217470   2.666   2.003   0.756  0.4882  0.6963 -2.3981
 2456SOL     OW17471   1.817   7.137   0.254  0.9507  0.2994  0.1990
 2456SOL    HW117472   1.810   7.103   0.160  1.3118  1.3689 -0.2318
 2456SOL    HW217473   1.805   7.236   0.254 -2.3158 -0.0408  1.6930
 2457SOL     OW17474   2.105   3.198   2.634  0.4194 -0.5633  0.2481
 2457SOL    HW117475   2.138   3.203   2.540 -0.7739 -0.7540 -0.1904
 2457SOL    HW217476   2.038   3.270   2.650 -0.1396 -1.1601  0.6426
 2458SOL     OW17477   9.185   2.434   0.415 -0.0293 -0.7093  0.3267
 2458SOL    HW117478   9.172   2.374   0.335 -2.4013 -0.3521  0.3987
 2458SOL    HW217479   9.222   2.380   0.491  1.2825 -1.2767 -0.6876
 2459SOL     OW17480   0.135   2.562   2.885  0.6257 -0.1499  0.2591
 2459SOL    HW117481   0.117   2.548   2.983  1.2456 -2.1922  0.1126
 2459SOL    HW217482   0.151   2.473   2.841 -0.7217  0.6535 -1.9266
 2460SOL     OW17483   1.893   1.117   2.571 -0.1050  0.1783 -0.1866
 2460SOL    HW117484   1.863   1.046   2.635  1.0885  0.3560  0.5872
 2460SOL    HW217485   1.820   1.184   2.559 -0.3259  0.1683  1.0342
 2461SOL     OW17486   1.134   6.267   1.852 -0.5773 -0.6806 -0.1780
 2461SOL    HW117487   1.100   6.291   1.761  1.2494  0.4830 -0.5695
 2461SOL    HW217488   1.173   6.175   1.849  1.7276  0.2848 -1.2162
 2462SOL     OW17489   0.461   7.166   0.282  0.0357 -0.2374 -0.2824
 2462SOL    HW117490   0.481   7.214   0.197  0.5484  0.5262  0.2667
 2462SOL    HW217491   0.489   7.071   0.274  0.0091 -0.1874 -0.9947
 2463SOL     OW17492   9.562   3.652   1.385  0.7602  0.5571 -0.2471
 2463SOL    HW117493   9.571   3.604   1.298 -1.3376 -1.3643  0.5457
 2463SOL    HW217494   9.533   3.746   1.369 -2.8869 -0.7150 -1.5368
 2464SOL     OW17495   4.407   1.985   0.520 -0.0739 -0.2600  0.4194
 2464SOL    HW117496   4.482   2.050   0.526  0.6090 -1.0397  0.4031
 2464SOL    HW217497   4.320   2.034   0.524  0.4269  0.5349  1.7488
 2465SOL     OW17498   2.844   2.948   0.062 -0.0529  0.6747  0.2789
 2465SOL    HW117499   2.913   3.020   0.074  0.1200  0.6884 -0.7274
 2465SOL    HW217500   2.857   2.904  -0.027 -1.1277  0.4282  0.2384
 2466SOL     OW17501   2.308   7.189   0.625 -0.1985 -0.3092  0.1612
 2466SOL    HW117502   2.271   7.279   0.598 -0.0640  0.5065  2.5578
 2466SOL    HW217503   2.404   7.184   0.601  0.4170  1.1695  2.1262
 2467SOL     OW17504   3.609   3.524   0.613  0.2008 -0.1096  0.0213
 2467SOL    HW117505   3.588   3.537   0.516  0.7460  0.6852  0.0102
 2467SOL    HW217506   3.564   3.440   0.645 -1.5399  0.6056 -0.4477
 2468SOL     OW17507   2.209   8.214   2.242 -0.0430  0.3805 -0.2243
 2468SOL    HW117508   2.255   8.238   2.327 -1.5123  2.3151  0.0581
 2468SOL    HW217509   2.258   8.254   2.165  2.0835 -2.5095 -0.4818
 2469SOL     OW17510   2.526   8.518   2.092 -0.0001 -0.2328 -0.3356
 2469SOL    HW117511   2.486   8.602   2.054 -0.1251 -0.8254 -1.5576
 2469SOL    HW217512   2.480   8.438   2.052  0.2162 -0.8875  0.7005
 2470SOL     OW17513   0.172   1.010   0.675 -0.1602 -0.3089 -0.2386
 2470SOL    HW117514   0.213   1.062   0.601 -0.4244 -0.4169 -0.4596
 2470SOL    HW217515   0.108   1.069   0.726 -1.2457 -0.7072 -1.1270
 2471SOL     OW17516   9.921   8.296   2.877  0.5191  0.1566  0.7076
 2471SOL    HW117517  10.018   8.276   2.862 -0.1603 -1.2846 -2.2125
 2471SOL    HW217518   9.870   8.210   2.881 -0.9399  0.9788 -0.0387
 2472SOL     OW17519   1.964   9.463   0.449 -0.1835  0.2963 -0.3675
 2472SOL    HW117520   2.060   9.455   0.477 -0.7125  2.4380  2.2717
 2472SOL    HW217521   1.958   9.513   0.363  1.0500  0.7871 -0.1836
 2473SOL     OW17522   2.697   5.859   1.662 -0.3797 -0.5454 -0.0695
 2473SOL    HW117523   2.683   5.941   1.607 -0.4008 -2.0631 -2.4158
 2473SOL    HW217524   2.609   5.815   1.678 -0.5555  0.6655  2.4905
 2474SOL     OW17525   9.785   8.373   0.291  0.3519 -0.2430 -0.5607
 2474SOL    HW117526   9.760   8.464   0.258 -0.6267  0.4742  2.0220
 2474SOL    HW217527   9.879   8.375   0.325 -0.3105  0.3492  1.3001
 2475SOL     OW17528   2.851   0.671   1.591 -0.3571  0.7595 -0.0846
 2475SOL    HW117529   2.798   0.656   1.675 -0.1471  0.9165  0.0775
 2475SOL    HW217530   2.861   0.585   1.542  0.9060  0.3358  0.8698
 2476SOL     OW17531   9.947   7.956   0.223 -0.7331 -0.0456 -0.1984
 2476SOL    HW117532   9.969   7.863   0.253 -0.3294  0.3947  0.8914
 2476SOL    HW217533  10.030   8.012   0.222 -0.7673 -0.0015 -1.9998
 2477SOL     OW17534   2.978   6.408   0.076  0.2245  0.8841  0.3695
 2477SOL    HW117535   3.028   6.451   0.151 -1.2731  1.5660  0.9793
 2477SOL    HW217536   3.003   6.311   0.070  2.4226  1.4425 -0.0142
 2478SOL     OW17537   0.971   0.058   0.975 -0.0394  0.0294 -0.1809
 2478SOL    HW117538   1.047   0.124   0.976  0.4298 -0.4958  2.2103
 2478SOL    HW217539   0.930   0.053   1.066 -1.0369 -1.8868 -0.7066
 2479SOL     OW17540   8.550   5.586   1.509  0.2836 -0.7469  0.3230
 2479SOL    HW117541   8.457   5.548   1.504  0.6595 -1.4898 -1.1741
 2479SOL    HW217542   8.575   5.600   1.605 -0.8188 -1.9112  0.7978
 2480SOL     OW17543   8.862   2.315   1.513  0.2932 -0.8114  0.0076
 2480SOL    HW117544   8.909   2.255   1.579 -0.1463  0.2749  1.3410
 2480SOL    HW217545   8.907   2.404   1.511 -1.6177  0.2324  1.2746
 2481SOL     OW17546   8.880   3.659   1.590 -0.0012  0.7170 -0.3898
 2481SOL    HW117547   8.805   3.592   1.588  1.0143 -0.4066 -1.6552
 2481SOL    HW217548   8.842   3.751   1.575 -1.1690  0.2059 -0.6362
 2482SOL     OW17549   1.300   3.140   0.446 -0.6350  0.3194  0.7732
 2482SOL    HW117550   1.327   3.235   0.426 -0.3129  0.6384  2.6239
 2482SOL    HW217551   1.205   3.126   0.421 -0.8689  1.3295  1.0792
 2483SOL     OW17552   1.452   9.564   0.985  0.7501  0.0073  0.2294
 2483SOL    HW117553   1.503   9.604   0.908 -0.7412  1.3351 -0.0845
 2483SOL    HW217554   1.356   9.554   0.960  0.7112 -1.8391  1.0711
 2484SOL     OW17555   2.858   9.729   1.522 -0.0235  0.3373  0.2524
 2484SOL    HW117556   2.904   9.746   1.609 -1.7413  1.5359  0.9620
 2484SOL    HW217557   2.858   9.631   1.502 -0.3816 -0.0436  2.0549
 2485SOL     OW17558   1.396   3.632   0.185  0.5294  0.0607  0.9536
 2485SOL    HW117559   1.479   3.602   0.232  1.3220 -0.9225 -0.9974
 2485SOL    HW217560   1.420   3.695   0.111 -0.4335 -0.3619  0.2624
 2486SOL     OW17561   2.611   2.076   2.011 -0.2410 -0.6172  0.0976
 2486SOL    HW117562   2.681   2.087   1.940 -1.3656 -2.1723 -1.3360
 2486SOL    HW217563   2.624   2.144   2.083  0.7418  1.2339 -1.7735
 2487SOL     OW17564   2.158   3.271   2.382  0.1001 -0.0481 -0.2248
 2487SOL    HW117565   2.089   3.214   2.337  0.2362  1.1002 -1.9219
 2487SOL    HW217566   2.206   3.326   2.314  0.7056  1.3144  1.2720
 2488SOL     OW17567   3.811   9.427   1.554  0.2541 -0.5820  0.1414
 2488SOL    HW117568   3.842   9.333   1.538 -0.4293 -0.9129  0.7110
 2488SOL    HW217569   3.883   9.478   1.600  1.4661 -0.1937 -2.1009
 2489SOL     OW17570   3.686   3.007   0.935 -0.1249 -1.0335  0.0745
 2489SOL    HW117571   3.754   2.933   0.940  0.2592 -1.0121 -3.3454
 2489SOL    HW217572   3.594   2.967   0.935  0.0621 -1.4869 -1.0029
 2490SOL     OW17573   2.936   5.573   1.825  0.3384 -0.5770 -0.6208
 2490SOL    HW117574   3.023   5.583   1.873 -0.0316  2.1934 -0.4361
 2490SOL    HW217575   2.952   5.547   1.730  1.4646  1.2565 -0.9541
 2491SOL     OW17576   1.207   5.209   1.522 -0.0904  0.2032 -0.3010
 2491SOL    HW117577   1.137   5.169   1.581 -1.0416  0.0759 -1.4912
 2491SOL    HW217578   1.232   5.300   1.557 -0.4431  0.0177  0.4416
 2492SOL     OW17579   4.767   1.835   1.090 -0.0690 -0.1509 -0.3566
 2492SOL    HW117580   4.676   1.852   1.053 -0.8086  0.5636  1.7430
 2492SOL    HW217581   4.827   1.912   1.069 -0.3702  0.0581 -0.4484
 2493SOL     OW17582   3.190   9.363   0.551  0.6089 -0.7849 -0.0513
 2493SOL    HW117583   3.232   9.390   0.464 -1.0484  2.2817  0.0362
 2493SOL    HW217584   3.092   9.347   0.537  0.0171  1.3251  1.5564
 2494SOL     OW17585   8.967   3.221   1.116 -0.0417 -0.2578 -1.0082
 2494SOL    HW117586   9.028   3.233   1.038  0.9489 -0.3873 -0.2698
 2494SOL    HW217587   8.873   3.208   1.084  0.4057 -0.6530 -2.1758
 2495SOL     OW17588   0.477   9.291   0.037  0.6389  0.3783 -0.5207
 2495SOL    HW117589   0.454   9.228  -0.037 -0.0504 -0.4065  0.3548
 2495SOL    HW217590   0.541   9.248   0.100 -2.0945 -0.5796  1.6989
 2496SOL     OW17591   1.887   4.330   0.912 -0.4023 -0.2115  0.2610
 2496SOL    HW117592   1.933   4.245   0.936  1.1390  0.9153  1.4078
 2496SOL    HW217593   1.930   4.369   0.830  0.7460  0.8616  1.3565
 2497SOL     OW17594   3.075   9.002   0.002  0.1330 -0.2490  0.0018
 2497SOL    HW117595   3.172   8.981   0.001  0.4758  1.3114 -1.1741
 2497SOL    HW217596   3.041   9.012  -0.091 -1.3437 -1.5239  0.3650
 2498SOL     OW17597   9.508   7.381   2.557 -0.4023  0.0564  0.7769
 2498SOL    HW117598   9.572   7.427   2.619  1.5417  0.9582 -1.7714
 2498SOL    HW217599   9.534   7.285   2.548 -0.0230  0.1727  0.5803
 2499SOL     OW17600   9.680   3.456   2.558 -0.1769  0.4971  0.1406
 2499SOL    HW117601   9.723   3.370   2.532 -2.5718 -0.8228  0.4702
 2499SOL    HW217602   9.747   3.530   2.551  1.0604 -0.8680 -3.1719
 2500SOL     OW17603   8.924   4.462   1.306 -0.3851  0.4768  0.0518
 2500SOL    HW117604   8.907   4.556   1.336 -1.1142  0.3018  0.1915
 2500SOL    HW217605   9.013   4.457   1.261 -0.4404  1.2877 -0.1567
 2501SOL     OW17606   9.767   1.295   0.860  0.2169  0.3173  0.4452
 2501SOL    HW117607   9.814   1.217   0.819  1.2714  0.5651  1.1561
 2501SOL    HW217608   9.735   1.357   0.789  0.7908  0.0373 -0.0533
 2502SOL     OW17609   0.103   2.227   1.981  0.0507 -0.0034  0.1134
 2502SOL    HW117610   0.168   2.174   1.926  0.4669  1.3287 -0.7259
 2502SOL    HW217611   0.101   2.321   1.946 -2.2406 -0.0033  0.2054
 2503SOL     OW17612   8.519   4.325   1.486 -0.1224 -0.2594 -0.2547
 2503SOL    HW117613   8.569   4.390   1.429 -0.3591 -0.8885 -1.2029
 2503SOL    HW217614   8.582   4.274   1.544  0.1772  0.0402 -0.3217
 2504SOL     OW17615   9.878   5.973   0.342  0.4098  0.1691  0.3271
 2504SOL    HW117616   9.796   5.917   0.335  0.2392  0.2981  1.2306
 2504SOL    HW217617   9.959   5.915   0.334  0.2333  0.2171 -1.8893
 2505SOL     OW17618   8.741   4.266   2.701  0.2779  0.1980  0.1068
 2505SOL    HW117619   8.813   4.318   2.746  1.9192  0.6948 -2.9600
 2505SOL    HW217620   8.700   4.202   2.767  1.8419  1.6047  2.5306
 2506SOL     OW17621   0.448   9.716   2.626 -0.5695  0.1756  0.1521
 2506SOL    HW117622   0.400   9.730   2.712 -0.3306  1.3642  0.1108
 2506SOL    HW217623   0.531   9.663   2.641  0.1189  1.4351  0.8717
 2507SOL     OW17624   9.105   1.725   1.186  0.4431  0.2157  0.5394
 2507SOL    HW117625   9.138   1.699   1.277 -0.1164 -0.4910  0.5438
 2507SOL    HW217626   9.147   1.812   1.159 -0.2543  1.0034  1.9453
 2508SOL     OW17627   0.856   5.545   1.556 -0.1849 -0.5933  0.3242
 2508SOL    HW117628   0.875   5.465   1.499  0.4387 -0.2039 -0.0283
 2508SOL    HW217629   0.943   5.589   1.580 -0.6384  1.3711 -1.5009
 2509SOL     OW17630   3.786   9.941   0.299  0.5726  0.0732  0.0216
 2509SOL    HW117631   3.813   9.846   0.279  0.2679 -0.0531  0.2022
 2509SOL    HW217632   3.856   9.984   0.356  0.7145 -0.0394 -0.0645
 2510SOL     OW17633   4.087   2.681   2.111  0.6976 -0.3382  0.1459
 2510SOL    HW117634   4.112   2.741   2.034 -0.9973 -0.1249 -0.2592
 2510SOL    HW217635   4.052   2.594   2.076 -0.4926 -0.0765  0.6573
 2511SOL     OW17636   1.251   2.656   1.321  0.0557  0.0836 -0.2455
 2511SOL    HW117637   1.195   2.586   1.365  0.8684  0.0143  0.7050
 2511SOL    HW217638   1.196   2.707   1.256 -1.1897  0.2086  0.8874
 2512SOL     OW17639   9.084   5.077   1.102 -0.4199  0.2963  0.0311
 2512SOL    HW117640   9.132   5.080   1.015 -0.3453 -1.2323  0.0067
 2512SOL    HW217641   9.105   5.159   1.155 -0.0129  0.9541 -1.1419
 2513SOL     OW17642   0.133   1.319   0.503 -0.2780 -0.0353 -0.7118
 2513SOL    HW117643   0.134   1.399   0.564  0.7853 -1.1011  0.6864
 2513SOL    HW217644   0.226   1.286   0.490 -0.8619 -2.0751  0.0776
 2514SOL     OW17645   2.253   5.414   0.348 -0.3677  0.1239 -0.0863
 2514SOL    HW117646   2.253   5.489   0.282 -1.9348 -0.4724 -0.8051
 2514SOL    HW217647   2.270   5.328   0.300 -4.0883 -0.6420 -0.1824
 2515SOL     OW17648   2.107   2.150   1.955 -0.5774 -0.1736  0.5320
 2515SOL    HW117649   2.017   2.152   1.998 -0.2454  0.2382  1.2113
 2515SOL    HW217650   2.125   2.238   1.911 -0.7351 -0.4442 -0.0845
 2516SOL     OW17651   2.255   8.724   1.245  0.1255 -0.1011 -0.5747
 2516SOL    HW117652   2.320   8.749   1.317  0.0986  0.5092 -0.7589
 2516SOL    HW217653   2.294   8.651   1.189  1.6145  1.7389 -2.0433
 2517SOL     OW17654   0.118   8.731   0.624  0.0752  0.1117 -0.5202
 2517SOL    HW117655   0.148   8.636   0.631  3.0106  1.1197  2.0899
 2517SOL    HW217656   0.028   8.740   0.665 -0.9965 -1.8206 -2.3472
 2518SOL     OW17657   2.689   6.280   0.054 -0.2971  0.4282  0.1335
 2518SOL    HW117658   2.770   6.275  -0.004  0.6266  1.1205  1.3428
 2518SOL    HW217659   2.714   6.314   0.144 -1.8256 -0.0129  0.7482
 2519SOL     OW17660   2.123   4.628   1.367 -0.6602 -0.3069 -0.7431
 2519SOL    HW117661   2.211   4.676   1.370 -0.7429 -0.1286 -1.1628
 2519SOL    HW217662   2.139   4.530   1.367 -0.5377 -0.3792  2.7399
 2520SOL     OW17663   0.022   3.141   1.374  0.3558 -0.6527  0.1015
 2520SOL    HW117664   0.096   3.200   1.406 -0.2325  0.6081 -0.7908
 2520SOL    HW217665  -0.066   3.184   1.398 -0.0753 -1.0641 -0.7533
 2521SOL     OW17666   8.415   5.620   0.831 -0.6445 -0.1616  1.2725
 2521SOL    HW117667   8.478   5.577   0.767 -0.5855 -0.4407  1.5170
 2521SOL    HW217668   8.444   5.600   0.924  0.1102  1.4718  1.3965
 2522SOL     OW17669   0.138   5.241   1.854  0.5885  0.2589  0.4217
 2522SOL    HW117670   0.194   5.188   1.917  0.0781 -0.6360  0.1338
 2522SOL    HW217671   0.054   5.270   1.900 -0.5426 -1.7565 -0.2676
 2523SOL     OW17672   3.853   3.050   0.600 -0.3123 -0.1220  0.2790
 2523SOL    HW117673   3.841   3.134   0.652 -1.1122 -0.3176  0.4273
 2523SOL    HW217674   3.796   3.053   0.518  0.8443  0.1273 -0.5172
 2524SOL     OW17675   0.480   2.264   1.472 -0.2848  0.0170  0.3340
 2524SOL    HW117676   0.510   2.173   1.499 -1.7082 -1.0096 -1.4094
 2524SOL    HW217677   0.555   2.329   1.484  1.4739 -1.8088 -0.5438
 2525SOL     OW17678   3.855   2.698   1.094  0.0164 -0.2955 -0.1692
 2525SOL    HW117679   3.896   2.608   1.082  0.1319 -0.3379  0.5217
 2525SOL    HW217680   3.758   2.689   1.114  0.4997 -0.4009  2.3457
 2526SOL     OW17681   1.562   0.079   0.215  0.4335  0.8146  0.1019
 2526SOL    HW117682   1.484   0.104   0.273  0.0469  1.1279 -0.5457
 2526SOL    HW217683   1.647   0.101   0.262  0.1442 -0.0792  1.0648
 2527SOL     OW17684   2.502   3.504   1.972 -0.1193  0.4455  0.9011
 2527SOL    HW117685   2.514   3.438   1.898  0.2807  0.0029  1.3556
 2527SOL    HW217686   2.441   3.578   1.941  1.1559  1.0122 -0.3557
 2528SOL     OW17687   0.549   3.687   0.751  0.3253  0.1845 -0.1007
 2528SOL    HW117688   0.615   3.612   0.757  0.4924  0.1536 -2.0455
 2528SOL    HW217689   0.564   3.739   0.667 -1.9485  0.3463 -0.4462
 2529SOL     OW17690   0.938   6.285   1.158 -0.3319 -0.2068 -0.5293
 2529SOL    HW117691   1.010   6.351   1.137 -0.3852 -0.3161 -1.0674
 2529SOL    HW217692   0.849   6.322   1.129 -0.3538 -0.5340 -0.8892
 2530SOL     OW17693   1.409   0.077   2.564 -0.2734 -0.0285  0.4157
 2530SOL    HW117694   1.488   0.090   2.624 -1.1557  1.6442  1.2662
 2530SOL    HW217695   1.327   0.066   2.620 -1.3433  3.0686 -0.4507
 2531SOL     OW17696   8.253   4.075   0.376 -0.4200 -0.3010  0.2167
 2531SOL    HW117697   8.319   4.133   0.329 -1.5858  0.4832 -0.4585
 2531SOL    HW217698   8.248   3.986   0.329 -1.4790  0.4278 -1.0951
 2532SOL     OW17699   8.499   4.222   0.302 -0.5240 -0.4885  0.1463
 2532SOL    HW117700   8.515   4.320   0.290 -1.3727 -0.3455  0.1528
 2532SOL    HW217701   8.579   4.171   0.271 -1.2460  0.0566 -2.7045
 2533SOL     OW17702   0.061   5.539   0.145 -0.9406 -0.0695  0.2522
 2533SOL    HW117703   0.059   5.461   0.208  1.3760  0.3717  0.9343
 2533SOL    HW217704  -0.016   5.533   0.082 -0.2479 -3.4934 -0.3940
 2534SOL     OW17705   2.996   8.694   2.732  0.1539 -0.3861 -0.5637
 2534SOL    HW117706   2.945   8.623   2.782  1.8273 -1.2845 -0.0950
 2534SOL    HW217707   3.078   8.719   2.784 -1.3879  3.3538  0.2528
 2535SOL     OW17708   1.901   8.205   0.589 -0.0541  0.6702 -0.6369
 2535SOL    HW117709   1.904   8.243   0.681 -0.4508  1.0229 -0.7686
 2535SOL    HW217710   1.829   8.135   0.584 -0.8903  1.5483 -1.0165
 2536SOL     OW17711   1.749   4.717   1.006 -0.1570 -0.3169  0.1311
 2536SOL    HW117712   1.773   4.745   0.913 -0.9853 -1.2815 -0.3806
 2536SOL    HW217713   1.833   4.711   1.061  0.2489  1.0568 -0.3149
 2537SOL     OW17714   3.311   1.762   2.267 -0.0258 -0.1255  0.2272
 2537SOL    HW117715   3.233   1.790   2.322 -0.3615 -0.8609  0.1251
 2537SOL    HW217716   3.310   1.663   2.255  1.6122 -0.2974  1.3032
 2538SOL     OW17717   4.805   2.404   0.595 -0.1976 -0.7683 -0.1165
 2538SOL    HW117718   4.724   2.461   0.611  0.5723  0.4372 -0.4065
 2538SOL    HW217719   4.868   2.452   0.533  1.0077 -1.4175  0.5819
 2539SOL     OW17720   0.645   6.462   1.798  0.1402  0.1820 -0.1497
 2539SOL    HW117721   0.588   6.540   1.775 -1.1702 -1.3774 -2.3859
 2539SOL    HW217722   0.600   6.407   1.869 -0.3839 -0.1829 -0.7647
 2540SOL     OW17723   9.160   6.681   1.070  0.0473 -0.3625 -0.1269
 2540SOL    HW117724   9.081   6.623   1.092  0.2290 -0.5294  0.0884
 2540SOL    HW217725   9.133   6.749   1.002 -1.0673  1.4460  2.0371
 2541SOL     OW17726   4.581   9.303   0.723  0.0688  0.0762  0.1350
 2541SOL    HW117727   4.639   9.226   0.697  0.3284  0.1120  0.6119
 2541SOL    HW217728   4.532   9.282   0.807  0.5782  0.6572  0.5814
 2542SOL     OW17729   3.137   8.348   1.251 -0.6310 -0.3179  0.4589
 2542SOL    HW117730   3.097   8.334   1.161  0.5961 -1.2205  0.0405
 2542SOL    HW217731   3.169   8.261   1.287  0.5702  0.3236  0.9696
 2543SOL     OW17732   3.804   9.473   0.935  0.4166 -0.1578 -0.0151
 2543SOL    HW117733   3.862   9.492   1.014 -0.1518  0.0751  0.3462
 2543SOL    HW217734   3.855   9.417   0.869  0.6183 -1.0434  0.8760
 2544SOL     OW17735   1.778   0.880   2.404  0.2971  0.2050 -0.6065
 2544SOL    HW117736   1.731   0.965   2.381 -0.1816 -0.2276 -1.2455
 2544SOL    HW217737   1.712   0.812   2.433  0.6701  0.0139 -0.1975
 2545SOL     OW17738   3.580   8.937   1.528 -0.1647  0.1484 -0.4842
 2545SOL    HW117739   3.653   8.891   1.579 -2.2035 -1.4304  1.0529
 2545SOL    HW217740   3.547   9.015   1.581 -0.6824 -0.0843 -0.4662
 2546SOL     OW17741   0.945   2.422   0.730 -0.4767 -0.1705 -0.0507
 2546SOL    HW117742   0.867   2.464   0.775 -0.0518  0.6877 -0.0990
 2546SOL    HW217743   0.991   2.490   0.672 -1.1834 -1.3346 -2.0056
 2547SOL     OW17744   0.437   7.341   0.836  0.6650  0.1568 -0.3188
 2547SOL    HW117745   0.457   7.419   0.897 -0.0189  0.7452 -0.8369
 2547SOL    HW217746   0.474   7.360   0.746 -1.2665  0.8154 -1.0174
 2548SOL     OW17747   3.448   3.807   2.570  1.3018  0.1475 -0.0683
 2548SOL    HW117748   3.479   3.716   2.599  1.3140 -0.3485 -1.6345
 2548SOL    HW217749   3.474   3.874   2.640 -0.3338 -1.2996  1.9696
 2549SOL     OW17750   0.790   2.384   1.245 -0.5270 -0.3922 -0.3970
 2549SOL    HW117751   0.826   2.421   1.160 -0.7273  1.1080  0.1525
 2549SOL    HW217752   0.863   2.337   1.295  0.0965  0.5841 -0.3881
 2550SOL     OW17753   1.996   6.050   2.123  0.2369  0.5263 -0.4067
 2550SOL    HW117754   2.035   6.140   2.106 -0.2891  0.4903 -1.8694
 2550SOL    HW217755   1.896   6.056   2.128  0.1511 -0.0793 -1.2505
 2551SOL     OW17756   8.254   6.635   0.554 -0.0122 -0.0597 -0.1128
 2551SOL    HW117757   8.259   6.535   0.544 -0.5774  0.1135 -2.4991
 2551SOL    HW217758   8.175   6.669   0.502  1.2344  1.8088 -0.8164
 2552SOL     OW17759   2.876   2.507   0.164 -0.3110  0.0531 -0.1317
 2552SOL    HW117760   2.939   2.545   0.098 -0.2423 -0.1186 -0.1662
 2552SOL    HW217761   2.796   2.567   0.174  0.5083  0.9767  0.9546
 2553SOL     OW17762   4.330   0.255   1.491  0.0543 -0.9618 -0.1502
 2553SOL    HW117763   4.382   0.233   1.408  1.1518 -0.8392  0.4923
 2553SOL    HW217764   4.382   0.225   1.571 -0.2030  0.4771  0.5683
 2554SOL     OW17765   4.506   2.158   1.722 -0.5819 -0.3324 -0.0796
 2554SOL    HW117766   4.432   2.098   1.690 -0.8050 -0.0423 -0.1153
 2554SOL    HW217767   4.469   2.224   1.787 -0.0752 -1.1055  1.0208
 2555SOL     OW17768   4.094   3.302   0.019  0.5783 -0.0837 -0.7459
 2555SOL    HW117769   4.129   3.209   0.011  2.7186  0.8291 -2.5815
 2555SOL    HW217770   4.128   3.344   0.103  1.9262 -0.0363 -1.3051
 2556SOL     OW17771   0.437   3.088   1.553 -0.4490 -0.8183 -0.1486
 2556SOL    HW117772   0.499   3.012   1.572  2.7883  1.5349 -0.8839
 2556SOL    HW217773   0.430   3.102   1.455  0.2929  0.8461  0.0242
 2557SOL     OW17774   8.801   3.622   2.599 -0.4774  0.0260 -0.1194
 2557SOL    HW117775   8.821   3.657   2.508 -0.4916  0.9951  0.2427
 2557SOL    HW217776   8.704   3.635   2.619 -0.0110  2.0522  0.9678
 2558SOL     OW17777   3.965   3.845   2.765  0.0555 -0.8119  0.0291
 2558SOL    HW117778   4.023   3.860   2.685 -0.6184 -2.4936 -0.7888
 2558SOL    HW217779   3.917   3.930   2.788  1.6465  0.1686 -0.2261
 2559SOL     OW17780   4.196   9.806   2.643  0.3653  0.5100 -0.0415
 2559SOL    HW117781   4.277   9.862   2.660 -1.0819  2.7826 -0.5128
 2559SOL    HW217782   4.114   9.858   2.665 -1.0132 -1.4680 -0.4106
 2560SOL     OW17783   8.654   4.466   1.281  0.0128 -0.0371 -0.2038
 2560SOL    HW117784   8.753   4.451   1.290  0.4614  2.1852 -1.0962
 2560SOL    HW217785   8.636   4.525   1.202 -1.9697  0.2563  0.4398
 2561SOL     OW17786   0.712   4.436   0.826 -0.2797 -0.0071 -0.0381
 2561SOL    HW117787   0.691   4.348   0.784  3.0012  0.9106 -3.9585
 2561SOL    HW217788   0.777   4.423   0.901  0.9029 -0.8842 -1.1972
 2562SOL     OW17789   0.666   0.481   2.180 -0.3755 -0.3195 -0.0562
 2562SOL    HW117790   0.656   0.487   2.280  0.3953  0.9296 -0.0461
 2562SOL    HW217791   0.662   0.385   2.152 -2.3872 -0.5471  0.9823
 2563SOL     OW17792   9.789   1.425   0.218 -0.1373 -0.1174 -0.6557
 2563SOL    HW117793   9.757   1.333   0.195 -0.1593  0.3127 -2.3881
 2563SOL    HW217794   9.889   1.429   0.211  0.0161 -0.4780  1.1648
 2564SOL     OW17795   0.178   2.313   2.780  0.3439  0.0405  0.0071
 2564SOL    HW117796   0.163   2.291   2.684  3.0274  0.5107 -0.5482
 2564SOL    HW217797   0.222   2.235   2.825 -0.2327  0.1055  0.6858
 2565SOL     OW17798   1.778   0.898   1.091  0.3389 -0.1759  0.8670
 2565SOL    HW117799   1.834   0.936   1.164 -0.0926  0.7084  0.7437
 2565SOL    HW217800   1.836   0.848   1.027  0.8626 -0.0542  1.2464
 2566SOL     OW17801   2.458   2.881   1.176  0.4320  0.1745 -0.2723
 2566SOL    HW117802   2.419   2.800   1.220  0.7078  0.3258  0.2495
 2566SOL    HW217803   2.554   2.889   1.200  0.7468 -0.1019 -1.4325
 2567SOL     OW17804   3.395   8.317   2.576 -0.0174  0.4314 -0.4761
 2567SOL    HW117805   3.447   8.267   2.645  0.8648  1.6245 -0.2541
 2567SOL    HW217806   3.322   8.369   2.619  1.2302  2.0681 -0.2725
 2568SOL     OW17807   0.923   7.289   0.342  0.0024 -0.1154 -0.2486
 2568SOL    HW117808   0.852   7.354   0.366 -0.0988  0.1515 -1.2400
 2568SOL    HW217809   1.013   7.327   0.365 -0.2562 -1.3260  2.9934
 2569SOL     OW17810   2.686   9.654   1.808  0.1857  0.1873 -0.1805
 2569SOL    HW117811   2.668   9.629   1.904 -0.4088 -0.8760 -0.5530
 2569SOL    HW217812   2.755   9.592   1.771  1.0971  1.1887 -0.1760
 2570SOL     OW17813   2.757   7.044   0.269 -0.3345  0.2391 -0.7948
 2570SOL    HW117814   2.761   7.061   0.367 -1.1684 -0.9460 -0.5515
 2570SOL    HW217815   2.778   7.129   0.220 -0.2435  0.9161  0.3943
 2571SOL     OW17816   0.254   6.372   1.403  0.0015  0.2909 -0.0096
 2571SOL    HW117817   0.354   6.380   1.403 -0.0376  0.8117  1.0536
 2571SOL    HW217818   0.215   6.439   1.339  0.3451 -0.0464 -0.5693
 2572SOL     OW17819   4.081   3.478   2.093  0.1992  0.2311 -0.4340
 2572SOL    HW117820   4.114   3.384   2.101 -0.1447 -0.0785 -2.3068
 2572SOL    HW217821   4.135   3.526   2.024 -0.6505  0.9285 -0.6245
 2573SOL     OW17822   2.522   1.781   2.336 -0.2345 -0.3185  0.1366
 2573SOL    HW117823   2.560   1.809   2.424 -0.2566  4.7328 -1.3085
 2573SOL    HW217824   2.593   1.787   2.266 -1.3974  0.4931 -1.0063
 2574SOL     OW17825   2.068   1.157   1.952  0.3600 -0.5355 -0.1253
 2574SOL    HW117826   2.006   1.235   1.951  1.3613  0.2730  0.7031
 2574SOL    HW217827   2.131   1.162   1.875  0.6642 -0.3276  0.1350
 2575SOL     OW17828   9.429   3.145   1.740  0.3013  0.1942  0.3597
 2575SOL    HW117829   9.388   3.233   1.764 -1.2848 -0.4394  0.0116
 2575SOL    HW217830   9.431   3.135   1.640  1.1495  0.1379  0.3766
 2576SOL     OW17831   3.354   3.065   2.678 -0.5837 -0.1877 -0.1247
 2576SOL    HW117832   3.309   3.139   2.728 -0.7831  1.0665 -2.0725
 2576SOL    HW217833   3.427   3.103   2.621  0.6536 -1.7746  0.3812
 2577SOL     OW17834   1.499   2.536   0.366  0.0913 -0.4895  0.8134
 2577SOL    HW117835   1.593   2.559   0.392 -0.5778  2.8008  0.5155
 2577SOL    HW217836   1.482   2.439   0.386  1.8904  0.0678  5.9045
 2578SOL     OW17837   3.593   9.414   2.713  0.1806  0.2612  0.1048
 2578SOL    HW117838   3.665   9.344   2.722  0.2914  0.6278  2.4398
 2578SOL    HW217839   3.634   9.505   2.721 -0.3057  0.5296 -0.4267
 2579SOL     OW17840   0.137   5.207   0.063  0.5938 -0.5758 -0.0565
 2579SOL    HW117841   0.195   5.126   0.049 -0.6160 -1.2531 -1.3166
 2579SOL    HW217842   0.090   5.200   0.151  0.7674 -1.0817 -0.0018
 2580SOL     OW17843   0.175   7.240   1.253 -0.1356 -0.5920 -0.3559
 2580SOL    HW117844   0.192   7.150   1.212 -0.6548 -0.9536  0.2177
 2580SOL    HW217845   0.191   7.236   1.351 -0.3446 -0.1075 -0.2980
 2581SOL     OW17846   8.839   4.009   0.902  0.3165  0.0766 -0.0111
 2581SOL    HW117847   8.755   3.955   0.908 -0.7520  1.6950 -0.0233
 2581SOL    HW217848   8.898   3.971   0.831 -1.6770  0.5922 -2.0008
 2582SOL     OW17849   9.349   5.920   0.945  0.7084  0.0030  0.2859
 2582SOL    HW117850   9.263   5.909   0.896  0.8413 -0.1301  0.0824
 2582SOL    HW217851   9.426   5.905   0.883  0.8916  1.4068  0.1676
 2583SOL     OW17852   0.135   6.160   0.945 -0.1240  0.2485  0.3793
 2583SOL    HW117853   0.221   6.200   0.976 -0.1078  0.4248  0.1118
 2583SOL    HW217854   0.079   6.230   0.900 -0.5676  0.2168  0.8770
 2584SOL     OW17855   3.209   0.243   0.289  0.2909  0.5768 -0.0215
 2584SOL    HW117856   3.203   0.144   0.303  1.2181  0.6255  0.7516
 2584SOL    HW217857   3.125   0.276   0.245 -0.2576 -0.4623  0.2380
 2585SOL     OW17858   3.993   2.640   0.320 -0.3591  0.2828 -0.5025
 2585SOL    HW117859   4.033   2.675   0.405  1.4778 -1.2098 -0.7296
 2585SOL    HW217860   3.987   2.540   0.324  1.0427  0.0962 -2.6840
 2586SOL     OW17861   2.325   2.927   0.222 -0.3516  0.7662 -0.4586
 2586SOL    HW117862   2.410   2.884   0.253  0.3633  1.4379 -1.4562
 2586SOL    HW217863   2.320   3.020   0.257 -0.8707  0.5850 -0.0598
 2587SOL     OW17864   0.122   9.770   2.884  0.6480  0.2967  0.8252
 2587SOL    HW117865   0.034   9.816   2.890  0.6864  0.2407  1.8066
 2587SOL    HW217866   0.134   9.733   2.791  0.7812  2.5897 -0.1111
 2588SOL     OW17867   9.391   3.835   0.781  0.2385  0.3949 -0.3174
 2588SOL    HW117868   9.394   3.828   0.880  0.6279 -1.1135 -0.4174
 2588SOL    HW217869   9.371   3.929   0.754  1.1005  1.0184  1.1732
 2589SOL     OW17870   2.841   9.433   2.035 -0.1542 -0.6448 -0.7695
 2589SOL    HW117871   2.837   9.359   2.102  1.0646 -1.8297 -1.9520
 2589SOL    HW217872   2.859   9.519   2.081 -0.6067 -1.2355  0.5423
 2590SOL     OW17873   2.496   5.837   1.026  0.2557 -0.5283 -0.7674
 2590SOL    HW117874   2.594   5.817   1.023  0.2085 -0.9506  0.2235
 2590SOL    HW217875   2.447   5.756   1.060 -0.3693 -0.1004 -0.6489
 2591SOL     OW17876   8.903   3.310   1.963 -0.2635  0.0590 -0.0029
 2591SOL    HW117877   8.865   3.225   2.000  0.8595  0.0969  1.2747
 2591SOL    HW217878   9.002   3.311   1.977 -0.0840  0.9801 -1.2427
 2592SOL     OW17879   9.761   1.545   0.983 -0.1024 -0.3071 -0.5564
 2592SOL    HW117880   9.747   1.463   0.927  1.3380 -1.5986  0.8974
 2592SOL    HW217881   9.793   1.518   1.073 -4.2496  1.6166  1.6323
 2593SOL     OW17882   2.189   9.289   1.776  0.5087 -0.1805  0.0572
 2593SOL    HW117883   2.141   9.292   1.688 -0.3383  2.4505  0.5622
 2593SOL    HW217884   2.129   9.247   1.844  1.1959 -2.3005 -0.5917
 2594SOL     OW17885   4.045   8.193   0.078 -0.2347  0.3952 -0.5931
 2594SOL    HW117886   4.115   8.254   0.116 -1.3681  0.5498  1.2898
 2594SOL    HW217887   4.060   8.101   0.113 -0.1160  0.1169 -1.3563
 2595SOL     OW17888   0.745   6.411   1.020  0.8431  0.0069  0.2846
 2595SOL    HW117889   0.663   6.453   1.057  1.2833  0.4734  0.7419
 2595SOL    HW217890   0.758   6.439   0.925  0.5514  0.0471  0.2579
 2596SOL     OW17891   9.133   6.592   1.654  0.2258 -0.7989 -0.0325
 2596SOL    HW117892   9.134   6.669   1.591  0.3817  0.3433  1.3583
 2596SOL    HW217893   9.210   6.531   1.633  0.2925 -0.4058 -0.9314
 2597SOL     OW17894   2.027   9.617   1.767 -0.2906 -0.2924  0.0893
 2597SOL    HW117895   2.119   9.639   1.799 -0.9504  0.2562  1.6632
 2597SOL    HW217896   1.992   9.692   1.711  0.7887 -1.1675 -1.8213
 2598SOL     OW17897   9.863   0.243   1.426  0.6476  0.1165 -0.2505
 2598SOL    HW117898   9.890   0.338   1.419 -0.8178  0.5388 -0.3258
 2598SOL    HW217899   9.862   0.201   1.335  1.0701  0.0928 -0.2437
 2599SOL     OW17900   9.594   4.712   2.785 -0.6167 -0.4082 -0.2539
 2599SOL    HW117901   9.600   4.617   2.753  0.1413 -0.4580  0.0202
 2599SOL    HW217902   9.665   4.728   2.853 -1.6529 -0.0592  0.7709
 2600SOL     OW17903   4.023   4.807   0.688  0.5349 -0.5541  0.1645
 2600SOL    HW117904   4.060   4.851   0.606  0.3567 -1.3299 -0.3428
 2600SOL    HW217905   4.083   4.732   0.716 -0.2555 -1.3655 -0.2496
 2601SOL     OW17906   2.108   5.575   2.885  0.3226 -0.1922  0.1361
 2601SOL    HW117907   2.208   5.587   2.887  0.2533  0.3941  0.0966
 2601SOL    HW217908   2.085   5.482   2.915  0.9279 -0.5948 -0.6045
 2602SOL     OW17909   2.235   0.972   0.079 -0.3395 -0.7349  0.1567
 2602SOL    HW117910   2.214   0.875   0.087 -2.2561 -0.3839 -0.5121
 2602SOL    HW217911   2.307   0.984   0.010  0.3634 -1.7232  0.7012
 2603SOL     OW17912   1.673   8.211   1.780 -0.1176  0.1922  0.0422
 2603SOL    HW117913   1.578   8.221   1.750 -0.3388 -1.2089  0.2730
 2603SOL    HW217914   1.729   8.182   1.703 -0.0495  0.0767  0.1365
 2604SOL     OW17915   1.260   7.426   1.478 -0.0961 -0.0986 -0.1845
 2604SOL    HW117916   1.312   7.464   1.402  1.3803 -2.9911 -0.7135
 2604SOL    HW217917   1.311   7.437   1.563 -1.0248  1.7154  0.1541
 2605SOL     OW17918   9.131   5.939   2.877  0.3838  0.1603 -0.3097
 2605SOL    HW117919   9.127   5.841   2.857  0.8235  0.4726 -2.0022
 2605SOL    HW217920   9.222   5.974   2.854 -0.2798  1.2779 -1.3082
 2606SOL     OW17921   8.718   5.009   0.429 -0.0896  0.5398  0.0179
 2606SOL    HW117922   8.693   4.952   0.351  2.4752  2.5089 -2.3332
 2606SOL    HW217923   8.805   4.977   0.466 -0.0092  1.2305  0.4285
 2607SOL     OW17924   0.919   6.529   1.816 -0.0467 -0.9385  0.3118
 2607SOL    HW117925   0.978   6.458   1.778 -2.0998 -2.5731  0.0421
 2607SOL    HW217926   0.824   6.511   1.789 -0.7968  1.0907  1.4801
 2608SOL     OW17927   0.645   3.095   2.839  0.0496  0.0683 -0.0752
 2608SOL    HW117928   0.611   3.130   2.752 -1.8960 -0.3058  0.5123
 2608SOL    HW217929   0.721   3.151   2.870 -1.7422  2.6256 -0.1240
 2609SOL     OW17930   9.972   0.928   0.030 -0.1724  0.3483  0.3751
 2609SOL    HW117931   9.910   0.969   0.097  1.3104  2.1433  0.6717
 2609SOL    HW217932  10.023   0.854   0.074 -0.6327  0.2125  0.6907
 2610SOL     OW17933   9.110   2.705   1.254  0.0780  0.0046  0.1365
 2610SOL    HW117934   9.085   2.800   1.235 -2.9126 -0.9478 -1.0539
 2610SOL    HW217935   9.148   2.663   1.171 -1.3901 -0.6464 -0.2271
 2611SOL     OW17936   0.963   3.786   0.086  0.1865  0.4169 -0.2375
 2611SOL    HW117937   1.050   3.833   0.102  0.2911  0.3134 -0.4969
 2611SOL    HW217938   0.888   3.849   0.103  0.2622 -0.0175  1.7635
 2612SOL     OW17939   3.745   1.719   2.425  0.3401  0.5214 -0.1569
 2612SOL    HW117940   3.828   1.774   2.430  0.3722  0.5520 -0.9404
 2612SOL    HW217941   3.682   1.760   2.359  0.5336 -0.6127 -1.0559
 2613SOL     OW17942   0.912   6.860   1.641 -0.7359  0.1739 -0.5615
 2613SOL    HW117943   0.895   6.801   1.562 -0.9308  0.5156 -0.7794
 2613SOL    HW217944   0.999   6.836   1.683  0.5659  1.5953 -2.3626
 2614SOL     OW17945   4.020   1.967   1.259  0.3674  0.2667  0.8245
 2614SOL    HW117946   4.006   1.941   1.163  1.4464 -0.7025  0.9220
 2614SOL    HW217947   4.103   2.023   1.266 -1.1054  2.5386  0.8373
 2615SOL     OW17948   2.352   1.791   0.109 -0.5319  0.1772 -0.2125
 2615SOL    HW117949   2.326   1.871   0.164  3.1209  0.3848  1.3616
 2615SOL    HW217950   2.323   1.707   0.156 -0.6157  0.4449  0.2131
 2616SOL     OW17951   2.500   3.306   0.854 -0.0310 -0.0698  0.5937
 2616SOL    HW117952   2.555   3.295   0.772  2.2065 -3.0090  2.3745
 2616SOL    HW217953   2.420   3.247   0.850  0.5173 -0.8354  0.8681
 2617SOL     OW17954   3.374   9.314   1.066  0.8650 -0.0591  0.2475
 2617SOL    HW117955   3.274   9.309   1.065  0.8637  0.0457 -0.5597
 2617SOL    HW217956   3.405   9.375   0.993  1.4653  0.9455  1.3291
 2618SOL     OW17957   8.342   3.622   1.820 -0.5012  0.2064  0.4103
 2618SOL    HW117958   8.422   3.670   1.783 -0.8308 -0.7419 -1.5845
 2618SOL    HW217959   8.265   3.685   1.827 -0.0892  0.6870  0.6192
 2619SOL     OW17960   2.815   1.492   1.553 -0.0058 -0.3389 -0.3813
 2619SOL    HW117961   2.812   1.550   1.635 -1.3660  1.1234 -1.4333
 2619SOL    HW217962   2.909   1.461   1.538  1.2157  3.4039 -0.9950
 2620SOL     OW17963   0.730   3.563   1.035 -0.2304  0.3754  0.2001
 2620SOL    HW117964   0.690   3.486   0.985 -0.2552  1.3260 -1.2641
 2620SOL    HW217965   0.665   3.638   1.041  0.5473  1.0949 -0.2517
 2621SOL     OW17966   0.875   5.048   2.367  0.1472 -0.0273  0.4156
 2621SOL    HW117967   0.897   5.102   2.448  0.5552  0.6798 -0.1638
 2621SOL    HW217968   0.941   5.068   2.294  0.8288 -1.9263  0.4674
 2622SOL     OW17969   1.293   3.396   2.733 -0.7726 -0.0653 -0.0908
 2622SOL    HW117970   1.368   3.431   2.678 -2.0236  0.0338 -1.7515
 2622SOL    HW217971   1.288   3.296   2.725 -1.9897  0.0959 -1.5159
 2623SOL     OW17972   9.900   5.737   1.181 -0.0062  0.1476  0.7230
 2623SOL    HW117973   9.869   5.659   1.127 -3.3082  1.1182  1.1228
 2623SOL    HW217974   9.983   5.775   1.140  0.6098 -2.4180 -0.5158
 2624SOL     OW17975   2.601   1.307   1.455  0.4919  0.3668  0.2002
 2624SOL    HW117976   2.663   1.371   1.499  0.8984 -0.0029  0.1742
 2624SOL    HW217977   2.617   1.215   1.492 -0.9835  0.4819  1.2026
 2625SOL     OW17978   1.714   5.397   2.903  0.3426 -0.6608 -0.1677
 2625SOL    HW117979   1.705   5.460   2.826 -1.0139 -1.9162 -1.0549
 2625SOL    HW217980   1.792   5.336   2.888 -1.7939 -3.0252 -2.1420
 2626SOL     OW17981   2.334   9.551   1.116 -0.1217  0.0504  0.1268
 2626SOL    HW117982   2.379   9.545   1.205 -1.8687  0.9104  1.0858
 2626SOL    HW217983   2.284   9.467   1.098  0.1548 -0.0863 -0.0113
 2627SOL     OW17984   2.134   2.919   2.555 -0.9636  0.1933  0.1623
 2627SOL    HW117985   2.125   3.019   2.563 -0.9810  0.3851 -2.0582
 2627SOL    HW217986   2.231   2.894   2.563 -0.9254  0.4017  0.3915
 2628SOL     OW17987   9.659   2.382   0.664 -0.1372  0.3112 -0.2541
 2628SOL    HW117988   9.697   2.433   0.741 -0.1445 -0.2855  0.1556
 2628SOL    HW217989   9.713   2.399   0.582  0.1522  0.5939 -0.0060
 2629SOL     OW17990   1.754   4.899   2.161  0.5095 -0.2708  0.1270
 2629SOL    HW117991   1.852   4.888   2.150  0.4080  1.2915 -2.8545
 2629SOL    HW217992   1.728   4.994   2.145 -1.5075 -0.7121  0.5768
 2630SOL     OW17993   9.697   3.341   0.874 -0.2954 -0.1141 -0.1323
 2630SOL    HW117994   9.785   3.294   0.865 -0.7657 -0.9122 -0.5654
 2630SOL    HW217995   9.711   3.440   0.865  0.6637 -0.1776  0.5603
 2631SOL     OW17996   2.001   3.642   0.032  0.4845  0.6844  0.5441
 2631SOL    HW117997   2.065   3.642   0.109  1.4149  3.0112 -0.1739
 2631SOL    HW217998   1.910   3.614   0.064  1.6890 -2.1527  1.6857
 2632SOL     OW17999   1.193   5.043   1.870 -0.7040 -0.1342  1.2008
 2632SOL    HW118000   1.161   4.999   1.954 -2.8724  0.5791  0.7804
 2632SOL    HW218001   1.119   5.098   1.831  0.5229  0.1759 -0.7527
 2633SOL     OW18002   4.007   2.461   1.949  0.0117  0.5446  1.0167
 2633SOL    HW118003   3.908   2.471   1.945 -0.2295 -2.0726  0.0448
 2633SOL    HW218004   4.031   2.389   2.014  1.2148  0.2267  0.2402
 2634SOL     OW18005   3.918   2.685   1.358  0.5512 -0.0530 -0.2540
 2634SOL    HW118006   3.913   2.711   1.261  1.9354 -0.9699 -0.5961
 2634SOL    HW218007   3.849   2.615   1.377 -0.6830  1.1394 -0.2132
 2635SOL     OW18008   1.375   1.634   2.612 -0.1515  0.5911 -0.2902
 2635SOL    HW118009   1.352   1.731   2.616  2.0065  1.1476 -1.0990
 2635SOL    HW218010   1.454   1.616   2.671 -0.8589 -0.7778  0.2643
 2636SOL     OW18011   0.157   5.928   1.885  0.7326 -0.4103 -0.0338
 2636SOL    HW118012   0.180   5.911   1.981  3.3035  1.2901 -0.3003
 2636SOL    HW218013   0.239   5.953   1.835 -0.8288  0.2190 -2.3671
 2637SOL     OW18014   8.827   4.468   0.558  0.6575 -0.2427 -0.0294
 2637SOL    HW118015   8.830   4.383   0.505  2.9198 -1.0238  1.2508
 2637SOL    HW218016   8.898   4.530   0.525 -2.1433  1.9204 -2.1260
 2638SOL     OW18017   9.468   5.339   0.186  0.4732 -0.1196 -0.4841
 2638SOL    HW118018   9.376   5.337   0.147 -0.2135 -0.2567  1.1094
 2638SOL    HW218019   9.468   5.393   0.271  1.7976 -0.3428 -0.3230
 2639SOL     OW18020   1.775   0.723   1.353 -0.2021 -0.6875 -0.7190
 2639SOL    HW118021   1.857   0.722   1.296  0.6409 -1.1229  0.4800
 2639SOL    HW218022   1.698   0.685   1.302 -0.1738  1.6712 -2.6101
 2640SOL     OW18023   2.616   6.377   0.752 -0.0279  0.5409  0.2968
 2640SOL    HW118024   2.662   6.462   0.725  0.4841  0.1205 -0.1749
 2640SOL    HW218025   2.520   6.382   0.727  0.0755  0.8423 -0.0483
 2641SOL     OW18026   8.195   7.361   2.653  0.6592 -0.7092  0.9150
 2641SOL    HW118027   8.247   7.290   2.605  0.4722 -1.4458  1.7869
 2641SOL    HW218028   8.141   7.413   2.586  1.3375 -0.9270  0.1873
 2642SOL     OW18029   0.018   1.620   0.898  0.1875 -0.0091  0.4860
 2642SOL    HW118030   0.056   1.697   0.949 -0.4287  0.8365 -0.3231
 2642SOL    HW218031  -0.079   1.612   0.918  0.4789 -1.3338  1.4936
 2643SOL     OW18032   3.193   4.040   1.909 -0.4021  0.1877  0.4259
 2643SOL    HW118033   3.178   4.106   1.983  0.8317  0.8428  0.1071
 2643SOL    HW218034   3.147   3.954   1.931 -0.7029  0.6336  1.5833
 2644SOL     OW18035   3.454   0.259   0.685  0.0070  0.2270  0.1438
 2644SOL    HW118036   3.538   0.312   0.676 -1.0246  1.8064 -0.4531
 2644SOL    HW218037   3.473   0.163   0.667  1.5802  0.6560 -0.5469
 2645SOL     OW18038   4.217   3.231   1.686 -0.1398 -0.0820  0.2272
 2645SOL    HW118039   4.268   3.174   1.750 -1.1132 -1.3976 -0.1417
 2645SOL    HW218040   4.218   3.190   1.595 -0.9017  0.4527 -0.0367
 2646SOL     OW18041   2.068   2.318   0.420  0.0994  0.4288  0.2204
 2646SOL    HW118042   2.060   2.373   0.503 -2.4409  1.7603 -0.8192
 2646SOL    HW218043   2.080   2.378   0.341  1.2006 -0.7421 -0.5280
 2647SOL     OW18044   8.607   2.689   1.673  0.2384 -0.4445 -0.7239
 2647SOL    HW118045   8.581   2.647   1.761  0.7843  2.3681  0.8529
 2647SOL    HW218046   8.549   2.653   1.601 -0.0940 -2.9901  0.7509
 2648SOL     OW18047   7.964   6.263   1.698 -0.6973  0.2620 -0.0908
 2648SOL    HW118048   7.949   6.178   1.647  1.1741 -1.6528  2.4015
 2648SOL    HW218049   7.898   6.268   1.773 -0.4547  0.7665  0.0845
 2649SOL     OW18050   1.297   4.682   0.907  0.1419 -0.3003  0.3962
 2649SOL    HW118051   1.214   4.673   0.962 -0.7838 -2.3443 -1.2622
 2649SOL    HW218052   1.277   4.737   0.826  1.6187  3.1205  2.2348
 2650SOL     OW18053   2.941   7.881   2.722 -0.0931  0.1125  0.3640
 2650SOL    HW118054   2.914   7.949   2.791 -1.3897 -0.7994  0.7783
 2650SOL    HW218055   2.882   7.891   2.641  2.2118  2.0016 -1.1847
 2651SOL     OW18056   0.333   8.772   0.463 -0.4452  0.8208  0.0986
 2651SOL    HW118057   0.348   8.865   0.427 -0.8292  0.9028  0.1454
 2651SOL    HW218058   0.258   8.774   0.529 -0.0683  0.5790  0.5348
 2652SOL     OW18059   2.083   3.797   1.048  0.1825  0.3666  0.2335
 2652SOL    HW118060   2.039   3.816   0.961 -2.4807 -1.5980  1.0636
 2652SOL    HW218061   2.116   3.703   1.049  0.5173  0.4850  1.2112
 2653SOL     OW18062   2.790   7.901   1.792 -0.4316 -0.7873  0.1142
 2653SOL    HW118063   2.692   7.898   1.769 -0.5573 -0.3775  0.5946
 2653SOL    HW218064   2.844   7.899   1.707 -0.9078  1.0862 -0.2508
 2654SOL     OW18065   9.883   1.880   0.795  0.4115 -0.1894 -0.2887
 2654SOL    HW118066   9.849   1.972   0.779  1.3035 -0.1604 -2.0607
 2654SOL    HW218067   9.978   1.884   0.824  0.7815 -0.6061 -1.4325
 2655SOL     OW18068   3.220   4.059   0.453  0.0856  0.0331 -0.1936
 2655SOL    HW118069   3.258   4.048   0.361 -0.9085  1.0943 -0.7392
 2655SOL    HW218070   3.294   4.077   0.517  0.8911 -1.6327 -0.6198
 2656SOL     OW18071   3.069   5.335   0.657 -0.3687  0.0316 -0.0779
 2656SOL    HW118072   3.076   5.339   0.557  1.2996  0.4447  0.0324
 2656SOL    HW218073   3.104   5.420   0.696  0.0317 -0.5679  0.8941
 2657SOL     OW18074   0.877   2.232   2.896 -0.1755  0.0160 -0.0013
 2657SOL    HW118075   0.805   2.196   2.837 -0.5585  1.0090 -0.1427
 2657SOL    HW218076   0.961   2.242   2.844 -0.5243  0.9326 -0.3899
 2658SOL     OW18077   3.215   0.703   2.642  0.0173 -0.0687 -0.3759
 2658SOL    HW118078   3.222   0.716   2.741 -0.4148  1.3030 -0.5053
 2658SOL    HW218079   3.265   0.777   2.596  0.9179 -1.1700 -1.1793
 2659SOL     OW18080   2.143   1.692   1.230 -0.1279  0.1631 -0.2932
 2659SOL    HW118081   2.172   1.783   1.259 -2.3470  0.7732  0.0973
 2659SOL    HW218082   2.129   1.692   1.130  3.2129 -0.7262 -0.8079
 2660SOL     OW18083   3.661   4.651   1.544  0.5243  0.0989  0.2180
 2660SOL    HW118084   3.581   4.592   1.549  0.0954  0.7751  1.7693
 2660SOL    HW218085   3.645   4.723   1.476  0.4557 -0.6901 -0.6068
 2661SOL     OW18086   2.037   3.614   2.137  0.1689  0.1978 -0.3560
 2661SOL    HW118087   2.038   3.664   2.050 -2.1417  3.1416  1.2386
 2661SOL    HW218088   2.120   3.634   2.188 -0.7802  2.5690  0.3129
 2662SOL     OW18089   0.404   9.270   1.824  0.0572 -0.6159  0.0917
 2662SOL    HW118090   0.398   9.221   1.911  1.7792  0.6379  0.9272
 2662SOL    HW218091   0.479   9.233   1.770 -1.6004 -2.0312 -1.3027
 2663SOL     OW18092   3.545   8.719   2.092  0.2227  0.1024  0.4928
 2663SOL    HW118093   3.596   8.633   2.100 -1.0951 -0.8022 -0.4002
 2663SOL    HW218094   3.551   8.770   2.178  1.7737 -0.4564  0.7259
 2664SOL     OW18095   0.322   4.540   1.994  0.0740 -0.4862  0.1312
 2664SOL    HW118096   0.370   4.627   1.997 -0.0064 -0.4804  1.4174
 2664SOL    HW218097   0.350   4.483   2.071 -0.2529 -1.4050 -0.4068
 2665SOL     OW18098   2.722   2.915   0.837 -0.4751  0.4946  0.0570
 2665SOL    HW118099   2.740   2.925   0.739 -0.8210  1.3809  0.0772
 2665SOL    HW218100   2.627   2.886   0.851 -1.2814  3.0673  0.2134
 2666SOL     OW18101   2.323   3.304   0.563  0.0728  0.2648 -0.7727
 2666SOL    HW118102   2.273   3.381   0.602  1.3468  0.6262  0.2013
 2666SOL    HW218103   2.416   3.333   0.539  0.7520 -1.0822  0.1213
 2667SOL     OW18104   4.153   0.450   0.907 -0.5658  0.0211 -0.2760
 2667SOL    HW118105   4.162   0.397   0.992  1.9188 -0.6599 -0.9391
 2667SOL    HW218106   4.100   0.533   0.926 -1.9616 -1.2124  1.4290
 2668SOL     OW18107   8.608   4.529   2.574 -0.7208 -0.1658 -0.1769
 2668SOL    HW118108   8.549   4.575   2.640  0.0399 -1.1189  1.1888
 2668SOL    HW218109   8.685   4.486   2.622  2.5006  3.1374 -2.1205
 2669SOL     OW18110   2.816   7.634   2.537 -0.1625  1.3101  0.4003
 2669SOL    HW118111   2.808   7.733   2.541  2.7478  1.6170 -0.5537
 2669SOL    HW218112   2.829   7.605   2.442  1.4569  0.2461  0.9268
 2670SOL     OW18113   2.429   1.027   2.459  0.2382  0.3527 -0.4369
 2670SOL    HW118114   2.474   0.962   2.398  1.0690 -0.1803  0.7262
 2670SOL    HW218115   2.331   1.027   2.440  0.0157 -2.2810  0.4584
 2671SOL     OW18116   9.328   7.181   1.709  0.2099  0.2030  0.6695
 2671SOL    HW118117   9.287   7.114   1.770  0.1492 -1.7956 -1.5012
 2671SOL    HW218118   9.258   7.220   1.649  1.1111 -1.9893 -1.8990
 2672SOL     OW18119   2.000   6.434   2.254  0.1679 -0.4274  0.3030
 2672SOL    HW118120   1.903   6.427   2.229  0.5022 -1.5860 -0.7254
 2672SOL    HW218121   2.008   6.434   2.354 -0.9827  1.1316  0.4127
 2673SOL     OW18122   2.327   1.754   2.525 -0.1912  0.4957  0.3317
 2673SOL    HW118123   2.347   1.788   2.433  0.8512 -1.9283 -0.3618
 2673SOL    HW218124   2.385   1.801   2.591  0.9728  0.3493 -0.5671
 2674SOL     OW18125   1.944   8.245   0.075  0.4345  0.3155  0.1015
 2674SOL    HW118126   1.864   8.227   0.133  0.4459 -1.1536 -0.3224
 2674SOL    HW218127   2.021   8.270   0.133  0.4471 -1.1446  0.7573
 2675SOL     OW18128   3.510   3.761   1.030  0.3707 -0.5250  0.2497
 2675SOL    HW118129   3.433   3.702   1.058 -0.2195 -0.3654 -1.0257
 2675SOL    HW218130   3.528   3.748   0.933  1.1863  0.3439  0.2849
 2676SOL     OW18131   0.209   5.650   2.445  0.1479 -0.0956  0.3489
 2676SOL    HW118132   0.168   5.740   2.431  0.2480 -0.3521 -1.7440
 2676SOL    HW218133   0.162   5.604   2.521 -0.8165  1.1709  0.5401
 2677SOL     OW18134   3.215   0.573   1.509 -0.1831  0.8648 -0.3521
 2677SOL    HW118135   3.152   0.554   1.433  1.5595 -0.6866 -1.4529
 2677SOL    HW218136   3.295   0.622   1.475  2.0281 -2.4367 -0.1602
 2678SOL     OW18137   2.673   6.095   0.350 -0.6495 -0.8451  0.1662
 2678SOL    HW118138   2.577   6.105   0.323 -0.8462  1.6230  1.6682
 2678SOL    HW218139   2.681   6.104   0.450  1.1038 -1.4107  0.0998
 2679SOL     OW18140   0.098   0.389   1.046 -0.5190  0.4492  0.0879
 2679SOL    HW118141   0.097   0.475   0.995 -1.8612  1.3750  1.6268
 2679SOL    HW218142   0.032   0.326   1.005 -0.5581  0.6705 -0.1926
 2680SOL     OW18143   1.396   8.222   1.746 -0.1129  0.5771 -0.6108
 2680SOL    HW118144   1.358   8.226   1.838 -0.3165  1.6930 -0.7373
 2680SOL    HW218145   1.400   8.127   1.716 -3.4172  0.4298 -0.8138
 2681SOL     OW18146   3.210   3.317   2.097  0.8059  0.0013 -0.7969
 2681SOL    HW118147   3.203   3.276   2.006  0.3905  0.9363 -1.1850
 2681SOL    HW218148   3.190   3.415   2.092  0.1025 -0.0674  0.4118
 2682SOL     OW18149   0.257   5.958   0.814  0.3646  0.0130 -0.0000
 2682SOL    HW118150   0.288   5.976   0.721  2.3470  1.0811  0.8263
 2682SOL    HW218151   0.219   6.042   0.854  1.8000  0.2282  0.9683
 2683SOL     OW18152   9.452   5.666   1.211  0.1460 -0.1277  0.3832
 2683SOL    HW118153   9.517   5.597   1.179 -0.3882 -1.0812  1.3180
 2683SOL    HW218154   9.485   5.757   1.187  0.4922 -0.7323 -1.5380
 2684SOL     OW18155   8.900   6.878   1.667 -0.2667  0.0667 -0.1779
 2684SOL    HW118156   8.831   6.897   1.598 -0.4603  0.5674  0.1502
 2684SOL    HW218157   8.856   6.847   1.751 -0.0383 -0.4726 -0.2538
 2685SOL     OW18158   0.704   4.676   1.262  0.3755  0.2957  0.7053
 2685SOL    HW118159   0.769   4.673   1.186 -0.3295 -2.4032  0.1523
 2685SOL    HW218160   0.754   4.671   1.348  0.9687 -0.4595  0.3254
 2686SOL     OW18161   2.143   5.762   2.038 -0.0415  0.5522 -0.3456
 2686SOL    HW118162   2.164   5.679   2.089  2.4127  1.0124 -0.5182
 2686SOL    HW218163   2.112   5.833   2.100  0.4632  0.3168  0.1811
 2687SOL     OW18164   2.153   6.870   0.342 -0.4354 -0.5792  0.0150
 2687SOL    HW118165   2.194   6.956   0.372  3.8259 -2.3907 -0.3390
 2687SOL    HW218166   2.053   6.881   0.337  0.0661  4.6684 -1.2940
 2688SOL     OW18167   0.445   3.726   1.613  0.0310 -0.0925 -0.1089
 2688SOL    HW118168   0.523   3.664   1.607  1.0732  1.0970  0.9473
 2688SOL    HW218169   0.477   3.819   1.632 -1.5689  0.6192 -0.7784
 2689SOL     OW18170   0.807   7.032   0.703 -0.1444  0.2462 -0.3169
 2689SOL    HW118171   0.877   6.973   0.664 -0.7778  0.5714 -1.9820
 2689SOL    HW218172   0.833   7.128   0.691 -1.2509  0.3927 -1.7225
 2690SOL     OW18173   0.143   4.682   1.769 -0.0674  0.4660 -0.2579
 2690SOL    HW118174   0.225   4.732   1.799  0.6925 -1.7011  1.4273
 2690SOL    HW218175   0.072   4.690   1.838  0.4599 -1.6561  0.5787
 2691SOL     OW18176   3.608   4.265   0.885  0.2250  0.7984 -0.1859
 2691SOL    HW118177   3.590   4.168   0.867  2.1527  0.3452  0.1816
 2691SOL    HW218178   3.528   4.319   0.859 -0.9980 -0.9118 -0.1078
 2692SOL     OW18179   2.670   0.280   2.928 -0.1277  0.3085  0.1331
 2692SOL    HW118180   2.575   0.252   2.946 -0.1832  0.5706  0.2492
 2692SOL    HW218181   2.682   0.376   2.955  0.8073 -0.4017  2.3138
 2693SOL     OW18182   8.629   4.714   1.134 -0.4000  0.5697  0.3451
 2693SOL    HW118183   8.570   4.675   1.063  1.5109 -1.0344 -0.3822
 2693SOL    HW218184   8.693   4.778   1.092  2.0313 -1.8288  0.2734
 2694SOL     OW18185   3.257   8.600   2.782 -0.0496 -0.5589 -0.1234
 2694SOL    HW118186   3.240   8.579   2.686  0.0904  0.4831 -0.3788
 2694SOL    HW218187   3.325   8.537   2.819  2.3629  1.0858 -1.5938
 2695SOL     OW18188   9.059   5.432   2.496 -0.1018  0.1859 -0.1588
 2695SOL    HW118189   8.969   5.389   2.490  1.4116 -3.1968  0.4080
 2695SOL    HW218190   9.070   5.477   2.585 -0.0916 -2.1244  1.0323
 2696SOL     OW18191   1.387   3.274   1.740  0.2878 -0.0155 -0.0160
 2696SOL    HW118192   1.378   3.221   1.655  1.1462  0.5570 -0.4683
 2696SOL    HW218193   1.298   3.309   1.766 -0.1832 -1.1300 -0.0706
 2697SOL     OW18194   9.580   8.157   1.377 -0.5983  1.0329 -0.1518
 2697SOL    HW118195   9.501   8.095   1.376  2.3733 -3.0298  0.9639
 2697SOL    HW218196   9.642   8.134   1.302  2.7808 -0.6195  2.9533
 2698SOL     OW18197   1.634   0.576   0.858  0.5795 -0.1620  0.4586
 2698SOL    HW118198   1.660   0.522   0.938 -0.9424  0.7280  1.5901
 2698SOL    HW218199   1.579   0.655   0.887  0.4224  0.4575 -1.4202
 2699SOL     OW18200   9.745   1.132   0.227 -0.4984  0.0318  0.5431
 2699SOL    HW118201   9.829   1.147   0.280  1.1485 -0.5089 -1.8124
 2699SOL    HW218202   9.730   1.034   0.217 -0.7619  0.1350 -0.0457
 2700SOL     OW18203   1.577   7.271   1.170  0.0760 -0.1740  0.0311
 2700SOL    HW118204   1.672   7.296   1.187 -0.4646  2.2542 -0.4294
 2700SOL    HW218205   1.529   7.264   1.258 -0.0110  1.4662  0.1345
 2701SOL     OW18206   2.825   9.488   2.433 -0.1477 -0.5873 -0.2857
 2701SOL    HW118207   2.728   9.508   2.419  0.1118 -0.6417 -2.2579
 2701SOL    HW218208   2.836   9.426   2.511 -1.5932  0.3726  0.6988
 2702SOL     OW18209   9.711   7.380   0.713 -0.9028  0.2215 -0.1492
 2702SOL    HW118210   9.633   7.319   0.697 -0.4944 -0.5227  0.7103
 2702SOL    HW218211   9.686   7.448   0.782  0.2120 -1.9009  2.3893
 2703SOL     OW18212   8.795   4.581   2.787  1.0859  0.3658 -0.2832
 2703SOL    HW118213   8.860   4.510   2.759 -0.1144 -0.5899 -0.6428
 2703SOL    HW218214   8.823   4.669   2.748  1.9242 -0.1156 -0.7846
 2704SOL     OW18215   0.627   2.737   0.029  0.1408 -0.0281 -0.1156
 2704SOL    HW118216   0.706   2.787   0.063 -0.7501 -0.5555  2.8784
 2704SOL    HW218217   0.644   2.639   0.031 -0.7651 -0.1745  1.0758
 2705SOL     OW18218   0.206   9.278   0.579 -0.1664  0.0646  0.5714
 2705SOL    HW118219   0.256   9.340   0.519 -0.5173 -0.2073 -0.0115
 2705SOL    HW218220   0.270   9.227   0.637  0.1667  0.4108  0.5032
 2706SOL     OW18221   3.083   0.335   1.180  0.0600 -0.3165 -0.6932
 2706SOL    HW118222   3.164   0.334   1.239  0.2387 -0.6036 -0.9440
 2706SOL    HW218223   3.105   0.377   1.092  0.1370 -1.0702 -1.0410
 2707SOL     OW18224   0.889   4.582   1.479  0.1973  0.4708 -0.0569
 2707SOL    HW118225   0.829   4.619   1.550 -1.0404  0.4514 -1.0775
 2707SOL    HW218226   0.957   4.522   1.520 -0.5533  0.4115  1.1023
 2708SOL     OW18227   0.268   3.614   0.840  0.6739  0.0375  0.0212
 2708SOL    HW118228   0.221   3.570   0.763  1.2424  2.0368 -1.5006
 2708SOL    HW218229   0.366   3.623   0.818  0.8800  0.4048  1.0802
 2709SOL     OW18230   9.393   1.453   0.574 -0.4481  0.0964 -0.1339
 2709SOL    HW118231   9.332   1.381   0.542 -0.0870 -0.7990  1.1359
 2709SOL    HW218232   9.341   1.538   0.585 -1.3947 -0.5608  0.5740
 2710SOL     OW18233   0.872   0.014   1.925 -0.0820  0.0706  0.9357
 2710SOL    HW118234   0.887   0.109   1.955  4.5654 -0.6081  1.1559
 2710SOL    HW218235   0.893   0.007   1.827 -1.0230 -0.6431  0.7790
 2711SOL     OW18236   9.563   0.848   0.789 -0.1587 -0.3730 -0.4233
 2711SOL    HW118237   9.468   0.816   0.790  0.1755 -1.4328 -1.5328
 2711SOL    HW218238   9.624   0.772   0.810  0.5815 -0.2141 -1.9344
 2712SOL     OW18239   8.873   6.167   2.657 -0.6368  0.0154  0.0467
 2712SOL    HW118240   8.943   6.116   2.607 -1.5608 -1.9163  0.6706
 2712SOL    HW218241   8.827   6.230   2.594  0.7125  0.3000 -0.6739
 2713SOL     OW18242   3.542   0.039   0.475 -0.0264 -0.2204  0.0706
 2713SOL    HW118243   3.580   0.019   0.565  0.6832  0.0210 -0.1732
 2713SOL    HW218244   3.583  -0.022   0.408  0.0666  0.1704 -0.2278
 2714SOL     OW18245   1.228   7.733   1.895  0.1973  0.3121 -0.6921
 2714SOL    HW118246   1.303   7.793   1.924 -0.4093  1.7826 -2.0579
 2714SOL    HW218247   1.143   7.786   1.892 -1.1071 -1.5449  1.6964
 2715SOL     OW18248   2.140   9.031   2.114  0.6312 -0.0711 -0.1978
 2715SOL    HW118249   2.057   9.075   2.082  1.0040 -0.2162 -1.4224
 2715SOL    HW218250   2.127   8.931   2.113 -0.2631 -0.0135  2.7063
 2716SOL     OW18251   9.500   2.078   2.904  0.1969  0.1951 -0.0679
 2716SOL    HW118252   9.400   2.082   2.907  0.1278 -1.8294  0.6351
 2716SOL    HW218253   9.534   2.032   2.986  1.5380 -2.0064 -1.8153
 2717SOL     OW18254   3.636   8.513   0.322  0.6095  0.2527  0.5174
 2717SOL    HW118255   3.614   8.578   0.249  0.5971 -0.8141 -0.4571
 2717SOL    HW218256   3.715   8.458   0.295 -0.9734 -1.9148  0.1469
 2718SOL     OW18257   0.267   5.459   2.200  0.3874 -0.8053 -0.5867
 2718SOL    HW118258   0.230   5.509   2.278  0.7290 -0.6461 -0.5273
 2718SOL    HW218259   0.210   5.475   2.119  1.1333  0.5661 -0.8407
 2719SOL     OW18260   9.007   5.073   2.012 -0.1727 -0.0639  0.6763
 2719SOL    HW118261   9.026   5.040   1.919 -0.5530  2.3092 -0.2850
 2719SOL    HW218262   9.091   5.104   2.055 -0.1595 -0.1447  0.7106
 2720SOL     OW18263   9.890   6.646   1.788  0.4795  0.2910 -0.0500
 2720SOL    HW118264   9.941   6.649   1.702 -1.2898  0.5171 -1.1284
 2720SOL    HW218265   9.835   6.562   1.791  2.0244 -0.6847  1.7630
 2721SOL     OW18266   2.572   2.192   2.658  0.1744 -0.2772 -0.1889
 2721SOL    HW118267   2.516   2.206   2.576 -1.8511 -1.8325  0.9088
 2721SOL    HW218268   2.543   2.255   2.730  0.3079 -0.6120  0.1562
 2722SOL     OW18269   2.679   1.716   0.131 -0.2668  0.1370 -0.1364
 2722SOL    HW118270   2.625   1.774   0.070 -0.8190  0.9632  1.1086
 2722SOL    HW218271   2.661   1.620   0.110 -1.7986  0.4052 -0.1025
 2723SOL     OW18272   1.774   6.736   0.095  0.4528  0.3352 -0.2773
 2723SOL    HW118273   1.840   6.663   0.082  0.3893  0.5020 -1.5465
 2723SOL    HW218274   1.724   6.720   0.181  1.9153  0.0582  0.5377
 2724SOL     OW18275   3.271   9.321   2.903 -0.1528  0.9898 -0.3068
 2724SOL    HW118276   3.270   9.359   2.810 -0.4480  2.3056  0.2219
 2724SOL    HW218277   3.307   9.228   2.901  0.4974  1.2651 -1.6516
 2725SOL     OW18278   9.598   6.137   0.656  0.3545 -0.3285 -0.2357
 2725SOL    HW118279   9.670   6.077   0.692  0.6569 -0.7221 -1.4552
 2725SOL    HW218280   9.583   6.213   0.719  1.9352 -0.1761 -0.0146
 2726SOL     OW18281   8.816   4.880   1.604  0.2091 -0.0584 -0.8193
 2726SOL    HW118282   8.882   4.913   1.671 -0.6024 -0.3547  0.1292
 2726SOL    HW218283   8.796   4.953   1.539 -0.2411  0.7600  0.2315
 2727SOL     OW18284   9.978   1.115   0.390 -0.2702  0.1279 -1.0426
 2727SOL    HW118285  10.031   1.193   0.425 -1.9348  0.5205  0.6725
 2727SOL    HW218286  10.040   1.040   0.368  1.0421  0.7685  0.4251
 2728SOL     OW18287   0.079   8.350   0.278  0.2414  0.2152  0.1990
 2728SOL    HW118288   0.147   8.422   0.268  0.7813 -0.5470 -1.8510
 2728SOL    HW218289   0.104   8.271   0.222 -1.5060 -0.6880  0.6273
 2729SOL     OW18290   3.673   4.203   0.555  0.5730  0.1583 -0.9472
 2729SOL    HW118291   3.589   4.156   0.528  0.4075 -0.4202  0.5347
 2729SOL    HW218292   3.649   4.291   0.597  0.5569 -0.7869  1.1380
 2730SOL     OW18293   1.985   5.410   1.386  0.5066 -0.2064 -0.3545
 2730SOL    HW118294   1.946   5.409   1.478 -0.6446 -1.0561 -0.8442
 2730SOL    HW218295   1.915   5.435   1.320  0.8707 -1.3861 -1.2000
 2731SOL     OW18296   9.753   1.189   1.108 -0.3350 -0.2899 -0.1837
 2731SOL    HW118297   9.687   1.115   1.120 -0.1625 -0.4690 -0.3416
 2731SOL    HW218298   9.756   1.216   1.012 -0.7877  0.2834 -0.0397
 2732SOL     OW18299   9.881   5.112   1.299 -0.3133  0.2139 -0.4240
 2732SOL    HW118300   9.877   5.024   1.345 -3.0298  0.3868 -0.2389
 2732SOL    HW218301   9.921   5.181   1.360  0.8838 -0.6408 -0.2201
 2733SOL     OW18302   2.248   6.699   1.130 -0.0246  0.0037 -0.2467
 2733SOL    HW118303   2.210   6.699   1.222 -0.4387 -0.7230 -0.4078
 2733SOL    HW218304   2.274   6.605   1.105 -3.7146 -0.5710 -2.3787
 2734SOL     OW18305   9.982   2.272   0.790 -0.1459  0.0085  0.1685
 2734SOL    HW118306   9.909   2.204   0.796 -0.1533  0.0348  0.3591
 2734SOL    HW218307  10.053   2.239   0.728 -0.6432  0.2842 -0.5568
 2735SOL     OW18308   1.156   9.857   2.839  0.0506  0.0284 -0.0174
 2735SOL    HW118309   1.140   9.790   2.912  1.6335  0.8991  1.1602
 2735SOL    HW218310   1.086   9.846   2.769 -1.0592 -1.3484  1.2503
 2736SOL     OW18311   2.825   0.815   0.803  0.3571 -0.0882  0.6067
 2736SOL    HW118312   2.763   0.795   0.726 -0.8034  1.4133  1.1224
 2736SOL    HW218313   2.801   0.757   0.881 -0.2779  0.3305  0.7311
 2737SOL     OW18314   1.773   5.565   2.032  0.3331 -0.3767  0.0710
 2737SOL    HW118315   1.773   5.665   2.031  1.3135 -0.3723 -0.1013
 2737SOL    HW218316   1.758   5.533   2.126 -2.1431 -0.1003 -0.1856
 2738SOL     OW18317   2.643   2.858   2.149 -0.6380  0.1495  0.3978
 2738SOL    HW118318   2.544   2.865   2.155 -0.5326  1.1332  1.1764
 2738SOL    HW218319   2.677   2.805   2.227 -0.4661  0.6558  0.6657
 2739SOL     OW18320   0.601   5.244   0.761  0.4763  0.5706  0.1190
 2739SOL    HW118321   0.659   5.294   0.697  1.9220 -0.0501  0.9315
 2739SOL    HW218322   0.527   5.305   0.792 -0.1236  0.9362 -1.9422
 2740SOL     OW18323   3.263   8.817   1.158  0.0260  0.0376  0.5320
 2740SOL    HW118324   3.272   8.908   1.116 -4.1746 -0.6438 -2.2045
 2740SOL    HW218325   3.297   8.748   1.094  0.4764 -0.4997  1.3559
 2741SOL     OW18326   9.017   2.147   1.072  0.0958 -0.5255 -0.4583
 2741SOL    HW118327   8.954   2.070   1.083  0.4489 -0.6310  0.9767
 2741SOL    HW218328   9.068   2.138   0.987 -0.9108 -1.1151 -0.9932
 2742SOL     OW18329   1.085   5.477   2.157 -0.0834  0.2950  0.0137
 2742SOL    HW118330   0.985   5.470   2.155 -0.1943  1.7303  0.4161
 2742SOL    HW218331   1.122   5.396   2.203 -0.9871 -0.7929 -1.1108
 2743SOL     OW18332   1.438   0.016   0.486  0.4201 -0.2073 -0.0023
 2743SOL    HW118333   1.373   0.076   0.531  0.6219 -0.2827  0.3907
 2743SOL    HW218334   1.412  -0.080   0.501  1.9784 -0.3145  2.2471
 2744SOL     OW18335   0.768   3.120   0.986 -0.0221  0.3584 -0.1040
 2744SOL    HW118336   0.862   3.105   0.957  0.8343  2.0806  1.7215
 2744SOL    HW218337   0.758   3.094   1.082 -1.4753 -0.0345 -0.3486
 2745SOL     OW18338   2.576   5.192   2.165  1.0429 -0.2614 -0.1392
 2745SOL    HW118339   2.536   5.114   2.117  1.1400 -0.6912  0.4749
 2745SOL    HW218340   2.507   5.264   2.174  0.3079 -1.1165  1.1804
 2746SOL     OW18341   9.349   3.393   2.857 -0.5280  0.1266 -0.1675
 2746SOL    HW118342   9.376   3.428   2.767  0.4719 -0.9393 -0.2855
 2746SOL    HW218343   9.350   3.468   2.923  2.7578  0.1532 -0.1751
 2747SOL     OW18344   1.902   8.908   2.361 -0.0430  0.7782  0.2675
 2747SOL    HW118345   1.861   8.846   2.427 -1.8242  3.3930  1.7247
 2747SOL    HW218346   1.853   8.901   2.274  1.8388 -2.1319 -0.6239
 2748SOL     OW18347   8.805   3.079   0.665  0.1273 -0.1734 -0.3912
 2748SOL    HW118348   8.736   3.037   0.724 -0.1259 -0.4822 -0.9054
 2748SOL    HW218349   8.893   3.034   0.680  0.1346 -0.0242  0.0005
 2749SOL     OW18350   2.421   7.770   1.286 -1.0941 -0.3053 -0.2093
 2749SOL    HW118351   2.398   7.678   1.254 -2.0531 -0.3177  0.4992
 2749SOL    HW218352   2.378   7.838   1.225 -0.2841 -0.3153 -0.8050
 2750SOL     OW18353   3.485   3.513   0.347 -0.2720  0.0202  0.6585
 2750SOL    HW118354   3.471   3.530   0.250 -0.1602 -0.5385  0.5451
 2750SOL    HW218355   3.451   3.422   0.371 -0.0640  0.0539  1.0881
 2751SOL     OW18356   1.111   2.552   0.009  0.4496  0.3335  0.5761
 2751SOL    HW118357   1.080   2.646  -0.005  0.6570  0.4261  0.7319
 2751SOL    HW218358   1.208   2.545  -0.011  0.2348 -0.0544 -0.3354
 2752SOL     OW18359   4.265   8.398   2.497 -0.4418 -0.2432 -0.3133
 2752SOL    HW118360   4.286   8.342   2.417 -0.9575 -1.2210  0.2163
 2752SOL    HW218361   4.263   8.339   2.578 -0.9334  0.5644  0.2645
 2753SOL     OW18362   3.515   3.782   2.280  0.2430  0.1837 -0.0551
 2753SOL    HW118363   3.446   3.819   2.218  0.3873 -0.4133 -0.5792
 2753SOL    HW218364   3.485   3.795   2.374 -0.0408  0.9720 -0.2526
 2754SOL     OW18365   3.026   4.240   2.517  0.2531 -0.3610 -0.0172
 2754SOL    HW118366   3.111   4.189   2.500 -0.8074 -1.7767 -1.3026
 2754SOL    HW218367   2.957   4.177   2.552 -0.6899  0.4921 -0.3387
 2755SOL     OW18368   8.197   4.531   0.552 -0.0022 -0.0898  0.0987
 2755SOL    HW118369   8.187   4.432   0.539  1.1676 -0.2424  0.2509
 2755SOL    HW218370   8.199   4.577   0.463 -0.0827 -0.2553  0.0117
 2756SOL     OW18371   3.490   3.018   1.672 -0.0810 -0.4112 -0.2316
 2756SOL    HW118372   3.491   3.112   1.639  0.6731 -0.1153  0.6360
 2756SOL    HW218373   3.568   2.968   1.632 -0.4790 -0.6734 -0.6902
 2757SOL     OW18374   0.015   8.277   1.765 -0.1271 -0.1663 -0.0172
 2757SOL    HW118375   0.088   8.340   1.739  0.0936  0.2943  1.6815
 2757SOL    HW218376   0.055   8.196   1.808 -0.5118 -0.7624 -0.7651
 2758SOL     OW18377   2.542   6.870   1.636 -0.0274 -0.0261  0.3991
 2758SOL    HW118378   2.569   6.953   1.588 -0.2674 -0.0002  0.3080
 2758SOL    HW218379   2.620   6.806   1.639 -0.5115 -0.7443 -1.5475
 2759SOL     OW18380   0.559   0.790   0.009  0.2660 -0.0690 -0.1804
 2759SOL    HW118381   0.482   0.852   0.019 -0.8195 -1.6512  1.6043
 2759SOL    HW218382   0.635   0.820   0.067  0.2380  0.3130 -0.3409
 2760SOL     OW18383   1.286   1.343   0.445 -0.2153  0.0391 -0.5964
 2760SOL    HW118384   1.199   1.350   0.397 -0.3087 -0.2080 -0.4597
 2760SOL    HW218385   1.325   1.435   0.456 -0.6764  0.1966 -0.2524
 2761SOL     OW18386   9.858   2.494   2.700 -0.2029 -0.1735 -0.7659
 2761SOL    HW118387   9.887   2.583   2.735 -0.8252 -0.0986 -0.4287
 2761SOL    HW218388   9.927   2.458   2.637 -0.0601  0.6591 -1.0868
 2762SOL     OW18389   4.241   2.720   1.251 -0.4789 -0.2696  0.1943
 2762SOL    HW118390   4.200   2.642   1.298  0.8208 -1.5675 -0.7526
 2762SOL    HW218391   4.339   2.703   1.240  0.2409  2.5501  2.0197
 2763SOL     OW18392   0.798   8.139   0.188  0.1295 -0.6835  0.0205
 2763SOL    HW118393   0.884   8.093   0.211 -0.1786 -0.5074  1.5931
 2763SOL    HW218394   0.772   8.199   0.264 -0.5880  0.4383 -1.1024
 2764SOL     OW18395   2.124   3.388   1.416  0.6563  0.2307  0.8313
 2764SOL    HW118396   2.030   3.354   1.416  0.2236  1.3945  1.0997
 2764SOL    HW218397   2.135   3.454   1.491  1.0814  1.7428 -0.5449
 2765SOL     OW18398   4.067   0.454   0.050  0.1217 -0.6453  0.8577
 2765SOL    HW118399   4.029   0.513  -0.021 -1.6291 -0.3525  2.0295
 2765SOL    HW218400   4.027   0.363   0.043  1.0352 -1.0301  0.5633
 2766SOL     OW18401   1.490   0.640   1.259 -0.8463 -0.2182 -0.2561
 2766SOL    HW118402   1.484   0.736   1.229 -0.4450  0.1948  0.9639
 2766SOL    HW218403   1.487   0.636   1.358  0.6754 -1.3449 -0.2392
 2767SOL     OW18404   3.856   0.237   0.865 -0.1152  0.0887  1.0402
 2767SOL    HW118405   3.802   0.232   0.949  0.0948  0.5023  1.1990
 2767SOL    HW218406   3.949   0.268   0.886  0.3164 -0.9982  0.8234
 2768SOL     OW18407   1.885   4.232   2.477  0.1943 -0.2590  0.3738
 2768SOL    HW118408   1.800   4.180   2.471 -0.5040  0.9690 -0.6500
 2768SOL    HW218409   1.864   4.329   2.489  1.3494  0.6322 -4.0296
 2769SOL     OW18410   3.654   3.281   0.953 -0.2705 -0.1839  0.4842
 2769SOL    HW118411   3.662   3.192   0.909  0.1706  2.0044 -4.1331
 2769SOL    HW218412   3.745   3.321   0.965 -0.7312  2.3772 -3.6620
 2770SOL     OW18413   1.854   3.359   1.352  0.1853  0.4769  0.4137
 2770SOL    HW118414   1.779   3.365   1.286  1.4427  1.4696 -0.9347
 2770SOL    HW218415   1.847   3.272   1.402  0.0751 -0.9481 -2.0377
 2771SOL     OW18416   9.845   5.664   1.449  0.1405  0.0292 -0.5950
 2771SOL    HW118417   9.871   5.694   1.357 -0.2533 -0.9902 -1.0359
 2771SOL    HW218418   9.855   5.565   1.456 -0.0853  0.0735  0.3862
 2772SOL     OW18419   3.628   4.656   0.803 -0.0381 -0.3576 -0.0621
 2772SOL    HW118420   3.692   4.715   0.852  0.3427 -0.7986 -0.0173
 2772SOL    HW218421   3.653   4.654   0.706  1.9083 -2.9099  0.4326
 2773SOL     OW18422   9.691   6.109   1.044 -0.4722 -0.2167  0.7797
 2773SOL    HW118423   9.682   6.184   0.978 -1.4239 -0.3884  0.7054
 2773SOL    HW218424   9.742   6.141   1.124  2.1452 -0.4727 -0.7397
 2774SOL     OW18425   0.137   0.737   0.148  0.1096  0.5747 -0.0699
 2774SOL    HW118426   0.118   0.673   0.222  0.0680  2.4096  1.5558
 2774SOL    HW218427   0.186   0.690   0.074 -2.0350 -1.8659  0.0152
 2775SOL     OW18428   0.381   8.164   2.788  0.4689  0.1021 -1.0387
 2775SOL    HW118429   0.349   8.241   2.842 -1.3144  0.0600 -1.9956
 2775SOL    HW218430   0.394   8.085   2.847 -1.7068 -0.0172 -0.6775
 2776SOL     OW18431   9.805   4.468   2.613  0.1799  0.5681 -0.0360
 2776SOL    HW118432   9.727   4.424   2.658  1.1068  0.3567  1.4227
 2776SOL    HW218433   9.842   4.408   2.542 -0.1410  0.0768  0.2131
 2777SOL     OW18434   2.599   4.571   2.509  0.2712 -0.3802  0.1479
 2777SOL    HW118435   2.674   4.630   2.540 -0.3908  0.3557  0.3590
 2777SOL    HW218436   2.607   4.557   2.410  0.0961  0.5368  0.0043
 2778SOL     OW18437   2.048   0.963   0.440 -0.4050 -0.3274 -0.2078
 2778SOL    HW118438   2.093   0.879   0.410  1.3156  0.4039  0.2674
 2778SOL    HW218439   1.973   0.939   0.501  1.1486 -1.4741  1.3173
 2779SOL     OW18440   0.708   0.805   2.238 -0.8270  1.0564 -0.1058
 2779SOL    HW118441   0.732   0.769   2.148  0.3432  1.7006 -0.0599
 2779SOL    HW218442   0.792   0.823   2.290 -1.5154 -0.8427  1.7172
 2780SOL     OW18443   3.631   5.875   0.657 -0.2581  0.3530  0.0036
 2780SOL    HW118444   3.678   5.797   0.699 -1.3401 -0.0624  0.4478
 2780SOL    HW218445   3.688   5.911   0.583  0.6270 -0.3345  0.3304
 2781SOL     OW18446   1.081   5.721   2.698 -0.6305  0.4667 -0.1865
 2781SOL    HW118447   1.054   5.724   2.795 -1.6943  2.9407 -0.5097
 2781SOL    HW218448   1.001   5.698   2.643 -0.7096  1.8827 -0.6820
 2782SOL     OW18449   9.693   4.548   0.316  0.3953 -0.0048  0.1583
 2782SOL    HW118450   9.599   4.522   0.335  1.1940 -1.3396  2.5834
 2782SOL    HW218451   9.711   4.638   0.354  0.3154 -0.0966  0.4157
 2783SOL     OW18452   3.209   2.465   2.191  0.4193 -1.0574  0.2341
 2783SOL    HW118453   3.267   2.546   2.196  1.3856 -1.6044 -1.7584
 2783SOL    HW218454   3.228   2.416   2.106 -1.5525 -2.3153  0.5029
 2784SOL     OW18455   2.577   7.478   1.607 -0.4482  0.2588 -0.0808
 2784SOL    HW118456   2.668   7.501   1.572  0.5063 -2.0269  0.7915
 2784SOL    HW218457   2.514   7.467   1.531  0.9747 -2.0747 -1.0004
 2785SOL     OW18458   3.636   0.966   0.979 -0.0491 -0.7016  0.0078
 2785SOL    HW118459   3.597   0.984   0.889 -0.4610 -1.2010  0.0803
 2785SOL    HW218460   3.629   0.869   0.999 -1.8833 -0.3128  1.4449
 2786SOL     OW18461   1.079   4.779   0.144  0.2553  0.8045  0.0510
 2786SOL    HW118462   0.987   4.811   0.120  1.0066  1.6619 -1.8080
 2786SOL    HW218463   1.087   4.681   0.124 -0.3331  0.6661  0.4811
 2787SOL     OW18464   4.318   0.052   2.062 -0.2326 -0.3934 -0.4465
 2787SOL    HW118465   4.316  -0.034   2.011 -1.4377  0.0296 -1.1398
 2787SOL    HW218466   4.259   0.045   2.142 -3.1516  0.9053 -2.3959
 2788SOL     OW18467   1.307   7.737   0.903  0.6002 -0.0168 -0.3981
 2788SOL    HW118468   1.299   7.801   0.826  0.5693 -0.3536 -0.6790
 2788SOL    HW218469   1.228   7.676   0.905 -0.5955  1.5700  1.3710
 2789SOL     OW18470   2.116   1.639   2.853 -0.0502 -0.0289 -0.3781
 2789SOL    HW118471   2.108   1.541   2.867 -1.0322 -0.1340 -1.6051
 2789SOL    HW218472   2.064   1.687   2.924 -0.4585 -0.4150 -0.4157
 2790SOL     OW18473   0.784   9.946   1.387  0.3781  0.3927 -0.6742
 2790SOL    HW118474   0.825   9.856   1.400 -1.5865 -0.2121  1.6608
 2790SOL    HW218475   0.755   9.957   1.291 -0.3860 -1.9002 -0.7252
 2791SOL     OW18476   2.390   3.630   0.141  0.0248  0.4348 -0.5748
 2791SOL    HW118477   2.354   3.704   0.084  0.3659  0.6665 -0.4872
 2791SOL    HW218478   2.323   3.608   0.212  1.0107  2.4492  1.0271
 2792SOL     OW18479   3.471   2.242   0.476  0.3603  0.5784  0.0729
 2792SOL    HW118480   3.554   2.188   0.466  0.6147 -0.1709  5.0611
 2792SOL    HW218481   3.396   2.197   0.427  1.7896 -1.4470 -0.3078
 2793SOL     OW18482   0.397   5.834   2.472  0.3259  0.2425  0.1086
 2793SOL    HW118483   0.347   5.914   2.440  0.4847 -0.0154 -0.8204
 2793SOL    HW218484   0.340   5.753   2.461  0.4210  0.1411  0.3805
 2794SOL     OW18485   9.489   2.403   0.348  0.3309  0.1127 -0.4466
 2794SOL    HW118486   9.419   2.474   0.351  1.4958  1.3227 -1.3172
 2794SOL    HW218487   9.534   2.396   0.437  1.0419  1.3510 -0.6865
 2795SOL     OW18488   4.018   3.477   1.458 -0.2111  0.9044 -0.5036
 2795SOL    HW118489   4.080   3.484   1.380  0.9590 -0.9130  0.2242
 2795SOL    HW218490   4.052   3.534   1.533  0.5178  0.0156 -0.1533
 2796SOL     OW18491   1.609   8.554   2.619 -0.4194 -0.1580  0.6672
 2796SOL    HW118492   1.551   8.601   2.686 -0.0058  1.9392 -0.4217
 2796SOL    HW218493   1.696   8.530   2.661  0.5558  2.7752  0.4329
 2797SOL     OW18494   3.168   2.659   2.869 -0.0807 -0.3072  0.0732
 2797SOL    HW118495   3.195   2.614   2.784 -0.4751 -2.0857  0.8757
 2797SOL    HW218496   3.236   2.641   2.940 -0.8881 -0.7058  0.7534
 2798SOL     OW18497   5.218   3.440   0.513  0.6819  0.1984 -0.1812
 2798SOL    HW118498   5.310   3.457   0.479  0.0231  1.0549 -1.5935
 2798SOL    HW218499   5.219   3.363   0.577  1.9337 -1.6992 -2.4161
 2799SOL     OW18500   9.815   8.833   1.385  0.2468  0.7076  0.2788
 2799SOL    HW118501   9.841   8.839   1.289 -1.2275  1.1596 -0.1131
 2799SOL    HW218502   9.758   8.912   1.409  0.4303  0.4944  1.4689
 2800SOL     OW18503   0.661   9.375   0.570 -0.2429 -0.2270  0.4391
 2800SOL    HW118504   0.608   9.290   0.565  0.8849 -0.9713  0.8921
 2800SOL    HW218505   0.709   9.380   0.658  0.0110  0.6863  0.2568
 2801SOL     OW18506   0.826   2.111   1.535 -0.1388 -0.1405  0.1260
 2801SOL    HW118507   0.878   2.025   1.537 -1.3390 -0.9106 -1.3586
 2801SOL    HW218508   0.865   2.171   1.465 -0.3631 -0.1371  0.0074
 2802SOL     OW18509   0.109   7.891   1.646 -0.3209 -0.1002 -0.1815
 2802SOL    HW118510   0.137   7.825   1.576  2.6394  0.7272  0.1615
 2802SOL    HW218511   0.034   7.853   1.699  0.2594 -2.5396 -1.0344
 2803SOL     OW18512   0.550   9.718   1.999  0.4239 -0.4166  0.1635
 2803SOL    HW118513   0.542   9.620   2.012  0.3374 -1.1118 -4.2930
 2803SOL    HW218514   0.460   9.758   1.983  0.6223  0.1179  0.3666
 2804SOL     OW18515   0.552   1.212   1.295  0.5650  0.1329 -0.2553
 2804SOL    HW118516   0.584   1.118   1.283  0.5542  0.2956 -1.5605
 2804SOL    HW218517   0.576   1.243   1.387 -0.8771 -1.7032  0.7871
 2805SOL     OW18518   9.883   9.946   2.938 -0.0404  0.3628 -0.3336
 2805SOL    HW118519   9.913  10.041   2.931  0.5437  0.2817  0.8505
 2805SOL    HW218520   9.902   9.912   3.030 -0.0043 -0.9833 -0.8206
 2806SOL     OW18521   1.284   0.337   1.501  0.1053 -0.2932 -0.5281
 2806SOL    HW118522   1.285   0.240   1.527 -1.1997 -0.6410 -1.6946
 2806SOL    HW218523   1.198   0.379   1.531 -0.0288  0.0896 -1.4170
 2807SOL     OW18524   2.594   0.182   0.708  0.1678 -0.5208  0.0952
 2807SOL    HW118525   2.567   0.085   0.706 -0.1337 -0.4217 -0.8444
 2807SOL    HW218526   2.577   0.220   0.799  1.5222 -1.6992  0.8775
 2808SOL     OW18527   0.924   0.529   2.087 -0.1947 -0.2242 -0.2651
 2808SOL    HW118528   0.990   0.504   2.159 -0.1926  2.3839  0.6896
 2808SOL    HW218529   0.831   0.519   2.122 -0.2043  0.5267 -0.0690
 2809SOL     OW18530   1.131   7.154   1.081  0.1666  0.3688 -0.2694
 2809SOL    HW118531   1.080   7.212   1.144  1.1109  0.2371  0.6271
 2809SOL    HW218532   1.181   7.211   1.016 -1.1141  0.4978 -1.1586
 2810SOL     OW18533   8.984   2.578   1.475 -0.0079  0.5977 -0.3104
 2810SOL    HW118534   8.956   2.644   1.545 -2.0814  0.0257 -0.5724
 2810SOL    HW218535   9.040   2.625   1.406  0.4569  1.5799  0.7265
 2811SOL     OW18536   3.012   1.690   0.856  0.2516 -0.3082 -0.2995
 2811SOL    HW118537   2.976   1.674   0.765 -0.3634 -0.3160 -0.0540
 2811SOL    HW218538   3.028   1.788   0.869  0.0181 -0.2725 -0.2905
 2812SOL     OW18539   0.543   5.513   0.283 -0.4602  0.1748  0.2341
 2812SOL    HW118540   0.475   5.454   0.239 -1.2087  0.4670  0.9970
 2812SOL    HW218541   0.516   5.608   0.271 -0.0381  0.3041  0.3131
 2813SOL     OW18542   9.385   4.364   1.054 -0.1704  0.3387 -0.0460
 2813SOL    HW118543   9.442   4.432   1.010 -1.3630  1.7950  0.6258
 2813SOL    HW218544   9.440   4.282   1.074  0.9388  0.5861 -2.0121
 2814SOL     OW18545   3.012   1.299   1.609 -0.3744  0.2626 -0.3249
 2814SOL    HW118546   3.001   1.293   1.510 -1.4139 -0.9294 -0.1506
 2814SOL    HW218547   3.108   1.284   1.634 -0.6367 -2.6480 -0.9303
 2815SOL     OW18548   2.022   8.122   1.909  0.2349  0.6308  0.3804
 2815SOL    HW118549   2.074   8.207   1.920  0.3038  0.6574 -0.1732
 2815SOL    HW218550   1.991   8.091   1.999 -1.5619  2.3609  0.3914
 2816SOL     OW18551   1.674   1.273   0.869 -0.2120 -0.0120  0.0544
 2816SOL    HW118552   1.619   1.295   0.950 -2.3629 -1.1997 -1.0608
 2816SOL    HW218553   1.646   1.331   0.793  2.3568  1.6602  0.3141
 2817SOL     OW18554   0.612   8.365   2.902  0.4267 -0.0749 -0.4049
 2817SOL    HW118555   0.619   8.396   2.807 -1.2504 -1.1948 -0.9272
 2817SOL    HW218556   0.622   8.266   2.906  1.8875  0.0961  0.7836
 2818SOL     OW18557   9.781   8.528   1.182  0.4690  0.6730  0.6771
 2818SOL    HW118558   9.691   8.569   1.196  1.0228  1.1077  3.2128
 2818SOL    HW218559   9.786   8.440   1.229  1.3675  0.6503  0.5565
 2819SOL     OW18560   4.685   3.671   0.511  0.4309  0.1798 -0.2751
 2819SOL    HW118561   4.658   3.757   0.467 -1.9242  0.3978  1.5122
 2819SOL    HW218562   4.632   3.658   0.595  1.0705 -2.8195 -0.2780
 2820SOL     OW18563   3.327   0.175   2.689 -0.0265  0.7484  0.0307
 2820SOL    HW118564   3.245   0.176   2.745  0.8801  1.3513  1.3650
 2820SOL    HW218565   3.368   0.083   2.691 -0.1340  0.7031  0.1529
 2821SOL     OW18566   0.413   2.520   1.981  0.0854  0.0062 -0.0606
 2821SOL    HW118567   0.426   2.436   2.034  2.1592  1.1954  1.3704
 2821SOL    HW218568   0.339   2.573   2.021  2.0318  1.1853  2.1051
 2822SOL     OW18569   0.434   7.051   1.373 -0.1856  0.3562  0.7251
 2822SOL    HW118570   0.487   7.129   1.405  2.1616 -1.1273  0.6108
 2822SOL    HW218571   0.444   7.041   1.274  2.1657 -1.9316  1.1546
 2823SOL     OW18572   2.042   4.830   1.601 -0.4303  0.2999 -0.4238
 2823SOL    HW118573   2.073   4.735   1.606 -0.1876  0.2604 -2.2541
 2823SOL    HW218574   2.063   4.867   1.510  1.3562  2.7628  0.9333
 2824SOL     OW18575   0.657   5.566   0.031  0.2084 -0.5403 -0.0949
 2824SOL    HW118576   0.677   5.496   0.100 -2.3589 -1.6360 -0.4237
 2824SOL    HW218577   0.560   5.589   0.034  0.7004  1.7887 -1.1600
 2825SOL     OW18578   0.672   2.771   1.112  0.0392 -0.4335 -0.7608
 2825SOL    HW118579   0.591   2.821   1.083  0.1757 -0.0880 -0.5475
 2825SOL    HW218580   0.743   2.778   1.042  0.4063  0.4883 -0.3045
 2826SOL     OW18581   4.205   9.907   0.586  0.2863 -0.3725 -0.2208
 2826SOL    HW118582   4.213   9.980   0.655 -0.8140  1.1606 -1.6813
 2826SOL    HW218583   4.296   9.879   0.557  0.7147  1.0674 -0.3140
 2827SOL     OW18584   9.268   6.722   1.897  0.2960 -0.9250  1.0906
 2827SOL    HW118585   9.262   6.665   1.815 -0.2624  1.7919 -0.8123
 2827SOL    HW218586   9.178   6.727   1.941 -0.0612 -0.1051  0.2720
 2828SOL     OW18587   0.784   0.017   2.487 -0.0089 -0.0571 -0.0594
 2828SOL    HW118588   0.798   0.017   2.586 -3.0151  0.2151  0.4332
 2828SOL    HW218589   0.737  -0.067   2.460 -0.9815  0.7400 -0.9196
 2829SOL     OW18590   9.749   5.250   1.081 -0.7914  0.2316 -0.2184
 2829SOL    HW118591   9.770   5.191   1.003  0.6125 -1.5002  1.4178
 2829SOL    HW218592   9.800   5.218   1.161 -0.4899  3.2949  0.8635
 2830SOL     OW18593   9.375   6.595   0.874  0.3969 -0.6142 -0.0075
 2830SOL    HW118594   9.349   6.499   0.883  0.1994 -0.5705 -0.1119
 2830SOL    HW218595   9.304   6.653   0.916 -0.1037 -0.4489 -1.0695
 2831SOL     OW18596   0.369   8.089   1.105 -0.4420  0.5805 -0.5007
 2831SOL    HW118597   0.284   8.098   1.052  0.2248  0.5843 -1.5803
 2831SOL    HW218598   0.371   8.158   1.177 -2.3154 -0.7189  0.8720
 2832SOL     OW18599   0.735   2.213   1.774  0.4403  0.0150 -0.8314
 2832SOL    HW118600   0.814   2.170   1.732 -1.2911 -0.5894 -3.5929
 2832SOL    HW218601   0.712   2.296   1.724 -1.8049 -0.8414 -1.2842
 2833SOL     OW18602   2.975   3.557   1.025  0.1972 -0.3773  0.4256
 2833SOL    HW118603   2.881   3.570   1.056 -0.4458 -1.8721 -0.8535
 2833SOL    HW218604   2.983   3.470   0.976  2.1586 -0.0841  0.1661
 2834SOL     OW18605   1.023   4.860   2.049  0.5426  0.3519  0.2139
 2834SOL    HW118606   0.974   4.793   2.105  0.2431 -0.2007 -0.7016
 2834SOL    HW218607   1.073   4.813   1.977 -0.0672  1.1424 -0.7370
 2835SOL     OW18608   9.979   4.449   2.844  0.5437  0.0251  0.3578
 2835SOL    HW118609   9.922   4.496   2.777 -1.9776  0.6677  2.8425
 2835SOL    HW218610  10.072   4.440   2.809 -0.5518  0.8940 -2.9137
 2836SOL     OW18611   3.514   5.474   0.763  0.0379  0.0140 -0.2717
 2836SOL    HW118612   3.489   5.556   0.712 -0.1321 -0.8081 -1.5512
 2836SOL    HW218613   3.596   5.434   0.723  2.0248  1.3440  2.3903
 2837SOL     OW18614   9.401   6.241   2.906 -0.7946  0.0075  0.3466
 2837SOL    HW118615   9.385   6.143   2.896 -2.8529  0.0605  2.6473
 2837SOL    HW218616   9.443   6.259   2.995 -2.2404  1.3557  0.7842
 2838SOL     OW18617   2.943   2.496   2.748 -0.0982 -0.1786 -0.4626
 2838SOL    HW118618   2.971   2.587   2.778  0.6052 -0.1237 -1.2657
 2838SOL    HW218619   3.018   2.432   2.764 -1.2356 -0.9998  1.8034
 2839SOL     OW18620   3.868   1.253   1.807  0.5119  0.2151  0.0251
 2839SOL    HW118621   3.853   1.235   1.710 -1.2456  2.4821 -0.1587
 2839SOL    HW218622   3.780   1.259   1.855  1.3162  0.0919  1.5617
 2840SOL     OW18623   0.708   9.566   0.373  0.2074 -0.4503  0.4197
 2840SOL    HW118624   0.625   9.570   0.317  0.8591  1.3975 -0.4888
 2840SOL    HW218625   0.689   9.520   0.459 -1.5798 -0.6920 -0.0883
 2841SOL     OW18626   2.048   5.261   0.638 -0.2784  0.0300 -0.6398
 2841SOL    HW118627   2.107   5.327   0.684  0.8228 -0.2743 -1.6079
 2841SOL    HW218628   1.957   5.301   0.626 -0.0723  0.7703  0.2169
 2842SOL     OW18629   1.601   1.546   2.802  0.0284  0.6199 -0.1293
 2842SOL    HW118630   1.639   1.582   2.887 -1.7457 -2.1943  1.9385
 2842SOL    HW218631   1.674   1.507   2.746  0.6547 -1.7045  2.2506
 2843SOL     OW18632   2.514   6.767   0.496 -0.1297  0.0892 -0.1945
 2843SOL    HW118633   2.548   6.732   0.409 -0.9451 -1.6367  0.1582
 2843SOL    HW218634   2.414   6.769   0.495 -0.1315  1.0733  0.3270
 2844SOL     OW18635   3.583   0.479   1.191  0.0500  0.0129 -0.4613
 2844SOL    HW118636   3.602   0.513   1.283  0.1660 -0.2334 -0.3961
 2844SOL    HW218637   3.568   0.557   1.130  1.9891  0.2276 -0.6833
 2845SOL     OW18638   1.900   0.072   2.344  0.1311  0.5711 -0.1823
 2845SOL    HW118639   1.925   0.064   2.247  1.7902  0.9646  0.1879
 2845SOL    HW218640   1.804   0.099   2.352 -0.5655 -1.3121 -1.6894
 2846SOL     OW18641   2.566   5.468   1.770 -0.0808 -0.4536  0.0887
 2846SOL    HW118642   2.507   5.472   1.850  1.0187  1.4766  0.8447
 2846SOL    HW218643   2.654   5.511   1.791 -0.0666  0.8304 -2.3799
 2847SOL     OW18644   1.858   7.699   0.456 -0.2129 -0.0206  0.2471
 2847SOL    HW118645   1.930   7.713   0.389  0.7461  2.0104  1.6533
 2847SOL    HW218646   1.899   7.685   0.547 -1.5339  0.7249  0.9820
 2848SOL     OW18647   1.909   0.632   0.358 -0.0569  0.7626  0.3821
 2848SOL    HW118648   1.867   0.604   0.445  1.4693  0.3142  0.9894
 2848SOL    HW218649   1.853   0.704   0.317 -2.3796 -1.0334  0.2799
 2849SOL     OW18650   3.130   4.191   2.125 -0.1572 -0.1058  0.6704
 2849SOL    HW118651   3.171   4.265   2.178  0.0148  0.0321  0.3495
 2849SOL    HW218652   3.043   4.165   2.166  1.0024 -1.4850  2.2751
 2850SOL     OW18653   1.312   1.829   0.997  0.4067 -0.1445  0.1126
 2850SOL    HW118654   1.340   1.810   0.903  0.5990  0.9328 -0.0567
 2850SOL    HW218655   1.380   1.889   1.041 -0.5578  0.7848  0.3688
 2851SOL     OW18656   3.761   9.857   2.906 -0.1297  0.1814  0.0167
 2851SOL    HW118657   3.818   9.826   2.982  0.9513  0.8610 -0.4990
 2851SOL    HW218658   3.702   9.931   2.937  0.1623  0.3153  0.2617
 2852SOL     OW18659   9.856   0.169   0.951 -0.2637 -0.1717  0.3737
 2852SOL    HW118660   9.845   0.216   1.038  2.8686 -1.5521  1.5862
 2852SOL    HW218661   9.861   0.070   0.967  0.2064 -0.4527 -1.3743
 2853SOL     OW18662   1.500   3.933   0.454 -0.4450 -0.1516 -0.0288
 2853SOL    HW118663   1.420   3.913   0.510 -0.9552  1.0532 -0.3123
 2853SOL    HW218664   1.577   3.956   0.513 -0.7663  0.3431  0.2037
 2854SOL     OW18665   1.714   2.163   1.834 -0.6685 -0.3731  0.5547
 2854SOL    HW118666   1.707   2.262   1.848 -2.1940 -0.3807 -0.0745
 2854SOL    HW218667   1.640   2.117   1.883 -1.3327 -1.0245 -1.0365
 2855SOL     OW18668   9.583   6.902   0.183  0.2202  0.4670  0.6000
 2855SOL    HW118669   9.548   6.830   0.123 -1.1147  1.2901  0.3596
 2855SOL    HW218670   9.626   6.861   0.263 -2.9081 -0.6148  1.8205
 2856SOL     OW18671   1.662   4.551   2.322 -0.1356 -0.1512 -0.0904
 2856SOL    HW118672   1.715   4.530   2.240  0.0335  0.8425 -0.2477
 2856SOL    HW218673   1.725   4.571   2.398 -0.2891 -0.3075  0.0783
 2857SOL     OW18674   1.351   9.821   2.086 -0.5155  0.1800  0.2102
 2857SOL    HW118675   1.382   9.730   2.114 -2.0966 -0.4471 -0.0594
 2857SOL    HW218676   1.253   9.819   2.065 -0.4561  1.8186 -0.3323
 2858SOL     OW18677   1.595   7.707   1.675  0.1149  0.2628 -0.3406
 2858SOL    HW118678   1.653   7.710   1.594 -0.6678 -2.3132 -1.0455
 2858SOL    HW218679   1.648   7.729   1.756  1.6460 -0.2910 -1.1852
 2859SOL     OW18680   2.157   8.421   0.118  0.2671  0.1599 -0.1020
 2859SOL    HW118681   2.134   8.464   0.030  0.3385  0.3558 -0.0241
 2859SOL    HW218682   2.125   8.479   0.193  1.9216  0.9397  0.0182
 2860SOL     OW18683   2.215   8.098   1.711 -0.0678  0.5138 -0.3027
 2860SOL    HW118684   2.136   8.105   1.772 -0.7419 -1.5870 -0.8821
 2860SOL    HW218685   2.275   8.024   1.743  0.7954  0.9711 -0.8471
 2861SOL     OW18686   0.598   1.242   1.552  0.3146  0.5935 -0.0675
 2861SOL    HW118687   0.621   1.327   1.599  1.8860  0.2595 -0.1852
 2861SOL    HW218688   0.542   1.184   1.612 -0.5248  1.5850  0.1122
 2862SOL     OW18689   3.418   5.348   1.179  0.4403  0.0152  0.4200
 2862SOL    HW118690   3.361   5.276   1.137  1.4624 -0.7174  0.2653
 2862SOL    HW218691   3.412   5.431   1.123 -2.2317  0.6876  1.6072
 2863SOL     OW18692   2.824   8.386   1.911  0.3759 -0.3500  0.2152
 2863SOL    HW118693   2.843   8.403   1.814 -0.8907  0.4382  0.1048
 2863SOL    HW218694   2.794   8.470   1.955 -0.5732 -1.0452  0.9325
 2864SOL     OW18695   3.151   3.815   0.528  0.2751  0.0558 -0.8449
 2864SOL    HW118696   3.182   3.906   0.501  0.6125 -0.5580 -2.5640
 2864SOL    HW218697   3.053   3.807   0.510 -0.7101  1.5479  3.3763
 2865SOL     OW18698   9.210   7.501   1.720 -0.2940 -0.6497  0.9423
 2865SOL    HW118699   9.159   7.479   1.803  0.4015 -0.0283  1.5314
 2865SOL    HW218700   9.289   7.557   1.742 -0.2255 -0.2861 -0.1673
 2866SOL     OW18701   1.775   2.272   2.863  0.0227 -0.7825 -0.2628
 2866SOL    HW118702   1.776   2.350   2.801 -0.8393 -2.2878 -2.1996
 2866SOL    HW218703   1.689   2.222   2.853  0.3396 -1.7038  1.3416
 2867SOL     OW18704   0.894   4.981   1.367  0.5189  0.4043 -0.1875
 2867SOL    HW118705   0.991   4.962   1.352  0.4528  0.3046 -0.4891
 2867SOL    HW218706   0.861   5.041   1.295 -0.2018 -1.3860 -1.3816
 2868SOL     OW18707   8.683   5.326   1.247 -0.6662 -0.3634  0.0599
 2868SOL    HW118708   8.688   5.320   1.347  2.1835  1.3197  0.0775
 2868SOL    HW218709   8.660   5.237   1.209 -1.5646 -1.0747  2.2146
 2869SOL     OW18710   1.491   2.003   1.137 -0.0863 -0.1881  0.4720
 2869SOL    HW118711   1.555   2.037   1.067 -1.4068  1.0882 -0.1510
 2869SOL    HW218712   1.470   2.077   1.201 -0.0255 -0.9440  1.3738
 2870SOL     OW18713   0.914   8.645   2.693 -0.6592 -0.6111 -0.0139
 2870SOL    HW118714   0.935   8.560   2.646 -0.6074 -0.9490  0.6188
 2870SOL    HW218715   0.925   8.633   2.791  0.1128  0.3402  0.0263
 2871SOL     OW18716   9.854   7.774   0.612 -0.3858  0.2352  0.1979
 2871SOL    HW118717   9.764   7.736   0.632  0.3653 -1.9793 -0.4052
 2871SOL    HW218718   9.907   7.781   0.696 -0.3098 -0.7534  0.2498
 2872SOL     OW18719   3.424   9.779   0.816 -0.2334 -0.5455  0.2651
 2872SOL    HW118720   3.470   9.707   0.868 -0.0806  0.3581  1.3992
 2872SOL    HW218721   3.454   9.868   0.849 -1.2403  0.0468 -0.3898
 2873SOL     OW18722   2.196   0.766   2.148 -0.3769  0.4606  0.5915
 2873SOL    HW118723   2.120   0.829   2.166 -0.2642  0.2289  1.9452
 2873SOL    HW218724   2.232   0.732   2.235 -0.5743 -1.6583 -0.1349
 2874SOL     OW18725   2.472   2.155   1.019  0.6028 -0.0747 -0.0441
 2874SOL    HW118726   2.536   2.231   1.028 -1.0661  1.3899 -0.2525
 2874SOL    HW218727   2.378   2.190   1.025 -0.1988 -2.0208 -0.9659
 2875SOL     OW18728   0.217   6.350   0.160  0.1535  0.2311  0.1618
 2875SOL    HW118729   0.189   6.440   0.127  0.9197  0.7349  0.8777
 2875SOL    HW218730   0.138   6.303   0.200  0.1826  1.3977  1.6181
 2876SOL     OW18731   9.946   3.941   0.026 -0.2331 -0.3206  0.4380
 2876SOL    HW118732   9.986   3.973   0.111 -1.0169  0.7584  0.4160
 2876SOL    HW218733   9.918   4.020  -0.030  3.0424 -0.8954 -2.1864
 2877SOL     OW18734   1.360   1.283   2.256  0.0033 -0.3146  0.3861
 2877SOL    HW118735   1.389   1.271   2.351 -1.6911  1.8647  1.2302
 2877SOL    HW218736   1.344   1.380   2.238  0.7484 -0.6424 -2.2842
 2878SOL     OW18737   8.221   6.394   0.223  0.0678 -0.3310 -0.0002
 2878SOL    HW118738   8.195   6.335   0.300 -0.0975  0.0680  0.2489
 2878SOL    HW218739   8.158   6.472   0.218  1.9904  1.3543  1.4001
 2879SOL     OW18740   9.366   2.732   1.406  0.0703  0.4836 -0.4308
 2879SOL    HW118741   9.287   2.723   1.345 -0.3570  1.0079  0.0467
 2879SOL    HW218742   9.346   2.685   1.492  0.2742  0.6326 -0.3035
 2880SOL     OW18743   2.938   4.340   1.996  0.3383 -0.5764  0.0050
 2880SOL    HW118744   3.019   4.297   2.037  0.8058 -1.0138 -1.3300
 2880SOL    HW218745   2.940   4.438   2.013 -0.9634 -1.0859  3.4846
 2881SOL     OW18746   1.269   9.205   0.711  0.1296 -0.4354  0.0017
 2881SOL    HW118747   1.254   9.108   0.693  2.7835 -0.7565 -0.7535
 2881SOL    HW218748   1.305   9.217   0.803 -1.1960 -0.0539  0.4760
 2882SOL     OW18749   0.760   9.865   1.065  0.1908  0.2075 -0.4665
 2882SOL    HW118750   0.815   9.782   1.068  3.4287  2.2517 -1.2830
 2882SOL    HW218751   0.665   9.843   1.089  0.3948 -4.1137 -3.1808
 2883SOL     OW18752   2.392   2.826   2.912 -0.7105 -0.4742  0.5073
 2883SOL    HW118753   2.309   2.853   2.960 -2.5928 -2.8169 -1.3170
 2883SOL    HW218754   2.399   2.727   2.911  1.4469 -0.3442 -0.4906
 2884SOL     OW18755   2.220   0.514   0.045  0.6645 -0.5413  0.2148
 2884SOL    HW118756   2.173   0.426   0.047  0.9548 -0.6908  0.9325
 2884SOL    HW218757   2.156   0.586   0.070  0.4247 -0.5520 -0.3765
 2885SOL     OW18758   0.210   3.373   1.889  0.1019 -0.0504 -0.3741
 2885SOL    HW118759   0.212   3.453   1.949  1.8928  0.1184 -0.6302
 2885SOL    HW218760   0.302   3.354   1.855 -0.2046 -2.5377  0.0738
 2886SOL     OW18761   9.745   4.914   1.716  0.0266  0.5889 -0.2530
 2886SOL    HW118762   9.746   4.990   1.781  0.8236  1.0096 -0.7522
 2886SOL    HW218763   9.824   4.921   1.655  1.2312 -1.7154  0.9485
 2887SOL     OW18764   4.068   0.646   2.513  0.5448 -0.3287 -0.2279
 2887SOL    HW118765   4.003   0.700   2.459  0.7880  1.0643  0.8432
 2887SOL    HW218766   4.129   0.707   2.564  0.3589 -1.5921  1.5925
 2888SOL     OW18767   2.614   3.602   0.930  0.2011 -0.1093  0.1024
 2888SOL    HW118768   2.686   3.664   0.899  1.7144 -1.0405  1.6572
 2888SOL    HW218769   2.626   3.513   0.884 -0.5729  0.0351 -0.3854
 2889SOL     OW18770   3.093   8.158   0.136  0.4142  0.7471  0.7114
 2889SOL    HW118771   3.101   8.227   0.064  0.2247  1.0716  1.0004
 2889SOL    HW218772   3.070   8.202   0.223 -2.3275  0.1098  0.3789
 2890SOL     OW18773   0.881   8.809   1.160 -0.2700  0.1063  0.0011
 2890SOL    HW118774   0.954   8.878   1.163 -1.6145  1.5190  1.1193
 2890SOL    HW218775   0.894   8.743   1.233 -1.0845  1.3816  1.3136
 2891SOL     OW18776   3.594   8.705   0.139  0.0109  0.2015  0.8174
 2891SOL    HW118777   3.518   8.735   0.197 -0.7041  1.6502 -0.8061
 2891SOL    HW218778   3.641   8.785   0.103  0.6298 -0.6799 -0.3507
 2892SOL     OW18779   1.840   7.406   0.226 -0.1588 -0.2631  0.7365
 2892SOL    HW118780   1.800   7.498   0.231  0.0152 -0.1197 -0.2936
 2892SOL    HW218781   1.883   7.394   0.136 -0.4395 -1.4640  0.7597
 2893SOL     OW18782   4.309   3.400   1.350  0.2563  0.0251 -0.4526
 2893SOL    HW118783   4.270   3.476   1.298 -1.2350 -0.8874 -0.7008
 2893SOL    HW218784   4.348   3.435   1.436 -0.3046  1.0870 -0.6207
 2894SOL     OW18785   8.926   5.498   1.238 -0.2245 -0.1077 -0.3042
 2894SOL    HW118786   8.865   5.425   1.209  0.3638 -1.2676  1.2907
 2894SOL    HW218787   8.873   5.573   1.276 -0.8261  0.2887 -1.8875
 2895SOL     OW18788   2.565   1.649   1.799 -0.4044  0.0687  0.3646
 2895SOL    HW118789   2.501   1.718   1.833 -1.0213  0.3222 -1.2658
 2895SOL    HW218790   2.652   1.657   1.848 -0.7963  1.3573  0.8688
 2896SOL     OW18791   0.670   6.798   1.291  0.1855  0.2511  0.3950
 2896SOL    HW118792   0.684   6.888   1.332  2.1762  0.7074 -1.1926
 2896SOL    HW218793   0.731   6.731   1.334 -0.4603 -0.1113  0.7681
 2897SOL     OW18794   3.394   6.069   1.059  0.2297 -0.4607  0.0114
 2897SOL    HW118795   3.430   6.142   1.000  0.2662 -1.5431 -1.3136
 2897SOL    HW218796   3.294   6.077   1.064  0.3165  0.3122  0.7333
 2898SOL     OW18797   0.253   4.775   2.826 -0.0076 -0.0911 -0.7275
 2898SOL    HW118798   0.243   4.811   2.733  0.1826 -0.9204 -1.0829
 2898SOL    HW218799   0.260   4.675   2.821  3.1613  0.0768 -0.0709
 2899SOL     OW18800   0.280   6.308   2.599 -0.5097  0.3735 -0.5114
 2899SOL    HW118801   0.282   6.329   2.501  1.8521  1.0744 -0.3565
 2899SOL    HW218802   0.359   6.250   2.622 -0.7957  0.5767  1.0529
 2900SOL     OW18803   8.446   2.651   1.463  0.2703 -0.5271  0.0752
 2900SOL    HW118804   8.419   2.747   1.477  4.3823  0.5952  0.7595
 2900SOL    HW218805   8.429   2.626   1.368 -1.5561  0.5933  0.0658
 2901SOL     OW18806   4.686   4.077   2.202  0.0492 -0.6686  0.2870
 2901SOL    HW118807   4.648   3.985   2.198 -0.0023 -0.6627  0.6053
 2901SOL    HW218808   4.680   4.111   2.296 -1.1290  0.1593 -0.0631
 2902SOL     OW18809   9.079   6.561   2.166 -0.3749  0.4603  0.3863
 2902SOL    HW118810   9.128   6.552   2.080  0.7541  2.0905  0.8407
 2902SOL    HW218811   9.132   6.519   2.240 -2.2603 -2.7173 -0.0051
 2903SOL     OW18812   1.371   4.536   1.807 -0.2880  0.7786 -0.6338
 2903SOL    HW118813   1.311   4.586   1.870 -2.6290 -1.0413 -1.3254
 2903SOL    HW218814   1.353   4.438   1.816  0.6112  0.3844 -2.8849
 2904SOL     OW18815   2.594   5.722   2.079  0.8015  0.3987 -0.5264
 2904SOL    HW118816   2.668   5.773   2.035  1.1257  0.0057 -0.4352
 2904SOL    HW218817   2.627   5.681   2.164  0.2955  0.7800 -0.1432
 2905SOL     OW18818   0.192   3.490   2.194  0.0812 -0.3250 -0.1057
 2905SOL    HW118819   0.176   3.580   2.153  0.9013  0.5251  1.4029
 2905SOL    HW218820   0.107   3.457   2.235 -0.1637 -0.1332 -0.4557
 2906SOL     OW18821   2.374   4.710   2.610 -0.3451 -0.0345  0.0309
 2906SOL    HW118822   2.308   4.684   2.539 -1.1414 -2.4424  1.5717
 2906SOL    HW218823   2.460   4.661   2.595  0.1428  0.9104 -0.3266
 2907SOL     OW18824   3.679   0.078   2.454 -0.0137  0.3494  0.6335
 2907SOL    HW118825   3.641   0.140   2.385  0.6857  1.4119  1.1833
 2907SOL    HW218826   3.612   0.064   2.527 -1.2358 -1.7587 -0.8321
 2908SOL     OW18827   9.580   8.655   1.332 -0.2101  0.0912  0.2257
 2908SOL    HW118828   9.522   8.615   1.403 -1.1836  2.0224  0.5376
 2908SOL    HW218829   9.655   8.705   1.374 -0.9751  1.5188 -0.0795
 2909SOL     OW18830   1.194   3.567   1.120 -0.2639  0.2726  0.3051
 2909SOL    HW118831   1.286   3.532   1.105 -0.1648  0.9013 -0.5534
 2909SOL    HW218832   1.198   3.653   1.171 -0.4463 -0.2675  1.2651
 2910SOL     OW18833   2.016   2.081   0.115 -0.1255  0.2798 -0.5374
 2910SOL    HW118834   2.007   2.081   0.015  0.0476 -0.1465 -0.5530
 2910SOL    HW218835   2.108   2.051   0.140 -0.8868 -1.8808 -0.1899
 2911SOL     OW18836   9.996   8.881   2.601  0.4598  0.7066  0.9122
 2911SOL    HW118837  10.068   8.950   2.608  0.2144  0.9155  1.4057
 2911SOL    HW218838   9.966   8.854   2.692 -1.3973  2.0155  0.7241
 2912SOL     OW18839   2.173   5.208   1.752 -0.2776  0.2104 -0.4479
 2912SOL    HW118840   2.119   5.275   1.700 -2.3989 -0.2671  1.1055
 2912SOL    HW218841   2.219   5.255   1.828 -1.4376 -0.0114  0.3979
 2913SOL     OW18842   2.638   8.711   1.318 -0.3919 -0.3355 -0.1066
 2913SOL    HW118843   2.680   8.801   1.312  1.2573 -1.0190  0.7735
 2913SOL    HW218844   2.555   8.716   1.375  1.1610  0.1408  2.2015
 2914SOL     OW18845   2.198   3.069   1.441  0.1406  0.9738  0.6327
 2914SOL    HW118846   2.234   3.161   1.459  0.0829  1.1606 -0.1740
 2914SOL    HW218847   2.115   3.076   1.386  1.4698  0.3535 -1.5121
 2915SOL     OW18848   0.617   7.377   0.601  0.0839 -0.2577  0.5094
 2915SOL    HW118849   0.548   7.320   0.556  0.4154  0.2181 -0.6229
 2915SOL    HW218850   0.681   7.412   0.533  1.1290 -0.2496  1.4847
 2916SOL     OW18851   2.190   1.440   0.758  1.2066 -0.0886  0.6250
 2916SOL    HW118852   2.207   1.457   0.661  0.4385 -1.6348  0.2185
 2916SOL    HW218853   2.128   1.363   0.768  1.7635 -0.3173  2.3738
 2917SOL     OW18854   1.278   7.645   2.824 -0.5540 -0.1630  0.6245
 2917SOL    HW118855   1.348   7.671   2.890 -0.3799 -0.4093  0.5402
 2917SOL    HW218856   1.243   7.554   2.847  0.7589 -1.0027 -0.6275
 2918SOL     OW18857   0.585   0.005   0.908  0.6895 -0.4529 -0.3622
 2918SOL    HW118858   0.611   0.015   0.812  0.1739  0.5126 -0.4075
 2918SOL    HW218859   0.663  -0.029   0.960  1.9844  2.1169 -0.5455
 2919SOL     OW18860   1.596   3.391   0.643 -0.0648 -0.0430  0.0741
 2919SOL    HW118861   1.667   3.375   0.711 -0.3683 -3.5686 -0.3569
 2919SOL    HW218862   1.509   3.406   0.689  0.1769  0.0691  0.4988
 2920SOL     OW18863   3.427   1.359   0.976 -0.4410 -0.1413 -0.0218
 2920SOL    HW118864   3.416   1.414   1.059 -0.2733 -0.8910  0.5043
 2920SOL    HW218865   3.389   1.268   0.992  0.2822 -0.5296 -0.5150
 2921SOL     OW18866   2.931   8.168   1.490 -0.7267 -0.6178  0.3844
 2921SOL    HW118867   2.845   8.159   1.439 -1.8410 -0.7318  2.2001
 2921SOL    HW218868   2.921   8.240   1.558 -0.1844 -2.1609  2.1429
 2922SOL     OW18869   4.384   8.735   0.912  0.0433  0.1828 -0.0802
 2922SOL    HW118870   4.384   8.642   0.947 -1.6835  1.2466  2.9140
 2922SOL    HW218871   4.290   8.769   0.908  0.7519  2.2148  0.0777
 2923SOL     OW18872   3.731   4.558   0.169 -0.5345  0.2339  0.0954
 2923SOL    HW118873   3.774   4.507   0.094 -1.9966 -0.3059 -0.3846
 2923SOL    HW218874   3.802   4.607   0.220  0.7829 -1.4308 -0.0755
 2924SOL     OW18875   4.287   0.946   0.722 -0.4033 -0.3344 -0.5012
 2924SOL    HW118876   4.284   1.011   0.797 -3.3664 -1.0310  0.0652
 2924SOL    HW218877   4.353   0.873   0.742  0.0569  0.3945  0.6193
 2925SOL     OW18878   2.638   9.910   0.814  0.3698 -0.4722 -0.4705
 2925SOL    HW118879   2.627   9.936   0.910 -0.0417  2.0633 -1.1719
 2925SOL    HW218880   2.729   9.938   0.781  0.3091 -0.8479 -0.9748
 2926SOL     OW18881   1.017   6.821   0.658  0.0368 -0.2404  0.0927
 2926SOL    HW118882   1.098   6.788   0.707  1.4041  0.4284 -1.6409
 2926SOL    HW218883   0.950   6.747   0.651  0.1988 -0.6096  2.1424
 2927SOL     OW18884   2.517   7.202   2.339 -0.1868  0.2951  0.4141
 2927SOL    HW118885   2.437   7.201   2.400 -0.6453 -0.6160 -0.1976
 2927SOL    HW218886   2.600   7.190   2.394 -0.4948  0.8508  1.0113
 2928SOL     OW18887   2.673   1.082   0.508 -0.3008  0.0845  0.2030
 2928SOL    HW118888   2.754   1.097   0.564  0.8322  1.9595 -1.8643
 2928SOL    HW218889   2.687   1.002   0.449 -1.8673 -2.4874  3.1307
 2929SOL     OW18890   2.422   7.134   1.352 -0.0812 -0.3757  0.0932
 2929SOL    HW118891   2.507   7.104   1.309  1.0072  1.5747  0.7911
 2929SOL    HW218892   2.344   7.107   1.295  1.0389 -1.6813 -0.8457
 2930SOL     OW18893   3.181   3.696   1.484  0.0408  0.5287  0.2306
 2930SOL    HW118894   3.086   3.681   1.510  0.3706  0.5890  1.4788
 2930SOL    HW218895   3.228   3.608   1.478 -0.1614  0.4771 -0.6730
 2931SOL     OW18896   9.924   6.896   0.704  0.3432 -0.8063 -0.4877
 2931SOL    HW118897   9.908   6.881   0.606 -0.7333 -2.2504 -0.0929
 2931SOL    HW218898   9.982   6.823   0.739 -1.2360 -1.6163  0.4707
 2932SOL     OW18899   4.426   9.248   0.940 -0.3244  0.1035 -0.5025
 2932SOL    HW118900   4.396   9.163   0.982  0.5515  0.5473  1.0373
 2932SOL    HW218901   4.385   9.326   0.988  1.5949  0.6502  0.2900
 2933SOL     OW18902   3.290   1.329   0.744 -0.1566  0.9254 -0.8994
 2933SOL    HW118903   3.347   1.390   0.688  1.6463 -0.2722 -0.4024
 2933SOL    HW218904   3.313   1.341   0.840 -2.3067  2.0007 -0.5048
 2934SOL     OW18905   2.747   5.488   2.236 -0.3495  0.4318  0.1034
 2934SOL    HW118906   2.785   5.447   2.153 -0.6046  1.6876 -0.6496
 2934SOL    HW218907   2.707   5.417   2.293 -4.3735  0.0145 -3.0423
 2935SOL     OW18908   9.267   1.821   0.301  0.4890  0.6510  0.9123
 2935SOL    HW118909   9.264   1.736   0.247 -0.3055  1.5018 -0.4121
 2935SOL    HW218910   9.362   1.845   0.320  0.7068 -0.6719  1.5173
 2936SOL     OW18911   0.791   2.225   0.592  0.4242  0.1090  0.3240
 2936SOL    HW118912   0.815   2.269   0.679  1.4158  1.7196 -0.7507
 2936SOL    HW218913   0.774   2.295   0.523  1.4505 -1.1826 -1.2641
 2937SOL     OW18914   0.365   3.145   0.820 -0.2120 -0.3880  0.4382
 2937SOL    HW118915   0.388   3.224   0.878  0.4849 -1.4868  1.6811
 2937SOL    HW218916   0.322   3.177   0.736 -0.4603  1.2949  1.1850
 2938SOL     OW18917   2.837   1.103   1.744 -0.2357  0.1537 -0.2737
 2938SOL    HW118918   2.905   1.150   1.688  0.4633 -0.1607  0.2941
 2938SOL    HW218919   2.796   1.029   1.692 -1.6766  1.6716 -1.3279
 2939SOL     OW18920   2.125   8.477   0.546  0.4786 -0.2947 -0.3785
 2939SOL    HW118921   2.066   8.417   0.601  0.9222  0.1426  0.5803
 2939SOL    HW218922   2.108   8.460   0.449 -0.6116 -0.7810 -0.1097
 2940SOL     OW18923   9.373   7.124   2.314 -0.2097 -0.0307  0.1885
 2940SOL    HW118924   9.327   7.038   2.290 -2.5174  2.0067 -3.1281
 2940SOL    HW218925   9.326   7.166   2.392 -0.9055 -0.3681 -0.0418
 2941SOL     OW18926   3.510   4.070   0.371 -0.3661  0.1196  0.3592
 2941SOL    HW118927   3.467   4.125   0.299 -0.8056  1.3742  1.5569
 2941SOL    HW218928   3.514   3.974   0.342 -0.9077  0.5378 -1.1550
 2942SOL     OW18929   1.143   1.291   1.114  0.4352 -0.7134  0.0866
 2942SOL    HW118930   1.122   1.382   1.151  2.2475 -0.4446  0.4759
 2942SOL    HW218931   1.060   1.235   1.116 -0.0197 -0.0119  2.5161
 2943SOL     OW18932   3.495   4.074   2.353  0.1025  0.1325 -0.2189
 2943SOL    HW118933   3.487   4.133   2.273 -2.9543 -2.6337 -2.0722
 2943SOL    HW218934   3.524   3.983   2.325  1.3412 -0.2590  2.1651
 2944SOL     OW18935   1.345   5.521   0.158 -0.0111 -0.2458 -0.3881
 2944SOL    HW118936   1.391   5.444   0.203  0.0780 -1.0633 -1.8686
 2944SOL    HW218937   1.334   5.502   0.061 -1.2676  1.0140 -0.5133
 2945SOL     OW18938   1.219   6.258   0.761  0.4498 -0.3499  0.6715
 2945SOL    HW118939   1.252   6.275   0.668  0.7928 -0.2843  0.8035
 2945SOL    HW218940   1.166   6.173   0.763  0.9269 -0.6536  0.5288
 2946SOL     OW18941   2.727   0.896   1.550  1.0270  0.0455  0.2905
 2946SOL    HW118942   2.661   0.888   1.475  1.8760 -0.9635 -0.3552
 2946SOL    HW218943   2.766   0.806   1.570  1.1576  0.3898  1.6353
 2947SOL     OW18944   2.068   6.804   2.426 -0.2745 -0.1104  0.1459
 2947SOL    HW118945   1.970   6.822   2.423 -0.0956  0.7264 -0.9047
 2947SOL    HW218946   2.098   6.766   2.338  0.2432 -0.9488  0.6664
 2948SOL     OW18947   9.174   5.082   0.824  0.2035 -0.1629 -0.3933
 2948SOL    HW118948   9.125   5.159   0.783 -0.8512  0.6471  2.2590
 2948SOL    HW218949   9.120   4.999   0.814 -1.1907  0.4941  1.4320
 2949SOL     OW18950   3.961   0.229   2.555 -0.3086  0.1341 -0.1692
 2949SOL    HW118951   3.911   0.231   2.468 -3.6647 -3.4234  1.5168
 2949SOL    HW218952   3.955   0.319   2.598 -1.2144  1.1090 -2.2487
 2950SOL     OW18953   0.374   8.647   2.071  0.8160 -0.4055 -0.1231
 2950SOL    HW118954   0.352   8.614   1.980 -0.9715  1.3734 -0.3813
 2950SOL    HW218955   0.453   8.709   2.066 -0.2658  0.9630 -0.7515
 2951SOL     OW18956   1.206   4.057   1.974  0.5586 -0.2931 -0.3425
 2951SOL    HW118957   1.162   3.988   2.031  0.3862 -0.6269 -0.8822
 2951SOL    HW218958   1.220   4.022   1.882 -0.3635  0.7043 -0.8751
 2952SOL     OW18959   0.224   1.999   1.837  0.1873 -0.1629  0.0048
 2952SOL    HW118960   0.295   1.947   1.886  1.5820  0.0236 -1.7787
 2952SOL    HW218961   0.181   1.941   1.769 -1.6700 -0.3771  1.3113
 2953SOL     OW18962   9.384   5.746   0.404 -0.0165  0.2619  0.3275
 2953SOL    HW118963   9.436   5.765   0.321 -0.8394  0.3723 -0.1562
 2953SOL    HW218964   9.410   5.811   0.475  1.1045 -0.1843  0.3438
 2954SOL     OW18965   2.323   5.059   1.357  0.0578  0.1391  0.2460
 2954SOL    HW118966   2.226   5.036   1.349  0.3034 -1.1333  0.7386
 2954SOL    HW218967   2.346   5.072   1.453  0.7528 -1.3878  0.3053
 2955SOL     OW18968   1.460   5.571   2.192  0.4205  0.3774 -0.2915
 2955SOL    HW118969   1.419   5.623   2.267  1.3584  0.5401  0.1106
 2955SOL    HW218970   1.392   5.557   2.120 -0.1726  1.1498  0.1153
 2956SOL     OW18971   1.551   5.323   0.439  0.4038  0.4481 -0.3964
 2956SOL    HW118972   1.645   5.331   0.472  0.0131  2.1994  0.3626
 2956SOL    HW218973   1.549   5.337   0.340  0.6777  2.8318 -0.1026
 2957SOL     OW18974   3.947   4.366   0.553  0.0494  0.2324  0.4166
 2957SOL    HW118975   3.875   4.341   0.619  0.1381 -0.1356  0.3758
 2957SOL    HW218976   4.035   4.333   0.587 -0.1548 -1.6359 -0.7916
 2958SOL     OW18977   2.649   6.063   1.475  0.1602 -0.4818 -0.6050
 2958SOL    HW118978   2.689   6.122   1.406  0.7819  0.1997  0.3271
 2958SOL    HW218979   2.578   6.006   1.434  0.4306  0.0187 -1.7637
 2959SOL     OW18980   4.048   9.640   0.411  0.8151 -0.5206 -0.2181
 2959SOL    HW118981   4.089   9.717   0.459  0.3601  0.4200 -1.2998
 2959SOL    HW218982   4.001   9.581   0.476  1.4488 -0.0674  0.6626
 2960SOL     OW18983   9.573   3.891   1.076  0.7361  0.5293 -0.2837
 2960SOL    HW118984   9.583   3.904   1.174 -0.1475  0.7567 -0.2146
 2960SOL    HW218985   9.493   3.833   1.058  3.6997 -3.6307 -0.6606
 2961SOL     OW18986   9.973   7.258   2.529 -0.1706 -0.2504 -0.3637
 2961SOL    HW118987   9.900   7.254   2.597 -1.6922  0.9588 -1.8824
 2961SOL    HW218988  10.014   7.349   2.529 -1.5592  0.4129 -2.4258
 2962SOL     OW18989   0.795   7.781   0.123  0.1484 -0.7633  0.8729
 2962SOL    HW118990   0.768   7.731   0.040 -0.6777  1.5195 -0.2782
 2962SOL    HW218991   0.715   7.796   0.180  0.0458  0.7998  0.3379
 2963SOL     OW18992   0.552   8.959   2.363 -0.9197 -0.4352 -0.5179
 2963SOL    HW118993   0.570   9.054   2.339  0.3707 -1.1559 -2.5004
 2963SOL    HW218994   0.453   8.943   2.365 -1.1522  0.9641 -0.0243
 2964SOL     OW18995   0.611   5.789   0.323 -0.0720  0.4868  0.3560
 2964SOL    HW118996   0.628   5.690   0.327  2.1048  0.8110 -0.3171
 2964SOL    HW218997   0.604   5.825   0.416 -1.1210 -0.3241  0.6074
 2965SOL     OW18998   0.392   2.124   1.202 -0.0079  0.2672  0.5272
 2965SOL    HW118999   0.470   2.153   1.147  0.2801 -0.9713  0.2814
 2965SOL    HW219000   0.398   2.165   1.294  0.5169  0.7821  0.2631
 2966SOL     OW19001   4.101   2.744   0.070  0.1949 -0.0334  0.0968
 2966SOL    HW119002   4.111   2.664   0.011  0.4726 -0.5109  0.7996
 2966SOL    HW219003   4.067   2.716   0.160  0.6553  0.5866  0.4683
 2967SOL     OW19004   2.193   1.714   2.089  0.3163 -0.0046 -0.4350
 2967SOL    HW119005   2.141   1.659   2.024  0.6958 -1.2851  0.3437
 2967SOL    HW219006   2.251   1.655   2.144  1.7111  1.2977 -0.4746
 2968SOL     OW19007   0.800   8.647   2.143 -0.1096 -0.5686  0.3492
 2968SOL    HW119008   0.748   8.571   2.182  1.4802 -2.5057 -1.2107
 2968SOL    HW219009   0.855   8.690   2.214 -0.4631 -1.3529  1.1071
 2969SOL     OW19010   3.920   5.250   2.763 -0.3206  0.4066 -0.7419
 2969SOL    HW119011   3.829   5.291   2.767 -0.7832 -0.5956 -0.8591
 2969SOL    HW219012   3.935   5.210   2.673 -0.1518 -0.3059 -0.3998
 2970SOL     OW19013   2.535   9.584   2.505  0.4904  0.1576 -0.4664
 2970SOL    HW119014   2.449   9.626   2.478  0.9797  2.4639  1.4315
 2970SOL    HW219015   2.517   9.494   2.545 -1.1633  1.1346  1.0430
 2971SOL     OW19016   4.196   0.545   2.096 -0.0604 -0.1826 -0.0603
 2971SOL    HW119017   4.122   0.586   2.043 -0.6534  0.3085  1.1269
 2971SOL    HW219018   4.281   0.595   2.081 -0.8182  1.6312  1.5253
 2972SOL     OW19019   3.300   1.135   2.647 -0.4938  0.3882 -0.4800
 2972SOL    HW119020   3.354   1.086   2.715  0.0084  1.3914 -0.1563
 2972SOL    HW219021   3.203   1.125   2.669 -0.3377  0.6463  0.3474
 2973SOL     OW19022   0.328   4.328   0.763  0.3520  0.4030  0.2284
 2973SOL    HW119023   0.247   4.324   0.703  0.1362  0.4247  0.5176
 2973SOL    HW219024   0.379   4.412   0.744  0.6308  0.1046 -0.3692
 2974SOL     OW19025   0.233   1.859   0.715 -0.4472  0.0370  0.2912
 2974SOL    HW119026   0.194   1.767   0.708 -0.0323  0.0336 -2.6336
 2974SOL    HW219027   0.333   1.853   0.719 -0.4599  0.3165  0.9866
 2975SOL     OW19028   1.457   0.248   1.092  0.1097  0.3113 -0.6438
 2975SOL    HW119029   1.446   0.152   1.115  0.5703  0.0567 -1.4559
 2975SOL    HW219030   1.388   0.302   1.140 -0.4723 -0.4818 -0.5783
 2976SOL     OW19031   1.170   7.407   0.396  0.4198  0.5957  0.3907
 2976SOL    HW119032   1.207   7.466   0.324 -0.4440  0.7314  0.0471
 2976SOL    HW219033   1.245   7.368   0.450  1.2181 -1.1460 -1.8784
 2977SOL     OW19034   8.906   3.993   2.188  0.4629 -0.2815  0.2564
 2977SOL    HW119035   8.989   3.940   2.167  0.6400 -0.1072  0.5109
 2977SOL    HW219036   8.888   3.987   2.286  0.7061  0.4533  0.3506
 2978SOL     OW19037   1.945   8.693   1.788  0.5388 -0.2405 -0.1965
 2978SOL    HW119038   1.914   8.604   1.754  2.2673 -0.5995 -0.9194
 2978SOL    HW219039   2.003   8.736   1.719  1.5861  0.4080  1.0704
 2979SOL     OW19040   1.851   1.173   2.173  0.1015  0.2964 -0.0108
 2979SOL    HW119041   1.919   1.242   2.198  0.5259 -0.6360  1.4627
 2979SOL    HW219042   1.783   1.167   2.245  0.5963 -1.5041  0.3121
 2980SOL     OW19043   0.774   9.399   2.120  0.1820  0.2341  0.2633
 2980SOL    HW119044   0.822   9.487   2.119  1.0263 -0.1837  2.4510
 2980SOL    HW219045   0.683   9.411   2.081  0.9660  1.6554 -1.2366
 2981SOL     OW19046   2.195   8.166   0.224 -0.0841  0.3042  0.8235
 2981SOL    HW119047   2.118   8.151   0.286 -1.2586  0.0018 -0.6824
 2981SOL    HW219048   2.207   8.264   0.208 -0.9865  0.2948  0.0471
 2982SOL     OW19049   2.790   4.903   0.916  0.1059  0.1303  0.4606
 2982SOL    HW119050   2.730   4.828   0.945 -1.1348  0.1493 -1.9973
 2982SOL    HW219051   2.808   4.896   0.818  1.1091  2.2586  0.4646
 2983SOL     OW19052   3.088   5.951   2.274 -0.5054  0.0600  0.0147
 2983SOL    HW119053   3.032   6.033   2.284 -0.2939  0.2873 -0.6250
 2983SOL    HW219054   3.179   5.968   2.311 -0.6645 -0.1038  0.4821
 2984SOL     OW19055   1.015   8.098   2.342 -0.1155  0.5184 -0.5987
 2984SOL    HW119056   1.038   8.006   2.311  0.3203  0.8243 -1.1835
 2984SOL    HW219057   1.018   8.162   2.265 -2.4403  0.6595 -0.5903
 2985SOL     OW19058   0.502   0.847   0.345  0.1080  0.5140  0.3404
 2985SOL    HW119059   0.460   0.922   0.294 -0.7474 -0.7661 -0.8786
 2985SOL    HW219060   0.598   0.838   0.316 -0.0497  0.5347 -0.2029
 2986SOL     OW19061   9.939   2.862   1.022 -0.0621 -0.3949  0.4912
 2986SOL    HW119062   9.928   2.957   1.051  1.7513 -0.0286  0.0620
 2986SOL    HW219063   9.887   2.802   1.083 -0.5194  0.7988  1.2865
 2987SOL     OW19064   4.779   1.949   1.367 -0.0277 -0.2654 -0.5963
 2987SOL    HW119065   4.769   1.903   1.279  0.6511  0.4488 -1.0560
 2987SOL    HW219066   4.804   2.045   1.351 -1.5185  0.2999  0.3302
 2988SOL     OW19067   1.796   6.291   0.719 -0.1610 -0.4002 -0.4942
 2988SOL    HW119068   1.865   6.361   0.703 -0.9031  0.3492 -0.4330
 2988SOL    HW219069   1.841   6.203   0.738  0.7791  0.2753  0.4125
 2989SOL     OW19070   2.157   7.771   0.915 -0.3246  0.2767  0.3101
 2989SOL    HW119071   2.135   7.678   0.944 -1.0178  0.2197 -0.3761
 2989SOL    HW219072   2.237   7.770   0.855 -1.4590 -0.1067 -1.2273
 2990SOL     OW19073   9.574   2.615   1.143 -0.1682  0.3583  0.0028
 2990SOL    HW119074   9.630   2.692   1.170  0.0072  0.5764 -0.9535
 2990SOL    HW219075   9.485   2.620   1.188  0.7977 -0.3382  2.0238
 2991SOL     OW19076   0.002   5.448   0.673  0.4168  0.5323 -0.4310
 2991SOL    HW119077   0.044   5.389   0.742  1.3282  0.2067 -1.2501
 2991SOL    HW219078  -0.074   5.498   0.714  0.4247 -0.2749  0.5940
 2992SOL     OW19079   9.086   3.452   2.231  0.1301 -0.3064  0.3475
 2992SOL    HW119080   8.990   3.469   2.252 -0.0503 -1.4360  0.4442
 2992SOL    HW219081   9.127   3.535   2.192 -1.6094 -0.6531 -2.3292
 2993SOL     OW19082   0.686   2.035   2.470  0.1383 -0.3602 -0.3785
 2993SOL    HW119083   0.595   2.024   2.508  0.2450 -0.2332 -0.0869
 2993SOL    HW219084   0.749   1.971   2.514  0.0727 -0.8410 -0.9779
 2994SOL     OW19085   3.916   8.852   1.152 -0.4465  0.0285 -0.0702
 2994SOL    HW119086   3.865   8.916   1.210 -0.8112 -0.7248  0.4458
 2994SOL    HW219087   3.905   8.878   1.056  0.0631  1.2159  0.1865
 2995SOL     OW19088   8.301   5.435   2.405  0.6467  0.0887 -0.4690
 2995SOL    HW119089   8.304   5.453   2.503 -0.9351 -2.1021  0.0296
 2995SOL    HW219090   8.344   5.346   2.386 -0.2988 -0.1506 -1.5725
 2996SOL     OW19091   1.387   7.170   1.451  0.1543  0.6254 -0.3620
 2996SOL    HW119092   1.330   7.100   1.407  1.5957 -0.0831 -1.1492
 2996SOL    HW219093   1.335   7.255   1.459 -1.8460 -0.7281  1.2446
 2997SOL     OW19094   3.395   8.418   2.157 -0.0347 -0.1085 -0.2725
 2997SOL    HW119095   3.392   8.332   2.208 -1.1150  0.0573 -0.0329
 2997SOL    HW219096   3.485   8.429   2.115  0.1770 -1.2609 -0.1467
 2998SOL     OW19097   1.470   8.568   1.019  0.2439  0.2339 -0.5688
 2998SOL    HW119098   1.568   8.566   0.999  1.0821 -2.2226  3.2785
 2998SOL    HW219099   1.450   8.651   1.072  0.2416  0.6165 -1.1533
 2999SOL     OW19100   1.549   8.074   0.335 -0.0227  0.5102  0.2541
 2999SOL    HW119101   1.557   8.160   0.285 -0.8749  0.7456  0.5218
 2999SOL    HW219102   1.491   8.087   0.416  0.1081 -0.2344  0.4739
 3000SOL     OW19103   3.774   0.159   2.739  0.4327  0.2232  0.3916
 3000SOL    HW119104   3.835   0.178   2.661  0.7825  0.4289  0.7129
 3000SOL    HW219105   3.804   0.076   2.785 -0.6930 -0.7437 -0.6071
 3001SOL     OW19106   2.152   0.133   0.882 -0.0831 -0.4086 -0.3718
 3001SOL    HW119107   2.248   0.107   0.879 -0.5400 -2.2777  0.4532
 3001SOL    HW219108   2.122   0.141   0.977 -0.9105 -0.5091 -0.6153
 3002SOL     OW19109   2.803   3.749   0.798 -0.3002 -0.4162  0.1991
 3002SOL    HW119110   2.860   3.668   0.781 -1.3461 -1.2758  0.7353
 3002SOL    HW219111   2.862   3.829   0.808  0.7925 -1.2054  0.2031
 3003SOL     OW19112   1.385   0.814   2.527  0.1853 -0.0105 -0.1050
 3003SOL    HW119113   1.338   0.861   2.602  0.3215  0.9603 -0.6280
 3003SOL    HW219114   1.471   0.775   2.561 -0.9859 -1.8031  0.8552
 3004SOL     OW19115   4.091   3.787   1.045 -0.6325 -0.2179  0.0465
 3004SOL    HW119116   4.040   3.777   0.959  1.7551 -0.4010 -1.3956
 3004SOL    HW219117   4.104   3.884   1.065 -0.8985 -0.1777  0.0311
 3005SOL     OW19118   0.095   6.745   1.951 -0.1462  0.3868  0.6724
 3005SOL    HW119119   0.004   6.718   1.921 -0.7968  2.5047  0.6646
 3005SOL    HW219120   0.152   6.663   1.962 -1.8227 -0.9036  0.0127
 3006SOL     OW19121   8.501   3.601   2.030 -0.2517  0.1251  0.4606
 3006SOL    HW119122   8.505   3.653   2.115 -1.5141 -0.1549  0.7152
 3006SOL    HW219123   8.422   3.631   1.976 -1.4450 -1.9583  0.9451
 3007SOL     OW19124   0.586   7.810   0.741 -0.1548 -0.2829 -0.1280
 3007SOL    HW119125   0.684   7.793   0.749 -0.3037 -0.6963  0.8922
 3007SOL    HW219126   0.564   7.897   0.786 -0.3349 -0.4686  0.1474
 3008SOL     OW19127   1.233   0.796   1.661 -0.5046  0.2171 -0.5804
 3008SOL    HW119128   1.327   0.830   1.661 -0.4322  0.1370  2.4714
 3008SOL    HW219129   1.233   0.699   1.687 -1.4867  0.4655  0.3812
 3009SOL     OW19130   8.785   2.917   2.152 -0.0266 -0.2421  1.1291
 3009SOL    HW119131   8.800   2.969   2.067 -1.7249 -1.3358  0.1223
 3009SOL    HW219132   8.760   2.980   2.225  2.4138  0.8301  1.0960
 3010SOL     OW19133   1.026   4.686   1.829 -0.1464  0.1765 -0.0770
 3010SOL    HW119134   0.952   4.726   1.776  1.2668  4.2743  0.9017
 3010SOL    HW219135   1.113   4.702   1.783  0.4340 -2.3091  0.0803
 3011SOL     OW19136   1.691   0.821   0.232  0.1298  0.0393 -0.0515
 3011SOL    HW119137   1.694   0.822   0.132  1.9426  1.1313 -0.0182
 3011SOL    HW219138   1.621   0.757   0.263  0.1468 -0.9663 -2.0110
 3012SOL     OW19139   3.376   1.102   1.039  0.0035 -0.0361 -0.1643
 3012SOL    HW119140   3.454   1.068   0.987  1.2244  0.3179  1.3934
 3012SOL    HW219141   3.292   1.061   1.004  0.9063 -0.6291 -1.6869
 3013SOL     OW19142   2.002   6.473   0.655 -0.5443  0.1615 -0.0528
 3013SOL    HW119143   2.059   6.516   0.585 -1.7853 -1.2217 -1.9394
 3013SOL    HW219144   2.047   6.482   0.744  0.3551  3.1980 -0.7655
 3014SOL     OW19145   2.720   4.488   1.201  0.3134  0.0399  0.2187
 3014SOL    HW119146   2.730   4.397   1.162  1.6215 -1.0634  3.0376
 3014SOL    HW219147   2.790   4.503   1.271 -0.1800  3.0344  0.1523
 3015SOL     OW19148   3.472   9.111   2.165 -0.4133  0.4815  0.0762
 3015SOL    HW119149   3.513   9.199   2.189 -1.7437  0.3735  3.0155
 3015SOL    HW219150   3.495   9.088   2.071  0.0772  3.8885 -0.6977
 3016SOL     OW19151   1.516   7.913   2.668 -0.2688 -0.2244 -0.1245
 3016SOL    HW119152   1.578   7.865   2.606  0.4029 -0.1416  0.4699
 3016SOL    HW219153   1.528   7.877   2.761 -1.5147 -0.5867 -0.0965
 3017SOL     OW19154   9.662   7.904   2.534  0.3514  0.5101 -0.1169
 3017SOL    HW119155   9.675   7.809   2.504  0.1044 -0.1279  1.7089
 3017SOL    HW219156   9.591   7.907   2.605  0.4728  2.0525 -0.0368
 3018SOL     OW19157   4.792   3.881   1.916 -0.8436 -0.2250 -0.0223
 3018SOL    HW119158   4.837   3.953   1.967 -1.3266  0.3918 -0.4533
 3018SOL    HW219159   4.714   3.846   1.968  0.2123 -1.4180  0.8044
 3019SOL     OW19160   9.560   5.922   2.068 -0.3274  0.3291 -0.0177
 3019SOL    HW119161   9.494   5.992   2.040 -1.4234 -0.5896  0.2253
 3019SOL    HW219162   9.576   5.930   2.166 -0.5438  0.1591  0.0308
 3020SOL     OW19163   3.799   4.651   0.592 -0.9689 -0.6699  0.3167
 3020SOL    HW119164   3.828   4.557   0.574 -1.2867 -0.9285  1.1633
 3020SOL    HW219165   3.873   4.701   0.638 -0.3493 -0.1566 -1.2072
 3021SOL     OW19166   0.958   5.446   0.815  0.2357 -0.6027  0.0822
 3021SOL    HW119167   1.048   5.489   0.812 -0.7723  1.5474 -0.9680
 3021SOL    HW219168   0.957   5.374   0.885  2.3583  0.2787  1.0650
 3022SOL     OW19169   9.327   2.275   0.612  0.0994 -0.4444  0.0897
 3022SOL    HW119170   9.294   2.280   0.706 -0.4884 -1.5410 -0.0494
 3022SOL    HW219171   9.422   2.242   0.612  0.8918  1.7131  0.4198
 3023SOL     OW19172   4.128   0.364   0.653  0.2117  0.2317  0.2754
 3023SOL    HW119173   4.161   0.438   0.594 -2.0300  0.6448 -0.4860
 3023SOL    HW219174   4.132   0.394   0.749  1.9865  0.2732  0.2132
 3024SOL     OW19175   2.026   5.314   0.052  0.0964  0.1468  0.1573
 3024SOL    HW119176   1.952   5.297   0.117 -1.0641 -0.8202 -1.3810
 3024SOL    HW219177   2.024   5.245  -0.020  0.9397  1.5525 -1.2571
 3025SOL     OW19178   4.084   4.319   2.132  0.4587 -0.3358  0.3439
 3025SOL    HW119179   3.989   4.348   2.121  0.2125 -1.0894  0.4012
 3025SOL    HW219180   4.106   4.253   2.060  1.6009  1.4426 -0.9746
 3026SOL     OW19181   8.468   7.409   2.771  0.0985  0.2696 -0.3246
 3026SOL    HW119182   8.374   7.421   2.738  0.0254 -0.5444 -0.4326
 3026SOL    HW219183   8.524   7.487   2.743 -0.2279  0.1159 -1.4334
 3027SOL     OW19184   0.046   8.226   1.125  0.2112  0.1147  0.1440
 3027SOL    HW119185   0.058   8.132   1.093  0.8359  0.1331  0.3226
 3027SOL    HW219186  -0.017   8.227   1.203 -0.4869 -0.0474 -0.4068
 3028SOL     OW19187   1.926   3.980   0.204  0.3750  0.3544 -0.0796
 3028SOL    HW119188   1.956   4.060   0.153 -0.0851 -0.0253 -0.9507
 3028SOL    HW219189   2.006   3.930   0.238  0.6542  1.5221  1.0092
 3029SOL     OW19190   1.291   1.310   0.886  0.3102 -0.2611  0.1477
 3029SOL    HW119191   1.260   1.296   0.980  0.1616  0.8969  0.2798
 3029SOL    HW219192   1.391   1.321   0.884  0.5943 -2.6341 -0.1194
 3030SOL     OW19193   3.916   3.765   0.814  0.0310 -0.2464  0.2908
 3030SOL    HW119194   3.817   3.759   0.812  0.0691 -1.6378  1.6624
 3030SOL    HW219195   3.950   3.801   0.727 -1.5674 -1.1724 -0.7257
 3031SOL     OW19196   2.692   4.212   2.794  0.0738  0.1438 -0.3658
 3031SOL    HW119197   2.623   4.161   2.742  0.8837 -1.1244 -0.2233
 3031SOL    HW219198   2.684   4.309   2.773 -0.1065 -0.2527 -2.3106
 3032SOL     OW19199   9.621   8.687   0.788 -0.0649 -0.2468 -0.2463
 3032SOL    HW119200   9.613   8.785   0.811 -1.5093  0.2216 -2.6134
 3032SOL    HW219201   9.542   8.638   0.826  0.8888 -0.5883  1.3249
 3033SOL     OW19202   8.358   3.446   0.744 -0.0387  0.0346 -0.1958
 3033SOL    HW119203   8.435   3.503   0.772  0.1568 -0.0572 -0.5472
 3033SOL    HW219204   8.391   3.370   0.689  0.1167 -2.3112  2.9807
 3034SOL     OW19205   0.211   6.576   1.214 -0.8421 -0.5130 -0.1450
 3034SOL    HW119206   0.247   6.577   1.121  0.7822 -1.3699  0.4654
 3034SOL    HW219207   0.163   6.663   1.232 -1.4086 -0.4540 -1.8506
 3035SOL     OW19208   3.538   4.751   1.208  0.0193 -0.5093 -0.0671
 3035SOL    HW119209   3.621   4.697   1.222 -0.1853 -0.6957  0.4217
 3035SOL    HW219210   3.560   4.848   1.223 -0.0356 -0.6379  0.8578
 3036SOL     OW19211   3.781   0.427   1.899 -0.2942 -0.0805 -0.5274
 3036SOL    HW119212   3.814   0.382   1.982 -0.5696  0.3540 -0.1796
 3036SOL    HW219213   3.686   0.400   1.882 -0.7527  1.0595  0.1818
 3037SOL     OW19214   1.074   2.840   2.575 -0.1091 -0.6192 -0.7217
 3037SOL    HW119215   1.154   2.839   2.636 -0.2349 -0.2802 -0.5469
 3037SOL    HW219216   1.007   2.906   2.610  0.4066  0.5842 -1.9810
 3038SOL     OW19217   0.833   8.152   1.031  0.2224 -0.5475 -0.0306
 3038SOL    HW119218   0.747   8.107   1.056  0.1122 -0.5067 -0.3357
 3038SOL    HW219219   0.850   8.139   0.934  0.0540  0.3013 -0.1728
 3039SOL     OW19220   3.459   4.882   0.705 -0.2308  0.0681 -0.6219
 3039SOL    HW119221   3.499   4.792   0.720  2.0537  1.0052 -0.8568
 3039SOL    HW219222   3.447   4.929   0.793 -2.5327 -0.8962 -0.3941
 3040SOL     OW19223   1.676   3.254   2.497 -0.1574  0.4013  0.3667
 3040SOL    HW119224   1.745   3.213   2.556 -1.2884  0.2746  1.6341
 3040SOL    HW219225   1.720   3.312   2.429  1.0564  1.9293  2.4116
 3041SOL     OW19226   3.044   6.049   1.410 -0.2909 -0.7923  0.2896
 3041SOL    HW119227   3.138   6.025   1.435 -0.1498  1.4461  2.0713
 3041SOL    HW219228   2.982   5.976   1.441  0.5584 -0.9430  1.6929
 3042SOL     OW19229   1.718   1.506   0.402 -0.5144 -0.1812  0.6267
 3042SOL    HW119230   1.712   1.458   0.315  0.8117 -1.5176  1.2608
 3042SOL    HW219231   1.690   1.445   0.476  2.3296 -0.4257  1.5650
 3043SOL     OW19232   0.145   5.189   2.253  0.6016 -0.4962 -0.5858
 3043SOL    HW119233   0.209   5.265   2.242  2.6279 -2.3207 -1.8039
 3043SOL    HW219234   0.128   5.172   2.350  1.0429  0.7581 -0.2942
 3044SOL     OW19235   9.432   2.349   0.064 -0.2752  0.7411  0.0106
 3044SOL    HW119236   9.498   2.369   0.136  0.4620 -0.7931 -0.2150
 3044SOL    HW219237   9.437   2.252   0.041 -1.9525  0.8081 -0.6756
 3045SOL     OW19238   9.390   3.938   2.538  0.1054 -0.8287  0.7808
 3045SOL    HW119239   9.455   3.895   2.476 -0.9897 -0.7308 -0.4578
 3045SOL    HW219240   9.427   4.025   2.570  0.7573 -0.9651  0.4074
 3046SOL     OW19241   0.972   2.771   2.046  0.1457 -0.4092  0.1419
 3046SOL    HW119242   1.032   2.807   2.118 -1.3160  0.6362  0.8784
 3046SOL    HW219243   0.877   2.776   2.077 -0.5045  0.0418 -1.8511
 3047SOL     OW19244   8.503   6.223   0.291 -0.2156  0.2930  0.0876
 3047SOL    HW119245   8.534   6.234   0.196  0.1713  0.5501  0.2450
 3047SOL    HW219246   8.579   6.238   0.353 -0.1246 -1.3094  0.3903
 3048SOL     OW19247   3.210   9.643   1.233 -0.3978  0.3331 -0.3091
 3048SOL    HW119248   3.142   9.695   1.286 -0.5505 -0.3017  0.1311
 3048SOL    HW219249   3.183   9.642   1.137 -0.2619  1.2744 -0.3583
 3049SOL     OW19250   0.316   1.629   1.431  0.0299  0.1256  0.3296
 3049SOL    HW119251   0.279   1.606   1.521  1.0226 -0.9560  0.4689
 3049SOL    HW219252   0.307   1.551   1.370 -1.9840  1.3258 -0.9708
 3050SOL     OW19253   0.210   8.416   1.634  0.5167  0.5484  0.2936
 3050SOL    HW119254   0.278   8.487   1.653  2.9316 -1.3302 -1.1037
 3050SOL    HW219255   0.177   8.425   1.540 -1.1924  1.4067  0.9378
 3051SOL     OW19256   9.479   4.858   2.594  0.1473 -0.4732  0.2746
 3051SOL    HW119257   9.525   4.814   2.672  0.9860  0.0515  0.0865
 3051SOL    HW219258   9.533   4.938   2.565  0.3610 -1.2301 -1.4729
 3052SOL     OW19259   8.134   3.045   1.530 -0.7287  0.3372 -0.2234
 3052SOL    HW119260   8.069   3.058   1.605  0.8109  0.2024  1.1670
 3052SOL    HW219261   8.202   3.118   1.531  1.1017 -1.3256  0.4188
 3053SOL     OW19262   0.336   7.526   2.110 -0.3145 -0.5713 -0.2928
 3053SOL    HW119263   0.240   7.517   2.082 -0.0963 -1.3129 -0.7937
 3053SOL    HW219264   0.362   7.447   2.165 -0.2457  0.0631  0.6042
 3054SOL     OW19265   1.572   0.579   0.299  0.4644  0.0819  0.5846
 3054SOL    HW119266   1.618   0.522   0.367 -0.3872 -1.9195 -0.4803
 3054SOL    HW219267   1.479   0.544   0.284  0.1740  1.3497 -0.5860
 3055SOL     OW19268   3.584   1.082   1.301 -0.8129  0.8077 -0.2851
 3055SOL    HW119269   3.582   1.059   1.203  0.8014  0.9917 -0.3832
 3055SOL    HW219270   3.497   1.121   1.328 -1.1436  1.1197 -1.7476
 3056SOL     OW19271   2.566   5.373   1.103 -0.4525  0.1185 -0.3056
 3056SOL    HW119272   2.559   5.273   1.104 -0.5768  0.1163 -0.9935
 3056SOL    HW219273   2.656   5.401   1.133  0.2887 -0.2850 -2.0718
 3057SOL     OW19274   1.460   0.936   2.291  0.0381  0.3875  0.2285
 3057SOL    HW119275   1.451   0.900   2.384  0.7467  0.5778  0.3668
 3057SOL    HW219276   1.378   0.989   2.269 -0.4730 -0.2913  0.4647
 3058SOL     OW19277   9.525   7.901   0.427 -0.1153 -0.0093 -0.8906
 3058SOL    HW119278   9.529   7.806   0.455 -1.1226  0.3933  0.7003
 3058SOL    HW219279   9.484   7.907   0.336 -0.1056 -1.0835 -0.9727
 3059SOL     OW19280   0.207   7.906   2.347  0.2089  0.0614  0.0598
 3059SOL    HW119281   0.146   7.943   2.278  0.1474  1.8332  1.0245
 3059SOL    HW219282   0.290   7.963   2.352  1.9708 -2.2880 -1.2288
 3060SOL     OW19283   2.783   0.209   0.340 -0.2463 -0.1117  0.7624
 3060SOL    HW119284   2.810   0.299   0.307  0.7253  0.1262  2.1461
 3060SOL    HW219285   2.812   0.199   0.435 -1.9858 -1.1935  1.1904
 3061SOL     OW19286   2.562   6.364   2.351  0.6162 -0.1476 -0.0263
 3061SOL    HW119287   2.572   6.264   2.352  1.4353 -0.0692  1.4079
 3061SOL    HW219288   2.481   6.389   2.298  1.1449 -1.4970 -1.5202
 3062SOL     OW19289   3.627   2.821   1.439  0.3405  0.1062  0.2634
 3062SOL    HW119290   3.549   2.762   1.417  0.4632 -0.0328  0.1990
 3062SOL    HW219291   3.712   2.768   1.431  0.3337 -0.1694  1.8930
 3063SOL     OW19292   1.382   3.385   0.373 -0.0534 -0.7661  0.5639
 3063SOL    HW119293   1.349   3.415   0.284  0.3947  1.4169  1.1098
 3063SOL    HW219294   1.456   3.445   0.403  0.5412 -2.1447  1.9227
 3064SOL     OW19295   0.731   5.796   2.834  0.4532  0.3211 -0.2373
 3064SOL    HW119296   0.655   5.809   2.770  2.9531 -1.0351 -3.6520
 3064SOL    HW219297   0.711   5.718   2.894 -1.1889  0.4737 -0.5681
 3065SOL     OW19298   4.058   3.600   2.323 -0.4514 -0.3442  0.0811
 3065SOL    HW119299   4.085   3.541   2.247  2.1721  0.7082  0.1243
 3065SOL    HW219300   4.039   3.692   2.288  1.5481  0.3495  0.7653
 3066SOL     OW19301   1.797   0.886   0.608  0.0774 -0.1791  0.0991
 3066SOL    HW119302   1.769   0.792   0.626 -0.0584 -0.0479  0.5980
 3066SOL    HW219303   1.765   0.945   0.683 -1.9554  0.6662 -1.3529
 3067SOL     OW19304   1.136   0.432   2.221 -0.3707  0.0217  0.0994
 3067SOL    HW119305   1.211   0.458   2.282 -0.7234 -0.2446  0.6524
 3067SOL    HW219306   1.173   0.384   2.142 -0.0243 -0.9432  0.8282
 3068SOL     OW19307   2.897   2.637   0.464  0.0768  0.0984 -0.1599
 3068SOL    HW119308   2.801   2.641   0.436 -0.1726  1.7381  0.8667
 3068SOL    HW219309   2.955   2.668   0.389 -0.3314  1.0024 -0.1025
 3069SOL     OW19310   0.646   0.853   2.519  0.0840  0.1463 -0.2565
 3069SOL    HW119311   0.553   0.889   2.524 -0.4749 -1.1118 -1.3342
 3069SOL    HW219312   0.663   0.816   2.428  2.5019  2.6037 -0.8452
 3070SOL     OW19313   0.864   0.443   1.478 -0.0168  0.5303 -0.2973
 3070SOL    HW119314   0.936   0.434   1.547 -2.1943 -0.2295  1.9043
 3070SOL    HW219315   0.902   0.419   1.388  2.5037  0.2381  0.8017
 3071SOL     OW19316   9.530   3.330   2.282  0.5277  0.1697 -0.1055
 3071SOL    HW119317   9.542   3.381   2.198  0.9564 -0.8658 -0.6798
 3071SOL    HW219318   9.617   3.325   2.331 -0.0062  1.8808  1.0495
 3072SOL     OW19319   2.517   3.369   2.384 -0.1703  0.0841  0.5687
 3072SOL    HW119320   2.424   3.342   2.357  0.3139 -0.2162 -0.8286
 3072SOL    HW219321   2.567   3.287   2.414 -0.2381  0.1897  0.9723
 3073SOL     OW19322   9.713   6.826   1.428 -0.2805 -0.0686  0.3750
 3073SOL    HW119323   9.660   6.859   1.350  0.5520  0.5318  0.0563
 3073SOL    HW219324   9.726   6.727   1.420  0.8303  0.1764 -0.8712
 3074SOL     OW19325   0.836   5.134   0.497  0.3581 -0.3584  0.6879
 3074SOL    HW119326   0.785   5.219   0.486  0.4484 -0.1758  1.6448
 3074SOL    HW219327   0.898   5.122   0.419  0.9971  0.9109  0.9774
 3075SOL     OW19328   0.740   0.685   1.317  0.1248 -0.1286 -0.4736
 3075SOL    HW119329   0.794   0.665   1.235  1.6049  0.0511  0.4407
 3075SOL    HW219330   0.773   0.629   1.392 -1.6237 -0.7292 -0.1331
 3076SOL     OW19331   1.065   4.025   1.353  0.0594 -0.5118 -0.4447
 3076SOL    HW119332   1.076   3.938   1.400 -0.6929 -0.0634  0.5831
 3076SOL    HW219333   1.017   4.011   1.266  1.1057 -1.2877 -0.9071
 3077SOL     OW19334   3.725   3.623   1.145 -0.3969  0.0505 -0.1007
 3077SOL    HW119335   3.699   3.596   1.238 -0.8353  0.6476 -0.0484
 3077SOL    HW219336   3.644   3.651   1.094  0.0579  1.3689 -0.1184
 3078SOL     OW19337   4.245   9.657   2.939 -0.3456  0.1344  0.2975
 3078SOL    HW119338   4.182   9.734   2.948  1.2952  1.6631 -0.6550
 3078SOL    HW219339   4.231   9.612   2.851 -0.7422 -0.1006  0.4851
 3079SOL     OW19340   8.663   6.334   0.783 -0.3989  0.4687  0.4499
 3079SOL    HW119341   8.738   6.381   0.829 -0.0643  0.3952 -0.0072
 3079SOL    HW219342   8.637   6.385   0.701  2.5909 -2.0989 -2.2335
 3080SOL     OW19343   3.288   0.023   0.566  0.2351 -0.1464 -0.0327
 3080SOL    HW119344   3.367   0.029   0.505  0.8187  0.7826  0.8049
 3080SOL    HW219345   3.243  -0.065   0.554  2.6093 -1.5266  0.9598
 3081SOL     OW19346   2.775   9.943   2.376  0.2563  0.6431  0.0561
 3081SOL    HW119347   2.714   9.967   2.301  0.8217  0.3370 -0.5107
 3081SOL    HW219348   2.741   9.862   2.423 -1.1378  1.9311  1.3642
 3082SOL     OW19349   3.329   5.583   2.224  0.3817  0.2894  0.5502
 3082SOL    HW119350   3.287   5.580   2.315 -1.1799 -0.0528 -0.1650
 3082SOL    HW219351   3.296   5.664   2.174 -0.1463 -0.4674 -0.3483
 3083SOL     OW19352   2.153   3.856   0.241 -0.1869 -0.6249  0.2958
 3083SOL    HW119353   2.185   3.826   0.331  0.1655  1.3535  0.8559
 3083SOL    HW219354   2.220   3.920   0.202  0.9743 -3.4278 -2.5422
 3084SOL     OW19355   9.857   7.253   0.096  0.1854  0.2470  0.0105
 3084SOL    HW119356   9.872   7.202   0.181  1.1959 -0.7329 -0.7379
 3084SOL    HW219357   9.934   7.315   0.081  0.0215  0.4009 -0.1941
 3085SOL     OW19358   8.588   5.840   1.107 -0.2241  0.0735  0.2829
 3085SOL    HW119359   8.588   5.835   1.007  2.3878 -0.3612  0.2490
 3085SOL    HW219360   8.530   5.915   1.137 -1.9285 -0.4974 -1.5100
 3086SOL     OW19361   4.112   1.398   1.807 -0.0169 -0.4881 -0.2497
 3086SOL    HW119362   4.096   1.472   1.873  1.1841 -0.7232  0.3218
 3086SOL    HW219363   4.028   1.344   1.797 -0.9935  1.0984 -0.8698
 3087SOL     OW19364   1.937   3.559   2.434  0.1927 -0.5249  0.3387
 3087SOL    HW119365   1.871   3.614   2.486  0.0179 -1.1708  0.8097
 3087SOL    HW219366   1.888   3.502   2.369  0.1785 -1.9667  1.5924
 3088SOL     OW19367   1.677   4.245   0.750 -0.2348  0.1101 -0.3542
 3088SOL    HW119368   1.747   4.275   0.815 -0.1817 -1.1819  0.2087
 3088SOL    HW219369   1.609   4.317   0.738 -1.1263 -0.2108  2.3990
 3089SOL     OW19370   8.890   4.099   1.866 -0.0519  0.0381 -0.8981
 3089SOL    HW119371   8.861   4.004   1.864 -1.0602  0.3434 -2.0733
 3089SOL    HW219372   8.916   4.125   1.959 -2.2803 -0.6523 -0.0571
 3090SOL     OW19373   1.489   4.616   1.107  0.2739 -0.1737  0.0050
 3090SOL    HW119374   1.411   4.631   1.046 -1.2681 -0.0383  1.9825
 3090SOL    HW219375   1.570   4.663   1.069 -1.0839  1.3907 -1.0343
 3091SOL     OW19376   8.931   6.813   2.709  0.6669  0.2462 -0.5605
 3091SOL    HW119377   8.967   6.858   2.627 -0.5951  2.0499 -0.1765
 3091SOL    HW219378   8.838   6.846   2.725  1.0519  0.2202  1.8231
 3092SOL     OW19379   2.378   7.588   0.418  0.2031  0.5061 -0.4757
 3092SOL    HW119380   2.348   7.613   0.327 -0.3286 -0.1494 -0.4838
 3092SOL    HW219381   2.466   7.539   0.412 -0.3518 -0.4769 -0.7329
 3093SOL     OW19382   2.651   9.087   1.668  0.1550 -0.0210 -0.0299
 3093SOL    HW119383   2.664   9.162   1.602 -0.1599  0.5923  0.5948
 3093SOL    HW219384   2.553   9.069   1.679  0.2196 -0.3300  0.0399
 3094SOL     OW19385   9.908   5.809   2.003  0.3597  0.1703  0.1217
 3094SOL    HW119386   9.992   5.838   2.049  1.0856 -0.3639 -0.8350
 3094SOL    HW219387   9.926   5.801   1.905 -1.5785  2.8695 -0.5179
 3095SOL     OW19388   1.190   9.743   1.048  0.5400 -0.4993 -0.6005
 3095SOL    HW119389   1.095   9.725   1.075  0.6868 -0.7543 -0.2568
 3095SOL    HW219390   1.212   9.687   0.967  1.1993 -2.3912  0.8602
 3096SOL     OW19391   0.276   1.976   2.767  0.5092 -0.1004  0.4867
 3096SOL    HW119392   0.331   1.982   2.684 -0.3593  1.5794  0.0260
 3096SOL    HW219393   0.195   1.920   2.749  0.2391  0.3953  0.1516
 3097SOL     OW19394   3.248   2.673   1.745 -0.3380  0.5366 -0.0188
 3097SOL    HW119395   3.204   2.727   1.817 -0.4492  0.4543 -0.0245
 3097SOL    HW219396   3.302   2.600   1.788  2.0142  2.2708  0.1095
 3098SOL     OW19397   1.058   3.865   2.125  0.5606  0.2543  0.2431
 3098SOL    HW119398   1.078   3.849   2.222 -2.3446  0.9606  0.9887
 3098SOL    HW219399   1.022   3.781   2.084  3.1270 -0.4779 -0.6517
 3099SOL     OW19400   2.702   6.723   2.147 -0.5141 -0.5199  0.2404
 3099SOL    HW119401   2.679   6.728   2.050 -0.2065 -0.9922  0.1389
 3099SOL    HW219402   2.687   6.812   2.190 -0.2004 -0.1818 -0.3424
 3100SOL     OW19403   0.221   3.550   0.164 -0.4493 -0.1971 -0.0796
 3100SOL    HW119404   0.278   3.500   0.230 -0.6259  0.8180  0.8547
 3100SOL    HW219405   0.126   3.548   0.195  0.0925  4.3013  2.2906
 3101SOL     OW19406   9.698   5.998   2.353 -0.7243  0.1579  0.1808
 3101SOL    HW119407   9.657   6.068   2.412  1.8978  2.5558 -0.7386
 3101SOL    HW219408   9.764   5.945   2.406 -1.5352 -0.5833  0.4652
 3102SOL     OW19409   3.148   6.214   2.492  0.6512 -0.6555  0.6077
 3102SOL    HW119410   3.104   6.303   2.505  0.1150 -1.2188  2.7188
 3102SOL    HW219411   3.120   6.176   2.403 -0.7216  0.3589  0.5974
 3103SOL     OW19412   1.618   0.765   2.916  0.1737  0.6391  0.3708
 3103SOL    HW119413   1.658   0.700   2.852  0.1020 -1.8270  2.7632
 3103SOL    HW219414   1.520   0.748   2.925  0.2870  0.5396  1.5917
 3104SOL     OW19415   3.043   1.075   2.708  0.0727  0.3632 -0.8522
 3104SOL    HW119416   2.975   1.052   2.638  0.4867 -1.2506 -0.7435
 3104SOL    HW219417   3.038   1.008   2.782 -1.1278  2.6946  1.2322
 3105SOL     OW19418   1.028   8.302   2.106  0.0038 -0.1161 -0.3140
 3105SOL    HW119419   1.101   8.327   2.042  2.0051 -3.7855  0.3884
 3105SOL    HW219420   0.945   8.279   2.054  0.8806 -0.7797 -1.4485
 3106SOL     OW19421   9.966   7.594   1.124  0.3177 -0.3525  1.1365
 3106SOL    HW119422  10.065   7.594   1.115  0.4002  0.1602  2.0858
 3106SOL    HW219423   9.929   7.512   1.080  1.2114 -0.9184  1.4415
 3107SOL     OW19424   2.026   9.943   2.058  0.4580  0.4505 -0.3707
 3107SOL    HW119425   2.053  10.026   2.009 -0.6132  0.6334 -0.6762
 3107SOL    HW219426   2.084   9.867   2.029  1.2839  1.0324 -0.2718
 3108SOL     OW19427   0.802   0.028   2.753  0.0199  0.1046 -0.2976
 3108SOL    HW119428   0.725   0.092   2.752  0.7431  0.9736 -0.9947
 3108SOL    HW219429   0.888   0.078   2.743  0.9607 -0.5149  3.9599
 3109SOL     OW19430   4.919   3.234   0.621 -0.0476  0.2198 -0.5152
 3109SOL    HW119431   5.006   3.234   0.571  0.1099 -1.0791 -0.2579
 3109SOL    HW219432   4.932   3.279   0.710  0.3561  0.0456 -0.4841
 3110SOL     OW19433   8.659   7.131   0.740  0.1461 -0.3103  0.6162
 3110SOL    HW119434   8.583   7.138   0.805 -0.9239 -0.7531 -0.5659
 3110SOL    HW219435   8.743   7.166   0.782 -0.9162  1.1060  1.5997
 3111SOL     OW19436   9.225   6.887   2.188  0.0846 -0.2970  0.1348
 3111SOL    HW119437   9.137   6.895   2.140  0.7361  1.8981 -0.7873
 3111SOL    HW219438   9.293   6.848   2.127  0.8167  2.1305 -0.6774
 3112SOL     OW19439   0.388   0.905   2.502  0.2899  0.0799  0.5763
 3112SOL    HW119440   0.301   0.919   2.455 -0.6984 -1.6173  1.8645
 3112SOL    HW219441   0.426   0.816   2.477  0.5856 -0.1086  1.6760
 3113SOL     OW19442   4.073   4.379   0.310 -0.3833  0.4609 -0.7146
 3113SOL    HW119443   4.040   4.289   0.282  2.8898 -1.1423  0.3567
 3113SOL    HW219444   4.062   4.389   0.409 -1.6534  1.6684 -0.9639
 3114SOL     OW19445   2.490   2.093   0.759 -0.2402 -0.4427  0.5847
 3114SOL    HW119446   2.452   2.170   0.707  1.1933 -0.3499 -0.3352
 3114SOL    HW219447   2.480   2.112   0.857 -2.3205 -0.3105  0.3785
 3115SOL     OW19448   3.718   9.278   0.281 -0.3372  0.3235  0.4784
 3115SOL    HW119449   3.663   9.310   0.204 -0.1107 -2.3759 -0.8874
 3115SOL    HW219450   3.812   9.262   0.249  0.0055  0.1380  1.5723
 3116SOL     OW19451   2.721   4.940   0.659 -0.3331  0.1920 -0.1319
 3116SOL    HW119452   2.749   4.919   0.565  0.5915  1.8786 -0.2578
 3116SOL    HW219453   2.630   4.980   0.659  0.4831  2.0942 -0.5372
 3117SOL     OW19454   3.275   4.757   1.300 -0.0681 -0.9601  0.2156
 3117SOL    HW119455   3.373   4.762   1.283 -0.0001 -0.9478  0.6132
 3117SOL    HW219456   3.249   4.827   1.367 -0.5326 -0.2009 -0.7374
 3118SOL     OW19457   8.081   6.153   1.162 -0.3921 -0.0830  0.2388
 3118SOL    HW119458   8.148   6.148   1.236  1.4403  0.4870 -1.3541
 3118SOL    HW219459   8.011   6.082   1.176  0.0363 -0.1217  2.3785
 3119SOL     OW19460   0.827   2.179   2.081 -0.2375 -0.0646  0.0531
 3119SOL    HW119461   0.761   2.180   2.006  0.0823  0.1724 -0.2324
 3119SOL    HW219462   0.788   2.222   2.161 -0.9106 -1.1250  0.3095
 3120SOL     OW19463   0.001   9.293   2.268  0.4861 -0.4502  0.3032
 3120SOL    HW119464  -0.076   9.230   2.267  1.0413 -1.1404  0.7066
 3120SOL    HW219465   0.050   9.287   2.181  1.0970 -1.2756  0.6993
 3121SOL     OW19466   9.101   6.450   1.334 -0.0737  0.1340 -0.1389
 3121SOL    HW119467   9.168   6.513   1.372  0.0159  0.7986 -1.3986
 3121SOL    HW219468   9.148   6.378   1.283 -0.2814  0.1870 -0.4044
 3122SOL     OW19469   9.883   6.501   2.806 -0.4144 -0.3453 -0.0595
 3122SOL    HW119470   9.874   6.547   2.718 -0.8488  0.8714  0.6082
 3122SOL    HW219471   9.954   6.547   2.860 -0.7797 -0.5364  0.5835
 3123SOL     OW19472   4.737   2.276   1.632 -0.3779 -0.7366 -0.0366
 3123SOL    HW119473   4.648   2.258   1.675 -0.4642 -1.5636 -0.5444
 3123SOL    HW219474   4.807   2.224   1.680 -0.4779 -1.6794 -0.9078
 3124SOL     OW19475   9.847   6.688   1.127 -0.0643 -0.1242  0.4415
 3124SOL    HW119476   9.862   6.770   1.071 -0.4185  0.1712  0.7764
 3124SOL    HW219477   9.759   6.647   1.101  0.0867 -0.3698  0.3140
 3125SOL     OW19478   9.781   9.581   2.553  0.0951  0.2627 -0.4192
 3125SOL    HW119479   9.740   9.509   2.608  0.7854 -0.0782 -0.3366
 3125SOL    HW219480   9.758   9.671   2.591 -0.2370  0.0632 -0.1546
 3126SOL     OW19481   1.150   4.898   1.244  0.2026  0.3037  0.1957
 3126SOL    HW119482   1.248   4.907   1.230  0.2984 -0.3008  0.4907
 3126SOL    HW219483   1.120   4.807   1.217 -0.0771  0.0835  1.2014
 3127SOL     OW19484   3.486   2.274   0.146 -0.1774 -0.0580 -0.2951
 3127SOL    HW119485   3.582   2.281   0.173 -0.3762  0.1088  0.3971
 3127SOL    HW219486   3.449   2.187   0.178 -0.4124  0.1341 -0.0380
 3128SOL     OW19487   1.667   1.116   2.365 -0.1284  0.1141 -0.0574
 3128SOL    HW119488   1.582   1.093   2.318 -0.1409  0.1436 -0.0491
 3128SOL    HW219489   1.646   1.164   2.450 -0.1105 -0.0437  0.0365
 3129SOL     OW19490   0.181   9.743   0.389  0.1787  0.2593  0.3216
 3129SOL    HW119491   0.115   9.724   0.461  0.1732  0.7852  0.4519
 3129SOL    HW219492   0.226   9.830   0.406  0.3570  0.2690 -0.1765
 3130SOL     OW19493   2.099   3.292   1.998 -0.1038  0.6502  0.0950
 3130SOL    HW119494   2.081   3.327   1.906 -3.1667 -1.1052 -0.0358
 3130SOL    HW219495   2.037   3.334   2.063 -1.2200 -1.5830  0.5460
 3131SOL     OW19496   0.231   6.099   1.408 -0.1371  0.7532 -0.4134
 3131SOL    HW119497   0.138   6.068   1.387  0.2978 -0.5878 -0.4164
 3131SOL    HW219498   0.235   6.199   1.402 -1.7477  0.8752  0.2883
 3132SOL     OW19499   2.077   8.884   1.574 -0.3232 -0.1397 -0.7619
 3132SOL    HW119500   2.087   8.801   1.519 -1.4077 -0.4577 -0.4949
 3132SOL    HW219501   2.164   8.934   1.575 -0.3146 -0.0435 -2.8858
 3133SOL     OW19502   9.252   5.676   1.817 -0.2261 -0.4987  0.2764
 3133SOL    HW119503   9.190   5.720   1.751  1.1420 -0.0850 -0.7504
 3133SOL    HW219504   9.283   5.589   1.780 -0.3748 -0.8185  0.9001
 3134SOL     OW19505   0.554   6.921   2.531  0.1383 -0.4933 -0.2423
 3134SOL    HW119506   0.490   6.996   2.514  0.9658  0.3073  0.1502
 3134SOL    HW219507   0.537   6.882   2.621 -0.1498 -0.6296 -0.3563
 3135SOL     OW19508   0.212   3.889   0.764  0.4112  0.2204 -0.2768
 3135SOL    HW119509   0.174   3.930   0.847 -0.0947  0.0390 -0.4140
 3135SOL    HW219510   0.243   3.796   0.785 -0.5908 -0.1759 -0.5039
 3136SOL     OW19511   2.503   3.083   2.935  0.2013  0.0226  0.0330
 3136SOL    HW119512   2.468   2.989   2.932 -1.6087  0.7016 -1.0321
 3136SOL    HW219513   2.527   3.107   3.029  1.8996 -1.9080  0.1504
 3137SOL     OW19514   1.804   4.173   1.542 -0.2290  0.2770 -0.3097
 3137SOL    HW119515   1.709   4.191   1.569 -0.7628 -2.1769 -0.4468
 3137SOL    HW219516   1.822   4.220   1.455 -0.3102  3.3235  1.2489
 3138SOL     OW19517   0.430   5.715   1.928 -0.5897  0.0229 -0.0993
 3138SOL    HW119518   0.388   5.777   1.994 -0.8006 -0.1895 -0.0328
 3138SOL    HW219519   0.374   5.632   1.919  0.7144 -1.0211  1.2809
 3139SOL     OW19520   1.232   9.435   0.073  0.1605 -0.0243 -0.2364
 3139SOL    HW119521   1.277   9.415  -0.014 -0.1444 -0.3125 -0.3301
 3139SOL    HW219522   1.252   9.361   0.137 -0.3481 -0.2558 -0.3435
 3140SOL     OW19523   3.865   8.721   2.668 -0.4120 -0.2876  0.0024
 3140SOL    HW119524   3.853   8.725   2.767 -1.3957 -0.8982 -0.0921
 3140SOL    HW219525   3.945   8.664   2.647  0.6750  1.0176  0.4829
 3141SOL     OW19526   9.887   3.107   1.121 -0.3580  0.8183 -0.3022
 3141SOL    HW119527   9.947   3.119   1.200 -0.6344 -1.0022  0.2062
 3141SOL    HW219528   9.809   3.170   1.129 -0.8047  0.0799  1.2938
 3142SOL     OW19529   2.399   8.559   2.889  1.0260  0.1937 -0.3136
 3142SOL    HW119530   2.361   8.650   2.869 -1.2917 -0.8934 -1.0271
 3142SOL    HW219531   2.364   8.527   2.978 -0.6769 -1.2556 -1.4541
 3143SOL     OW19532   2.884   8.033   0.007  0.0797 -0.0611  0.2635
 3143SOL    HW119533   2.815   8.093   0.047 -0.5702 -1.1711  0.8368
 3143SOL    HW219534   2.975   8.074   0.018 -0.1700  0.0300  2.1669
 3144SOL     OW19535   1.515   7.212   0.296 -0.1705 -0.1285 -0.4019
 3144SOL    HW119536   1.532   7.118   0.325  1.3339  0.3113  0.2031
 3144SOL    HW219537   1.543   7.275   0.368  0.2207  0.8397 -1.3792
 3145SOL     OW19538   2.132   6.913   1.915  0.0405 -0.5810 -0.2399
 3145SOL    HW119539   2.042   6.956   1.906 -1.4253 -3.7654 -1.3378
 3145SOL    HW219540   2.184   6.925   1.830  0.1501  0.0693 -0.0889
 3146SOL     OW19541   0.481   5.266   2.332 -0.1379  0.0535 -0.5734
 3146SOL    HW119542   0.426   5.339   2.292  2.9100  2.6347 -0.2779
 3146SOL    HW219543   0.559   5.247   2.273  0.9618 -0.5212  1.0334
 3147SOL     OW19544   9.891   8.300   2.205  0.3625  0.0304  0.0187
 3147SOL    HW119545   9.969   8.356   2.178  0.8202  0.0751  1.4111
 3147SOL    HW219546   9.834   8.281   2.124  0.4179  2.1398 -0.5360
 3148SOL     OW19547   1.175   6.038   2.898  0.3302 -0.0084 -0.4111
 3148SOL    HW119548   1.125   5.992   2.971  0.7819 -1.1021 -0.7780
 3148SOL    HW219549   1.234   5.972   2.851  0.5433  0.8188 -1.3311
 3149SOL     OW19550   0.463   5.831   2.181  0.2327 -0.3568 -0.6624
 3149SOL    HW119551   0.491   5.826   2.277 -1.7141  2.2456  0.0910
 3149SOL    HW219552   0.496   5.916   2.141 -1.4414 -0.0639 -1.4593
 3150SOL     OW19553   0.353   5.864   0.559 -0.2299  0.4509 -0.2013
 3150SOL    HW119554   0.444   5.822   0.569  0.8887  2.4328 -1.7644
 3150SOL    HW219555   0.285   5.805   0.602  1.4143 -2.4605 -1.4551
 3151SOL     OW19556   2.511   1.199   2.647 -0.3193  0.0407  0.1447
 3151SOL    HW119557   2.504   1.144   2.564 -0.4153  1.8064 -1.0569
 3151SOL    HW219558   2.586   1.265   2.637  0.7390 -0.8174  2.1355
 3152SOL     OW19559   1.782   1.501   2.127 -0.6806  0.3397  0.2850
 3152SOL    HW119560   1.864   1.471   2.080 -1.3203 -1.6236  0.3903
 3152SOL    HW219561   1.790   1.479   2.225 -0.6019  1.7307  0.6029
 3153SOL     OW19562   2.622   3.411   1.492 -0.0327 -0.7299  0.3560
 3153SOL    HW119563   2.699   3.387   1.433 -0.3714 -1.4266  0.1961
 3153SOL    HW219564   2.610   3.511   1.492 -0.0550 -0.7275 -0.7871
 3154SOL     OW19565   1.221   5.933   1.795  0.3106  0.2213 -0.0417
 3154SOL    HW119566   1.123   5.938   1.814  0.7288  3.6701  1.5477
 3154SOL    HW219567   1.248   5.837   1.788 -2.7419 -0.8636  1.7529
 3155SOL     OW19568   8.333   5.486   1.961  0.1977  0.0370  0.4614
 3155SOL    HW119569   8.399   5.539   2.014 -0.4319  0.6190  0.6708
 3155SOL    HW219570   8.369   5.470   1.869 -0.2090  2.0938 -0.0959
 3156SOL     OW19571   9.104   4.976   1.368 -0.3251 -0.1132  0.8653
 3156SOL    HW119572   9.100   4.989   1.269 -0.6320 -0.2640  0.8578
 3156SOL    HW219573   9.042   5.041   1.412 -0.7954 -0.5842  0.9100
 3157SOL     OW19574   8.909   6.854   1.209 -0.2448  0.0464 -0.3916
 3157SOL    HW119575   8.924   6.895   1.120  2.3734 -0.0835 -0.0649
 3157SOL    HW219576   8.913   6.754   1.201 -1.1960 -0.0029 -0.3109
 3158SOL     OW19577   1.652   9.532   2.667 -0.8065  0.3143  0.3545
 3158SOL    HW119578   1.597   9.487   2.597 -1.4711  1.6867 -0.0220
 3158SOL    HW219579   1.609   9.618   2.693  1.2994  1.5794 -0.1902
 3159SOL     OW19580   2.388   0.012   0.933 -0.0118 -0.0175 -0.2365
 3159SOL    HW119581   2.465   0.026   0.996  0.3429 -0.7931 -0.4987
 3159SOL    HW219582   2.410  -0.060   0.868 -0.1768  1.1324 -1.5936
 3160SOL     OW19583   1.821   6.097   0.480  0.4449 -0.0963 -0.2204
 3160SOL    HW119584   1.803   6.066   0.573  2.3966 -0.2266  0.1474
 3160SOL    HW219585   1.774   6.037   0.415  1.1464 -1.5713  0.6023
 3161SOL     OW19586   0.373   8.174   2.466  0.4328 -0.1380  0.1032
 3161SOL    HW119587   0.301   8.236   2.436 -0.1640 -1.9288 -2.3857
 3161SOL    HW219588   0.353   8.141   2.558 -1.1044  0.5917  0.0436
 3162SOL     OW19589   2.101   8.930   1.111 -0.4331 -0.2358 -0.6600
 3162SOL    HW119590   2.155   8.863   1.162  0.3658 -0.4586 -1.7954
 3162SOL    HW219591   2.055   8.991   1.176  1.8558  0.5022  0.3351
 3163SOL     OW19592   3.052   9.889   2.671  0.1064 -0.5619  0.6469
 3163SOL    HW119593   2.964   9.856   2.638 -0.1550  1.6684 -0.9816
 3163SOL    HW219594   3.038   9.968   2.731  1.0144  0.5010 -0.5044
 3164SOL     OW19595   1.941   2.734   0.210  0.1380  0.2902  0.3213
 3164SOL    HW119596   2.013   2.734   0.279 -0.0784 -1.3504  0.5810
 3164SOL    HW219597   1.978   2.768   0.124  0.8968  0.6276  0.7747
 3165SOL     OW19598   9.759   6.242   1.285 -0.5553 -0.2227 -0.5452
 3165SOL    HW119599   9.831   6.311   1.278  0.5547 -1.4225 -1.2266
 3165SOL    HW219600   9.704   6.259   1.367 -0.6209  1.7573 -0.9783
 3166SOL     OW19601   2.466   7.924   2.395 -0.2170 -0.3864  0.8057
 3166SOL    HW119602   2.439   7.881   2.310  0.5491 -1.4131  1.0755
 3166SOL    HW219603   2.513   8.011   2.375 -0.9427 -0.1216  0.2364
 3167SOL     OW19604   1.159   6.627   1.523  0.2852  0.1680 -0.3515
 3167SOL    HW119605   1.205   6.698   1.577 -0.8277 -1.1441  2.4088
 3167SOL    HW219606   1.227   6.572   1.474  1.3165  1.3387 -0.2515
 3168SOL     OW19607   1.404   1.774   0.762  0.0652 -0.3015  0.4201
 3168SOL    HW119608   1.455   1.803   0.681  0.0002 -1.1500  0.0675
 3168SOL    HW219609   1.315   1.737   0.734 -1.4582  2.6642  1.1484
 3169SOL     OW19610   3.194   1.820   2.819  0.0913 -0.3651  0.1134
 3169SOL    HW119611   3.132   1.878   2.766  2.0046  0.3815 -1.3627
 3169SOL    HW219612   3.149   1.794   2.905 -1.3502  2.1106  0.1761
 3170SOL     OW19613   0.986   7.879   1.449 -0.0028  0.2464 -0.4156
 3170SOL    HW119614   1.049   7.931   1.391 -0.3262  1.9810  0.7611
 3170SOL    HW219615   0.931   7.818   1.392 -0.6295  2.2435 -2.0174
 3171SOL     OW19616   0.435   6.468   0.300 -0.4492 -0.2605 -0.3441
 3171SOL    HW119617   0.400   6.410   0.225  0.2610 -0.9073 -0.1780
 3171SOL    HW219618   0.388   6.556   0.298 -0.2904 -0.1980 -1.6832
 3172SOL     OW19619   9.305   2.592   1.651 -0.4857 -0.4400  0.6693
 3172SOL    HW119620   9.354   2.578   1.737 -0.0418 -0.1512  0.4610
 3172SOL    HW219621   9.246   2.513   1.634 -0.1990 -0.7255  0.9881
 3173SOL     OW19622   3.653   0.806   2.738 -0.5422  0.4524  0.4774
 3173SOL    HW119623   3.747   0.812   2.774 -0.3319 -0.9672  0.1736
 3173SOL    HW219624   3.604   0.891   2.760  1.3955  2.0230 -1.0370
 3174SOL     OW19625   0.189   1.429   1.985 -0.2818  0.4110  0.8674
 3174SOL    HW119626   0.113   1.408   1.924 -1.2480  2.9038  1.1473
 3174SOL    HW219627   0.255   1.354   1.984 -1.2950 -0.4879 -1.6520
 3175SOL     OW19628   0.991   5.261   2.507  0.0726 -0.0993  0.1457
 3175SOL    HW119629   1.046   5.286   2.427  0.7230  1.0601  0.9350
 3175SOL    HW219630   0.937   5.341   2.535 -2.2118 -1.2717 -0.7509
 3176SOL     OW19631   8.336   5.496   2.680 -0.6406  0.6161 -0.5542
 3176SOL    HW119632   8.310   5.593   2.679 -1.3165  0.4432 -2.3057
 3176SOL    HW219633   8.273   5.445   2.738 -0.2505  1.2337  0.4194
 3177SOL     OW19634   2.187   3.884   1.670  0.5363  0.4615  0.4033
 3177SOL    HW119635   2.238   3.931   1.598 -0.3277  0.3315 -0.2982
 3177SOL    HW219636   2.094   3.920   1.674  0.6710  0.7045  1.6864
 3178SOL     OW19637   2.150   6.708   0.042 -0.5721  0.2271  0.1369
 3178SOL    HW119638   2.212   6.786   0.047 -0.8809  0.4966 -0.2818
 3178SOL    HW219639   2.110   6.703  -0.049 -1.4268  0.2466  0.5106
 3179SOL     OW19640   1.102   6.053   1.216 -1.1543 -0.0500 -0.1602
 3179SOL    HW119641   1.201   6.070   1.214 -0.8656 -1.6062 -0.1098
 3179SOL    HW219642   1.054   6.131   1.177  0.1352  0.4980 -0.6990
 3180SOL     OW19643   2.243   1.376   2.062 -0.6335  0.1836 -0.0020
 3180SOL    HW119644   2.318   1.432   2.097  0.0474  1.2197 -2.9852
 3180SOL    HW219645   2.270   1.280   2.061  0.7082  0.5618 -1.1521
 3181SOL     OW19646   2.961   3.176   2.298 -0.4617  0.8298 -0.2695
 3181SOL    HW119647   2.998   3.116   2.369 -0.6027  0.8319 -0.1937
 3181SOL    HW219648   2.922   3.120   2.225 -0.5364  0.8274 -0.2283
 3182SOL     OW19649   0.647   8.480   0.874 -0.3598 -0.1253 -0.2801
 3182SOL    HW119650   0.704   8.552   0.835  2.3499 -2.5496 -0.9313
 3182SOL    HW219651   0.636   8.406   0.808 -0.9621 -1.4615  1.2754
 3183SOL     OW19652   3.391   2.717   2.164  0.1324  1.0973  0.0039
 3183SOL    HW119653   3.359   2.754   2.251  1.4638 -0.5715  1.2520
 3183SOL    HW219654   3.418   2.791   2.104  1.0104  2.2180  1.7391
 3184SOL     OW19655   2.125   6.692   2.191 -0.1455  0.4741  0.0737
 3184SOL    HW119656   2.189   6.705   2.115 -0.1127  0.3092  0.0744
 3184SOL    HW219657   2.099   6.596   2.198 -1.1163  0.6827 -0.5100
 3185SOL     OW19658   9.166   1.657   0.625 -0.0289  0.4476  0.2411
 3185SOL    HW119659   9.082   1.688   0.669  0.4448  1.8329  0.1818
 3185SOL    HW219660   9.212   1.734   0.582  1.3713 -0.2707  0.4188
 3186SOL     OW19661   3.572   4.573   2.334 -0.2749 -0.3617 -0.0012
 3186SOL    HW119662   3.481   4.612   2.323 -0.2588 -0.3967 -0.2853
 3186SOL    HW219663   3.627   4.596   2.254 -0.2496 -0.9252 -0.1513
 3187SOL     OW19664   0.361   1.256   2.240  0.0538 -0.6109  0.3562
 3187SOL    HW119665   0.416   1.228   2.161 -0.7786 -0.6862 -0.1935
 3187SOL    HW219666   0.275   1.205   2.241 -1.1247  1.3263 -0.2000
 3188SOL     OW19667   1.891   4.817   2.646  0.1599 -0.0373 -0.5176
 3188SOL    HW119668   1.820   4.885   2.628 -1.8549 -2.3562 -1.6256
 3188SOL    HW219669   1.905   4.809   2.745 -1.3486  0.2545 -0.2696
 3189SOL     OW19670   9.950   2.377   1.044  0.0308  0.6094  0.2017
 3189SOL    HW119671   9.973   2.350   0.951  5.0312  1.5944  0.9695
 3189SOL    HW219672   9.929   2.296   1.099  1.5884 -0.4256 -0.7011
 3190SOL     OW19673   2.318   9.510   1.900  0.2106  0.5177 -0.2639
 3190SOL    HW119674   2.332   9.573   1.823  0.7308  0.4814 -0.1973
 3190SOL    HW219675   2.277   9.425   1.865 -1.4739  1.2833 -0.2050
 3191SOL     OW19676   2.868   4.954   2.893  0.4045  0.0525  0.0053
 3191SOL    HW119677   2.861   5.026   2.825  1.4651  1.2247  1.1110
 3191SOL    HW219678   2.963   4.924   2.901  0.0512 -1.1323 -0.0940
 3192SOL     OW19679   0.987   7.328   1.268  0.0235 -0.8069  0.5801
 3192SOL    HW119680   1.022   7.421   1.284  1.4676 -1.0091 -1.1775
 3192SOL    HW219681   0.888   7.332   1.253 -0.3654  0.0989  3.1183
 3193SOL     OW19682   3.305   0.602   0.335  0.5674 -0.4314  0.6371
 3193SOL    HW119683   3.250   0.570   0.258 -2.1929 -2.1579  3.1997
 3193SOL    HW219684   3.381   0.539   0.350  0.8844 -0.3077 -0.4055
 3194SOL     OW19685   1.737   3.769   2.148 -0.3811  0.5908  0.4705
 3194SOL    HW119686   1.797   3.718   2.087 -2.4843 -1.2249 -0.1084
 3194SOL    HW219687   1.792   3.809   2.222  1.6763 -0.1105 -0.6387
 3195SOL     OW19688   3.439   0.896   1.975 -0.1450  0.5113 -0.5409
 3195SOL    HW119689   3.464   0.888   1.878 -1.1421  3.5364 -1.1159
 3195SOL    HW219690   3.349   0.938   1.982 -0.6180 -0.8173  1.7123
 3196SOL     OW19691   2.540   9.637   0.049  0.1461 -0.5889 -0.1965
 3196SOL    HW119692   2.462   9.618  -0.011  2.0277 -0.6752 -2.6765
 3196SOL    HW219693   2.579   9.726   0.027  0.8105 -0.5631  1.0000
 3197SOL     OW19694   3.580   3.997   1.150 -0.0456 -0.7506  0.3007
 3197SOL    HW119695   3.670   3.978   1.191  0.3249  0.7416  0.2291
 3197SOL    HW219696   3.545   3.915   1.107  1.4475 -1.2715  0.0547
 3198SOL     OW19697   3.127   0.911   1.876 -0.5675 -0.6741  0.0981
 3198SOL    HW119698   3.114   0.865   1.789 -1.4881  1.2898 -0.8308
 3198SOL    HW219699   3.079   0.860   1.948  1.3225 -3.0551 -0.2486
 3199SOL     OW19700   0.625   2.249   1.099 -0.7237 -0.3808  0.4450
 3199SOL    HW119701   0.684   2.298   1.163  2.5347 -2.0973 -1.1106
 3199SOL    HW219702   0.573   2.314   1.045 -0.1588  1.2081  1.7792
 3200SOL     OW19703   0.064   6.117   2.697 -0.2669  0.0871 -0.8690
 3200SOL    HW119704   0.140   6.176   2.671 -0.8249  0.8426 -0.8084
 3200SOL    HW219705   0.098   6.037   2.746  0.3311  1.3376  0.7877
 3201SOL     OW19706   1.412   1.636   0.082  0.5234 -0.1264  0.0103
 3201SOL    HW119707   1.390   1.711   0.020  0.5105 -1.1841 -1.2755
 3201SOL    HW219708   1.508   1.641   0.108  0.0341  1.5444  1.6063
 3202SOL     OW19709   3.962   2.366   0.343 -0.3435 -0.4047 -0.4033
 3202SOL    HW119710   3.873   2.320   0.337 -0.0084 -1.1576  0.3971
 3202SOL    HW219711   4.028   2.307   0.388  0.6213  0.0888 -1.1385
 3203SOL     OW19712   8.299   2.903   1.921  0.1062 -0.4142  0.3389
 3203SOL    HW119713   8.385   2.898   1.972 -0.2037 -0.2440  0.8902
 3203SOL    HW219714   8.274   2.812   1.888  0.2199 -0.5641  0.6599
 3204SOL     OW19715   9.346   4.087   0.683 -0.5346 -0.3219  0.5251
 3204SOL    HW119716   9.286   4.141   0.742 -0.0897  0.1305  0.5639
 3204SOL    HW219717   9.297   4.063   0.599 -0.0275  2.0590 -0.5018
 3205SOL     OW19718   0.973   1.966   1.942 -0.0138 -0.4765  0.2302
 3205SOL    HW119719   0.940   2.031   2.011 -0.9657 -0.3818 -0.3133
 3205SOL    HW219720   1.004   1.882   1.987 -0.5659 -0.3856  0.7846
 3206SOL     OW19721   3.907   9.925   1.029  0.2503  0.2345  0.2264
 3206SOL    HW119722   3.842   9.947   1.102 -0.2557 -1.1091  0.1979
 3206SOL    HW219723   3.994   9.970   1.047  0.0655  0.0726  1.5525
 3207SOL     OW19724   2.397   8.562   1.027  0.5891  0.0552  0.4426
 3207SOL    HW119725   2.343   8.521   0.954  0.4594 -0.4790  0.8383
 3207SOL    HW219726   2.391   8.506   1.109 -0.8487  1.6720  1.4777
 3208SOL     OW19727   0.591   0.581   0.985  0.0093  0.5914  0.4208
 3208SOL    HW119728   0.686   0.556   1.004  0.6729  1.5608 -1.4570
 3208SOL    HW219729   0.556   0.639   1.059  0.4710 -0.7317  1.6993
 3209SOL     OW19730   2.286   6.037   0.501  0.3864 -0.4193  0.2160
 3209SOL    HW119731   2.315   5.955   0.551  0.6114 -0.2968  0.2916
 3209SOL    HW219732   2.289   6.116   0.563  2.1456  0.0066 -0.3837
 3210SOL     OW19733   0.735   2.835   2.358  0.5379 -0.1029 -0.1575
 3210SOL    HW119734   0.669   2.818   2.284 -3.4198  1.1736  2.9327
 3210SOL    HW219735   0.729   2.762   2.425  1.4516  0.6134  0.7060
 3211SOL     OW19736   2.425   1.411   0.896 -0.6622 -0.1028  1.1994
 3211SOL    HW119737   2.452   1.493   0.945  0.5371  0.0135  0.3668
 3211SOL    HW219738   2.339   1.427   0.848  0.8018  1.5201 -0.9993
 3212SOL     OW19739   2.010   8.313   1.518  0.0311  0.0469 -0.1112
 3212SOL    HW119740   2.096   8.361   1.536 -0.7603  1.7303 -0.6932
 3212SOL    HW219741   2.006   8.286   1.422 -0.2014  0.1990 -0.1451
 3213SOL     OW19742   0.356   1.773   0.450  0.1682  0.3526  0.1539
 3213SOL    HW119743   0.417   1.708   0.404  0.3157  1.6131 -1.5035
 3213SOL    HW219744   0.388   1.788   0.543  1.8063  0.2032 -0.3597
 3214SOL     OW19745   4.069   8.778   2.216 -0.5482 -0.1785  0.8508
 3214SOL    HW119746   4.038   8.827   2.297  1.5909 -0.0073  1.5955
 3214SOL    HW219747   4.047   8.831   2.134 -1.3927  0.3308  1.3951
 3215SOL     OW19748   2.084   5.682   1.550  0.6111  0.0264 -0.5346
 3215SOL    HW119749   2.146   5.705   1.625  1.5019 -1.3516 -0.8270
 3215SOL    HW219750   2.134   5.683   1.464 -0.0966  0.2569 -0.9456
 3216SOL     OW19751   3.140   2.336   2.894  0.0159  0.1555 -0.3453
 3216SOL    HW119752   3.131   2.248   2.848 -1.2473  0.3684 -0.5355
 3216SOL    HW219753   3.119   2.324   2.991  4.0385 -0.5684  0.5235
 3217SOL     OW19754   9.026   5.984   2.532 -0.2322  0.5767 -0.4958
 3217SOL    HW119755   9.081   5.972   2.615 -0.6079 -0.6204 -0.4151
 3217SOL    HW219756   9.072   5.940   2.455  0.0941  1.6517 -0.9342
 3218SOL     OW19757   4.137   9.182   0.123  0.1765 -0.0166 -0.0806
 3218SOL    HW119758   4.218   9.123   0.130  0.0632 -0.0793  0.7797
 3218SOL    HW219759   4.151   9.249   0.050  1.1697  0.2276  0.3239
 3219SOL     OW19760   1.993   9.182   0.769 -0.3843  0.0084 -0.2473
 3219SOL    HW119761   2.016   9.276   0.797  1.1793 -0.1787 -0.8583
 3219SOL    HW219762   1.944   9.185   0.682  0.0153  0.2328 -0.4663
 3220SOL     OW19763   1.742   3.353   1.985  0.1275  0.1174 -0.6618
 3220SOL    HW119764   1.705   3.260   1.981  2.7559 -1.0894  1.5002
 3220SOL    HW219765   1.804   3.367   1.908  1.0702 -0.5693 -0.0460
 3221SOL     OW19766   2.910   2.529   0.930 -0.3633  0.8784 -0.4972
 3221SOL    HW119767   2.860   2.543   0.845 -1.7818  0.7884  0.3099
 3221SOL    HW219768   2.881   2.597   0.998  0.6186  0.8360 -0.0211
 3222SOL     OW19769   9.952   0.210   1.934 -0.4990  0.3449 -0.2206
 3222SOL    HW119770   9.985   0.255   1.851 -1.5997  2.3082  0.3624
 3222SOL    HW219771   9.864   0.165   1.914 -0.6048  0.5404 -0.1923
 3223SOL     OW19772   0.143   9.662   2.621  0.2401  0.2310  0.6792
 3223SOL    HW119773   0.079   9.615   2.559  1.7971 -0.8611 -0.1265
 3223SOL    HW219774   0.223   9.605   2.636  1.1688  1.7073  1.4784
 3224SOL     OW19775   2.912   4.056   2.198 -0.0767 -0.1375  0.4147
 3224SOL    HW119776   2.887   4.003   2.117 -0.9391  0.0576  0.5389
 3224SOL    HW219777   2.959   3.997   2.264  0.8917 -0.2254 -0.3488
 3225SOL     OW19778   3.509   5.845   1.244  0.0163 -0.1354  0.4988
 3225SOL    HW119779   3.511   5.923   1.181 -0.6748  0.6038  1.3785
 3225SOL    HW219780   3.460   5.769   1.202  0.5386 -0.0403 -0.2956
 3226SOL     OW19781   9.261   6.448   2.362 -0.4204  0.0630 -0.1913
 3226SOL    HW119782   9.239   6.524   2.424 -1.0176 -0.7825  0.6580
 3226SOL    HW219783   9.191   6.377   2.371  0.2630 -0.6901 -0.7952
 3227SOL     OW19784   1.952   0.763   0.924  0.9861  0.3712  0.5997
 3227SOL    HW119785   2.006   0.756   1.008  1.8016 -1.2407 -0.0394
 3227SOL    HW219786   1.942   0.672   0.884 -0.8615  0.8895 -0.1407
 3228SOL     OW19787   4.772   3.547   0.868  0.2461  0.1158  0.1381
 3228SOL    HW119788   4.677   3.536   0.839  0.9049 -0.4131 -1.8465
 3228SOL    HW219789   4.820   3.608   0.806  0.8429  1.6127  2.0114
 3229SOL     OW19790   1.011   3.655   1.981  0.4368 -0.5008 -0.3389
 3229SOL    HW119791   1.034   3.563   2.015  0.0586  0.0804  1.5388
 3229SOL    HW219792   1.008   3.653   1.881 -0.6781 -2.8019 -0.3004
 3230SOL     OW19793   9.238   7.346   2.521  0.2455 -0.1263 -0.5802
 3230SOL    HW119794   9.333   7.371   2.539  0.3596 -0.0321 -1.2774
 3230SOL    HW219795   9.198   7.305   2.602  1.6959 -2.7054 -1.1339
 3231SOL     OW19796   2.817   8.595   0.436 -1.0621 -0.0126  0.5318
 3231SOL    HW119797   2.869   8.677   0.415 -0.0115 -0.1556  2.4456
 3231SOL    HW219798   2.727   8.620   0.471 -0.5401  0.3531  1.6381
 3232SOL     OW19799   2.748   7.099   2.806 -0.1329  0.1115  0.5925
 3232SOL    HW119800   2.664   7.064   2.848 -0.4930  0.1785 -0.0533
 3232SOL    HW219801   2.742   7.089   2.707  0.1318  1.1638  0.4570
 3233SOL     OW19802   1.774   9.801   1.397  0.5468 -0.0475  0.5661
 3233SOL    HW119803   1.710   9.856   1.342  0.1968 -1.8055 -0.8372
 3233SOL    HW219804   1.866   9.813   1.361  0.4922 -0.2417  0.3570
 3234SOL     OW19805   3.252   3.666   1.086  0.4723  0.2018  0.5355
 3234SOL    HW119806   3.187   3.590   1.096  0.4697  0.1196 -0.1148
 3234SOL    HW219807   3.213   3.749   1.125 -0.5575  0.4556 -1.0023
 3235SOL     OW19808   3.666   3.162   2.887  0.0542  0.1499  0.8035
 3235SOL    HW119809   3.671   3.189   2.791  0.9399  0.0045  0.8044
 3235SOL    HW219810   3.739   3.096   2.907 -1.2187 -1.1839  1.1461
 3236SOL     OW19811   0.742   3.588   2.014 -0.2210  0.6512  0.5943
 3236SOL    HW119812   0.801   3.571   2.093 -0.0028  0.2943  0.3578
 3236SOL    HW219813   0.681   3.509   2.002  0.1245  0.4600  0.0776
 3237SOL     OW19814   1.925   2.425   2.685  0.0236 -0.1600  0.5082
 3237SOL    HW119815   1.950   2.520   2.666 -1.0994  0.1688  0.6407
 3237SOL    HW219816   1.997   2.364   2.652  1.3641  0.8040  1.5949
 3238SOL     OW19817   3.442   1.021   2.854  0.1214  0.0431  0.1987
 3238SOL    HW119818   3.402   0.932   2.878  0.5283 -0.2502 -0.1992
 3238SOL    HW219819   3.405   1.091   2.915 -1.1010 -0.1954 -0.2456
 3239SOL     OW19820   8.648   6.550   1.194  0.4766  0.3957 -0.1917
 3239SOL    HW119821   8.582   6.485   1.156  1.1520  0.0005 -0.7064
 3239SOL    HW219822   8.627   6.567   1.290  0.4120 -0.7511  0.0044
 3240SOL     OW19823   3.881   4.550   1.323  0.2148 -0.2153 -0.7167
 3240SOL    HW119824   3.967   4.526   1.368 -0.8941 -0.9639  1.0475
 3240SOL    HW219825   3.804   4.529   1.384 -1.2434  0.1612 -2.3811
 3241SOL     OW19826   8.229   6.150   0.387  0.3184 -0.3678  0.0320
 3241SOL    HW119827   8.190   6.083   0.324  1.4467 -1.8848  0.9086
 3241SOL    HW219828   8.324   6.169   0.361 -0.3200  1.7377 -0.8560
 3242SOL     OW19829   2.397   7.838   2.118 -0.4137 -0.3227  0.0238
 3242SOL    HW119830   2.318   7.777   2.126 -0.1707 -0.2693  3.2188
 3242SOL    HW219831   2.475   7.787   2.081 -0.6601 -1.5740  1.2007
 3243SOL     OW19832   0.801   4.725   1.684 -0.1692 -0.1407  0.7262
 3243SOL    HW119833   0.758   4.799   1.631 -2.0130  0.7175  3.3324
 3243SOL    HW219834   0.730   4.666   1.722  1.1687 -1.2943  1.4570
 3244SOL     OW19835   1.469   4.909   2.013 -0.5341 -0.5680  0.3497
 3244SOL    HW119836   1.536   4.876   2.080 -0.7328 -0.7853  0.4401
 3244SOL    HW219837   1.489   4.869   1.924 -1.1509 -1.4219  0.5927
 3245SOL     OW19838   3.489   8.682   0.799 -0.0859 -0.3863  0.1167
 3245SOL    HW119839   3.428   8.760   0.784  0.3386  0.2522  1.5374
 3245SOL    HW219840   3.516   8.643   0.711 -4.0603 -1.9324 -0.5094
 3246SOL     OW19841   1.994   0.999   1.246 -0.3382 -0.2427  0.6809
 3246SOL    HW119842   1.927   1.018   1.318 -0.5939 -0.4094  0.4876
 3246SOL    HW219843   2.083   0.979   1.287 -0.2101  0.7772  0.9140
 3247SOL     OW19844   0.173   3.686   2.025  0.5508 -0.1114 -0.4236
 3247SOL    HW119845   0.239   3.736   1.971  0.2962 -0.1763 -0.7984
 3247SOL    HW219846   0.119   3.750   2.080  0.7383 -0.0357 -0.3296
 3248SOL     OW19847   4.380   0.981   2.010 -0.7097 -0.5196  0.4931
 3248SOL    HW119848   4.330   1.031   2.080 -1.4369 -0.2522 -0.2077
 3248SOL    HW219849   4.429   1.045   1.951 -1.1436 -0.6630 -0.0278
 3249SOL     OW19850   1.032   2.807   1.516  0.6766 -0.7714 -0.6075
 3249SOL    HW119851   1.003   2.799   1.421  4.1295 -0.5577 -1.7321
 3249SOL    HW219852   1.067   2.718   1.547  0.9705 -0.4400  0.0091
 3250SOL     OW19853   2.747   8.990   1.388  0.0661  0.4685  0.1670
 3250SOL    HW119854   2.679   8.997   1.461  0.0129 -0.7168  0.2457
 3250SOL    HW219855   2.839   9.002   1.426  0.1036 -1.1128  0.6023
 3251SOL     OW19856   0.105   9.342   0.244 -0.5178  0.2154  0.3238
 3251SOL    HW119857   0.115   9.435   0.210 -2.0551  0.3924  0.3294
 3251SOL    HW219858   0.173   9.325   0.315  1.3719  0.5130 -1.3639
 3252SOL     OW19859   3.015   3.027   2.527  0.3143  0.2110  0.1292
 3252SOL    HW119860   2.937   3.076   2.565  0.3789  0.3514  0.0826
 3252SOL    HW219861   3.050   2.963   2.595  0.3223  0.3374  0.2462
 3253SOL     OW19862   3.532   0.293   1.501 -0.4889 -0.6192 -0.0448
 3253SOL    HW119863   3.497   0.235   1.574 -0.0555 -1.3309 -0.3929
 3253SOL    HW219864   3.480   0.277   1.417 -0.6122 -0.2318 -0.0409
 3254SOL     OW19865   9.633   3.332   2.878 -0.2798  0.2359 -0.1020
 3254SOL    HW119866   9.628   3.428   2.849 -2.5378  1.1041  2.9081
 3254SOL    HW219867   9.542   3.292   2.877  0.5232 -1.6714 -0.4662
 3255SOL     OW19868   3.840   3.885   1.231 -0.1631 -0.3008  0.1120
 3255SOL    HW119869   3.898   3.943   1.174  0.4091 -1.1139 -0.1490
 3255SOL    HW219870   3.844   3.790   1.197 -0.1378 -0.7107  1.2468
 3256SOL     OW19871   9.828   4.303   2.389  0.1450  0.0492 -0.3378
 3256SOL    HW119872   9.924   4.277   2.386  0.3816  1.0472 -2.2676
 3256SOL    HW219873   9.771   4.220   2.395  1.0613 -0.6435 -1.1050
 3257SOL     OW19874   3.963   1.888   2.510 -0.2114 -0.4807  0.0961
 3257SOL    HW119875   3.998   1.825   2.580  1.8365 -1.3895 -1.6899
 3257SOL    HW219876   4.027   1.964   2.498 -0.2819 -0.5929 -1.1068
 3258SOL     OW19877   1.541   6.539   2.631  0.0112  0.3691  0.0739
 3258SOL    HW119878   1.444   6.558   2.646  0.1917 -0.0725  2.0177
 3258SOL    HW219879   1.594   6.624   2.639 -0.1808  0.5721 -0.7592
 3259SOL     OW19880   2.156   5.556   2.323  0.1915 -0.3424  0.0464
 3259SOL    HW119881   2.083   5.493   2.351 -0.2594 -0.9199 -2.2969
 3259SOL    HW219882   2.188   5.607   2.403 -2.2084 -0.6680  1.2919
 3260SOL     OW19883   9.102   5.447   1.529 -0.1776  0.8980 -0.4670
 3260SOL    HW119884   9.034   5.520   1.531 -0.3213  0.7373  0.6929
 3260SOL    HW219885   9.076   5.375   1.593  0.1437 -0.0098 -1.3545
 3261SOL     OW19886   2.512   0.802   1.312 -0.7939 -0.2027 -0.7277
 3261SOL    HW119887   2.536   0.855   1.231 -2.2675  1.2571 -0.2357
 3261SOL    HW219888   2.421   0.827   1.343 -0.8526 -1.8418  0.5072
 3262SOL     OW19889   8.846   7.165   1.770  0.4754 -0.9283 -0.0750
 3262SOL    HW119890   8.887   7.200   1.854  1.6348 -0.0072 -1.0095
 3262SOL    HW219891   8.903   7.190   1.692 -0.6498 -1.6722 -1.1553
 3263SOL     OW19892   8.751   5.440   0.930  0.2152 -0.2066 -0.3819
 3263SOL    HW119893   8.732   5.386   0.849  0.2484 -2.8712  1.3210
 3263SOL    HW219894   8.665   5.464   0.975  0.2000  1.2095 -1.1292
 3264SOL     OW19895   0.511   0.079   1.866 -0.1794  0.4128 -0.7924
 3264SOL    HW119896   0.584   0.145   1.878  0.6866 -0.5571 -0.6663
 3264SOL    HW219897   0.502   0.057   1.769  0.1771 -0.0081 -0.7301
 3265SOL     OW19898   0.350   3.798   1.863 -0.0385  0.1552  0.0311
 3265SOL    HW119899   0.404   3.761   1.787 -2.3125  0.1007 -1.6089
 3265SOL    HW219900   0.347   3.898   1.856 -1.2429  0.0866 -0.6948
 3266SOL     OW19901   1.916   4.452   0.359 -0.0312  0.1890  0.1116
 3266SOL    HW119902   1.993   4.453   0.422  0.3396  1.2190 -0.3593
 3266SOL    HW219903   1.844   4.394   0.396  2.0688 -3.1139 -0.7582
 3267SOL     OW19904   2.668   4.803   1.532 -0.6129  0.5500  0.2407
 3267SOL    HW119905   2.633   4.856   1.610  0.0921  0.2887  0.7356
 3267SOL    HW219906   2.699   4.865   1.461  0.5657  0.8233  0.9741
 3268SOL     OW19907   2.806   8.276   0.795 -0.2599 -0.0101 -0.1007
 3268SOL    HW119908   2.846   8.355   0.842 -0.4811 -0.6578  1.1919
 3268SOL    HW219909   2.751   8.309   0.718 -0.7182  1.1396  0.6916
 3269SOL     OW19910   9.743   5.182   1.848 -0.1814  0.9358  0.0001
 3269SOL    HW119911   9.657   5.194   1.898 -0.0070  0.4888  0.4033
 3269SOL    HW219912   9.817   5.225   1.900 -0.2027  1.5701 -0.4849
 3270SOL     OW19913   2.914   5.806   1.476 -0.7162 -0.0723 -0.2016
 3270SOL    HW119914   2.977   5.732   1.499  0.4663  0.2540 -2.3363
 3270SOL    HW219915   2.832   5.799   1.534  0.6902 -1.2500  1.6985
 3271SOL     OW19916   3.339   1.331   2.438 -0.3393 -0.1432 -0.6684
 3271SOL    HW119917   3.293   1.413   2.472  0.4618  0.1607 -0.2908
 3271SOL    HW219918   3.323   1.255   2.501 -2.7467 -0.8174 -2.0480
 3272SOL     OW19919   0.638   6.372   2.522  0.3508  0.1158  0.3882
 3272SOL    HW119920   0.569   6.440   2.496 -0.8603 -1.1149  0.3350
 3272SOL    HW219921   0.722   6.389   2.472 -0.2337  1.0224 -0.3017
 3273SOL     OW19922   0.508   7.985   2.343 -0.2842  0.2928  0.1244
 3273SOL    HW119923   0.583   7.933   2.384  0.4877  0.4748 -1.0199
 3273SOL    HW219924   0.473   8.051   2.409  0.4013  0.0297  0.7552
 3274SOL     OW19925   0.343   9.979   1.441 -0.0095 -0.2871 -0.8177
 3274SOL    HW119926   0.438  10.006   1.454 -0.8066  0.9934  3.2565
 3274SOL    HW219927   0.322   9.902   1.502 -1.8189  0.0193 -1.0313
 3275SOL     OW19928   1.545   6.874   1.742 -0.5396 -0.3787  0.1531
 3275SOL    HW119929   1.497   6.850   1.658 -0.9966  0.4775  0.1570
 3275SOL    HW219930   1.560   6.973   1.744 -1.2043 -0.2902  1.4223
 3276SOL     OW19931   0.467   1.602   1.093  0.2625  0.2333 -0.8859
 3276SOL    HW119932   0.480   1.702   1.091  1.3563  0.1627  1.6735
 3276SOL    HW219933   0.554   1.558   1.115 -0.8748 -1.1234  0.9502
 3277SOL     OW19934   0.848   1.791   1.222  0.1189  0.0735  0.0493
 3277SOL    HW119935   0.825   1.887   1.205 -0.8160 -0.3566 -1.1916
 3277SOL    HW219936   0.931   1.768   1.171 -0.5225 -0.1813 -0.8939
 3278SOL     OW19937   2.718   8.897   2.381 -0.3900  0.1611 -0.8029
 3278SOL    HW119938   2.647   8.883   2.312 -0.7614 -1.1093 -0.1880
 3278SOL    HW219939   2.803   8.856   2.350 -0.3062  0.4286 -0.9242
 3279SOL     OW19940   3.488   2.433   1.734  0.2646 -0.6620  0.0058
 3279SOL    HW119941   3.558   2.505   1.736 -0.8805  0.6180 -2.5696
 3279SOL    HW219942   3.533   2.343   1.728  1.7196  0.1570 -1.9401
 3280SOL     OW19943   0.958   8.716   1.418 -0.4947  0.2748 -0.2262
 3280SOL    HW119944   0.913   8.630   1.396  1.4627 -0.8645  0.1305
 3280SOL    HW219945   1.056   8.700   1.433 -0.4317  2.2486  1.7252
 3281SOL     OW19946   2.872   7.978   1.111  0.1010  0.5110 -0.4178
 3281SOL    HW119947   2.869   7.905   1.043  0.1005 -0.3029  0.4554
 3281SOL    HW219948   2.962   8.022   1.110 -0.1656  1.0668 -1.5199
 3282SOL     OW19949   1.889   8.367   0.339  0.4873  0.4272  0.2304
 3282SOL    HW119950   1.908   8.463   0.320 -0.4750  1.3060  3.3944
 3282SOL    HW219951   1.818   8.360   0.409  1.6036 -2.5739  1.1389
 3283SOL     OW19952   8.900   3.008   2.539 -0.2556  0.3553  0.1167
 3283SOL    HW119953   8.828   3.045   2.480 -0.7210  2.3114  1.8280
 3283SOL    HW219954   8.978   3.071   2.538  0.4255 -0.4813  0.2473
 3284SOL     OW19955   3.195   5.539   2.467  0.0659  0.0347 -0.1803
 3284SOL    HW119956   3.104   5.579   2.460 -0.3255 -0.8898 -0.4137
 3284SOL    HW219957   3.189   5.448   2.508  1.2719  1.4571  3.3727
 3285SOL     OW19958   1.585   4.750   0.086  0.3362  0.5364 -0.4892
 3285SOL    HW119959   1.559   4.723  -0.007  2.7122 -0.4896 -0.8909
 3285SOL    HW219960   1.504   4.747   0.145 -0.9893  0.1338 -2.2677
 3286SOL     OW19961   9.606   4.118   0.905 -0.1435  0.5432  0.1051
 3286SOL    HW119962   9.557   4.132   0.819 -1.7540  0.9411  1.0749
 3286SOL    HW219963   9.582   4.028   0.943  0.3203  0.4955  0.2841
 3287SOL     OW19964   9.036   5.943   1.082 -0.3686  0.6856 -0.5603
 3287SOL    HW119965   9.060   5.892   0.999  0.7181  2.5047 -1.4050
 3287SOL    HW219966   9.116   5.991   1.116 -1.4135  2.0486  0.0413
 3288SOL     OW19967   3.560   0.335   2.728 -0.1655 -1.0357  0.0420
 3288SOL    HW119968   3.638   0.273   2.733  0.7929  0.1784  0.5352
 3288SOL    HW219969   3.475   0.282   2.727  0.6237 -2.3398  0.5320
 3289SOL     OW19970   0.331   8.494   2.705  0.1686  0.1850  0.3277
 3289SOL    HW119971   0.281   8.511   2.620 -0.2498  2.1253  0.9578
 3289SOL    HW219972   0.426   8.473   2.683 -0.4213 -1.5072 -0.7416
 3290SOL     OW19973   1.992   5.757   2.572 -0.5078  0.1584 -0.4599
 3290SOL    HW119974   2.082   5.725   2.541 -0.0920  1.7490 -0.9066
 3290SOL    HW219975   1.971   5.716   2.661 -0.9067 -2.9985 -1.9260
 3291SOL     OW19976   9.592   4.493   1.208  0.0556  0.2279  0.0264
 3291SOL    HW119977   9.643   4.407   1.203  1.5153  1.2082 -2.5800
 3291SOL    HW219978   9.503   4.481   1.164 -1.7745 -1.2464  3.8634
 3292SOL     OW19979   2.768   0.065   0.127 -0.5623 -0.4294 -0.1975
 3292SOL    HW119980   2.726   0.131   0.066 -0.2866  0.6343  0.7492
 3292SOL    HW219981   2.786   0.108   0.216  2.0016 -0.9988 -0.3915
 3293SOL     OW19982   3.801   5.675   0.578 -0.5794  0.1307  0.2309
 3293SOL    HW119983   3.802   5.697   0.480  0.8339 -0.9739 -0.0131
 3293SOL    HW219984   3.776   5.579   0.590  0.4377 -0.0504  0.8887
 3294SOL     OW19985   9.387   7.237   2.829  0.4529 -0.2947  0.0148
 3294SOL    HW119986   9.479   7.223   2.865  0.2409  0.3360  0.8235
 3294SOL    HW219987   9.322   7.178   2.878  0.4793 -0.9917 -0.7909
 3295SOL     OW19988   1.910   0.152   2.761 -0.0097  0.3051 -0.3252
 3295SOL    HW119989   1.830   0.212   2.752  0.0989  0.8142  1.7619
 3295SOL    HW219990   1.992   0.208   2.775  0.4446 -0.2677 -0.6827
 3296SOL     OW19991   2.161   8.923   2.491  0.4124  0.1711  0.6821
 3296SOL    HW119992   2.213   8.855   2.440  1.5407  0.5293  1.3336
 3296SOL    HW219993   2.064   8.913   2.470  0.9422  1.0876 -2.4602
 3297SOL     OW19994   9.512   5.232   1.466  0.0685  0.2362  0.4297
 3297SOL    HW119995   9.442   5.301   1.444 -0.8808 -0.4475  1.2383
 3297SOL    HW219996   9.477   5.141   1.442  1.6619  0.1008 -1.4481
 3298SOL     OW19997   9.172   2.549   2.693 -0.8053 -0.7431 -0.1612
 3298SOL    HW119998   9.145   2.475   2.631 -0.4538 -0.2349 -0.9395
 3298SOL    HW219999   9.256   2.591   2.659 -1.2471  0.3041  0.0225
 3299SOL     OW20000   8.849   5.099   2.274 -0.3160  0.5568 -0.5472
 3299SOL    HW120001   8.759   5.111   2.231  0.3324 -0.6091 -2.2934
 3299SOL    HW220002   8.915   5.070   2.205  0.7460 -1.5301  1.2681
 3300SOL     OW20003   0.041   5.239   1.605 -0.0142 -0.5685 -0.6702
 3300SOL    HW120004   0.070   5.243   1.701  2.9440 -0.8826 -1.4859
 3300SOL    HW220005  -0.049   5.197   1.599 -0.8121  0.6203  2.0683
 3301SOL     OW20006   2.616   3.880   2.817  0.0181 -0.8344  0.2608
 3301SOL    HW120007   2.624   3.819   2.738 -0.7540 -1.9156  1.0044
 3301SOL    HW220008   2.670   3.844   2.893 -0.8477 -0.8730  0.8675
 3302SOL     OW20009   0.969   0.611   0.806  0.1868  0.0607 -0.5435
 3302SOL    HW120010   0.905   0.636   0.734 -0.7366 -1.2202 -0.1914
 3302SOL    HW220011   0.919   0.597   0.892  1.3465  2.1644  0.5028
 3303SOL     OW20012   3.734   3.593   1.417 -0.6476 -0.4521  0.4077
 3303SOL    HW120013   3.821   3.549   1.442  1.3564  1.3684 -2.9297
 3303SOL    HW220014   3.733   3.686   1.452 -0.0765  0.3889 -1.7544
 3304SOL     OW20015   0.744   2.962   1.980 -0.2714 -0.0469 -0.3088
 3304SOL    HW120016   0.702   2.951   1.890  1.6019 -1.3870 -1.0492
 3304SOL    HW220017   0.768   3.059   1.993 -1.1840  0.2755 -0.9508
 3305SOL     OW20018   2.509   6.687   0.793  0.0257  0.4604 -0.4215
 3305SOL    HW120019   2.605   6.676   0.818 -0.3308 -0.9145  0.3725
 3305SOL    HW220020   2.503   6.715   0.697  1.2197  0.9035 -0.3778
 3306SOL     OW20021   0.675   0.030   2.163  0.6643  0.4140  0.3733
 3306SOL    HW120022   0.765   0.072   2.157  1.3298 -1.1172 -0.5012
 3306SOL    HW220023   0.649  -0.006   2.073 -0.5387  0.2593  0.7770
 3307SOL     OW20024   2.256   8.398   2.498  0.5373  0.2603 -0.3627
 3307SOL    HW120025   2.246   8.497   2.511 -0.7242  0.0418  0.4244
 3307SOL    HW220026   2.331   8.364   2.554 -1.1313  0.2655  1.9407
 3308SOL     OW20027   1.795   9.544   1.933 -0.2396  0.1391  0.2989
 3308SOL    HW120028   1.710   9.551   1.880 -0.5120  1.6233  0.9116
 3308SOL    HW220029   1.873   9.545   1.871 -0.6519 -1.0745 -0.2606
 3309SOL     OW20030   8.724   6.287   2.447 -0.3982 -0.1111 -0.0437
 3309SOL    HW120031   8.755   6.352   2.377 -0.8823  0.4161  0.2292
 3309SOL    HW220032   8.647   6.326   2.496 -1.9117 -1.6855 -1.1402
 3310SOL     OW20033   1.278   4.176   1.462  0.3677 -0.1173 -0.2299
 3310SOL    HW120034   1.197   4.134   1.421 -0.3849 -0.1698  1.2500
 3310SOL    HW220035   1.306   4.255   1.407 -0.7791 -0.0200 -0.6925
 3311SOL     OW20036   1.445   1.675   2.100  0.0583 -0.1518 -0.5405
 3311SOL    HW120037   1.452   1.602   2.032  1.0267 -0.3564 -0.2365
 3311SOL    HW220038   1.537   1.709   2.122 -0.2349 -0.1262  0.7019
 3312SOL     OW20039   2.192   6.242   0.670  0.3315 -0.1657 -0.5312
 3312SOL    HW120040   2.271   6.303   0.670  0.4537 -0.3247  0.5327
 3312SOL    HW220041   2.108   6.296   0.669  0.4441  0.0200 -0.1136
 3313SOL     OW20042   2.467   8.882   1.041 -0.5776  0.5285  0.1995
 3313SOL    HW120043   2.500   8.806   1.098  0.1884  0.4171 -0.3765
 3313SOL    HW220044   2.391   8.850   0.983 -0.6529  0.3589  0.3926
 3314SOL     OW20045   0.654   3.350   0.899 -0.4516  0.3023  0.9319
 3314SOL    HW120046   0.691   3.259   0.920 -0.9477  0.2574  1.6379
 3314SOL    HW220047   0.558   3.353   0.927 -0.7201  0.7196 -0.0226
 3315SOL     OW20048   2.690   0.161   1.982  0.2302 -0.0123 -0.0425
 3315SOL    HW120049   2.669   0.082   2.038  0.7252 -0.0445  0.0925
 3315SOL    HW220050   2.770   0.208   2.018  0.8396 -0.3090 -1.0018
 3316SOL     OW20051   9.626   3.969   1.857  0.2769  0.4877 -0.5023
 3316SOL    HW120052   9.720   3.937   1.871  0.1669  0.8994  1.2720
 3316SOL    HW220053   9.628   4.050   1.798  0.7576 -1.2428 -2.9207
 3317SOL     OW20054   0.588   0.140   0.193 -1.4621 -0.3590 -0.4233
 3317SOL    HW120055   0.552   0.058   0.237 -0.2423 -1.2133 -0.9850
 3317SOL    HW220056   0.659   0.180   0.250  0.9881 -2.1605 -2.1148
 3318SOL     OW20057   0.717   4.487   1.992 -0.6597 -0.5495 -0.4156
 3318SOL    HW120058   0.757   4.565   2.039 -0.3909 -0.1390 -1.3144
 3318SOL    HW220059   0.650   4.519   1.924  0.0235 -1.0427 -1.3398
 3319SOL     OW20060   1.534   6.534   1.070  0.3889  0.4102  0.2683
 3319SOL    HW120061   1.447   6.504   1.031  0.6333 -0.8374  0.6857
 3319SOL    HW220062   1.600   6.550   0.996  0.0634  0.5663  0.0089
 3320SOL     OW20063   9.781   1.798   1.517 -0.2320  0.1204  0.0314
 3320SOL    HW120064   9.791   1.843   1.606  1.2495 -1.5573  0.7558
 3320SOL    HW220065   9.850   1.834   1.454  0.4810 -0.5811  0.3944
 3321SOL     OW20066   3.465   1.493   1.723 -0.1939  0.6879  0.5958
 3321SOL    HW120067   3.413   1.577   1.705 -0.6197  0.4090  0.4958
 3321SOL    HW220068   3.542   1.513   1.783  1.9885  1.8979 -2.4719
 3322SOL     OW20069   4.747   3.368   0.433  0.1192 -0.2193  0.2119
 3322SOL    HW120070   4.821   3.339   0.494  0.5070 -2.0280 -1.1033
 3322SOL    HW220071   4.725   3.464   0.451  2.1391  0.0680  1.2494
 3323SOL     OW20072   4.478   3.486   0.725  0.8364  0.2105  0.1858
 3323SOL    HW120073   4.456   3.568   0.674  0.2832 -0.0110  0.0588
 3323SOL    HW220074   4.429   3.487   0.813  0.7664 -0.0151  0.1507
 3324SOL     OW20075   8.772   5.797   1.777 -0.2728 -0.3996 -0.3848
 3324SOL    HW120076   8.831   5.743   1.838  0.5102 -0.1107 -0.8795
 3324SOL    HW220077   8.801   5.893   1.779 -0.8466 -0.2232 -0.4873
 3325SOL     OW20078   1.833   1.766   1.356 -0.1064 -0.3415  0.0128
 3325SOL    HW120079   1.869   1.764   1.263  0.5111 -0.3192  0.2480
 3325SOL    HW220080   1.739   1.732   1.357  0.0255 -0.7169 -0.5549
 3326SOL     OW20081   4.436   9.948   2.719  0.0522 -0.7233 -0.2458
 3326SOL    HW120082   4.494   9.866   2.720 -1.2004 -1.7493 -3.3790
 3326SOL    HW220083   4.459  10.002   2.638 -2.0943 -0.2078 -0.5247
 3327SOL     OW20084   1.624   6.422   0.499 -0.6104 -0.4611  0.0776
 3327SOL    HW120085   1.668   6.395   0.413  0.0511  1.2744 -0.1486
 3327SOL    HW220086   1.687   6.407   0.575 -0.6042 -0.5036  0.0637
 3328SOL     OW20087   3.791   6.720   0.520 -0.1397 -0.4241 -0.2999
 3328SOL    HW120088   3.738   6.712   0.435  1.5700 -1.9480 -1.2459
 3328SOL    HW220089   3.845   6.637   0.534  0.6412  0.3730  1.5921
 3329SOL     OW20090   2.642   4.470   2.762  0.3388 -0.9011  0.1985
 3329SOL    HW120091   2.639   4.482   2.662 -0.9284  0.8020  0.4173
 3329SOL    HW220092   2.677   4.553   2.805  1.9542 -2.0404  1.1247
 3330SOL     OW20093   0.533   4.610   0.938  0.7667 -0.1010  0.2152
 3330SOL    HW120094   0.584   4.527   0.914  0.9782 -0.3948  1.6364
 3330SOL    HW220095   0.563   4.686   0.880  0.2505 -1.1209 -1.3917
 3331SOL     OW20096   8.648   6.219   1.361 -0.0287 -0.2432  0.0193
 3331SOL    HW120097   8.598   6.290   1.311  0.0617  0.3524  0.7648
 3331SOL    HW220098   8.704   6.166   1.297  1.5053  1.6741 -0.2619
 3332SOL     OW20099   0.335   6.034   1.675 -0.1829  0.1011  0.5956
 3332SOL    HW120100   0.364   5.938   1.669  0.1068  0.2892 -1.1453
 3332SOL    HW220101   0.302   6.065   1.586  0.7241  1.9359  0.8708
 3333SOL     OW20102   2.044   7.283   0.901 -0.2714  0.0074  0.1415
 3333SOL    HW120103   2.038   7.272   0.802  0.6875  0.7397 -0.0041
 3333SOL    HW220104   1.985   7.215   0.945  0.3180 -1.1962 -0.8917
 3334SOL     OW20105   3.440   4.620   1.971 -0.2127 -0.2352 -0.4473
 3334SOL    HW120106   3.399   4.689   1.912 -1.7156 -0.5971  0.1438
 3334SOL    HW220107   3.512   4.662   2.026  1.4951  0.0018 -2.8192
 3335SOL     OW20108   2.938   0.409   0.752  0.4231 -0.3911  0.0933
 3335SOL    HW120109   3.031   0.435   0.775  0.2817 -0.1856  0.4368
 3335SOL    HW220110   2.897   0.360   0.829 -0.4792  1.4193  0.7960
 3336SOL     OW20111   2.889   9.438   1.409 -0.1072 -0.1395 -0.1192
 3336SOL    HW120112   2.956   9.401   1.475 -0.7720  1.2686  1.3767
 3336SOL    HW220113   2.811   9.376   1.403 -0.6338  0.3507  1.4116
 3337SOL     OW20114   0.086   4.069   1.847  0.1557 -0.1374 -0.4673
 3337SOL    HW120115   0.172   4.085   1.895  0.2778  0.5622 -0.9046
 3337SOL    HW220116   0.049   4.157   1.816 -0.9912 -0.3771  0.2059
 3338SOL     OW20117   0.838   8.510   1.283  0.4492 -0.4184 -0.2178
 3338SOL    HW120118   0.745   8.486   1.310  0.2967  0.5272  0.1308
 3338SOL    HW220119   0.861   8.464   1.198 -0.1571 -1.0471 -0.0494
 3339SOL     OW20120   8.243   6.646   2.367 -0.6829  0.0183 -0.0251
 3339SOL    HW120121   8.336   6.619   2.342  0.0452  0.2780  2.2508
 3339SOL    HW220122   8.186   6.565   2.380 -0.8940 -0.1336 -1.7513
 3340SOL     OW20123   0.603   1.377   0.770 -0.0522  0.1702  0.4287
 3340SOL    HW120124   0.666   1.375   0.847  0.2973  0.2450  0.1499
 3340SOL    HW220125   0.574   1.284   0.748 -0.2543  0.1623  0.7339
 3341SOL     OW20126   0.675   1.474   1.666 -0.8192  0.7044  0.3788
 3341SOL    HW120127   0.700   1.536   1.592  3.1884 -0.3841  0.6824
 3341SOL    HW220128   0.701   1.514   1.754 -0.3856 -0.3516  0.7472
 3342SOL     OW20129   1.540   8.260   0.980 -0.5463 -0.1631  0.0997
 3342SOL    HW120130   1.456   8.300   1.018 -0.9457 -0.8199 -0.0776
 3342SOL    HW220131   1.518   8.173   0.937  0.4077 -0.8454  0.9738
 3343SOL     OW20132   1.497   2.922   1.264  1.0185 -0.1090  0.9127
 3343SOL    HW120133   1.472   2.907   1.169  0.3982 -1.6092  1.2928
 3343SOL    HW220134   1.560   2.850   1.294  1.4539  0.5264  1.5407
 3344SOL     OW20135   2.859   6.286   0.909  0.2630 -0.1984  0.5565
 3344SOL    HW120136   2.957   6.268   0.907  0.3156  0.1903 -1.9554
 3344SOL    HW220137   2.843   6.384   0.907 -0.1776 -0.2810 -0.2246
 3345SOL     OW20138   8.095   6.004   1.476  0.1836 -0.0891 -0.3214
 3345SOL    HW120139   8.128   6.094   1.450 -0.7546  0.3808  0.0805
 3345SOL    HW220140   8.075   5.951   1.393 -0.8878  0.6904 -0.5761
 3346SOL     OW20141   9.875   4.215   2.082  0.3917 -0.0666 -0.1804
 3346SOL    HW120142   9.927   4.300   2.088  0.9441 -0.4805  1.0218
 3346SOL    HW220143   9.793   4.230   2.027  0.2211  1.3818  0.4443
 3347SOL     OW20144   0.113   7.644   0.830 -0.0696  0.4670  0.1699
 3347SOL    HW120145   0.163   7.661   0.745 -0.5447 -0.4182 -0.2896
 3347SOL    HW220146   0.115   7.727   0.887  2.9036  0.1199  0.6751
 3348SOL     OW20147   9.645   1.461   0.669  0.0407 -0.4104  0.2001
 3348SOL    HW120148   9.711   1.469   0.594  0.4290  0.9854  0.6682
 3348SOL    HW220149   9.553   1.452   0.631  0.3476 -0.9030 -0.4451
 3349SOL     OW20150   1.118   9.717   1.405  0.7199 -0.1459 -0.8469
 3349SOL    HW120151   1.110   9.713   1.505  0.7697  0.1533 -0.8315
 3349SOL    HW220152   1.166   9.635   1.372  1.6202  0.2514 -0.5317
 3350SOL     OW20153   9.946   6.427   1.129 -0.0553 -0.0531 -0.3293
 3350SOL    HW120154  10.040   6.416   1.097  0.2300  1.5729 -0.1335
 3350SOL    HW220155   9.921   6.524   1.126 -1.4829 -0.3768  0.3085
 3351SOL     OW20156   9.246   5.958   2.343 -0.1271 -0.2095 -0.2714
 3351SOL    HW120157   9.277   5.869   2.308  1.0083  0.5605 -1.2491
 3351SOL    HW220158   9.166   5.988   2.292 -1.4769 -1.3675  1.0852
 3352SOL     OW20159   2.031   3.031   0.642 -0.8080  0.3936 -0.3573
 3352SOL    HW120160   1.970   2.990   0.709 -0.9988 -1.0117 -1.3741
 3352SOL    HW220161   1.990   3.025   0.551 -0.0211  1.1886 -0.7707
 3353SOL     OW20162   1.500   7.845   2.003  0.2941 -0.2492  0.0069
 3353SOL    HW120163   1.554   7.925   1.978  0.2549 -0.4219 -0.6404
 3353SOL    HW220164   1.559   7.774   2.041  0.2644  0.2623  1.0095
 3354SOL     OW20165   3.069   2.278   2.454  0.2954  0.2505  0.9701
 3354SOL    HW120166   3.096   2.261   2.549 -1.7822 -0.9309  1.3619
 3354SOL    HW220167   2.973   2.305   2.450  0.6599  1.3911 -0.7066
 3355SOL     OW20168   0.713   5.674   2.085  0.9154  0.0260 -0.3107
 3355SOL    HW120169   0.618   5.695   2.061  0.4834 -1.7518 -0.1979
 3355SOL    HW220170   0.748   5.744   2.148 -1.0201 -0.4978  1.3932
 3356SOL     OW20171   2.227   5.218   2.022  0.2643  0.4356 -0.0417
 3356SOL    HW120172   2.231   5.280   2.101 -0.5127 -1.1965  1.2854
 3356SOL    HW220173   2.136   5.179   2.014  0.3948  0.4103 -1.6472
 3357SOL     OW20174   0.341   6.888   1.606  0.8892  0.0604  0.4825
 3357SOL    HW120175   0.370   6.909   1.699  0.5901 -0.5288  0.7139
 3357SOL    HW220176   0.365   6.964   1.546 -1.9999  1.9924  1.6482
 3358SOL     OW20177   0.570   5.604   2.505  0.0186  0.1752  0.5307
 3358SOL    HW120178   0.498   5.602   2.435  0.6045  1.7189 -0.1335
 3358SOL    HW220179   0.617   5.692   2.502  1.1847 -0.3916  1.7351
 3359SOL     OW20180   3.428   4.867   0.125 -0.1417  0.7150  0.3114
 3359SOL    HW120181   3.515   4.856   0.076  0.1301  2.2030  0.4446
 3359SOL    HW220182   3.402   4.779   0.165  0.3372 -0.1955 -1.3098
 3360SOL     OW20183   1.537   5.855   2.589  0.3221 -0.0163  0.0736
 3360SOL    HW120184   1.609   5.921   2.567 -0.3287  0.3091 -1.0705
 3360SOL    HW220185   1.488   5.885   2.671  1.3503 -0.1409  0.7543
 3361SOL     OW20186   9.351   4.767   1.040 -0.0469 -0.4121  0.2167
 3361SOL    HW120187   9.261   4.730   1.062  0.1809 -0.2366  1.4774
 3361SOL    HW220188   9.344   4.866   1.026  0.0389 -0.3175  0.8376
 3362SOL     OW20189   4.934   2.926   1.407  0.4717 -0.1308  0.1166
 3362SOL    HW120190   4.992   2.862   1.357  0.7262  1.3503 -1.5133
 3362SOL    HW220191   4.980   3.014   1.415 -0.9047  0.6016  0.1552
 3363SOL     OW20192   1.836   5.073   0.477  0.0352  0.2748 -0.6270
 3363SOL    HW120193   1.871   5.098   0.568  1.2807  0.5971 -1.1884
 3363SOL    HW220194   1.805   5.155   0.430 -0.8721  0.0708 -0.3883
 3364SOL     OW20195   8.970   4.737   1.831  0.1919 -0.1158 -0.2399
 3364SOL    HW120196   8.988   4.655   1.777  0.3094 -2.6648  3.5114
 3364SOL    HW220197   8.872   4.743   1.850  0.1950  0.5728 -0.4202
 3365SOL     OW20198   3.213   0.295   2.486 -0.5084 -0.1073  0.0794
 3365SOL    HW120199   3.186   0.209   2.442  0.7464 -0.1025 -0.7161
 3365SOL    HW220200   3.257   0.276   2.574  1.3371 -0.3922 -0.8825
 3366SOL     OW20201   2.838   4.800   0.446  0.5490 -0.4951 -0.1052
 3366SOL    HW120202   2.876   4.711   0.469 -0.3855 -0.5727  1.2396
 3366SOL    HW220203   2.773   4.791   0.370 -1.3794 -1.3958  1.6057
 3367SOL     OW20204   4.065   8.525   2.647 -0.2611  0.5087  0.3047
 3367SOL    HW120205   4.106   8.457   2.587  0.2054  1.7964 -0.8703
 3367SOL    HW220206   4.057   8.488   2.740 -2.7322 -2.1886 -0.9085
 3368SOL     OW20207   2.693   1.573   0.812  0.4819 -0.7297 -0.4227
 3368SOL    HW120208   2.629   1.603   0.883  0.8187  0.5282 -0.6432
 3368SOL    HW220209   2.742   1.492   0.843  1.3269  0.3747  1.1755
 3369SOL     OW20210   9.068   7.719   1.049 -0.4291  0.0786 -0.5696
 3369SOL    HW120211   9.054   7.813   1.082  1.5237  0.6190 -1.2187
 3369SOL    HW220212   9.025   7.709   0.959  1.1006  0.9809 -1.4238
 3370SOL     OW20213   2.171   7.012   2.191 -0.3282  0.2879 -0.1324
 3370SOL    HW120214   2.229   6.965   2.256 -0.2736 -0.2017 -0.5308
 3370SOL    HW220215   2.196   6.984   2.098  0.2371  1.6849 -0.4244
 3371SOL     OW20216   9.437   3.065   0.648 -0.5061 -0.5907 -0.9123
 3371SOL    HW120217   9.495   3.033   0.722  0.6212 -0.0453 -1.5399
 3371SOL    HW220218   9.401   2.987   0.597  0.4640 -0.9295 -1.0972
 3372SOL     OW20219   1.157   6.437   1.209  0.0604 -0.7671 -0.1597
 3372SOL    HW120220   1.113   6.527   1.209  1.3698 -0.0797  1.8500
 3372SOL    HW220221   1.207   6.425   1.295  1.0463 -2.8631 -0.9955
 3373SOL     OW20222   2.191   4.105   0.556  0.0933  0.0519  0.2487
 3373SOL    HW120223   2.173   4.185   0.613 -0.5452  2.8114 -3.6005
 3373SOL    HW220224   2.279   4.115   0.509 -0.7351 -0.6604 -1.5349
 3374SOL     OW20225   3.795   2.946   0.312  0.1946  0.6949  0.5161
 3374SOL    HW120226   3.790   2.904   0.402  1.6518 -0.4367  0.0831
 3374SOL    HW220227   3.889   2.974   0.293  0.6011 -2.1013 -1.9688
 3375SOL     OW20228   1.495   9.412   2.919  0.3529 -0.0562  0.1393
 3375SOL    HW120229   1.497   9.493   2.978 -0.4224  0.8984 -1.1028
 3375SOL    HW220230   1.579   9.359   2.931 -0.2108 -0.4420  2.8354
 3376SOL     OW20231   3.708   5.383   0.250  0.2604  0.3937 -0.4585
 3376SOL    HW120232   3.669   5.325   0.321  0.6984  0.1012 -0.4539
 3376SOL    HW220233   3.731   5.327   0.171 -0.6959  0.7954 -1.0310
 3377SOL     OW20234   1.871   5.121   2.828 -0.6279  0.0564  0.3262
 3377SOL    HW120235   1.936   5.050   2.798 -1.2539 -0.3967  0.0108
 3377SOL    HW220236   1.792   5.077   2.871 -0.3446  0.6471  1.4614
 3378SOL     OW20237   1.670   5.156   2.091 -0.7544  0.2742 -0.4310
 3378SOL    HW120238   1.574   5.183   2.082 -0.8021  1.1230  2.1198
 3378SOL    HW220239   1.719   5.225   2.145  1.4041  0.0702 -2.0646
 3379SOL     OW20240   9.827   4.377   0.158  0.0336 -0.6610  0.2172
 3379SOL    HW120241   9.806   4.461   0.209 -0.1934 -1.3717  1.3245
 3379SOL    HW220242   9.873   4.400   0.073  0.8502  0.5357  0.9657
 3380SOL     OW20243   0.839   3.290   2.880  0.1867 -0.2727  0.3561
 3380SOL    HW120244   0.898   3.367   2.855 -0.9013  0.5549  0.2755
 3380SOL    HW220245   0.815   3.297   2.977 -1.4259  0.5584 -0.0757
 3381SOL     OW20246   1.189   7.411   0.022 -0.0337 -0.0035 -0.6284
 3381SOL    HW120247   1.281   7.374   0.036 -0.9568 -1.7890  0.9976
 3381SOL    HW220248   1.147   7.367  -0.057 -0.1974 -0.6461 -0.1928
 3382SOL     OW20249   8.580   3.684   0.303 -0.4119  0.6428  0.0677
 3382SOL    HW120250   8.516   3.607   0.307 -0.2599  0.5331  0.3526
 3382SOL    HW220251   8.669   3.651   0.272 -0.2780  0.6638  0.4301
 3383SOL     OW20252   8.456   6.486   1.613  0.3691  0.5512 -0.1346
 3383SOL    HW120253   8.533   6.509   1.554  1.0123 -0.2945  0.3597
 3383SOL    HW220254   8.371   6.519   1.572  0.8703  0.4528 -1.2676
 3384SOL     OW20255   2.538   5.450   1.492  0.3703 -0.6717  0.2788
 3384SOL    HW120256   2.538   5.470   1.590 -0.5468  1.2551 -0.0918
 3384SOL    HW220257   2.444   5.447   1.459  0.7339  1.0760 -0.9858
 3385SOL     OW20258   0.927   9.642   1.159 -0.1637  0.1947  0.0683
 3385SOL    HW120259   0.848   9.583   1.143  0.7660 -1.2528  0.7263
 3385SOL    HW220260   0.956   9.636   1.254 -0.4782  2.2682  0.3170
 3386SOL     OW20261   4.371   8.814   1.195 -0.3864  0.0980 -0.0490
 3386SOL    HW120262   4.411   8.729   1.162 -0.9827  0.6178 -2.1428
 3386SOL    HW220263   4.386   8.887   1.128 -0.7829  1.4010  1.2518
 3387SOL     OW20264   9.488   3.078   2.411  0.1175  0.5706 -0.5697
 3387SOL    HW120265   9.400   3.032   2.416 -0.4065  1.6620  0.6046
 3387SOL    HW220266   9.479   3.162   2.358 -0.1618  1.9741  1.6285
 3388SOL     OW20267   9.238   2.917   0.512 -0.1954 -0.2046 -0.4206
 3388SOL    HW120268   9.168   2.927   0.582 -1.1254 -1.7872 -1.0983
 3388SOL    HW220269   9.216   2.976   0.434  1.8503  3.0291  1.3284
 3389SOL     OW20270   3.385   2.005   0.729  0.2385  0.3172 -0.4642
 3389SOL    HW120271   3.403   1.976   0.635  0.9644  1.1997 -0.5987
 3389SOL    HW220272   3.447   2.078   0.754  0.9833 -0.8363  1.1768
 3390SOL     OW20273   0.897   4.188   1.498  0.0029  0.9953  0.2966
 3390SOL    HW120274   0.961   4.126   1.452 -0.9776  1.4674 -1.7756
 3390SOL    HW220275   0.851   4.139   1.572  0.9925 -0.0398  0.2506
 3391SOL     OW20276   1.227   3.301   2.309 -0.0544  0.2803 -0.4412
 3391SOL    HW120277   1.183   3.212   2.304 -0.9816  0.7131 -0.1714
 3391SOL    HW220278   1.325   3.289   2.323  0.2415 -0.7250 -3.1255
 3392SOL     OW20279   0.867   5.507   2.479  0.5381  0.2114  0.1656
 3392SOL    HW120280   0.813   5.591   2.489 -0.4619 -0.2282 -1.3287
 3392SOL    HW220281   0.852   5.469   2.387  1.1706 -1.4758  0.7450
 3393SOL     OW20282   1.442   1.561   0.521 -0.4932  0.4426  0.3771
 3393SOL    HW120283   1.392   1.600   0.444 -0.4907 -0.1604  0.0653
 3393SOL    HW220284   1.540   1.573   0.508 -0.4484 -0.4245 -0.1421
 3394SOL     OW20285   1.412   1.606   1.152 -0.5415 -0.1539  0.3295
 3394SOL    HW120286   1.399   1.681   1.087 -0.3871  0.9942  1.5910
 3394SOL    HW220287   1.436   1.644   1.241 -0.8551 -1.7061  1.0836
 3395SOL     OW20288   9.760   0.149   0.684 -0.6452 -0.1220 -0.0745
 3395SOL    HW120289   9.669   0.163   0.723 -0.5473 -1.0524  0.5041
 3395SOL    HW220290   9.829   0.185   0.746 -0.4863 -1.6418  0.6674
 3396SOL     OW20291   1.100   0.665   2.451 -0.5805 -0.0831  0.1372
 3396SOL    HW120292   1.054   0.579   2.473  0.2813 -0.5360  0.1843
 3396SOL    HW220293   1.096   0.726   2.530  2.7243 -1.7972  1.7476
 3397SOL     OW20294   4.151   2.227   2.084  0.1405 -0.0072  0.1094
 3397SOL    HW120295   4.199   2.260   2.002  1.3455 -2.1088 -0.0532
 3397SOL    HW220296   4.177   2.132   2.102 -1.4808 -0.1298  1.9199
 3398SOL     OW20297   0.320   0.628   1.699  0.5176  0.6001  0.2689
 3398SOL    HW120298   0.274   0.583   1.623  1.4361 -0.1029  0.1275
 3398SOL    HW220299   0.392   0.569   1.736 -0.5520  0.5174  2.3194
 3399SOL     OW20300   2.595   9.272   2.132  0.1082 -0.0965 -0.0861
 3399SOL    HW120301   2.664   9.235   2.194 -0.5324 -3.6087 -1.3348
 3399SOL    HW220302   2.506   9.231   2.152 -0.4806  0.1749 -2.0214
 3400SOL     OW20303   1.156   4.438   0.649 -0.3211 -0.6760  0.1896
 3400SOL    HW120304   1.152   4.492   0.566  0.5055 -1.0129 -0.0745
 3400SOL    HW220305   1.109   4.486   0.723 -0.3015  0.0222 -0.2515
 3401SOL     OW20306   9.791   3.913   1.572  0.0422  0.0377  0.1772
 3401SOL    HW120307   9.838   3.888   1.657 -0.1457  2.7115  1.1106
 3401SOL    HW220308   9.858   3.941   1.504  0.1142 -0.9898 -0.1844
 3402SOL     OW20309   4.155   1.606   0.184 -0.2453 -0.0648  0.2152
 3402SOL    HW120310   4.229   1.665   0.217 -0.0538 -0.4464  0.4641
 3402SOL    HW220311   4.087   1.592   0.256  0.2497 -1.0208  0.5068
 3403SOL     OW20312   3.969   9.524   1.157  0.3483  0.4104  0.1412
 3403SOL    HW120313   3.889   9.528   1.218  1.2828 -1.7555  1.5950
 3403SOL    HW220314   4.030   9.601   1.177 -0.5763  1.1451  0.1716
 3404SOL     OW20315   1.313   8.043   2.848 -0.4883 -0.0073 -0.6037
 3404SOL    HW120316   1.344   8.128   2.804 -0.4819 -0.2217 -1.0235
 3404SOL    HW220317   1.379   8.016   2.918 -2.3372  2.3105  2.1466
 3405SOL     OW20318   1.206   8.252   0.762 -0.2725 -0.0401  0.1622
 3405SOL    HW120319   1.239   8.207   0.845 -0.3940  0.3061  0.4025
 3405SOL    HW220320   1.183   8.347   0.783  0.6331  0.3367 -0.4816
 3406SOL     OW20321   2.578   6.683   1.890 -0.1345  0.1725 -0.3777
 3406SOL    HW120322   2.624   6.594   1.892 -1.6360 -0.6144  0.2119
 3406SOL    HW220323   2.592   6.726   1.801  0.7254 -0.5931 -0.6188
 3407SOL     OW20324   0.746   8.096   2.106  0.4997  0.1335  0.5216
 3407SOL    HW120325   0.758   8.002   2.074  0.5840 -0.1146  1.2966
 3407SOL    HW220326   0.675   8.099   2.176 -2.8651  1.3113 -2.7131
 3408SOL     OW20327   2.167   1.078   2.445 -0.0628 -0.4549 -0.0192
 3408SOL    HW120328   2.090   1.107   2.502 -0.6593 -3.1186  0.6084
 3408SOL    HW220329   2.133   1.055   2.353  0.6030  1.9966 -0.9127
 3409SOL     OW20330   1.450   1.184   0.238  0.7584 -0.1271 -0.2189
 3409SOL    HW120331   1.530   1.146   0.284  1.0249 -0.3232 -0.8348
 3409SOL    HW220332   1.421   1.267   0.285  1.1126 -0.2425  0.2106
 3410SOL     OW20333   3.567   0.820   0.490  0.0355 -0.4417 -0.2054
 3410SOL    HW120334   3.484   0.836   0.437 -0.6460  0.0376  0.9796
 3410SOL    HW220335   3.647   0.845   0.435 -0.5961 -0.8562 -1.3329
 3411SOL     OW20336   1.854   9.711   0.235 -0.5068 -0.2467  0.4758
 3411SOL    HW120337   1.811   9.752   0.155  1.0206 -0.0749 -0.2724
 3411SOL    HW220338   1.946   9.749   0.247 -1.0895  0.4671  2.9045
 3412SOL     OW20339   0.862   4.251   0.581 -0.0062 -0.1281 -0.1381
 3412SOL    HW120340   0.905   4.324   0.527 -0.0492 -0.8838 -1.2034
 3412SOL    HW220341   0.764   4.249   0.561 -0.1317 -0.0085  0.4490
 3413SOL     OW20342   0.182   2.915   0.241  0.5705 -0.0911 -0.3711
 3413SOL    HW120343   0.222   2.857   0.170  1.5094  0.1631 -0.0597
 3413SOL    HW220344   0.183   2.867   0.328 -1.5566 -0.8109 -0.7203
 3414SOL     OW20345   1.833   1.362   0.164  0.1498  0.2560  0.2189
 3414SOL    HW120346   1.867   1.325   0.078 -0.1142 -0.4220  0.4042
 3414SOL    HW220347   1.906   1.359   0.233  0.0944 -0.0420  0.2673
 3415SOL     OW20348   0.950   6.934   1.160  0.0899 -0.5689 -0.0579
 3415SOL    HW120349   1.001   7.007   1.114  0.2646 -1.3002 -1.0637
 3415SOL    HW220350   0.855   6.963   1.174  0.3973  0.2147  0.4278
 3416SOL     OW20351   2.386   1.127   1.994  0.4092 -0.1120  0.7296
 3416SOL    HW120352   2.345   1.036   1.990 -1.6500  0.7274  1.9600
 3416SOL    HW220353   2.483   1.119   2.015  0.4675 -2.0562 -0.1623
 3417SOL     OW20354   8.794   6.258   1.737 -0.3076  0.5841 -0.7223
 3417SOL    HW120355   8.800   6.159   1.724 -0.3482  0.4863  0.0156
 3417SOL    HW220356   8.850   6.303   1.668  0.2447  0.0256 -0.6470
 3418SOL     OW20357   0.834   6.293   0.140 -0.9084 -0.1039 -0.2707
 3418SOL    HW120358   0.781   6.274   0.223  0.6944  1.1830  1.0783
 3418SOL    HW220359   0.776   6.341   0.074 -2.2343 -1.2501  0.0436
 3419SOL     OW20360   2.420   9.894   2.573  0.3328 -0.2175 -0.1822
 3419SOL    HW120361   2.427   9.955   2.494 -0.8044 -1.7014 -1.4635
 3419SOL    HW220362   2.385   9.805   2.543  0.7436 -1.0904  1.8584
 3420SOL     OW20363   9.829   3.639   2.128 -0.2024  0.3202 -0.6624
 3420SOL    HW120364   9.879   3.560   2.092 -0.2174  0.1952 -0.4166
 3420SOL    HW220365   9.891   3.718   2.133 -0.0282  0.1661 -0.3591
 3421SOL     OW20366   2.395   5.484   0.918  0.4955 -0.2100 -0.2967
 3421SOL    HW120367   2.474   5.450   0.968  0.7822  0.8946  0.0331
 3421SOL    HW220368   2.385   5.434   0.832  1.5108 -0.4121 -0.2997
 3422SOL     OW20369   4.438   8.715   0.075  0.4257  0.7863 -0.3442
 3422SOL    HW120370   4.520   8.771   0.093  0.8759  0.0125  0.0328
 3422SOL    HW220371   4.433   8.694  -0.022  0.2965  1.4141 -0.4784
 3423SOL     OW20372   9.491   6.696   2.919  0.0072 -0.0783 -0.2042
 3423SOL    HW120373   9.556   6.620   2.924 -0.0773 -0.1405 -0.0437
 3423SOL    HW220374   9.417   6.681   2.985  1.1628  1.2555  1.4440
 3424SOL     OW20375   2.746   0.130   1.699 -0.3432  0.0055  0.6476
 3424SOL    HW120376   2.716   0.149   1.792 -0.2469 -3.0377  1.3512
 3424SOL    HW220377   2.709   0.042   1.669 -0.0992  0.7826 -2.0679
 3425SOL     OW20378   0.097   7.254   0.531 -0.6831  0.5034  0.2396
 3425SOL    HW120379   0.192   7.223   0.540 -0.3695  0.7886 -1.8567
 3425SOL    HW220380   0.074   7.311   0.610 -0.2122 -2.2673  2.4576
 3426SOL     OW20381   8.582   5.089   1.998  0.7668 -0.2100 -0.2664
 3426SOL    HW120382   8.503   5.140   2.033  1.8441 -0.3441  2.5022
 3426SOL    HW220383   8.639   5.149   1.943 -0.9876  0.0184 -1.9051
 3427SOL     OW20384   1.438   2.538   2.532 -0.1036  0.5997 -0.0445
 3427SOL    HW120385   1.413   2.525   2.436 -0.2019 -1.5493  0.2618
 3427SOL    HW220386   1.518   2.483   2.554  0.8232  2.2269  0.7447
 3428SOL     OW20387   1.208   7.358   2.685 -0.1822  0.0805 -1.0323
 3428SOL    HW120388   1.191   7.390   2.591  0.4773  0.6926 -0.9461
 3428SOL    HW220389   1.272   7.281   2.682  0.3883  0.5550 -1.0314
 3429SOL     OW20390   2.327   0.590   2.384 -0.5183 -0.5459  0.7312
 3429SOL    HW120391   2.323   0.593   2.484 -1.2136 -1.6029  0.7420
 3429SOL    HW220392   2.421   0.573   2.356  0.0358  1.6731  1.1352
 3430SOL     OW20393   1.104   6.006   0.749 -0.7245  0.3729  0.8377
 3430SOL    HW120394   1.017   5.993   0.701  0.3601 -1.6053 -0.6608
 3430SOL    HW220395   1.094   5.980   0.845 -1.4697 -1.0447  0.3874
 3431SOL     OW20396   4.250   2.966   2.098 -0.0526 -0.4871 -0.2370
 3431SOL    HW120397   4.255   2.950   2.197  0.3879 -3.0089 -0.6584
 3431SOL    HW220398   4.288   2.888   2.049  0.8536  1.2610 -2.4033
 3432SOL     OW20399   3.909   2.041   0.451 -0.1357  0.3317  0.4934
 3432SOL    HW120400   3.954   1.952   0.448 -0.5913  0.1114  0.1413
 3432SOL    HW220401   3.810   2.029   0.455 -0.2333  0.8258 -0.2706
 3433SOL     OW20402   1.569   8.235   0.719 -1.0509 -0.2665 -0.7940
 3433SOL    HW120403   1.583   8.276   0.809 -0.3811  1.0244 -1.4628
 3433SOL    HW220404   1.621   8.150   0.713  1.2568  1.0934 -0.9165
 3434SOL     OW20405   0.229   4.464   2.710  0.4712  0.1057  0.3153
 3434SOL    HW120406   0.264   4.397   2.645  0.3044  0.1369  0.1903
 3434SOL    HW220407   0.289   4.469   2.790  0.5924 -0.0452  0.2327
 3435SOL     OW20408   2.339   3.446   1.639 -0.2619  0.3219  0.0914
 3435SOL    HW120409   2.369   3.388   1.563 -1.0992 -0.4192  0.3134
 3435SOL    HW220410   2.317   3.538   1.605  0.8716  0.4491 -0.2948
 3436SOL     OW20411   2.828   0.212   0.605 -0.1818 -0.2792  0.3671
 3436SOL    HW120412   2.888   0.271   0.658  0.1956 -0.6781  0.3912
 3436SOL    HW220413   2.738   0.207   0.648 -0.5178  1.0689 -0.1791
 3437SOL     OW20414   1.964   8.515   2.531  0.4315 -0.1191  0.1492
 3437SOL    HW120415   1.968   8.420   2.562  0.1825  0.6389  2.6354
 3437SOL    HW220416   2.032   8.569   2.580 -0.1333  1.1886 -0.4819
 3438SOL     OW20417   1.315   3.636   1.946 -0.4548  0.7346 -0.0467
 3438SOL    HW120418   1.251   3.672   2.015  0.1505  0.1816  0.8096
 3438SOL    HW220419   1.362   3.557   1.983  0.6584  1.0778 -0.7186
 3439SOL     OW20420   8.281   5.306   2.897  0.1856  0.1277 -0.3710
 3439SOL    HW120421   8.373   5.341   2.880 -0.5880  1.8319 -1.2166
 3439SOL    HW220422   8.277   5.264   2.988  0.8763  3.2921  1.1950
 3440SOL     OW20423   3.843   0.314   2.136 -0.1029 -0.2248  0.1558
 3440SOL    HW120424   3.863   0.222   2.168  0.8905 -0.4901 -1.2266
 3440SOL    HW220425   3.846   0.377   2.214  1.9392 -0.9231  0.6774
 3441SOL     OW20426   1.644   2.824   0.036 -0.2488 -0.7108  0.4820
 3441SOL    HW120427   1.735   2.815   0.076 -0.1383 -0.3904  0.3017
 3441SOL    HW220428   1.575   2.800   0.105 -0.0651  0.1066  0.9475
 3442SOL     OW20429   1.112   8.491   0.872  0.0509  0.0187 -0.5165
 3442SOL    HW120430   1.152   8.580   0.892  1.2568 -0.5907 -0.1694
 3442SOL    HW220431   1.025   8.481   0.921  2.6887 -1.2805  4.1802
 3443SOL     OW20432   3.220   5.302   2.603 -0.5668 -0.3932  0.3593
 3443SOL    HW120433   3.309   5.270   2.635 -0.5664 -1.0151 -0.2474
 3443SOL    HW220434   3.179   5.362   2.672  0.1093 -0.4844  0.8431
 3444SOL     OW20435   1.828   6.531   1.324  0.1375 -0.1353  0.1954
 3444SOL    HW120436   1.838   6.570   1.232 -0.7343 -0.0500  0.1328
 3444SOL    HW220437   1.735   6.495   1.335  0.2239 -0.1103  1.0537
 3445SOL     OW20438   3.703   0.660   2.043 -0.2346  0.3530  0.3568
 3445SOL    HW120439   3.734   0.586   1.984 -2.0125 -0.2992  0.1987
 3445SOL    HW220440   3.695   0.627   2.137  1.1606  0.9756  0.6917
 3446SOL     OW20441   4.041   3.009   0.237  0.2521  0.1348 -0.3448
 3446SOL    HW120442   4.071   3.073   0.308 -1.0051  0.2986  0.0414
 3446SOL    HW220443   4.102   3.016   0.158  0.2899  1.6245 -0.1941
 3447SOL     OW20444   9.708   3.542   0.207 -0.1574  0.3197  0.3385
 3447SOL    HW120445   9.651   3.467   0.238  1.4883 -1.3222 -0.5447
 3447SOL    HW220446   9.689   3.562   0.111  0.6688 -0.1423  0.0794
 3448SOL     OW20447   0.018   3.157   0.860 -0.0370  0.5371  0.2388
 3448SOL    HW120448  -0.045   3.123   0.929  1.3237  0.1896  1.3283
 3448SOL    HW220449   0.077   3.227   0.900  1.8435 -0.7981 -0.1202
 3449SOL     OW20450   4.142   0.151   2.281  0.2621  0.5324  0.0322
 3449SOL    HW120451   4.113   0.238   2.320 -0.4509 -0.7175  2.4029
 3449SOL    HW220452   4.062   0.102   2.245  0.5898  0.6356 -0.8466
 3450SOL     OW20453   0.373   7.148   2.537  0.1431  0.2097  0.3324
 3450SOL    HW120454   0.303   7.159   2.466 -1.5112 -1.3124  1.6543
 3450SOL    HW220455   0.337   7.181   2.624  1.1075 -0.4918  1.0106
 3451SOL     OW20456   1.097   9.525   0.386 -0.0288  0.1123  0.4379
 3451SOL    HW120457   1.074   9.431   0.410 -1.9772  0.5841  0.5509
 3451SOL    HW220458   1.077   9.585   0.464  0.7749  0.6755  0.2140
 3452SOL     OW20459   2.268   6.013   0.024  0.5287  0.1499 -0.1796
 3452SOL    HW120460   2.220   5.970   0.100 -0.0341  0.6174 -0.2719
 3452SOL    HW220461   2.208   6.018  -0.055  1.4434 -1.2741 -0.9802
 3453SOL     OW20462   4.086   4.491   1.709  0.3503  0.1598  0.0037
 3453SOL    HW120463   3.998   4.536   1.726  0.1557 -0.5507  0.9459
 3453SOL    HW220464   4.157   4.539   1.761  0.1739 -0.4766  0.8574
 3454SOL     OW20465   9.659   7.694   1.993  0.2119 -0.2000  0.3702
 3454SOL    HW120466   9.711   7.757   2.052  0.2729 -0.2412  0.3610
 3454SOL    HW220467   9.623   7.620   2.049  1.4312 -0.9807  0.1334
 3455SOL     OW20468   8.138   5.522   2.215 -0.3182  0.3232  0.4595
 3455SOL    HW120469   8.195   5.490   2.291  1.6576  3.6287  0.4680
 3455SOL    HW220470   8.177   5.490   2.129 -0.7270 -0.7460  0.6687
 3456SOL     OW20471   1.612   7.480   2.910  0.1767 -0.5582 -0.4948
 3456SOL    HW120472   1.710   7.480   2.929  0.4382 -0.8168 -1.8130
 3456SOL    HW220473   1.592   7.551   2.843 -0.5168 -0.6572 -0.3939
 3457SOL     OW20474   0.153   8.363   2.396 -0.7410 -0.0458 -0.1237
 3457SOL    HW120475   0.144   8.452   2.440 -2.2596 -0.5199  0.5656
 3457SOL    HW220476   0.172   8.376   2.299 -0.7810  1.0265  0.0062
 3458SOL     OW20477   4.033   2.927   0.770 -0.2006  0.4898  0.3301
 3458SOL    HW120478   3.995   2.928   0.862  0.0036  0.3326  0.4168
 3458SOL    HW220479   3.977   2.984   0.710  0.1558  1.2939  0.7495
 3459SOL     OW20480   0.725   1.720   0.530  0.6856  0.0833 -0.1499
 3459SOL    HW120481   0.750   1.743   0.435 -1.3728  0.8180 -0.5246
 3459SOL    HW220482   0.671   1.636   0.530  0.3415  0.3087  0.3378
 3460SOL     OW20483   1.089   1.448   2.696  0.5039  0.2478 -0.1527
 3460SOL    HW120484   1.156   1.427   2.767 -1.4761  0.0118  1.7209
 3460SOL    HW220485   1.041   1.363   2.670 -0.8827  0.8162  0.4753
 3461SOL     OW20486   2.020   9.077   0.297 -0.3755 -0.7520 -0.3670
 3461SOL    HW120487   1.921   9.068   0.289 -0.2556 -1.6664 -0.9474
 3461SOL    HW220488   2.044   9.094   0.393 -1.0945 -0.5403 -0.2230
 3462SOL     OW20489   2.852   2.868   1.295 -0.1377 -0.0618  0.2235
 3462SOL    HW120490   2.831   2.796   1.363  0.2756 -1.0125 -0.6453
 3462SOL    HW220491   2.784   2.941   1.303  0.1742  0.0789  1.9904
 3463SOL     OW20492   0.893   1.212   2.742 -0.1708 -0.2286 -0.1051
 3463SOL    HW120493   0.894   1.171   2.651 -1.8976  1.8825 -1.1247
 3463SOL    HW220494   0.800   1.212   2.779 -0.1121  2.0227  0.1600
 3464SOL     OW20495   0.567   4.231   2.133  0.1833  0.2114  0.2343
 3464SOL    HW120496   0.620   4.167   2.188  0.9669 -0.5846 -1.3856
 3464SOL    HW220497   0.622   4.312   2.112 -0.0008  0.3741  0.3817
 3465SOL     OW20498   9.822   1.379   2.068 -0.0480  0.2521 -0.0459
 3465SOL    HW120499   9.890   1.337   2.128  0.9859  0.4982 -1.0171
 3465SOL    HW220500   9.753   1.425   2.122  0.0601 -0.7789  0.9816
 3466SOL     OW20501   0.676   0.279   1.070  0.1543  0.5030  0.0406
 3466SOL    HW120502   0.662   0.258   1.166  2.3170 -2.7620 -0.3012
 3466SOL    HW220503   0.587   0.284   1.024 -0.7495 -0.7642  1.6213
 3467SOL     OW20504   1.955   4.911   0.998 -0.6236  0.2301  0.4584
 3467SOL    HW120505   2.027   4.981   1.002  0.4545 -0.8775  0.7563
 3467SOL    HW220506   1.867   4.952   1.024  0.1928  1.2228  1.7569
 3468SOL     OW20507   0.072   8.049   2.156  0.4248  0.1734  0.7440
 3468SOL    HW120508   0.085   8.095   2.068 -1.3636 -0.0233  0.3624
 3468SOL    HW220509   0.008   8.101   2.211  1.1903  0.0484  1.7732
 3469SOL     OW20510   9.596   3.979   2.745  0.2666  0.6385  0.5892
 3469SOL    HW120511   9.621   3.895   2.696 -0.4694 -1.3705  3.4960
 3469SOL    HW220512   9.677   4.015   2.792  0.2138  0.5616  0.7415
 3470SOL     OW20513   2.126   8.398   1.862  0.8209 -0.2918  0.2328
 3470SOL    HW120514   2.045   8.443   1.825  1.8268  1.0814 -0.3401
 3470SOL    HW220515   2.199   8.401   1.794  0.8142 -3.1106  0.0379
 3471SOL     OW20516   1.227   9.093   2.451 -0.5702  0.0808 -0.1397
 3471SOL    HW120517   1.319   9.102   2.411 -0.3357  3.1526  0.9523
 3471SOL    HW220518   1.171   9.171   2.422 -2.6973 -1.5083 -0.3777
 3472SOL     OW20519   0.893   4.538   2.616  0.6069  0.1719 -0.5867
 3472SOL    HW120520   0.912   4.550   2.519  0.3812 -1.1535 -0.7962
 3472SOL    HW220521   0.834   4.613   2.648  2.4335  1.8058 -0.9580
 3473SOL     OW20522   8.835   3.896   2.748 -0.3454  0.2655  0.2019
 3473SOL    HW120523   8.822   3.801   2.718  1.2201  0.2853 -0.5886
 3473SOL    HW220524   8.771   3.955   2.700 -0.0028 -0.1334 -0.7537
 3474SOL     OW20525   1.063   5.897   0.255 -0.3965 -0.1821 -0.4173
 3474SOL    HW120526   1.062   5.855   0.346 -1.0496 -0.1232 -0.3941
 3474SOL    HW220527   0.972   5.932   0.234 -0.6974 -1.7582 -1.8082
 3475SOL     OW20528   3.708   8.896   0.358 -0.2519 -0.1261  0.5469
 3475SOL    HW120529   3.757   8.956   0.421  0.8209  0.0120 -0.4233
 3475SOL    HW220530   3.712   8.933   0.266 -2.3103 -0.0294  0.4722
 3476SOL     OW20531   3.529   3.974   2.745  0.0566  0.1841  0.3085
 3476SOL    HW120532   3.596   3.937   2.809 -0.9030 -0.0400  1.2078
 3476SOL    HW220533   3.520   4.072   2.758  1.4652  0.5014 -1.0069
 3477SOL     OW20534   1.799   8.133   1.484 -0.2336  0.2649 -0.4383
 3477SOL    HW120535   1.887   8.181   1.484  0.3675 -0.7273  2.3643
 3477SOL    HW220536   1.815   8.035   1.495 -1.6368 -0.0440 -1.1177
 3478SOL     OW20537   8.510   7.139   2.841 -0.9975 -0.2678  0.1809
 3478SOL    HW120538   8.474   7.088   2.763 -1.5199 -0.3908  0.5027
 3478SOL    HW220539   8.468   7.229   2.844  1.6203  1.1043 -1.7526
 3479SOL     OW20540   9.895   8.989   1.882 -0.0179  0.4477  0.1916
 3479SOL    HW120541   9.814   8.969   1.826 -0.0070  0.1592  0.2766
 3479SOL    HW220542   9.903   9.088   1.895  0.1858  0.5411 -0.6262
 3480SOL     OW20543   4.619   2.607   0.634  0.8905  0.1307 -0.2884
 3480SOL    HW120544   4.597   2.678   0.567  0.2851  0.7608  0.5630
 3480SOL    HW220545   4.602   2.642   0.726  1.0930 -0.9451  0.1650
 3481SOL     OW20546   0.661   8.680   0.089  0.1472  0.1356 -0.6529
 3481SOL    HW120547   0.594   8.606   0.089 -0.8587  1.0310  0.4955
 3481SOL    HW220548   0.623   8.761   0.045  0.5963  0.5277 -0.3311
 3482SOL     OW20549   0.376   6.315   2.347 -0.5425 -0.3249 -0.2679
 3482SOL    HW120550   0.375   6.310   2.247 -1.5786  0.6901 -0.3267
 3482SOL    HW220551   0.433   6.391   2.376 -0.2262 -0.6322 -0.0766
 3483SOL     OW20552   2.023   3.100   0.169 -0.2658  0.2263 -0.4157
 3483SOL    HW120553   1.989   3.178   0.117  0.4256 -0.0274 -1.2653
 3483SOL    HW220554   2.029   3.020   0.109 -1.6985 -0.6921  0.6137
 3484SOL     OW20555   1.997   1.367   2.307 -0.5438 -0.1621 -0.5449
 3484SOL    HW120556   1.973   1.393   2.401  1.2045  1.2941 -0.4779
 3484SOL    HW220557   2.092   1.390   2.289 -0.6312 -1.1760 -2.4316
 3485SOL     OW20558   9.916   7.132   0.844  0.3401 -0.1826 -0.2796
 3485SOL    HW120559   9.923   7.054   0.782 -1.4755 -1.0681  0.6118
 3485SOL    HW220560   9.913   7.217   0.790  0.8460 -0.8082 -1.3037
 3486SOL     OW20561   2.732   4.730   2.842  0.0263  1.0202  0.1679
 3486SOL    HW120562   2.738   4.773   2.752 -1.3509  1.0664  0.0884
 3486SOL    HW220563   2.777   4.788   2.910 -0.8671  2.0644 -0.1197
 3487SOL     OW20564   0.600   7.471   1.621  0.3265 -0.4340  0.1304
 3487SOL    HW120565   0.521   7.481   1.681  0.4995  1.0742  0.1103
 3487SOL    HW220566   0.683   7.463   1.678  0.7606  3.2222  0.1279
 3488SOL     OW20567   1.061   3.424   2.127  0.2239 -0.5671  0.2356
 3488SOL    HW120568   0.995   3.455   2.195 -0.2311  0.8294 -0.8201
 3488SOL    HW220569   1.139   3.382   2.173  0.6107  1.6743  1.6885
 3489SOL     OW20570   0.451   9.138   2.053 -0.0873  0.8151  0.6840
 3489SOL    HW120571   0.494   9.165   2.139  0.9694  2.2348 -0.2636
 3489SOL    HW220572   0.461   9.039   2.041  0.8685  0.7914  1.5921
 3490SOL     OW20573   0.749   9.748   2.804 -0.5096  0.1410  0.0963
 3490SOL    HW120574   0.730   9.739   2.902  0.9323  1.3138  0.5101
 3490SOL    HW220575   0.760   9.845   2.782  4.3770 -0.3188 -0.1602
 3491SOL     OW20576   2.497   3.419   2.937 -0.4288 -0.1983 -0.8301
 3491SOL    HW120577   2.417   3.359   2.938 -0.4759 -0.1236  0.7639
 3491SOL    HW220578   2.473   3.507   2.979  0.2329  0.1558 -1.1868
 3492SOL     OW20579   1.788   4.164   1.959 -0.3167 -0.5839  0.1264
 3492SOL    HW120580   1.748   4.255   1.948 -1.9744 -1.2689  0.4565
 3492SOL    HW220581   1.870   4.171   2.016 -1.5624  0.4218  1.8331
 3493SOL     OW20582   0.612   5.286   1.742 -0.5322 -0.3055  0.0169
 3493SOL    HW120583   0.685   5.327   1.796 -1.0755  1.1959 -0.3854
 3493SOL    HW220584   0.568   5.355   1.686 -2.0266 -1.2666 -0.0297
 3494SOL     OW20585   3.259   2.782   2.414 -0.3745  0.2483 -0.1537
 3494SOL    HW120586   3.162   2.764   2.428  0.1656 -1.8629  0.9585
 3494SOL    HW220587   3.280   2.875   2.443 -1.9800  0.5892 -0.0484
 3495SOL     OW20588   1.120   0.178   1.715 -0.0174 -0.1709  0.3465
 3495SOL    HW120589   1.124   0.186   1.815 -0.4557 -1.0719  0.4404
 3495SOL    HW220590   1.059   0.103   1.690 -0.0340  0.1541 -0.6070
 3496SOL     OW20591   2.273   4.817   1.983 -0.0655  0.0304 -0.3974
 3496SOL    HW120592   2.292   4.723   1.955  2.4236  0.6188 -0.7762
 3496SOL    HW220593   2.199   4.853   1.927  0.6747 -0.8718 -1.9872
 3497SOL     OW20594   8.137   5.747   2.050  0.1692  0.2541 -0.1278
 3497SOL    HW120595   8.090   5.835   2.059  1.3950  0.6871  2.6120
 3497SOL    HW220596   8.114   5.689   2.128  1.1555 -1.0012 -0.7494
 3498SOL     OW20597   3.662   0.648   1.650  0.2157  0.0355  0.1784
 3498SOL    HW120598   3.718   0.731   1.651  1.4981 -0.7999 -0.7431
 3498SOL    HW220599   3.615   0.639   1.738 -0.5603  2.1437 -0.0008
 3499SOL     OW20600   2.729   1.785   2.157  0.3888  0.3681 -0.6376
 3499SOL    HW120601   2.683   1.812   2.072  1.4388  0.5693 -1.1468
 3499SOL    HW220602   2.820   1.825   2.160  0.2932  0.5083  0.6792
 3500SOL     OW20603   4.548   3.858   0.351  0.7724  0.3814  0.5684
 3500SOL    HW120604   4.493   3.775   0.342  0.2744  0.5075  2.1395
 3500SOL    HW220605   4.496   3.936   0.317  0.9198  0.1639 -0.1565
 3501SOL     OW20606   3.749   8.573   0.910 -0.0203  0.0786  0.4395
 3501SOL    HW120607   3.761   8.604   0.816  0.3181 -0.4798  0.2928
 3501SOL    HW220608   3.712   8.648   0.966 -0.9804  0.1692 -0.3050
 3502SOL     OW20609   2.970   4.881   1.907 -0.5387 -0.1658 -0.7916
 3502SOL    HW120610   2.954   4.946   1.981  1.1885 -0.2138 -0.3445
 3502SOL    HW220611   2.961   4.928   1.819  0.2012  0.5826 -0.4807
 3503SOL     OW20612   1.133   1.720   0.720  0.5667 -0.1692  0.5281
 3503SOL    HW120613   1.116   1.725   0.819 -2.7755  0.2809 -0.0236
 3503SOL    HW220614   1.112   1.628   0.687  0.0949  0.1308 -0.0189
 3504SOL     OW20615   1.532   4.795   1.782  0.2260  0.2129  0.8919
 3504SOL    HW120616   1.626   4.808   1.751 -0.0761 -2.0652 -1.0480
 3504SOL    HW220617   1.502   4.702   1.762 -3.2996  1.6317 -0.8603
 3505SOL     OW20618   4.127   4.060   0.518 -0.4940 -0.2394 -0.5535
 3505SOL    HW120619   4.047   4.017   0.560 -0.8146 -0.0699 -0.9889
 3505SOL    HW220620   4.106   4.085   0.423 -0.2790  0.7911 -0.3360
 3506SOL     OW20621   1.707   0.999   0.847 -0.5262  0.3268 -1.0361
 3506SOL    HW120622   1.709   1.097   0.867  2.4536  0.3387 -1.2838
 3506SOL    HW220623   1.726   0.947   0.931 -2.2247 -0.0687 -0.8752
 3507SOL     OW20624   2.540   3.233   0.224 -0.3595  0.2372  0.1951
 3507SOL    HW120625   2.519   3.307   0.160 -0.3067  1.6331  1.7714
 3507SOL    HW220626   2.456   3.200   0.266  0.0386  2.8913  3.2731
 3508SOL     OW20627   9.270   4.904   1.876 -0.2252  0.0104 -0.8398
 3508SOL    HW120628   9.264   4.810   1.842  0.7665 -0.1558 -0.5950
 3508SOL    HW220629   9.346   4.911   1.940 -1.3365  0.6091  0.4258
 3509SOL     OW20630   2.099   3.485   1.039 -0.0981  0.1345  0.7336
 3509SOL    HW120631   2.166   3.459   1.108  0.4234  1.0094  0.5705
 3509SOL    HW220632   2.089   3.411   0.973  0.0145 -0.3758  1.2871
 3510SOL     OW20633   1.484   9.808   0.130  0.4769 -0.0665 -0.3709
 3510SOL    HW120634   1.502   9.895   0.177  0.5285 -0.0071 -0.5001
 3510SOL    HW220635   1.400   9.768   0.166  0.2497  0.2209 -0.5773
 3511SOL     OW20636   3.293   2.060   2.545  1.1640 -0.1034  0.1357
 3511SOL    HW120637   3.313   1.962   2.540  2.8842  0.1354  1.9389
 3511SOL    HW220638   3.369   2.108   2.588 -0.8462  1.6480  1.8199
 3512SOL     OW20639   0.076   6.089   2.234  0.1295 -0.4351 -0.1180
 3512SOL    HW120640  -0.015   6.113   2.202 -0.0258 -1.0463 -0.1453
 3512SOL    HW220641   0.125   6.172   2.262 -0.2508 -0.0579 -0.5742
 3513SOL     OW20642   2.091   4.043   2.418  0.1054 -0.1427  0.5319
 3513SOL    HW120643   2.136   4.066   2.332  0.6383  0.5471  0.9922
 3513SOL    HW220644   2.010   4.100   2.429  0.0893 -0.1666  0.5394
 3514SOL     OW20645   1.661   9.429   2.119 -0.5575  0.1121 -0.1396
 3514SOL    HW120646   1.702   9.468   2.036  0.5260  0.6159  0.6269
 3514SOL    HW220647   1.624   9.502   2.176 -0.7317 -0.1874  0.1306
 3515SOL     OW20648   0.606   0.211   2.773  0.1474  0.4139 -0.1567
 3515SOL    HW120649   0.524   0.164   2.807  0.8514  0.0623  1.1214
 3515SOL    HW220650   0.582   0.304   2.745 -1.1499 -0.4750 -2.1254
 3516SOL     OW20651   2.435   6.648   2.225 -0.5087  0.1348 -0.5425
 3516SOL    HW120652   2.535   6.654   2.216 -0.4169 -0.2334  0.1726
 3516SOL    HW220653   2.393   6.663   2.136  0.2514 -1.0826 -1.1289
 3517SOL     OW20654   0.110   4.562   0.577  0.4410  0.7279  0.3188
 3517SOL    HW120655   0.147   4.602   0.661 -1.3999  3.0383  0.0926
 3517SOL    HW220656   0.098   4.464   0.589 -0.9122  1.1834  3.2172
 3518SOL     OW20657   3.834   8.845   0.741 -0.0715 -0.3686 -0.2381
 3518SOL    HW120658   3.858   8.919   0.678 -0.4693 -0.6387 -0.7077
 3518SOL    HW220659   3.918   8.800   0.773  0.2202  0.7670  0.6512
 3519SOL     OW20660   4.249   3.014   0.082 -0.1866  0.0686 -0.0826
 3519SOL    HW120661   4.347   3.036   0.087 -0.4068  1.8078 -2.3292
 3519SOL    HW220662   4.237   2.915   0.075  1.3868 -0.1968  0.8276
 3520SOL     OW20663   0.757   6.410   1.561  1.3784  0.4518  0.4931
 3520SOL    HW120664   0.773   6.318   1.526  0.5522  0.7445 -0.6749
 3520SOL    HW220665   0.689   6.405   1.635  1.0976  0.1536  0.2223
 3521SOL     OW20666   9.573   2.883   2.627 -0.1571  0.1998 -0.4418
 3521SOL    HW120667   9.661   2.850   2.591 -0.2742 -0.9659  0.2979
 3521SOL    HW220668   9.542   2.960   2.573  0.8241 -0.0285 -1.3587
 3522SOL     OW20669   3.654   2.017   0.376  0.7488 -0.8860 -0.1276
 3522SOL    HW120670   3.675   2.030   0.279 -2.1290  1.1958 -0.5376
 3522SOL    HW220671   3.579   1.951   0.385 -1.1045  1.2488  0.4466
 3523SOL     OW20672   0.245   7.671   0.199 -0.2575  0.4837 -0.7141
 3523SOL    HW120673   0.250   7.593   0.261  2.3790  0.1050 -1.3291
 3523SOL    HW220674   0.151   7.706   0.197 -0.8036 -0.6548  2.0068
 3524SOL     OW20675   9.597   3.972   0.271  0.3454 -0.3044  0.0057
 3524SOL    HW120676   9.620   3.885   0.316  0.2585  0.4396  1.5371
 3524SOL    HW220677   9.528   3.956   0.201 -1.3748 -1.1733  1.8334
 3525SOL     OW20678   3.350   0.766   2.922  0.3217 -0.9655 -0.0625
 3525SOL    HW120679   3.285   0.700   2.959 -0.3894 -0.3109 -0.1376
 3525SOL    HW220680   3.435   0.719   2.898 -0.6309 -2.0855 -1.3323
 3526SOL     OW20681   2.555   3.669   2.285 -0.0018 -0.1157 -0.6065
 3526SOL    HW120682   2.540   3.575   2.314 -1.1380  0.2526  0.0005
 3526SOL    HW220683   2.649   3.696   2.307  0.4760 -1.2595 -1.2241
 3527SOL     OW20684   1.955   7.897   1.714  0.1211 -0.3630 -0.3739
 3527SOL    HW120685   1.990   7.963   1.780 -0.2517  1.0291 -1.5331
 3527SOL    HW220686   1.895   7.832   1.760  0.5377  0.0610  0.7890
 3528SOL     OW20687   2.169   0.369   2.194 -0.3162  0.1102  0.0341
 3528SOL    HW120688   2.074   0.351   2.172 -0.4554  1.8177 -0.7684
 3528SOL    HW220689   2.218   0.400   2.112  0.1617  2.3761  1.1556
 3529SOL     OW20690   1.176   2.120   1.738  0.0534  0.1882  0.2606
 3529SOL    HW120691   1.148   2.025   1.723 -0.2663 -0.1024  2.4789
 3529SOL    HW220692   1.248   2.122   1.807  0.0543  1.5631  0.2256
 3530SOL     OW20693   3.672   3.804   1.604  0.0671 -0.1771  0.7128
 3530SOL    HW120694   3.577   3.833   1.589  0.2603  0.5197  0.7829
 3530SOL    HW220695   3.681   3.762   1.694 -0.2120 -0.4111  0.6318
 3531SOL     OW20696   3.971   9.147   0.995 -0.0197 -0.1432 -0.5714
 3531SOL    HW120697   3.876   9.122   0.975 -0.3062  1.7852 -1.7635
 3531SOL    HW220698   3.984   9.151   1.094 -0.9169 -1.3778 -0.3941
 3532SOL     OW20699   1.543   9.381   2.446  0.6378 -0.2773 -0.1810
 3532SOL    HW120700   1.620   9.321   2.423  1.1173 -0.0713  0.8472
 3532SOL    HW220701   1.480   9.333   2.507 -0.3589 -0.6481 -1.5005
 3533SOL     OW20702   1.168   7.999   0.325 -0.3352 -0.0467  0.5990
 3533SOL    HW120703   1.256   7.953   0.334  0.5520  1.4164 -0.2907
 3533SOL    HW220704   1.131   7.982   0.233 -1.5442 -1.5777  1.3399
 3534SOL     OW20705   9.804   4.851   2.936  0.0452 -0.1875  0.3951
 3534SOL    HW120706   9.888   4.836   2.989 -0.2785 -1.8188  0.4742
 3534SOL    HW220707   9.828   4.884   2.845  0.7746 -0.5828  0.4345
 3535SOL     OW20708   1.443   9.954   0.761  0.3553 -0.6194 -0.0080
 3535SOL    HW120709   1.401  10.027   0.707  0.3901  1.3501  2.5311
 3535SOL    HW220710   1.534   9.934   0.724  0.0275  0.0366 -1.2266
 3536SOL     OW20711   0.480   2.406   0.903  0.4509 -0.0005  0.3905
 3536SOL    HW120712   0.426   2.339   0.853 -0.8375  1.1221  0.2649
 3536SOL    HW220713   0.420   2.460   0.962  1.4753  1.0892  0.4463
 3537SOL     OW20714   0.122   0.774   0.558  0.3515  0.0578 -0.1281
 3537SOL    HW120715   0.133   0.848   0.624  0.1657 -1.9856  2.2712
 3537SOL    HW220716   0.193   0.705   0.574 -1.8256 -2.1316  0.2361
 3538SOL     OW20717   0.650   8.226   0.725 -0.3731 -0.3452 -0.4804
 3538SOL    HW120718   0.590   8.154   0.759  0.1612 -0.3388  0.5007
 3538SOL    HW220719   0.736   8.185   0.693  0.8836  0.0299  2.2383
 3539SOL     OW20720   2.824   8.377   1.201  0.1923  0.2108 -0.4352
 3539SOL    HW120721   2.908   8.350   1.154 -0.3374 -1.2921 -0.5667
 3539SOL    HW220722   2.775   8.445   1.145  1.3789  1.1932 -0.2843
 3540SOL     OW20723   0.310   7.217   1.806 -0.2286 -0.6848 -0.2818
 3540SOL    HW120724   0.389   7.265   1.843 -0.4692 -0.4739 -0.0335
 3540SOL    HW220725   0.271   7.158   1.877  0.1762 -1.3905 -0.6398
 3541SOL     OW20726   3.581   4.109   2.085  0.0812  0.2535 -0.2007
 3541SOL    HW120727   3.546   4.077   1.997 -1.6038  1.7155 -0.0927
 3541SOL    HW220728   3.536   4.195   2.110  0.2097 -0.3523  2.2952
 3542SOL     OW20729   2.600   2.783   2.587 -0.2655  0.2626 -0.1410
 3542SOL    HW120730   2.627   2.760   2.493 -0.5102 -0.4226 -0.0438
 3542SOL    HW220731   2.530   2.854   2.586 -2.4897 -1.8700 -0.5970
 3543SOL     OW20732   8.348   3.235   1.846 -0.3314  0.2842  0.4149
 3543SOL    HW120733   8.394   3.147   1.847 -1.3864 -0.3034 -0.5357
 3543SOL    HW220734   8.347   3.274   1.938 -0.4138 -0.9910  0.9616
 3544SOL     OW20735   4.094   0.055   0.318  0.4013  0.4250  0.7864
 3544SOL    HW120736   4.133   0.142   0.290  0.1545  1.5780  3.8643
 3544SOL    HW220737   4.152   0.013   0.387 -0.4727 -0.9554  0.7024
 3545SOL     OW20738   2.290   2.966   2.194 -0.3745  0.4466  0.2220
 3545SOL    HW120739   2.241   3.045   2.232 -0.8570 -0.0332  0.5961
 3545SOL    HW220740   2.324   2.989   2.103 -0.2031  1.2135  0.4722
 3546SOL     OW20741   9.776   0.550   0.267  0.5766  0.2419 -0.0399
 3546SOL    HW120742   9.715   0.562   0.346  0.7588 -1.2043  0.3362
 3546SOL    HW220743   9.871   0.558   0.297  0.6150  1.4248 -0.4380
 3547SOL     OW20744   0.653   3.516   1.305 -0.5328 -0.0678  0.5243
 3547SOL    HW120745   0.561   3.552   1.292  0.0224  0.3084 -2.5931
 3547SOL    HW220746   0.705   3.524   1.221  1.4503 -2.9777  1.3690
 3548SOL     OW20747   2.625   2.018   2.860 -0.0029  0.3286 -0.1453
 3548SOL    HW120748   2.588   2.061   2.943  2.0181 -0.1985  1.0814
 3548SOL    HW220749   2.600   2.072   2.780 -2.4678  0.5469  0.7370
 3549SOL     OW20750   8.519   5.018   0.857  0.1178  0.8324  0.0391
 3549SOL    HW120751   8.510   5.067   0.770 -1.4773  0.7916  0.1634
 3549SOL    HW220752   8.559   4.928   0.840 -2.2077 -0.0470 -0.9821
 3550SOL     OW20753   0.094   9.853   2.433 -0.0198  0.0002 -0.0637
 3550SOL    HW120754   0.110   9.826   2.527 -0.2015 -1.4741 -0.4398
 3550SOL    HW220755   0.045   9.779   2.385 -4.3332  2.6558 -0.0144
 3551SOL     OW20756   9.677   1.416   1.433  0.0647 -0.3621  0.3389
 3551SOL    HW120757   9.675   1.487   1.503 -1.2194 -0.4544  0.4070
 3551SOL    HW220758   9.753   1.433   1.371 -0.0601  0.9223  0.5167
 3552SOL     OW20759   2.089   7.255   2.215  0.1292  0.8011 -0.6827
 3552SOL    HW120760   2.080   7.156   2.201  0.9629  0.6627 -0.2829
 3552SOL    HW220761   2.146   7.272   2.295 -3.0096  1.5909  1.4577
 3553SOL     OW20762   7.926   5.921   2.402 -0.2444  0.6049  0.0347
 3553SOL    HW120763   7.873   5.844   2.368  0.2239  0.4569 -0.3632
 3553SOL    HW220764   7.906   6.002   2.346  1.9208 -0.0812 -1.8040
 3554SOL     OW20765   1.050   0.608   1.860  0.2744 -0.0789  0.6375
 3554SOL    HW120766   0.981   0.596   1.931  0.5519 -0.0739  0.9128
 3554SOL    HW220767   1.139   0.624   1.903  0.3765  0.3169  0.2847
 3555SOL     OW20768   9.976   8.647   1.506  0.7239  0.2830  0.2441
 3555SOL    HW120769  10.017   8.687   1.588  0.4156 -0.7183  0.9079
 3555SOL    HW220770   9.922   8.716   1.459  1.3931  1.0333  0.5546
 3556SOL     OW20771   1.117   3.770   1.299 -0.1495 -0.1211  0.3131
 3556SOL    HW120772   1.042   3.800   1.240  0.0544 -0.0861  0.0745
 3556SOL    HW220773   1.200   3.821   1.277 -0.2026  0.2473  0.9723
 3557SOL     OW20774   3.481   5.732   0.291 -0.0022 -0.3012  0.3319
 3557SOL    HW120775   3.402   5.768   0.340  0.7855 -0.7278  1.9821
 3557SOL    HW220776   3.452   5.656   0.232 -0.9874  0.2806  0.0580
 3558SOL     OW20777   1.232   7.720   0.478 -0.1756  0.1347  0.2738
 3558SOL    HW120778   1.137   7.730   0.450 -0.1023  0.1959  0.0427
 3558SOL    HW220779   1.285   7.680   0.403 -0.4973 -2.1746  1.2420
 3559SOL     OW20780   3.576   1.134   1.687  0.4035 -0.0561 -0.6369
 3559SOL    HW120781   3.503   1.067   1.676  0.1688  0.1171 -0.1585
 3559SOL    HW220782   3.589   1.154   1.784  1.4303 -0.4585 -0.6805
 3560SOL     OW20783   0.472   1.892   1.083  0.0549  0.2365  0.5396
 3560SOL    HW120784   0.478   1.972   1.023  1.8983  0.0938  0.5167
 3560SOL    HW220785   0.415   1.914   1.162 -0.9601  0.9783 -0.3831
 3561SOL     OW20786   4.355   4.226   2.896 -0.6910 -0.0642  0.3331
 3561SOL    HW120787   4.297   4.299   2.931 -0.7559 -0.7917  1.7729
 3561SOL    HW220788   4.304   4.172   2.829 -1.8358 -0.9828  1.9308
 3562SOL     OW20789   0.586   3.363   1.925 -0.0842  0.4530  0.1039
 3562SOL    HW120790   0.509   3.342   1.986 -0.8017 -1.7306 -1.5044
 3562SOL    HW220791   0.552   3.376   1.832  1.5460 -1.0903 -0.7312
 3563SOL     OW20792   3.930   0.575   1.640 -0.3008  0.1660  0.4675
 3563SOL    HW120793   3.871   0.502   1.674 -0.0592  0.3734  1.3645
 3563SOL    HW220794   3.875   0.643   1.591 -1.0420  1.0496  2.4614
 3564SOL     OW20795   1.608   5.840   1.388 -0.3372 -0.2051  0.2179
 3564SOL    HW120796   1.678   5.790   1.439  0.1399  0.5229  0.2908
 3564SOL    HW220797   1.607   5.808   1.293 -0.2547 -0.5695  0.3381
 3565SOL     OW20798   3.855   2.418   0.640 -0.1666  0.7312 -0.0890
 3565SOL    HW120799   3.876   2.416   0.738 -0.3601 -1.5060 -0.0607
 3565SOL    HW220800   3.940   2.408   0.588 -0.2329  0.2277 -0.1072
 3566SOL     OW20801   0.823   4.350   0.182 -0.5127 -0.1206 -0.5987
 3566SOL    HW120802   0.894   4.285   0.210  0.4694  1.1274 -0.1563
 3566SOL    HW220803   0.768   4.310   0.109 -0.1686 -1.6064 -0.0665
 3567SOL     OW20804   4.678   2.774   0.400 -0.3776 -0.0642 -0.1938
 3567SOL    HW120805   4.702   2.678   0.383 -2.4141 -0.4567 -1.0921
 3567SOL    HW220806   4.578   2.782   0.409 -0.1718  1.8504  0.7465
 3568SOL     OW20807   1.678   6.675   0.368  0.5902 -0.0757  0.6572
 3568SOL    HW120808   1.652   6.583   0.396  0.2430  0.0882  0.8707
 3568SOL    HW220809   1.761   6.703   0.416 -0.8113  0.7730  2.6151
 3569SOL     OW20810   2.916   0.539   1.883  0.1542 -0.3857 -0.1655
 3569SOL    HW120811   2.823   0.548   1.849  0.7760  0.8995 -1.6240
 3569SOL    HW220812   2.924   0.456   1.938 -1.4968 -1.2870 -1.2350
 3570SOL     OW20813   0.434   8.647   1.373  0.1740 -0.0522 -0.0557
 3570SOL    HW120814   0.498   8.614   1.444 -0.9901 -3.0019 -0.2968
 3570SOL    HW220815   0.364   8.703   1.415  0.5253 -0.2872  0.8642
 3571SOL     OW20816   8.806   6.417   1.465 -0.5542 -0.5137  0.0250
 3571SOL    HW120817   8.776   6.329   1.428 -0.6285  0.6549 -2.8275
 3571SOL    HW220818   8.905   6.417   1.476 -0.5774 -1.0300  0.2303
 3572SOL     OW20819   0.078   2.444   0.589 -0.2903 -0.1675  0.1420
 3572SOL    HW120820   0.077   2.380   0.666  0.7877 -2.3019 -1.5610
 3572SOL    HW220821   0.172   2.467   0.565 -0.5277 -1.2784 -1.9379
 3573SOL     OW20822   2.004   1.432   1.949 -0.0993 -0.0373  0.0654
 3573SOL    HW120823   2.025   1.432   1.851 -0.6540  0.2042 -0.0610
 3573SOL    HW220824   2.088   1.429   2.002  0.2570  1.1163 -0.4148
 3574SOL     OW20825   1.658   2.348   2.592  0.2638 -0.7442  0.2159
 3574SOL    HW120826   1.752   2.354   2.625  0.4949 -0.5170 -0.4750
 3574SOL    HW220827   1.656   2.297   2.507 -0.3648 -1.5275  0.6926
 3575SOL     OW20828   0.331   6.787   0.660 -1.2955  0.4556 -0.2601
 3575SOL    HW120829   0.407   6.845   0.689 -0.5353 -0.0939 -1.1300
 3575SOL    HW220830   0.363   6.723   0.589 -1.3078 -3.1348  2.7902
 3576SOL     OW20831   9.577   5.457   1.089  0.0341 -0.1494  0.0926
 3576SOL    HW120832   9.628   5.374   1.063  2.1370  0.1456  3.0007
 3576SOL    HW220833   9.482   5.448   1.058  1.1798 -1.7994 -3.2907
 3577SOL     OW20834   2.667   9.893   1.631  0.5735  0.1099  0.6335
 3577SOL    HW120835   2.731   9.848   1.569 -2.5083 -1.6829 -1.3696
 3577SOL    HW220836   2.633   9.827   1.697 -3.2662 -0.3881 -1.7203
 3578SOL     OW20837   0.367   1.838   1.985 -0.1749  0.0247  0.3191
 3578SOL    HW120838   0.378   1.742   1.959  0.3692  0.1267  0.1603
 3578SOL    HW220839   0.442   1.865   2.045  0.0995  0.5597 -0.2538
 3579SOL     OW20840   2.235   8.799   2.851  0.1892 -0.9870 -0.4364
 3579SOL    HW120841   2.280   8.888   2.850 -0.3026 -0.7413 -1.3492
 3579SOL    HW220842   2.183   8.789   2.936  0.7272 -0.6458 -0.0682
 3580SOL     OW20843   0.123   1.517   2.243  0.4687  0.0553 -0.0565
 3580SOL    HW120844   0.112   1.501   2.144  0.7773  0.3621 -0.1403
 3580SOL    HW220845   0.218   1.501   2.269  0.1662 -1.0538  0.3846
 3581SOL     OW20846   9.891   9.461   0.954 -0.2137 -0.8226 -0.0626
 3581SOL    HW120847   9.797   9.488   0.933 -0.3316 -1.6943 -0.7031
 3581SOL    HW220848   9.925   9.400   0.882  1.1741  0.2284 -0.3129
 3582SOL     OW20849   4.719   3.380   1.250 -0.0636  0.2973  0.0206
 3582SOL    HW120850   4.672   3.423   1.173 -0.8417  1.3461  1.0644
 3582SOL    HW220851   4.763   3.295   1.219  0.5489  1.2555 -1.8041
 3583SOL     OW20852   2.876   4.847   1.177  0.2331 -0.2324 -0.0583
 3583SOL    HW120853   2.782   4.869   1.206 -0.6472 -2.7079 -0.9233
 3583SOL    HW220854   2.897   4.895   1.092  0.1613  1.2054  0.7230
 3584SOL     OW20855   0.220   2.317   1.563  0.1223  0.0894 -0.1445
 3584SOL    HW120856   0.242   2.253   1.635  0.3499  1.4702  1.0365
 3584SOL    HW220857   0.303   2.339   1.511  0.7734  2.0495  1.6399
 3585SOL     OW20858   4.402   9.897   1.730  0.7048 -0.4315 -0.0904
 3585SOL    HW120859   4.351   9.976   1.764  0.4268 -0.4020 -0.5743
 3585SOL    HW220860   4.483   9.882   1.787 -1.2623 -2.1426  2.3537
 3586SOL     OW20861   0.573   3.030   0.348 -0.0548 -0.1220 -0.0171
 3586SOL    HW120862   0.559   2.933   0.367  3.4720 -1.1077 -1.9344
 3586SOL    HW220863   0.519   3.056   0.268  2.3232 -1.7004 -2.2235
 3587SOL     OW20864   8.676   7.166   1.260  0.3895  0.3503 -0.5859
 3587SOL    HW120865   8.752   7.108   1.288 -0.2248  0.4374  1.3236
 3587SOL    HW220866   8.709   7.257   1.236  0.9456  0.2373 -0.2424
 3588SOL     OW20867   2.037   0.644   1.502  0.2936  0.5371  0.1739
 3588SOL    HW120868   1.962   0.599   1.552 -0.3432  0.5000 -0.7941
 3588SOL    HW220869   2.013   0.650   1.405  0.3725  2.9697  0.2845
 3589SOL     OW20870   0.579   0.045   1.550 -0.5334  0.1976  0.4876
 3589SOL    HW120871   0.619   0.118   1.605  1.0531  0.3749 -0.8638
 3589SOL    HW220872   0.642   0.020   1.477 -1.7439 -1.4340 -0.0297
 3590SOL     OW20873   0.303   5.473   1.842 -0.2147 -0.0356 -0.1411
 3590SOL    HW120874   0.359   5.471   1.760 -0.9729  1.8654 -0.7232
 3590SOL    HW220875   0.256   5.385   1.853  0.8285 -0.7170 -1.0633
 3591SOL     OW20876   2.619   0.875   0.077  0.6268  0.8466 -0.0721
 3591SOL    HW120877   2.618   0.975   0.083 -1.4211  0.9499 -1.5980
 3591SOL    HW220878   2.703   0.845   0.032  0.1125  2.0810 -1.9382
 3592SOL     OW20879   9.986   5.409   1.395 -0.0026 -0.0336 -0.2567
 3592SOL    HW120880  10.000   5.351   1.475  1.5579 -1.3427 -1.4307
 3592SOL    HW220881   9.890   5.407   1.369 -1.1551  2.8043  3.3204
 3593SOL     OW20882   3.197   0.948   0.894  0.5188 -0.5064 -0.0678
 3593SOL    HW120883   3.112   0.992   0.924 -0.7513 -4.2715  2.2019
 3593SOL    HW220884   3.206   0.955   0.795  0.0395  4.0979  0.1038
 3594SOL     OW20885   3.130   1.635   0.086 -0.2192  0.6446  0.0969
 3594SOL    HW120886   3.124   1.587  -0.001  1.6844 -0.0633  0.3377
 3594SOL    HW220887   3.123   1.570   0.161 -0.9386  1.1426  0.4670
 3595SOL     OW20888   0.755   9.683   1.826  0.3417 -0.4108  0.6770
 3595SOL    HW120889   0.754   9.587   1.799 -1.5128 -0.1940 -0.1144
 3595SOL    HW220890   0.667   9.707   1.867  1.5544  0.4055  2.8864
 3596SOL     OW20891   4.003   3.269   0.387  0.4521 -0.1366 -0.6490
 3596SOL    HW120892   3.964   3.309   0.471 -0.2661 -1.6315 -0.2386
 3596SOL    HW220893   4.092   3.229   0.408 -0.7901 -2.6687  0.0136
 3597SOL     OW20894   3.786   4.068   1.609 -0.2944  0.3508 -0.1277
 3597SOL    HW120895   3.845   4.110   1.540 -0.6143  0.3278 -0.4216
 3597SOL    HW220896   3.773   3.971   1.587 -1.3802  0.6242 -0.7259
 3598SOL     OW20897   0.713   5.898   0.883  0.5023  0.5608  0.4129
 3598SOL    HW120898   0.693   5.979   0.938  1.8927 -0.2320  2.1037
 3598SOL    HW220899   0.773   5.837   0.933  2.6046  0.2592 -2.3385
 3599SOL     OW20900   0.267   3.566   2.630  0.5832 -0.1331 -0.4176
 3599SOL    HW120901   0.186   3.512   2.610  0.5862  0.0243 -0.8693
 3599SOL    HW220902   0.349   3.516   2.602  0.7312 -0.8252  1.1810
 3600SOL     OW20903   3.155   2.570   1.231 -0.3795 -0.0019  0.1291
 3600SOL    HW120904   3.227   2.639   1.229 -0.3846 -0.0154 -1.1890
 3600SOL    HW220905   3.192   2.481   1.204 -1.2350  0.3631 -2.4257
 3601SOL     OW20906   2.435   4.762   0.529 -0.1452 -0.0568 -0.0136
 3601SOL    HW120907   2.339   4.770   0.556  0.0705 -1.3162  1.1420
 3601SOL    HW220908   2.492   4.748   0.610  0.9054 -0.2979 -0.7845
 3602SOL     OW20909   4.939   4.101   2.060 -0.4299 -0.0133 -0.3393
 3602SOL    HW120910   4.876   4.142   1.994 -0.8013  0.5594  0.3509
 3602SOL    HW220911   4.888   4.073   2.142 -0.2733 -2.4247 -1.0307
 3603SOL     OW20912   2.660   2.206   0.339 -0.3354 -0.0058 -0.0001
 3603SOL    HW120913   2.561   2.215   0.349 -0.3449 -0.3751  0.2375
 3603SOL    HW220914   2.690   2.258   0.259 -0.7860 -0.2628 -0.3411
 3604SOL     OW20915   0.472   3.750   2.125 -0.5484 -0.7702  0.2562
 3604SOL    HW120916   0.392   3.746   2.065 -0.2881 -1.3923 -0.0597
 3604SOL    HW220917   0.547   3.795   2.076 -0.6923 -0.2329  0.5334
 3605SOL     OW20918   2.497   1.451   1.251 -0.0240  0.4827 -0.4087
 3605SOL    HW120919   2.398   1.464   1.241  0.2813  2.2095 -1.4748
 3605SOL    HW220920   2.519   1.429   1.346 -1.4283  0.0760 -0.1753
 3606SOL     OW20921   0.082   7.432   0.058 -0.0599  0.5085 -0.2376
 3606SOL    HW120922   0.158   7.442   0.122 -0.4274  1.1721  0.0949
 3606SOL    HW220923   0.061   7.521   0.017 -1.5792  0.5872  0.7108
 3607SOL     OW20924   9.291   6.565   0.485  0.3370 -0.1131  0.1277
 3607SOL    HW120925   9.264   6.474   0.518  1.5238 -0.8757 -0.9500
 3607SOL    HW220926   9.357   6.604   0.549  3.3247 -1.9706 -1.6750
 3608SOL     OW20927   9.515   3.819   1.638  0.0275 -0.5229  0.0745
 3608SOL    HW120928   9.523   3.729   1.595 -0.5357  0.4042 -2.0296
 3608SOL    HW220929   9.607   3.858   1.649  0.2460 -1.1813  0.6585
 3609SOL     OW20930   2.637   5.709   0.254 -0.0910 -0.4257 -0.9592
 3609SOL    HW120931   2.637   5.809   0.242 -0.8127 -0.3438 -0.3268
 3609SOL    HW220932   2.729   5.679   0.279 -0.2549  0.3186  0.5988
 3610SOL     OW20933   3.358   2.287   1.113  0.0232 -0.0370 -0.1029
 3610SOL    HW120934   3.352   2.256   1.208  0.6732  0.2070  0.0188
 3610SOL    HW220935   3.307   2.224   1.054 -0.8029  0.0936  0.4715
 3611SOL     OW20936   1.183   8.064   1.290 -0.3376 -0.5622 -0.2464
 3611SOL    HW120937   1.177   8.135   1.220  0.0102 -2.0554 -1.8218
 3611SOL    HW220938   1.190   8.106   1.380 -0.9189  1.3869 -1.0982
 3612SOL     OW20939   0.360   0.320   0.543  0.1007 -0.5075  0.7296
 3612SOL    HW120940   0.312   0.312   0.456 -0.1425  2.2833  0.5581
 3612SOL    HW220941   0.449   0.274   0.537 -0.0959 -0.6987 -0.8345
 3613SOL     OW20942   1.070   1.301   2.296  0.0846 -0.1179 -0.1367
 3613SOL    HW120943   1.128   1.381   2.306 -0.3701  0.5897 -2.8010
 3613SOL    HW220944   1.117   1.221   2.334  0.7463  1.2920  2.0721
 3614SOL     OW20945   2.587   0.441   2.467 -0.7050  0.1389 -0.3173
 3614SOL    HW120946   2.586   0.400   2.558  1.1856  0.1573 -0.2668
 3614SOL    HW220947   2.649   0.390   2.407 -1.2870  0.6244 -1.3665
 3615SOL     OW20948   0.787   1.665   1.500 -0.1387 -0.7384  0.1236
 3615SOL    HW120949   0.816   1.732   1.569  1.9749 -0.4979 -0.9453
 3615SOL    HW220950   0.704   1.697   1.455 -0.0720  0.3695  0.7812
 3616SOL     OW20951   1.652   9.514   1.171  0.2117 -0.4897 -0.2256
 3616SOL    HW120952   1.557   9.512   1.139  0.3815 -1.7306 -0.6884
 3616SOL    HW220953   1.689   9.606   1.161 -0.2284 -0.5150 -2.1664
 3617SOL     OW20954   8.761   6.786   0.764 -0.5401  0.7088 -0.1469
 3617SOL    HW120955   8.742   6.833   0.677 -1.3107  0.1358 -0.2957
 3617SOL    HW220956   8.675   6.756   0.805 -0.2341  1.6358  1.2023
 3618SOL     OW20957   1.199   7.432   2.436 -0.5911  0.0793 -0.1426
 3618SOL    HW120958   1.244   7.355   2.391 -0.7235 -0.3582  0.4729
 3618SOL    HW220959   1.143   7.482   2.370  1.0797  0.8503 -1.0115
 3619SOL     OW20960   1.943   3.965   1.666  0.0812  0.1702  0.1512
 3619SOL    HW120961   1.872   3.895   1.673 -0.6011  0.8157 -0.2601
 3619SOL    HW220962   1.911   4.039   1.607  0.1683  1.5987  1.8923
 3620SOL     OW20963   0.082   2.738   0.479  0.1294 -0.4436 -0.8927
 3620SOL    HW120964   0.054   2.737   0.575 -0.3887 -2.5967 -1.0362
 3620SOL    HW220965   0.002   2.748   0.421  0.1596 -1.6543 -1.1598
 3621SOL     OW20966   3.135   6.212   0.466  0.2612 -1.0196  0.0996
 3621SOL    HW120967   3.152   6.136   0.403  0.3216 -0.6395 -0.3409
 3621SOL    HW220968   3.135   6.177   0.560  2.5861 -1.1817  0.0597
 3622SOL     OW20969   1.900   4.710   1.236 -0.3606  0.2826 -0.8490
 3622SOL    HW120970   1.889   4.804   1.267 -0.6955  0.1687 -0.6161
 3622SOL    HW220971   1.991   4.677   1.261 -0.7161  0.1015  0.2603
 3623SOL     OW20972   9.736   7.528   1.739  0.4542 -0.1250 -0.3666
 3623SOL    HW120973   9.670   7.453   1.731  0.5994 -0.3026  0.0429
 3623SOL    HW220974   9.731   7.566   1.832 -0.1588  0.8810 -0.8059
 3624SOL     OW20975   0.279   7.252   2.796  0.5001 -0.3950  0.3846
 3624SOL    HW120976   0.358   7.256   2.858  0.7173  1.0416  0.0218
 3624SOL    HW220977   0.247   7.344   2.777  0.7929 -0.7840 -2.1181
 3625SOL     OW20978   9.136   5.641   2.074 -0.5063 -0.6266 -0.1000
 3625SOL    HW120979   9.087   5.554   2.060 -0.3422 -0.4706 -1.8256
 3625SOL    HW220980   9.189   5.662   1.992 -1.2371  1.5414 -0.0531
 3626SOL     OW20981   2.757   2.489   0.694 -0.7291  0.1596  0.3652
 3626SOL    HW120982   2.787   2.395   0.707  1.0446  0.6630  0.0906
 3626SOL    HW220983   2.773   2.516   0.599 -1.9164  0.5136  0.2544
 3627SOL     OW20984   0.604   4.002   1.331 -0.2365  0.0288 -0.1851
 3627SOL    HW120985   0.668   3.954   1.391  0.5596  0.7177 -0.4850
 3627SOL    HW220986   0.597   4.097   1.360  0.8766  0.6106 -1.7667
 3628SOL     OW20987   1.080   9.217   1.723 -0.0901  0.2968 -0.1539
 3628SOL    HW120988   1.022   9.163   1.661  1.5286 -0.9330 -0.6240
 3628SOL    HW220989   1.026   9.246   1.802 -1.3684 -0.8146 -0.5971
 3629SOL     OW20990   9.783   0.469   2.150 -0.3921 -0.1846 -0.0291
 3629SOL    HW120991   9.696   0.512   2.129 -0.6494 -0.4273  0.5212
 3629SOL    HW220992   9.809   0.407   2.076  0.1425  1.1450 -0.9847
 3630SOL     OW20993   4.299   0.179   0.795  0.0367 -0.1589 -0.3752
 3630SOL    HW120994   4.387   0.227   0.790 -0.1048  0.1555  0.1100
 3630SOL    HW220995   4.239   0.211   0.722 -0.1225  0.5417  0.0568
 3631SOL     OW20996   0.209   3.050   1.742  0.5108  0.2245  0.3388
 3631SOL    HW120997   0.153   3.130   1.719 -0.2944 -0.1562  0.9274
 3631SOL    HW220998   0.290   3.047   1.683  0.3046  1.2124 -0.0021
 3632SOL     OW20999   4.240   1.973   1.768 -0.4852 -0.4936  0.1805
 3632SOL    HW121000   4.151   1.942   1.733  0.0520 -1.1607 -0.5911
 3632SOL    HW221001   4.240   1.968   1.868 -1.1780 -0.8552  0.1658
 3633SOL     OW21002   1.439   2.236   0.775  0.1171  0.2458 -0.0037
 3633SOL    HW121003   1.376   2.174   0.729 -0.5179  2.0512 -1.6777
 3633SOL    HW221004   1.465   2.198   0.864 -1.1216 -1.8437 -0.4967
 3634SOL     OW21005   1.478   1.888   0.482 -0.0201  0.2652 -0.1822
 3634SOL    HW121006   1.512   1.969   0.435 -0.1630 -0.1014 -0.9135
 3634SOL    HW221007   1.434   1.826   0.417 -0.3329 -0.1839  0.4442
 3635SOL     OW21008   0.272   4.445   1.741  0.3779  0.0544 -0.0936
 3635SOL    HW121009   0.215   4.524   1.719  2.3625  1.4479 -0.3821
 3635SOL    HW221010   0.308   4.455   1.834  0.6419 -0.4860 -0.1373
 3636SOL     OW21011   9.398   5.051   2.814 -0.3372  0.1949  0.1112
 3636SOL    HW121012   9.398   5.075   2.717 -1.1436 -2.7890 -0.6748
 3636SOL    HW221013   9.311   5.077   2.855 -0.6130  0.0288 -0.3628
 3637SOL     OW21014   2.722   8.171   2.057  0.6983 -0.3518  0.1455
 3637SOL    HW121015   2.727   8.246   1.991  0.3982 -1.7822 -1.5306
 3637SOL    HW221016   2.812   8.129   2.067  0.8818  0.2573  1.1397
 3638SOL     OW21017   1.409   0.034   1.857 -0.6503 -0.3896  0.3462
 3638SOL    HW121018   1.418  -0.046   1.916 -1.2262 -0.2486  0.6300
 3638SOL    HW221019   1.395   0.005   1.762  0.3739 -0.6143  0.2524
 3639SOL     OW21020   2.113   7.005   0.767 -0.2063  0.6153 -0.5452
 3639SOL    HW121021   2.172   7.079   0.735  0.3075  0.4900  0.0963
 3639SOL    HW221022   2.167   6.940   0.820 -0.6546 -0.2206 -1.1027
 3640SOL     OW21023   1.929   6.985   1.577 -0.2293 -0.8588 -0.0238
 3640SOL    HW121024   1.985   6.915   1.620  1.0637 -0.0163 -0.2896
 3640SOL    HW221025   1.980   7.072   1.576 -0.8110 -0.5178 -1.9037
 3641SOL     OW21026   2.685   9.744   2.145 -0.0057 -0.2475 -0.0899
 3641SOL    HW121027   2.780   9.754   2.176 -0.2445  0.6644  0.3885
 3641SOL    HW221028   2.665   9.648   2.129  0.4355 -0.6647  1.6696
 3642SOL     OW21029   1.340   2.896   2.283  0.5767  0.5956 -0.7697
 3642SOL    HW121030   1.243   2.919   2.290 -0.0226 -2.1832  1.0102
 3642SOL    HW221031   1.393   2.958   2.342 -0.3443  0.8257 -0.1698
 3643SOL     OW21032   2.858   2.240   0.705  0.3802 -0.1666  0.0434
 3643SOL    HW121033   2.857   2.174   0.630  1.2999 -0.9954  0.7307
 3643SOL    HW221034   2.848   2.191   0.792 -0.8874  0.8031  0.4452
 3644SOL     OW21035   0.854   1.843   2.260 -0.3042  0.1496 -0.1215
 3644SOL    HW121036   0.938   1.828   2.208 -0.1520 -0.9202  0.4105
 3644SOL    HW221037   0.877   1.870   2.354 -0.5753  1.7617 -0.4986
 3645SOL     OW21038   3.313   9.759   1.578  0.1805  0.1276  0.2908
 3645SOL    HW121039   3.296   9.731   1.673  0.5214  0.5970  0.4925
 3645SOL    HW221040   3.226   9.781   1.534  0.1168  1.0873  0.8709
 3646SOL     OW21041   1.595   3.161   1.893  0.0568 -0.6777  0.1294
 3646SOL    HW121042   1.545   3.198   1.814 -2.8094 -0.3608  2.0143
 3646SOL    HW221043   1.534   3.102   1.945  1.7785 -0.4804  2.4099
 3647SOL     OW21044   2.093   1.993   1.560  0.2986  0.0921  0.2409
 3647SOL    HW121045   2.018   2.058   1.568 -0.1597  0.2281 -4.1752
 3647SOL    HW221046   2.057   1.900   1.562  0.7917 -0.1188  4.8451
 3648SOL     OW21047   2.738   9.689   1.064  0.2072 -0.4235  0.0164
 3648SOL    HW121048   2.683   9.747   1.124  0.3926 -1.1012  0.8517
 3648SOL    HW221049   2.677   9.634   1.006  0.0412  1.3038 -1.4698
 3649SOL     OW21050   1.553   8.976   1.881 -0.7590 -0.4130 -0.0493
 3649SOL    HW121051   1.608   9.050   1.919 -0.8754 -1.2559  1.7813
 3649SOL    HW221052   1.488   9.014   1.814 -0.9485  1.1773  1.0109
 3650SOL     OW21053   9.450   6.903   0.786 -0.2564  0.6782 -0.0485
 3650SOL    HW121054   9.520   6.953   0.838 -1.4050 -0.6226  2.8360
 3650SOL    HW221055   9.493   6.862   0.706  1.8175  1.8060  0.4233
 3651SOL     OW21056   1.273   5.691   2.344  0.0154  0.0170 -0.0995
 3651SOL    HW121057   1.264   5.635   2.426 -0.7111  0.2139 -0.0406
 3651SOL    HW221058   1.259   5.787   2.367 -1.5154 -0.0502 -0.6672
 3652SOL     OW21059   3.328   0.111   1.052  0.7363  0.1327 -0.4670
 3652SOL    HW121060   3.277   0.142   0.972  0.0894 -2.1195 -0.9540
 3652SOL    HW221061   3.402   0.050   1.022  0.1561 -1.1471  0.6899
 3653SOL     OW21062   3.243   4.096   2.940  0.4619 -0.5704  0.0115
 3653SOL    HW121063   3.223   4.083   2.843  0.2382  1.7725 -0.3001
 3653SOL    HW221064   3.175   4.157   2.980  2.2954  0.9895  0.8779
 3654SOL     OW21065   2.922   3.041   1.521  0.3701  0.5353 -0.2191
 3654SOL    HW121066   3.017   3.043   1.554  0.5813  0.0685 -0.7832
 3654SOL    HW221067   2.919   2.993   1.433 -0.3355  0.8859 -0.3848
 3655SOL     OW21068   1.387   8.123   0.542 -0.6306 -0.4260  0.2975
 3655SOL    HW121069   1.425   8.178   0.617  0.9801 -0.6318 -0.3611
 3655SOL    HW221070   1.317   8.177   0.494  1.5312  1.4036 -0.8855
 3656SOL     OW21071   0.533   6.529   1.129 -0.3636  0.0098 -0.4533
 3656SOL    HW121072   0.519   6.514   1.227 -0.2488  0.1704 -0.4131
 3656SOL    HW221073   0.544   6.626   1.111  0.2010 -0.0705 -0.5519
 3657SOL     OW21074   9.484   5.611   2.555  0.5059 -0.1444  0.1517
 3657SOL    HW121075   9.533   5.541   2.607  0.3264  0.4808  1.1747
 3657SOL    HW221076   9.493   5.592   2.457  0.6378 -1.4670  0.4150
 3658SOL     OW21077   0.089   5.266   0.858  0.3530 -0.1227  0.2380
 3658SOL    HW121078   0.110   5.275   0.955 -0.8527  0.4082  0.4654
 3658SOL    HW221079   0.109   5.173   0.828  2.1800  0.1401  0.6248
 3659SOL     OW21080   0.523   6.964   0.692  0.0826  0.6568 -0.5813
 3659SOL    HW121081   0.599   7.013   0.651 -0.7801  1.9320 -0.7022
 3659SOL    HW221082   0.550   6.930   0.782  0.4017  2.2544 -0.0475
 3660SOL     OW21083   3.267   9.423   0.267 -0.0104 -0.1829 -0.0948
 3660SOL    HW121084   3.179   9.376   0.270  0.3537 -0.8020  1.0466
 3660SOL    HW221085   3.320   9.390   0.188  0.7679 -2.6841  1.4111
 3661SOL     OW21086   8.534   5.371   2.854  0.1515  0.0911 -0.1073
 3661SOL    HW121087   8.530   5.394   2.757 -0.1755  0.4147 -0.0168
 3661SOL    HW221088   8.571   5.448   2.906  1.9611 -0.6869 -0.1796
 3662SOL     OW21089   4.129   3.201   2.173 -0.8263  0.3610 -0.1501
 3662SOL    HW121090   4.174   3.127   2.122  1.1973  0.6005  1.2435
 3662SOL    HW221091   4.062   3.162   2.236 -3.2722  0.0511 -2.8241
 3663SOL     OW21092   0.319   9.480   0.398 -0.6178 -0.2015 -0.1352
 3663SOL    HW121093   0.385   9.485   0.323  0.5320 -0.3945  0.8507
 3663SOL    HW221094   0.256   9.558   0.393  1.6220  1.7071  0.7000
 3664SOL     OW21095   3.133   1.716   0.549 -0.3869 -0.1152  0.0086
 3664SOL    HW121096   3.215   1.667   0.519  0.5948  2.0427 -0.8706
 3664SOL    HW221097   3.052   1.673   0.507  0.7008  0.9046 -3.2903
 3665SOL     OW21098   2.863   5.266   1.605 -0.2139  0.4321  0.1475
 3665SOL    HW121099   2.903   5.357   1.592 -0.5410  0.5800  0.1710
 3665SOL    HW221100   2.791   5.252   1.537 -1.0014  0.6692  0.9312
 3666SOL     OW21101   3.140   1.824   1.213  0.0530  0.0538 -0.8938
 3666SOL    HW121102   3.067   1.758   1.196 -0.4869  0.9084 -1.9128
 3666SOL    HW221103   3.103   1.917   1.211  0.9895  0.4445 -0.4509
 3667SOL     OW21104   1.918   3.367   1.777 -0.5481  0.0921  0.1671
 3667SOL    HW121105   1.848   3.330   1.716 -1.6378  2.1869  0.0861
 3667SOL    HW221106   1.940   3.460   1.749 -0.8001  0.9570  2.7296
 3668SOL     OW21107   0.092   8.444   1.340 -0.3428 -0.2329  0.0703
 3668SOL    HW121108   0.172   8.444   1.280  1.7283  1.1150  2.6959
 3668SOL    HW221109   0.068   8.539   1.362 -1.4396 -0.6930  0.8496
 3669SOL     OW21110   4.051   4.110   0.252  0.1792  0.1257  0.5620
 3669SOL    HW121111   4.127   4.066   0.204 -0.0141 -1.2145  1.4554
 3669SOL    HW221112   3.967   4.056   0.239 -0.9643  2.3146 -1.5639
 3670SOL     OW21113   8.708   3.331   1.232  0.1419  0.6610 -0.0267
 3670SOL    HW121114   8.804   3.312   1.249 -0.2841 -1.0368  0.5133
 3670SOL    HW221115   8.652   3.252   1.259 -1.4601  1.8615  0.2784
 3671SOL     OW21116   3.742   6.023   0.410  0.0880 -0.4209 -0.0904
 3671SOL    HW121117   3.819   6.086   0.401  0.8349 -1.5465 -2.0187
 3671SOL    HW221118   3.776   5.929   0.402 -1.0694 -1.0523  2.2642
 3672SOL     OW21119   0.054   1.451   0.187  0.2206 -0.0810  0.1936
 3672SOL    HW121120   0.085   1.485   0.276  0.1224  1.2660 -0.2695
 3672SOL    HW221121   0.064   1.523   0.119  2.2664 -1.7400 -1.3497
 3673SOL     OW21122   0.311   7.113   0.565  0.6520 -0.4247 -0.5503
 3673SOL    HW121123   0.277   7.054   0.638  0.4241 -0.4703 -0.6927
 3673SOL    HW221124   0.411   7.114   0.566  0.6368  0.5466  0.5456
 3674SOL     OW21125   2.666   5.553   0.024  0.2678 -0.2199 -0.5600
 3674SOL    HW121126   2.679   5.578   0.120  0.3705  0.0070 -0.6327
 3674SOL    HW221127   2.569   5.564  -0.000  0.7564  2.7650 -1.3321
 3675SOL     OW21128   3.986   2.915   2.641 -0.4046 -0.2243 -0.5182
 3675SOL    HW121129   3.887   2.907   2.633 -0.3662 -0.1203 -1.1130
 3675SOL    HW221130   4.012   3.010   2.655 -0.5811 -0.5993  2.5220
 3676SOL     OW21131   2.734   2.246   2.249  0.7594  0.6070  0.3166
 3676SOL    HW121132   2.731   2.172   2.315 -0.0491 -0.5609 -0.9918
 3676SOL    HW221133   2.818   2.240   2.195  0.2387  0.0671 -0.4363
 3677SOL     OW21134   3.934   1.885   1.010 -0.3914 -0.0560 -0.1605
 3677SOL    HW121135   3.961   1.791   0.987  1.9056  0.7621 -1.0389
 3677SOL    HW221136   3.940   1.942   0.928 -1.3431  0.9626  0.4620
 3678SOL     OW21137   1.773   9.280   2.672 -0.1087  0.3402  0.0949
 3678SOL    HW121138   1.847   9.277   2.739 -0.2454 -0.1755  0.2200
 3678SOL    HW221139   1.738   9.374   2.666 -2.3871 -0.2260  3.2292
 3679SOL     OW21140   1.871   4.031   0.940  1.0183  0.8327  0.6213
 3679SOL    HW121141   1.845   3.946   0.894 -2.2643  2.4154 -0.5890
 3679SOL    HW221142   1.897   4.010   1.035  0.6320 -1.5654  0.2354
 3680SOL     OW21143   1.001   5.170   1.723 -0.1446  0.2819  0.0892
 3680SOL    HW121144   0.968   5.250   1.772  0.4938  1.1325 -0.8600
 3680SOL    HW221145   0.925   5.108   1.705 -0.3371 -0.2131  2.4413
 3681SOL     OW21146   9.944   5.859   1.594 -0.5316 -0.4639  0.2307
 3681SOL    HW121147  10.010   5.861   1.670 -0.1647 -0.8494 -0.0711
 3681SOL    HW221148   9.919   5.764   1.575 -0.3030 -0.3982 -0.4010
 3682SOL     OW21149   9.736   8.006   0.547 -0.2135 -0.0495 -0.1171
 3682SOL    HW121150   9.653   7.969   0.506  0.4486 -1.2358 -0.4370
 3682SOL    HW221151   9.784   7.932   0.595  0.2726  0.7910  0.6904
 3683SOL     OW21152   1.857   4.709   0.244  0.0372  0.0203  0.8542
 3683SOL    HW121153   1.796   4.701   0.165  1.7627  0.1385 -0.5189
 3683SOL    HW221154   1.887   4.617   0.272 -1.5353 -0.1170  2.1712
 3684SOL     OW21155   9.875   3.823   0.805 -0.3388 -0.3482  0.2031
 3684SOL    HW121156   9.945   3.802   0.873 -0.0196 -1.4027 -0.4475
 3684SOL    HW221157   9.865   3.923   0.798  0.7630 -0.1946  0.6374
 3685SOL     OW21158   9.748   9.837   2.714 -0.3523 -0.3732  0.5900
 3685SOL    HW121159   9.747   9.921   2.660  2.1214 -0.0400  1.0091
 3685SOL    HW221160   9.765   9.858   2.810 -0.5258 -1.2813  0.8280
 3686SOL     OW21161   9.828   6.170   2.183 -0.0721  0.0423  0.3593
 3686SOL    HW121162   9.784   6.091   2.228 -0.4754 -0.0437 -0.1782
 3686SOL    HW221163   9.774   6.252   2.200  0.9309  0.4104  1.8277
 3687SOL     OW21164   9.941   8.764   2.861  0.0536  0.2638  0.0541
 3687SOL    HW121165   9.874   8.689   2.862  0.2522  0.0641 -0.9714
 3687SOL    HW221166  10.032   8.727   2.880  0.3154  0.0586 -1.4948
 3688SOL     OW21167   2.743   0.863   2.705  0.1246  0.7810 -0.2337
 3688SOL    HW121168   2.676   0.936   2.717 -1.4495 -0.5316 -0.8573
 3688SOL    HW221169   2.782   0.868   2.613  0.1027  0.9182 -0.2350
 3689SOL     OW21170   0.130   9.379   2.867  0.1162  0.4874  0.0862
 3689SOL    HW121171   0.135   9.294   2.919  0.9905  0.7955  0.5072
 3689SOL    HW221172   0.186   9.449   2.911  0.3905  0.9191 -0.9332
 3690SOL     OW21173   3.866   2.455   2.490 -0.1155  0.6035  0.0502
 3690SOL    HW121174   3.824   2.462   2.399 -0.2813  2.1752  0.2284
 3690SOL    HW221175   3.807   2.501   2.557  0.2573 -0.0982  0.8620
 3691SOL     OW21176   2.470   5.096   0.532  0.1088 -0.5533  0.0852
 3691SOL    HW121177   2.386   5.103   0.478 -0.0803 -2.9519  0.0517
 3691SOL    HW221178   2.447   5.098   0.630  0.0755 -0.4994  0.0763
 3692SOL     OW21179   2.933   5.605   2.919 -0.1238 -0.6288  0.1437
 3692SOL    HW121180   2.952   5.669   2.844 -0.1922  1.3142  1.7676
 3692SOL    HW221181   2.834   5.593   2.929 -0.1005 -1.5793 -0.6164
 3693SOL     OW21182   9.957   4.995   2.186 -0.0620 -0.1014 -0.2409
 3693SOL    HW121183   9.972   4.900   2.212 -1.3714  0.1190  1.4063
 3693SOL    HW221184  10.039   5.048   2.206 -0.2153 -0.4046  1.2591
 3694SOL     OW21185   1.408   4.483   0.758 -0.1975 -0.0003  0.2861
 3694SOL    HW121186   1.324   4.432   0.740  0.7698 -1.6668  0.4013
 3694SOL    HW221187   1.387   4.560   0.818 -1.5231 -0.8487  0.9463
 3695SOL     OW21188   2.789   7.810   0.177  0.0733  0.3501 -0.1768
 3695SOL    HW121189   2.815   7.851   0.089  0.1718 -1.4708 -1.0227
 3695SOL    HW221190   2.860   7.829   0.245  0.8113  0.3753 -0.9433
 3696SOL     OW21191   1.706   1.061   2.850 -0.2711 -0.5131  0.0412
 3696SOL    HW121192   1.751   0.978   2.818  0.6363 -0.8471  2.0523
 3696SOL    HW221193   1.608   1.046   2.856 -0.2063 -1.1499 -0.4823
 3697SOL     OW21194   8.963   4.342   2.471  0.0389 -0.0174  0.1611
 3697SOL    HW121195   9.014   4.401   2.533  0.0831 -2.3554  2.4304
 3697SOL    HW221196   8.876   4.317   2.513 -0.6729 -0.2976 -1.4515
 3698SOL     OW21197   3.736   4.209   2.764 -0.3117  0.3802 -1.0329
 3698SOL    HW121198   3.755   4.294   2.815 -1.5668  0.3070 -0.4260
 3698SOL    HW221199   3.676   4.230   2.687  0.1513  0.1852 -1.4528
 3699SOL     OW21200   3.067   4.282   0.064 -0.2504  0.0783  0.5821
 3699SOL    HW121201   3.139   4.338   0.106  0.0715 -0.0873  0.2549
 3699SOL    HW221202   2.985   4.337   0.050 -0.1098  0.3302  0.7440
 3700SOL     OW21203   0.832   9.439   2.837  0.1788  0.4464 -0.8341
 3700SOL    HW121204   0.809   9.535   2.822  2.4219  1.3126  0.9031
 3700SOL    HW221205   0.816   9.415   2.933  1.5700 -0.3145 -0.7791
 3701SOL     OW21206   3.961   8.865   1.985  0.1491  0.1286 -0.2866
 3701SOL    HW121207   3.864   8.880   1.967  0.5155  2.9044 -0.0698
 3701SOL    HW221208   3.994   8.789   1.928 -2.0831 -0.7342 -0.4708
 3702SOL     OW21209   3.227   1.156   1.939  0.8111 -0.0463 -0.3584
 3702SOL    HW121210   3.253   1.215   1.862  2.1589 -1.5514 -1.0887
 3702SOL    HW221211   3.173   1.079   1.904  3.5405 -2.1077 -0.2193
 3703SOL     OW21212   2.456   2.488   0.753  0.0317 -0.5450  0.2484
 3703SOL    HW121213   2.552   2.473   0.729 -0.1715  2.2447 -2.5753
 3703SOL    HW221214   2.400   2.418   0.709  0.6100 -1.1465  0.4605
 3704SOL     OW21215   0.100   4.301   0.200  0.7076 -0.3268 -0.2305
 3704SOL    HW121216   0.122   4.222   0.257  1.9645  1.2290  1.5654
 3704SOL    HW221217   0.001   4.314   0.196  0.5725 -0.9589  0.9539
 3705SOL     OW21218   1.713   9.064   1.129 -0.3175 -0.1237 -0.4180
 3705SOL    HW121219   1.752   8.989   1.076 -1.4332 -1.4726  0.6511
 3705SOL    HW221220   1.618   9.043   1.152 -0.0827  0.7953  1.4767
 3706SOL     OW21221   0.022   0.824   2.196  0.4691  0.5036 -0.3205
 3706SOL    HW121222  -0.059   0.813   2.138  1.0387 -1.7388 -0.7336
 3706SOL    HW221223   0.102   0.785   2.151  1.1668 -0.1383  1.4289
 3707SOL     OW21224   4.131   0.276   1.142 -0.3483 -0.2643  0.0777
 3707SOL    HW121225   4.209   0.255   1.202 -0.2871 -0.1189  0.0470
 3707SOL    HW221226   4.103   0.192   1.095  0.3188 -0.1457 -0.5423
 3708SOL     OW21227   8.941   5.239   1.699 -0.0566  0.8201 -0.0015
 3708SOL    HW121228   8.974   5.147   1.678  2.4521  1.9073 -0.9899
 3708SOL    HW221229   8.895   5.238   1.788  1.0972 -1.1247  0.6041
 3709SOL     OW21230   0.747   1.204   0.161  0.5957  0.5139  0.3985
 3709SOL    HW121231   0.711   1.203   0.068  0.5563 -1.6807  0.4106
 3709SOL    HW221232   0.829   1.260   0.164  0.0890  1.3350 -0.7629
 3710SOL     OW21233   1.193   9.342   2.110  0.0055 -0.0566  0.0194
 3710SOL    HW121234   1.243   9.257   2.094  0.7091  0.3237  0.1664
 3710SOL    HW221235   1.164   9.347   2.205 -0.2205 -0.2277 -0.0400
 3711SOL     OW21236   0.845   4.668   2.154 -0.2090  0.0755 -0.2136
 3711SOL    HW121237   0.769   4.718   2.195 -1.5962 -0.1554 -2.4225
 3711SOL    HW221238   0.911   4.643   2.225 -2.3957 -0.0856  1.8046
 3712SOL     OW21239   1.351   7.206   2.325  0.6341  0.4097  0.0355
 3712SOL    HW121240   1.259   7.168   2.314  0.1601  1.8213 -0.9842
 3712SOL    HW221241   1.409   7.138   2.370 -1.1381 -0.1718  1.5510
 3713SOL     OW21242   9.921   7.761   1.362 -0.0888 -0.0115 -0.4140
 3713SOL    HW121243   9.896   7.685   1.303  0.1089 -0.3236 -0.0958
 3713SOL    HW221244  10.010   7.743   1.405  0.1590  0.5873 -0.6693
 3714SOL     OW21245   0.068   9.332   1.168  0.2426 -0.1569  0.1093
 3714SOL    HW121246  -0.000   9.383   1.116  1.6407 -0.1965 -1.8275
 3714SOL    HW221247   0.143   9.394   1.193  0.5532 -0.6055  0.2851
 3715SOL     OW21248   2.169   2.608   0.934  0.1133 -0.2312 -0.0936
 3715SOL    HW121249   2.228   2.595   0.854 -1.2119 -1.9003 -0.8323
 3715SOL    HW221250   2.114   2.526   0.948 -0.1915  0.3192  2.1196
 3716SOL     OW21251   3.730   4.574   2.659  0.0492  0.7026 -0.4129
 3716SOL    HW121252   3.728   4.668   2.626  0.7924  0.5156 -0.9944
 3716SOL    HW221253   3.749   4.512   2.583  0.2624  0.1440  0.0928
 3717SOL     OW21254   2.620   6.050   0.612 -0.1096 -0.1569  0.1677
 3717SOL    HW121255   2.593   6.138   0.652 -0.0836 -0.5852  1.1538
 3717SOL    HW221256   2.562   5.977   0.651  1.0674 -0.8084  0.7211
 3718SOL     OW21257   1.649   8.382   0.504  0.0230  0.9081  0.3301
 3718SOL    HW121258   1.606   8.333   0.580 -1.6308  0.5185 -0.8476
 3718SOL    HW221259   1.585   8.388   0.427  1.8547  0.8223 -1.2424
 3719SOL     OW21260   0.204   9.963   0.600  0.6233 -0.0444  0.2561
 3719SOL    HW121261   0.250  10.049   0.579 -0.2597  1.1297  2.8862
 3719SOL    HW221262   0.259   9.910   0.665 -0.8213  0.5731  2.0444
 3720SOL     OW21263   0.407   5.502   1.603 -0.8020 -0.1773 -0.0671
 3720SOL    HW121264   0.363   5.481   1.516 -2.3967  1.5942  0.2773
 3720SOL    HW221265   0.437   5.598   1.603  1.8168 -0.9467  0.2529
 3721SOL     OW21266   1.411   6.629   1.832 -0.7720  0.1348  0.8567
 3721SOL    HW121267   1.331   6.681   1.802  0.3998  2.0580  0.9753
 3721SOL    HW221268   1.466   6.685   1.894  0.6651 -1.1587  0.7886
 3722SOL     OW21269   0.163   2.781   1.703  0.1201  0.7838  0.4832
 3722SOL    HW121270   0.115   2.779   1.615  0.9642  0.1711  0.0312
 3722SOL    HW221271   0.161   2.874   1.739 -1.2903  0.8015  0.4105
 3723SOL     OW21272   9.074   4.014   1.683  0.1558  0.1732 -0.4116
 3723SOL    HW121273   9.160   3.967   1.702 -1.0075 -2.0324 -0.4728
 3723SOL    HW221274   9.026   4.032   1.769  0.2869  0.6365 -0.4364
 3724SOL     OW21275   2.362   1.564   2.243  0.0946  0.7777  0.0268
 3724SOL    HW121276   2.427   1.637   2.264 -0.7242  0.9275  2.1522
 3724SOL    HW221277   2.366   1.494   2.315 -3.8104  1.9929  1.5785
 3725SOL     OW21278   9.078   6.936   2.492  0.5011  0.5661 -0.0816
 3725SOL    HW121279   9.053   7.024   2.451 -0.4416  0.5277  0.4097
 3725SOL    HW221280   9.175   6.937   2.516  0.9830  0.7309 -1.9534
 3726SOL     OW21281   9.579   5.833   2.653 -0.1439  0.7676 -0.3080
 3726SOL    HW121282   9.529   5.764   2.601 -0.7167  1.6795 -0.9902
 3726SOL    HW221283   9.661   5.860   2.603  1.7716 -1.6379  1.3837
 3727SOL     OW21284   8.955   2.848   0.013  0.0554 -0.5146 -0.0306
 3727SOL    HW121285   8.886   2.789   0.055 -1.1765 -0.6854 -2.2490
 3727SOL    HW221286   9.034   2.793  -0.014  0.9119 -0.3918  2.0617
 3728SOL     OW21287   9.980   3.403   2.350 -0.1967  0.2946 -0.2539
 3728SOL    HW121288  10.017   3.393   2.442  0.7545  2.5700 -0.3517
 3728SOL    HW221289   9.899   3.346   2.340 -0.5038  0.2681  2.0865
 3729SOL     OW21290   1.666   5.845   1.835  0.1513 -0.6964  0.0407
 3729SOL    HW121291   1.722   5.919   1.798 -0.1659 -1.1289 -1.3463
 3729SOL    HW221292   1.680   5.839   1.934  1.5860  0.0122 -0.0994
 3730SOL     OW21293   2.713   2.018   2.427  0.1219  0.3044 -0.6071
 3730SOL    HW121294   2.661   2.060   2.501  0.4564  1.9945 -1.3108
 3730SOL    HW221295   2.784   1.959   2.466  0.5016  1.4286  0.4406
 3731SOL     OW21296   0.510   1.201   1.040  0.5979  0.1881  0.0120
 3731SOL    HW121297   0.521   1.216   1.138  2.4454 -0.6699 -0.0542
 3731SOL    HW221298   0.593   1.229   0.992  0.9677 -2.4065 -0.9514
 3732SOL     OW21299   1.026   2.805   2.919  0.0163 -0.1750 -0.3822
 3732SOL    HW121300   1.043   2.865   2.996  0.6752  0.1752 -0.7980
 3732SOL    HW221301   0.971   2.854   2.851  0.6630  0.0071 -0.7789
 3733SOL     OW21302   2.267   3.543   0.384 -0.6274 -0.1179 -0.2341
 3733SOL    HW121303   2.261   3.619   0.449  1.5744  0.0598 -0.2076
 3733SOL    HW221304   2.337   3.478   0.415 -1.6057 -1.5320 -0.9154
 3734SOL     OW21305   9.972   2.209   1.581 -0.1262  0.4726 -0.5960
 3734SOL    HW121306  10.057   2.258   1.563 -0.9946  1.9264 -0.7986
 3734SOL    HW221307   9.943   2.225   1.675  0.1832 -0.6136 -0.2990
 3735SOL     OW21308   3.271   2.002   1.970  0.2327  0.1826 -0.0280
 3735SOL    HW121309   3.242   2.073   2.035  3.0691  0.7041  0.7352
 3735SOL    HW221310   3.273   1.913   2.017  2.6931  0.6245  0.7942
 3736SOL     OW21311   1.329   7.465   1.177  0.0354  0.3035  1.1539
 3736SOL    HW121312   1.405   7.527   1.159  1.2580 -0.9237  1.9961
 3736SOL    HW221313   1.312   7.409   1.096  0.3013  0.2883  1.1089
 3737SOL     OW21314   2.178   6.816   1.406  0.4267  0.3439  0.2069
 3737SOL    HW121315   2.232   6.876   1.464  0.6880  0.1019  0.2153
 3737SOL    HW221316   2.106   6.773   1.460  0.2185  0.6799  0.1920
 3738SOL     OW21317   1.414   7.981   0.970  0.1670  0.3602 -0.1025
 3738SOL    HW121318   1.363   7.904   0.930 -0.1171  0.9283 -0.8439
 3738SOL    HW221319   1.370   8.009   1.055  0.0243 -0.0168 -0.0474
 3739SOL     OW21320   1.840   1.727   1.800 -0.1122  0.3139 -0.6553
 3739SOL    HW121321   1.784   1.649   1.775  1.9240 -1.4478  0.1722
 3739SOL    HW221322   1.921   1.731   1.740 -0.7098  2.3912 -1.3708
 3740SOL     OW21323   0.833   2.071   0.989 -0.0570 -0.2606 -0.3352
 3740SOL    HW121324   0.813   1.997   0.925  0.3791 -0.5322 -0.1573
 3740SOL    HW221325   0.749   2.124   1.006 -0.9762 -2.2444  1.4878
 3741SOL     OW21326   0.405   4.068   1.946 -0.0471  0.5475  0.0509
 3741SOL    HW121327   0.437   4.144   2.003 -0.1611  0.9644 -0.4315
 3741SOL    HW221328   0.478   4.042   1.882 -1.4200  3.0447 -2.6404
 3742SOL     OW21329   0.739   4.087   2.279  0.2960 -0.0488  0.5825
 3742SOL    HW121330   0.768   4.097   2.374  2.2798  0.2865 -0.0342
 3742SOL    HW221331   0.723   3.990   2.259 -0.3359 -0.0967  1.3197
 3743SOL     OW21332   0.104   2.767   0.816 -0.3850  0.3631  0.0285
 3743SOL    HW121333   0.130   2.675   0.847  2.9659  1.2020 -0.1268
 3743SOL    HW221334   0.064   2.818   0.892 -1.3391 -0.8566  0.3671
 3744SOL     OW21335   9.591   7.099   0.938  0.0125  0.0391  0.9006
 3744SOL    HW121336   9.578   7.147   1.025 -0.5707 -2.2074  2.0885
 3744SOL    HW221337   9.689   7.085   0.923  0.0471 -0.9975  2.0142
 3745SOL     OW21338   2.751   5.972   2.648 -0.0391  0.0075  0.3878
 3745SOL    HW121339   2.812   5.892   2.648 -0.3034 -0.1954  0.7272
 3745SOL    HW221340   2.747   6.010   2.740 -0.1325  0.2494  0.2832
 3746SOL     OW21341   9.612   5.592   1.660  0.4101  0.2785  0.4035
 3746SOL    HW121342   9.530   5.539   1.678 -0.5014  2.1468  1.9012
 3746SOL    HW221343   9.602   5.684   1.698  1.9998  1.5099 -2.0131
 3747SOL     OW21344   0.437   9.319   0.996  0.2457  0.5264 -0.3376
 3747SOL    HW121345   0.468   9.267   1.076  0.4460 -0.5175 -1.1022
 3747SOL    HW221346   0.435   9.261   0.916 -0.2958  1.4948 -1.0412
 3748SOL     OW21347   1.331   8.454   1.634 -0.1970  0.6754 -0.0968
 3748SOL    HW121348   1.301   8.493   1.721  0.5255 -0.2361  0.5727
 3748SOL    HW221349   1.372   8.364   1.650 -0.5133  0.2788 -1.4426
 3749SOL     OW21350   8.567   3.318   2.563 -0.0580 -0.5105 -0.2032
 3749SOL    HW121351   8.613   3.345   2.478 -0.5657  0.7174 -0.0961
 3749SOL    HW221352   8.488   3.377   2.578 -0.0002 -0.7521  1.0961
 3750SOL     OW21353   0.831   4.852   0.211 -0.2219 -0.6747 -0.0925
 3750SOL    HW121354   0.837   4.823   0.306 -0.9974 -2.8460 -0.6772
 3750SOL    HW221355   0.762   4.924   0.202 -0.1821 -0.4966  0.9698
 3751SOL     OW21356   1.819   7.826   2.128  0.0653  0.6748  0.4201
 3751SOL    HW121357   1.818   7.911   2.075 -0.1362  0.3089 -0.1647
 3751SOL    HW221358   1.906   7.819   2.178  1.1150  0.0864 -1.4050
 3752SOL     OW21359   9.341   7.019   1.361  0.1309 -0.2210 -0.3115
 3752SOL    HW121360   9.280   6.947   1.396  1.1612 -1.2032 -0.4876
 3752SOL    HW221361   9.420   6.976   1.316  1.2133  1.0087  0.3723
 3753SOL     OW21362   2.190   5.955   2.306 -0.5045 -0.0986 -0.4588
 3753SOL    HW121363   2.282   5.947   2.266 -0.4872  1.5839 -0.7941
 3753SOL    HW221364   2.138   6.025   2.258 -1.6478 -0.3793  0.3350
 3754SOL     OW21365   2.083   4.522   2.696  0.3584 -0.1484  0.0833
 3754SOL    HW121366   2.047   4.552   2.607 -0.7236 -1.9371 -0.0938
 3754SOL    HW221367   2.182   4.535   2.697  0.2623  0.8073 -1.0129
 3755SOL     OW21368   4.324   3.603   0.946  0.5185  0.5539 -0.0732
 3755SOL    HW121369   4.278   3.678   0.995 -0.5384 -0.0936 -0.0534
 3755SOL    HW221370   4.257   3.554   0.891  1.1193 -0.6791  0.2830
 3756SOL     OW21371   2.911   4.810   2.329 -0.3228 -0.5530 -0.5661
 3756SOL    HW121372   2.865   4.734   2.285  1.0343 -1.1503 -0.9904
 3756SOL    HW221373   2.917   4.888   2.266 -0.6766 -0.5029 -0.5361
 3757SOL     OW21374   3.802   0.325   1.574  0.2809  0.2987 -0.5720
 3757SOL    HW121375   3.709   0.312   1.542 -0.3896  1.7954  0.6990
 3757SOL    HW221376   3.863   0.342   1.496 -0.7213  0.5232 -1.3102
 3758SOL     OW21377   2.940   2.593   1.763 -0.5222  0.3605 -0.0481
 3758SOL    HW121378   2.854   2.641   1.744 -0.9546 -0.4735 -0.2101
 3758SOL    HW221379   3.012   2.627   1.702 -0.6672  1.2551  0.2756
 3759SOL     OW21380   0.336   9.508   2.215 -0.0826 -0.0571  0.2298
 3759SOL    HW121381   0.305   9.596   2.250  0.8926  0.4165 -0.0772
 3759SOL    HW221382   0.282   9.435   2.258  0.0239  0.6004  1.5366
 3760SOL     OW21383   0.081   3.262   1.632 -0.0186 -0.3218 -0.0083
 3760SOL    HW121384   0.118   3.351   1.658  2.0387 -1.0623 -0.2794
 3760SOL    HW221385  -0.018   3.262   1.644  0.2168  1.2270  2.2153
 3761SOL     OW21386   1.700   3.381   0.168 -0.0171 -0.1638  0.3753
 3761SOL    HW121387   1.748   3.314   0.110  0.5452 -0.1485  0.8167
 3761SOL    HW221388   1.690   3.344   0.260 -0.3674  0.0593  0.4273
 3762SOL     OW21389   0.987   0.114   1.320  0.0033  0.5458  0.4057
 3762SOL    HW121390   0.972   0.212   1.307 -2.6937  0.0206 -0.7446
 3762SOL    HW221391   0.908   0.074   1.367  0.0552 -1.4589 -1.1561
 3763SOL     OW21392   1.799   8.720   2.522  0.2696 -0.2411  0.3889
 3763SOL    HW121393   1.720   8.679   2.568  1.6707  0.8044  3.9342
 3763SOL    HW221394   1.869   8.650   2.507 -0.5731 -0.7866 -1.0646
 3764SOL     OW21395   8.797   5.843   2.060 -0.1013  0.2733 -0.5184
 3764SOL    HW121396   8.714   5.791   2.076  0.4546 -0.5234 -0.1827
 3764SOL    HW221397   8.871   5.806   2.117 -0.0421  2.2935  0.8011
 3765SOL     OW21398   2.786   7.892   2.432 -0.0338  0.7948 -0.0787
 3765SOL    HW121399   2.691   7.923   2.443  0.1312  1.5479 -0.7306
 3765SOL    HW221400   2.836   7.957   2.374  1.9866  2.6838  3.5264
 3766SOL     OW21401   0.997   0.886   1.558 -0.3168  0.5424  0.0691
 3766SOL    HW121402   1.052   0.836   1.624  2.0842  0.1706 -2.1122
 3766SOL    HW221403   0.904   0.895   1.592  0.7854  0.2218  3.3807
 3767SOL     OW21404   3.077   4.674   1.614  0.4781  0.2231  0.3573
 3767SOL    HW121405   3.030   4.595   1.654  0.0705  0.8020  1.0461
 3767SOL    HW221406   3.012   4.728   1.562  1.1668 -0.9295 -1.7541
 3768SOL     OW21407   2.580   7.049   0.743  0.2737 -0.1719 -0.8011
 3768SOL    HW121408   2.653   6.983   0.764 -0.0272 -0.7882 -1.6633
 3768SOL    HW221409   2.492   7.002   0.740 -0.0024  0.3489 -0.9716
 3769SOL     OW21410   9.757   2.820   0.789 -0.6541 -0.2433  0.2276
 3769SOL    HW121411   9.771   2.869   0.703 -0.0920 -1.5453 -0.4439
 3769SOL    HW221412   9.826   2.849   0.855 -2.9154  2.9769  1.2741
 3770SOL     OW21413   9.496   6.653   0.639 -0.4122  0.1211  0.7377
 3770SOL    HW121414   9.458   6.613   0.723 -1.3846 -0.3335  0.0956
 3770SOL    HW221415   9.594   6.635   0.635 -0.3640  0.1199  1.7592
 3771SOL     OW21416   9.865   0.842   0.543 -0.0807  0.4501  0.2885
 3771SOL    HW121417   9.860   0.923   0.601 -1.0933  0.4211  0.2500
 3771SOL    HW221418   9.958   0.806   0.545  0.4261  1.7091  0.1647
 3772SOL     OW21419   8.944   6.832   0.073  0.0763 -0.3759  0.0911
 3772SOL    HW121420   8.971   6.839  -0.023 -2.1586 -0.4709 -0.5699
 3772SOL    HW221421   8.901   6.743   0.089 -2.3175  0.8053  0.4336
 3773SOL     OW21422   2.941   4.532   1.384 -0.0271  0.0722 -0.4834
 3773SOL    HW121423   2.997   4.499   1.460  1.1708  1.5302 -0.7286
 3773SOL    HW221424   2.985   4.510   1.297 -0.8198 -0.5409 -0.7371
 3774SOL     OW21425   9.791   6.902   1.858  0.0099  0.6002 -0.5779
 3774SOL    HW121426   9.837   6.830   1.807  0.0041 -0.1369  0.4460
 3774SOL    HW221427   9.743   6.963   1.795  0.2819 -0.1051 -1.4634
 3775SOL     OW21428   0.804   1.258   0.952 -0.3485  0.5396 -0.5365
 3775SOL    HW121429   0.874   1.219   0.893 -0.6404 -1.6777  0.5674
 3775SOL    HW221430   0.815   1.224   1.045 -1.8672  1.4792  0.0071
 3776SOL     OW21431   0.425   3.258   2.680  0.6526 -0.0190 -0.1413
 3776SOL    HW121432   0.394   3.163   2.670  0.0907  0.2893 -1.5700
 3776SOL    HW221433   0.361   3.308   2.738 -0.9204  0.2910 -2.0485
 3777SOL     OW21434   8.307   3.961   1.123 -0.4389  0.2791 -0.1928
 3777SOL    HW121435   8.369   3.949   1.201 -1.1873 -0.6828  0.2620
 3777SOL    HW221436   8.361   3.972   1.040  0.4112  3.0621  0.6670
 3778SOL     OW21437   9.080   3.011   0.736 -0.6109  0.0686  0.3788
 3778SOL    HW121438   9.088   2.916   0.767  2.3091 -0.6237 -2.2506
 3778SOL    HW221439   9.123   3.071   0.804 -1.2610 -0.6088  1.4077
 3779SOL     OW21440   0.813   9.398   0.163  0.2793 -0.1745  0.2203
 3779SOL    HW121441   0.761   9.453   0.228 -0.6417 -0.2362 -0.4559
 3779SOL    HW221442   0.908   9.392   0.194  0.0028  0.3371  1.2122
 3780SOL     OW21443   3.889   9.462   0.589  0.3518 -0.1003 -0.6135
 3780SOL    HW121444   3.790   9.459   0.580  0.3047  0.7558 -0.4327
 3780SOL    HW221445   3.918   9.398   0.660 -0.2821  1.3500  0.9671
 3781SOL     OW21446   8.447   6.350   1.178 -0.0828  0.1421  0.2382
 3781SOL    HW121447   8.425   6.336   1.082  0.3842  2.0374 -0.1643
 3781SOL    HW221448   8.364   6.339   1.233 -0.2510 -1.4548 -0.3047
 3782SOL     OW21449   1.765   6.207   1.932  0.0010  0.3416  0.2154
 3782SOL    HW121450   1.679   6.193   1.883 -0.5411  2.2211  0.6222
 3782SOL    HW221451   1.752   6.186   2.029  0.3575 -0.6476  0.0595
 3783SOL     OW21452   0.851   5.939   1.574 -0.3065  0.2997 -0.9531
 3783SOL    HW121453   0.761   5.952   1.533 -0.5883  0.2457 -0.3517
 3783SOL    HW221454   0.917   5.998   1.528 -0.8869  1.2342 -0.5963
 3784SOL     OW21455   9.479   7.428   1.929 -1.0260  0.1089 -0.0009
 3784SOL    HW121456   9.465   7.519   1.891 -1.3992  0.1861  0.3309
 3784SOL    HW221457   9.490   7.363   1.853  1.4101  0.7439 -0.2619
 3785SOL     OW21458   8.929   3.277   0.376  0.5014 -0.2001 -0.4066
 3785SOL    HW121459   8.934   3.275   0.277 -0.7108  0.0622 -0.4847
 3785SOL    HW221460   9.021   3.272   0.415  1.1332  2.0126 -1.5753
 3786SOL     OW21461   0.417   5.335   1.058 -0.7690 -0.0854 -0.1009
 3786SOL    HW121462   0.468   5.417   1.032  0.7428 -0.8650  0.3399
 3786SOL    HW221463   0.456   5.297   1.142 -0.7582 -1.8391 -0.8884
 3787SOL     OW21464   3.927   4.572   1.036  0.6017  0.2358  0.0873
 3787SOL    HW121465   3.863   4.642   1.004  0.6402  0.4852  0.5630
 3787SOL    HW221466   3.901   4.541   1.127  0.6072 -0.3422 -0.1009
 3788SOL     OW21467   3.772   9.211   2.762 -0.2822 -0.0715  0.1503
 3788SOL    HW121468   3.790   9.138   2.828  1.4607  0.3998  0.2101
 3788SOL    HW221469   3.854   9.228   2.708 -1.3485  0.3409 -1.3696
 3789SOL     OW21470   2.276   8.347   1.647  0.4730 -0.2286  0.3913
 3789SOL    HW121471   2.353   8.346   1.583 -0.0494 -2.0133 -0.2326
 3789SOL    HW221472   2.255   8.253   1.676 -2.3052  0.0816 -0.4703
 3790SOL     OW21473   1.981   0.500   0.657  0.0765 -0.3046 -0.1074
 3790SOL    HW121474   2.070   0.489   0.611  0.4915  0.4392  0.5115
 3790SOL    HW221475   1.951   0.411   0.692  0.6481 -0.5337 -0.1898
 3791SOL     OW21476   0.616   2.737   0.659  0.2494  0.2132  0.1495
 3791SOL    HW121477   0.592   2.824   0.703  3.1444  1.4661 -0.6291
 3791SOL    HW221478   0.554   2.721   0.582 -0.1925  1.7014  0.1628
 3792SOL     OW21479   1.727   6.515   0.851 -0.6440  0.5199  0.0192
 3792SOL    HW121480   1.632   6.494   0.826 -0.7467 -0.7062  1.3772
 3792SOL    HW221481   1.786   6.442   0.819 -0.2938  0.7802  0.0733
 3793SOL     OW21482   2.755   2.731   1.068  0.0652 -0.1465 -0.8002
 3793SOL    HW121483   2.793   2.782   1.144 -2.1163 -0.1671  0.3545
 3793SOL    HW221484   2.741   2.793   0.990 -0.0014  0.4112 -0.3462
 3794SOL     OW21485   9.783   4.615   0.829  0.8265  0.3686 -0.0390
 3794SOL    HW121486   9.793   4.566   0.742  0.7388 -0.0769  0.2029
 3794SOL    HW221487   9.740   4.703   0.812  1.5270  0.6229 -0.5608
 3795SOL     OW21488   9.315   7.320   0.257 -0.2079  0.3568 -0.3211
 3795SOL    HW121489   9.252   7.242   0.253 -1.0008  1.0171 -0.7898
 3795SOL    HW221490   9.369   7.315   0.341 -0.8597 -0.2345  0.0688
 3796SOL     OW21491   1.024   3.738   0.545  0.1016  0.2750  0.1415
 3796SOL    HW121492   1.088   3.722   0.469  0.0274 -1.5701  0.4299
 3796SOL    HW221493   0.988   3.650   0.576 -1.7413  1.2115  0.7129
 3797SOL     OW21494   2.267   0.521   1.350 -0.6052  0.1927 -0.6050
 3797SOL    HW121495   2.344   0.549   1.408 -0.5607  0.3927 -0.7555
 3797SOL    HW221496   2.202   0.597   1.343 -1.4730 -0.4366  0.5849
 3798SOL     OW21497   9.073   3.002   1.703  0.2991  0.1155  0.6120
 3798SOL    HW121498   9.133   3.080   1.681  1.1433 -0.1997  1.7505
 3798SOL    HW221499   9.035   2.965   1.619  1.9690  0.1230 -0.1683
 3799SOL     OW21500   1.989   7.396   0.447 -0.0566  0.3471  0.1888
 3799SOL    HW121501   1.915   7.364   0.506 -1.4427  2.2328 -0.4963
 3799SOL    HW221502   1.956   7.407   0.354  1.3649  0.2441 -0.3429
 3800SOL     OW21503   9.380   2.993   1.140 -0.8935 -0.5267 -0.3886
 3800SOL    HW121504   9.419   2.916   1.189  0.4337  0.1609 -0.3572
 3800SOL    HW221505   9.407   2.989   1.044 -1.4887 -0.5379 -0.5599
 3801SOL     OW21506   1.175   3.295   1.321 -0.1854  0.3833  0.1788
 3801SOL    HW121507   1.156   3.235   1.243 -1.8420 -0.5157  1.2437
 3801SOL    HW221508   1.162   3.245   1.406 -3.0680  2.5882  1.1359
 3802SOL     OW21509   0.792   6.067   2.003  0.4781 -0.2768 -0.5426
 3802SOL    HW121510   0.812   6.165   2.002  0.9853 -0.3625  0.9024
 3802SOL    HW221511   0.860   6.019   1.948  1.9345 -0.1263  1.0839
 3803SOL     OW21512   0.508   9.778   1.116 -0.3394 -0.2956  0.6903
 3803SOL    HW121513   0.552   9.711   1.056 -0.7154 -0.7980  0.9752
 3803SOL    HW221514   0.411   9.755   1.125 -0.7948  1.1389 -0.4044
 3804SOL     OW21515   1.435   7.938   1.700  0.2852  0.1111 -0.2714
 3804SOL    HW121516   1.450   7.841   1.721 -1.0782  0.1775  1.0562
 3804SOL    HW221517   1.338   7.953   1.683  0.5348  1.2046 -0.7148
 3805SOL     OW21518   1.920   4.675   2.871 -0.3220  0.3164 -0.0610
 3805SOL    HW121519   1.992   4.630   2.820 -0.9775 -0.5143 -0.2580
 3805SOL    HW221520   1.870   4.608   2.927 -0.5921  0.9641  0.4902
 3806SOL     OW21521   9.512   3.705   2.435 -0.1814 -0.3173 -0.1639
 3806SOL    HW121522   9.466   3.619   2.458  0.1593 -0.1784  1.0623
 3806SOL    HW221523   9.599   3.709   2.484  0.1525  0.3798 -0.8253
 3807SOL     OW21524   2.197   1.682   0.935  0.3650  0.7069  0.0004
 3807SOL    HW121525   2.154   1.613   0.877  0.5844  1.8457 -1.5595
 3807SOL    HW221526   2.296   1.670   0.932  0.3477  0.4191  0.5902
 3808SOL     OW21527   0.184   0.488   1.490  0.3115 -0.2924 -0.0426
 3808SOL    HW121528   0.246   0.477   1.413  1.2872  2.0714  0.3674
 3808SOL    HW221529   0.090   0.497   1.456  0.2964 -2.6249 -0.7271
 3809SOL     OW21530   1.817   7.425   1.174  0.0357 -0.1715 -0.9453
 3809SOL    HW121531   1.902   7.377   1.197  0.8957  1.2187 -1.1352
 3809SOL    HW221532   1.798   7.494   1.245  0.4932  1.3217 -2.2547
 3810SOL     OW21533   8.624   5.855   0.839  0.1731  0.2639 -0.3144
 3810SOL    HW121534   8.584   5.840   0.748 -0.2962  1.8202 -0.3779
 3810SOL    HW221535   8.608   5.950   0.867  3.3510  0.7862 -0.0954
 3811SOL     OW21536   1.628   6.714   2.017 -0.0070  0.0002  0.1730
 3811SOL    HW121537   1.609   6.805   1.980  0.9132  0.5141  0.9450
 3811SOL    HW221538   1.727   6.701   2.024 -0.1089 -1.3440 -0.6033
 3812SOL     OW21539   9.540   7.641   0.497 -0.1902  0.1338 -0.1892
 3812SOL    HW121540   9.471   7.616   0.565  0.4939 -0.9426  0.1101
 3812SOL    HW221541   9.556   7.563   0.436 -1.3288  1.3026 -2.0434
 3813SOL     OW21542   0.551   5.346   2.645 -0.0835  0.6644  0.5941
 3813SOL    HW121543   0.525   5.308   2.556 -0.7742  0.8670  0.6989
 3813SOL    HW221544   0.570   5.444   2.635  0.2045  0.6082  0.5997
 3814SOL     OW21545   0.877   7.794   2.655  0.1869 -0.9393  0.2786
 3814SOL    HW121546   0.831   7.792   2.744  0.2342 -1.2319  0.2955
 3814SOL    HW221547   0.969   7.831   2.666 -0.7550  1.6726 -0.0743
 3815SOL     OW21548   1.995   4.199   2.114 -0.3462  0.4245  0.1358
 3815SOL    HW121549   2.092   4.221   2.103 -0.7138  1.2271 -1.8047
 3815SOL    HW221550   1.959   4.245   2.195  0.4822  1.5683 -0.1333
 3816SOL     OW21551   9.020   3.256   0.109  0.2637 -0.2545 -0.4744
 3816SOL    HW121552   8.953   3.224   0.042 -1.0219  0.6670  0.3505
 3816SOL    HW221553   9.102   3.288   0.061 -0.6813  0.5062 -1.6226
 3817SOL     OW21554   9.870   5.037   2.644  0.5539  0.3441  0.0601
 3817SOL    HW121555   9.891   4.945   2.612 -0.7730 -0.2430  0.8657
 3817SOL    HW221556   9.772   5.053   2.639  0.8103  1.8821 -0.4917
 3818SOL     OW21557   9.186   3.212   0.940  0.5760 -0.0883  0.1105
 3818SOL    HW121558   9.204   3.255   1.028  1.3310  2.5372 -1.2639
 3818SOL    HW221559   9.259   3.235   0.876  0.1157 -2.0759 -1.1715
 3819SOL     OW21560   9.670   8.097   1.048 -0.2237  0.2916 -0.5660
 3819SOL    HW121561   9.711   8.059   1.131 -2.4020  0.9120  0.8408
 3819SOL    HW221562   9.734   8.160   1.005  0.1620  1.6539  1.8760
 3820SOL     OW21563   9.993   1.745   2.359 -0.1440 -0.0808  0.2622
 3820SOL    HW121564  10.033   1.662   2.322  0.0907  0.6150 -1.0861
 3820SOL    HW221565   9.893   1.737   2.360 -0.0531 -1.3479  2.5080
 3821SOL     OW21566   1.009   5.273   0.261 -0.3511 -0.5726  0.4338
 3821SOL    HW121567   1.066   5.334   0.316 -0.8102  0.5258 -0.2885
 3821SOL    HW221568   1.055   5.185   0.250  0.1573 -0.4978  1.7983
 3822SOL     OW21569   2.438   4.330   1.607 -0.8307  0.3576  0.4854
 3822SOL    HW121570   2.452   4.338   1.706  0.4470 -1.3738  0.4783
 3822SOL    HW221571   2.511   4.274   1.568 -0.2527  2.6296 -1.7514
 3823SOL     OW21572   8.551   6.082   0.897 -0.1062  0.1230 -0.5992
 3823SOL    HW121573   8.490   6.120   0.967  0.5497 -1.5760  0.9468
 3823SOL    HW221574   8.586   6.156   0.839 -1.0976  1.5030  0.5320
 3824SOL     OW21575   3.710   0.001   1.564 -0.8683 -0.3088  0.4125
 3824SOL    HW121576   3.745   0.072   1.624 -0.3563 -0.6935  0.5740
 3824SOL    HW221577   3.731   0.024   1.469  1.4957 -1.4392  0.6291
 3825SOL     OW21578   2.530   9.151   1.074 -0.0751 -0.4059 -0.1592
 3825SOL    HW121579   2.507   9.054   1.065  1.0203 -0.4823 -2.7482
 3825SOL    HW221580   2.629   9.162   1.060 -0.0065  0.9521  1.3593
 3826SOL     OW21581   9.414   1.760   1.223 -0.3797 -0.0252 -0.0168
 3826SOL    HW121582   9.439   1.668   1.193 -0.1119 -0.0597  0.3120
 3826SOL    HW221583   9.449   1.776   1.315  0.5012  0.8043 -0.4883
 3827SOL     OW21584   2.615   4.763   0.312  0.0654  0.2029  0.5013
 3827SOL    HW121585   2.550   4.766   0.388  0.4088 -0.5524  0.8296
 3827SOL    HW221586   2.605   4.845   0.256 -0.7906  0.3484  0.8668
 3828SOL     OW21587   1.429   2.092   1.881 -0.2530  0.5881  0.2422
 3828SOL    HW121588   1.461   2.012   1.830  0.4632  1.4653 -0.6857
 3828SOL    HW221589   1.408   2.065   1.975 -1.2611 -0.9670 -0.4086
 3829SOL     OW21590   8.401   3.408   1.645  0.1070 -0.5111 -0.2859
 3829SOL    HW121591   8.370   3.499   1.675  0.6102  0.0174 -1.3492
 3829SOL    HW221592   8.377   3.340   1.715 -0.1794  0.4539  0.5664
 3830SOL     OW21593   3.351   5.323   2.189 -0.0807 -0.4536  0.3773
 3830SOL    HW121594   3.328   5.420   2.188  0.6707 -0.2786 -0.4027
 3830SOL    HW221595   3.268   5.269   2.177 -0.2220  0.1573 -1.4706
 3831SOL     OW21596   1.609   3.007   0.621  0.4123  0.0609 -0.4914
 3831SOL    HW121597   1.636   3.083   0.562  0.5902 -0.2050 -0.7545
 3831SOL    HW221598   1.510   3.012   0.639  0.3586  0.1361 -0.8126
 3832SOL     OW21599   0.864   2.796   0.883  0.2081 -0.0387 -0.3452
 3832SOL    HW121600   0.849   2.735   0.805 -0.5761  0.5147 -0.6399
 3832SOL    HW221601   0.902   2.882   0.851  1.0864 -0.2786  0.0418
 3833SOL     OW21602   3.208   3.279   2.872 -0.4852  0.5461  0.2965
 3833SOL    HW121603   3.125   3.285   2.817 -0.1372 -0.2345 -0.3320
 3833SOL    HW221604   3.278   3.341   2.835  0.2716 -1.0908 -1.1048
 3834SOL     OW21605   3.918   0.684   1.273  0.1696 -0.0430  0.8798
 3834SOL    HW121606   3.928   0.704   1.175 -0.5382  1.0659  1.0336
 3834SOL    HW221607   3.882   0.764   1.320  0.0811 -0.7266  1.9871
 3835SOL     OW21608   0.505   3.708   2.758 -0.5683 -0.3269  0.3456
 3835SOL    HW121609   0.548   3.663   2.836  0.9796 -2.5284 -1.6733
 3835SOL    HW221610   0.430   3.652   2.723  0.0032 -0.3482 -0.8999
 3836SOL     OW21611   1.920   4.829   0.484 -0.0056 -0.1699  0.7026
 3836SOL    HW121612   1.921   4.778   0.398  0.3929  1.5013 -0.2891
 3836SOL    HW221613   1.877   4.918   0.471 -0.9531 -0.3414  2.5000
 3837SOL     OW21614   0.098   5.760   0.295 -0.2397 -0.8124  0.8304
 3837SOL    HW121615   0.058   5.671   0.268  1.5013 -1.0447 -1.1518
 3837SOL    HW221616   0.162   5.746   0.370 -0.2782 -1.1729  0.8010
 3838SOL     OW21617   3.904   3.367   2.771  0.1032 -0.4991  0.1682
 3838SOL    HW121618   3.814   3.411   2.773  1.0671  1.4935  0.5890
 3838SOL    HW221619   3.932   3.345   2.865  0.6312  0.0629  0.1388
 3839SOL     OW21620   9.963   3.336   0.528  0.2098  0.5124  0.4144
 3839SOL    HW121621   9.868   3.366   0.530 -0.0505 -0.1946 -1.0119
 3839SOL    HW221622   9.968   3.238   0.510  1.2191  0.6186  0.0455
 3840SOL     OW21623   8.203   3.093   0.164  0.4079 -0.2716 -0.2761
 3840SOL    HW121624   8.238   2.999   0.160  0.0909 -0.3385 -1.6893
 3840SOL    HW221625   8.215   3.129   0.257 -2.1034 -2.7093  1.0449
 3841SOL     OW21626   8.363   2.886   1.621 -0.2950 -0.2296  0.3157
 3841SOL    HW121627   8.345   2.848   1.712  0.4123  1.0106  0.9921
 3841SOL    HW221628   8.315   2.973   1.612  2.6164  1.5304  0.9457
 3842SOL     OW21629   0.606   4.228   2.621 -0.4165  0.1082 -0.0162
 3842SOL    HW121630   0.534   4.179   2.669  0.7363  0.8968  2.5877
 3842SOL    HW221631   0.680   4.165   2.599 -0.2842  0.0398  0.6101
 3843SOL     OW21632   3.022   9.515   0.746 -0.1907 -0.4061 -0.4068
 3843SOL    HW121633   3.092   9.479   0.684 -0.8323 -1.7336 -0.3901
 3843SOL    HW221634   3.065   9.552   0.827  0.5183 -0.9600 -0.5201
 3844SOL     OW21635   1.329   9.928   1.596 -0.0645 -0.2528  0.5145
 3844SOL    HW121636   1.249   9.895   1.547 -0.5561  2.0662 -0.3292
 3844SOL    HW221637   1.412   9.903   1.547 -0.3929 -0.6615  0.1701
 3845SOL     OW21638   1.325   5.402   2.481 -0.4355 -0.1499  0.0892
 3845SOL    HW121639   1.407   5.353   2.511 -0.5169 -0.4642 -0.2125
 3845SOL    HW221640   1.307   5.477   2.545  1.2705  1.2157 -0.9678
 3846SOL     OW21641   0.536   9.744   1.445  0.3335 -0.3421  0.1251
 3846SOL    HW121642   0.469   9.730   1.519 -1.2838 -0.4345 -1.3236
 3846SOL    HW221643   0.509   9.823   1.391 -0.1198 -1.9591 -2.0969
 3847SOL     OW21644   3.854   9.743   2.217 -0.2113  0.3712 -1.1365
 3847SOL    HW121645   3.885   9.654   2.250 -2.6292 -0.2471 -0.4637
 3847SOL    HW221646   3.830   9.736   2.120 -1.4315  0.0160 -0.8108
 3848SOL     OW21647   3.948   1.722   0.010  0.8280  0.3145 -0.2880
 3848SOL    HW121648   4.015   1.673   0.066  1.1134 -1.4390 -2.0972
 3848SOL    HW221649   3.901   1.658  -0.050  0.3436  2.0908 -1.8631
 3849SOL     OW21650   1.670   3.976   1.319  0.1865  0.3299 -0.0810
 3849SOL    HW121651   1.640   4.042   1.388  1.0918 -0.5477  1.1735
 3849SOL    HW221652   1.769   3.977   1.313  0.0725  1.0096 -2.0039
 3850SOL     OW21653   0.180   2.095   1.045  0.1837  0.1869  0.0457
 3850SOL    HW121654   0.254   2.101   1.113 -0.7292 -1.4295  1.2065
 3850SOL    HW221655   0.116   2.170   1.059  0.9411  0.8877 -0.1797
 3851SOL     OW21656   2.948   9.497   1.155 -0.6086  0.0511  0.0361
 3851SOL    HW121657   2.930   9.470   1.250  0.0798 -0.6843 -0.0303
 3851SOL    HW221658   2.870   9.548   1.119 -0.5276  1.0703  1.2688
 3852SOL     OW21659   8.105   6.018   2.186  0.2435 -0.2199  0.1110
 3852SOL    HW121660   8.161   6.086   2.139 -0.8508 -1.0796 -2.5467
 3852SOL    HW221661   8.012   6.054   2.198  0.2745 -0.3628  0.8028
 3853SOL     OW21662   9.953   1.106   2.593 -0.0591  0.0006  0.2505
 3853SOL    HW121663   9.920   1.016   2.619 -1.7054  0.4100 -0.3006
 3853SOL    HW221664  10.006   1.099   2.508  0.3224 -0.5306  0.5359
 3854SOL     OW21665   1.734   5.883   0.315  0.1923 -0.5939 -0.1624
 3854SOL    HW121666   1.763   5.816   0.247  0.9635  0.0717 -0.5058
 3854SOL    HW221667   1.655   5.933   0.281  2.8470  2.3585 -2.2727
 3855SOL     OW21668   8.905   3.708   1.126 -0.5081  0.4252  0.3300
 3855SOL    HW121669   8.910   3.663   1.036  0.0045  0.1895  0.4719
 3855SOL    HW221670   8.837   3.662   1.182 -0.1874 -0.0064  0.3744
 3856SOL     OW21671   3.689   1.090   0.187  0.5489  0.0221  1.2390
 3856SOL    HW121672   3.609   1.148   0.205  1.2200  1.4723 -0.4187
 3856SOL    HW221673   3.671   0.998   0.223 -1.3944  0.6392  1.9370
 3857SOL     OW21674   4.412   9.116   0.136 -0.1310 -0.0548 -0.3234
 3857SOL    HW121675   4.392   9.182   0.208 -0.8671 -1.1671  0.4892
 3857SOL    HW221676   4.429   9.165   0.050 -1.8007  1.1483  0.0032
 3858SOL     OW21677   2.978   0.315   2.007  0.1390  0.1479  0.1122
 3858SOL    HW121678   3.022   0.229   1.980 -1.0246  0.2327 -2.2605
 3858SOL    HW221679   2.992   0.331   2.104  1.1304 -2.2942  0.4123
 3859SOL     OW21680   0.873   1.086   2.508 -0.0274 -0.1272 -0.1552
 3859SOL    HW121681   0.910   1.155   2.447 -0.4879  0.1137 -0.1641
 3859SOL    HW221682   0.802   1.033   2.461 -1.3315  0.9360  0.5699
 3860SOL     OW21683   2.393   9.816   0.424 -0.2487  0.0120  0.2559
 3860SOL    HW121684   2.313   9.782   0.473 -0.6530  0.6114  0.0186
 3860SOL    HW221685   2.475   9.799   0.479 -0.4708 -1.1033  0.2480
 3861SOL     OW21686   2.300   7.668   1.856  0.3125 -0.5292  0.2231
 3861SOL    HW121687   2.383   7.615   1.873 -0.2419 -1.4716  0.0076
 3861SOL    HW221688   2.324   7.754   1.811  1.1219 -1.0535 -0.3582
 3862SOL     OW21689   0.115   0.105   1.530 -0.2834  0.3513  0.5730
 3862SOL    HW121690   0.203   0.069   1.499 -0.3424  0.3508  0.4050
 3862SOL    HW221691   0.071   0.154   1.455  1.0177  3.1123  1.5570
 3863SOL     OW21692   1.383   4.598   2.323  0.0626  0.0563 -0.4666
 3863SOL    HW121693   1.472   4.565   2.356 -0.3738 -1.3676 -0.6985
 3863SOL    HW221694   1.314   4.528   2.338 -1.2715  1.5844  0.7406
 3864SOL     OW21695   8.573   5.618   1.773 -0.2766 -0.4732 -0.0465
 3864SOL    HW121696   8.643   5.685   1.799  0.4353 -1.7048  1.3140
 3864SOL    HW221697   8.483   5.656   1.791  0.1215  0.0282  0.9638
 3865SOL     OW21698   1.143   5.969   1.504 -0.1562 -0.3954 -0.0906
 3865SOL    HW121699   1.127   5.958   1.406 -2.9271  2.6816 -0.0580
 3865SOL    HW221700   1.190   6.055   1.522 -1.5693  0.0906  1.4210
 3866SOL     OW21701   0.947   8.104   0.759 -1.0248 -0.1641  0.0665
 3866SOL    HW121702   0.965   8.180   0.696 -0.9892 -0.9307 -0.8562
 3866SOL    HW221703   1.026   8.043   0.762 -1.3458 -0.5794  0.2260
 3867SOL     OW21704   2.225   0.867   2.709 -0.3826 -0.7096  0.0933
 3867SOL    HW121705   2.250   0.773   2.688  1.4652 -0.3834  0.7362
 3867SOL    HW221706   2.126   0.878   2.700 -0.5550 -2.5706 -0.4896
 3868SOL     OW21707   1.371   3.663   1.569  0.0598 -0.2103 -0.0212
 3868SOL    HW121708   1.298   3.608   1.528  2.0587 -2.7152 -0.3204
 3868SOL    HW221709   1.438   3.603   1.613  1.0620  2.1292  1.7618
 3869SOL     OW21710   1.120   9.952   0.380  0.0180  0.4063 -0.0042
 3869SOL    HW121711   1.165   9.985   0.297 -1.2237  0.1292 -0.7953
 3869SOL    HW221712   1.108  10.029   0.444 -2.1307  1.3567 -1.5072
 3870SOL     OW21713   4.899   2.225   1.374 -0.3597  0.1784  0.9119
 3870SOL    HW121714   4.903   2.291   1.299 -1.7069  0.1398  0.7984
 3870SOL    HW221715   4.888   2.273   1.461  0.5547  0.1904  1.0253
 3871SOL     OW21716   2.548   1.632   1.033  0.3717 -0.4929  0.2988
 3871SOL    HW121717   2.539   1.570   1.112 -0.7330  0.4118  0.8968
 3871SOL    HW221718   2.558   1.726   1.065 -0.9776 -0.0137 -0.6395
 3872SOL     OW21719   1.588   3.875   2.514  0.1143 -0.2917 -0.4603
 3872SOL    HW121720   1.493   3.844   2.510  0.2030 -0.4257 -1.7554
 3872SOL    HW221721   1.591   3.975   2.514 -0.0829 -0.2638  1.4273
 3873SOL     OW21722   3.005   4.617   2.002 -0.3090 -0.0062  0.0255
 3873SOL    HW121723   2.990   4.706   1.960 -2.8392 -0.7616 -0.7744
 3873SOL    HW221724   3.083   4.572   1.959  1.1909  1.9090  0.6526
 3874SOL     OW21725   3.740   4.340   1.228  0.1310  0.0865 -0.9203
 3874SOL    HW121726   3.765   4.433   1.203  1.7426  0.0622  0.4817
 3874SOL    HW221727   3.822   4.282   1.225 -0.8643 -1.3041 -1.8449
 3875SOL     OW21728   3.046   0.955   0.384  0.1323 -0.4403 -0.3397
 3875SOL    HW121729   3.084   0.864   0.367  1.7332  0.2074 -0.2500
 3875SOL    HW221730   2.999   0.955   0.472  1.3196 -0.7965  0.2928
 3876SOL     OW21731   2.808   5.324   0.722  0.4126 -0.1448 -0.0895
 3876SOL    HW121732   2.764   5.284   0.642  1.3003  0.3958 -0.8476
 3876SOL    HW221733   2.907   5.315   0.714  0.5364  0.4444  0.6757
 3877SOL     OW21734   3.646   8.739   0.559 -0.2019  0.3966 -0.6258
 3877SOL    HW121735   3.695   8.790   0.629 -0.6815 -0.4386  0.3355
 3877SOL    HW221736   3.651   8.788   0.472  1.4482  0.8217 -0.3043
 3878SOL     OW21737   9.675   1.072   0.670 -0.0302 -0.3865  0.2363
 3878SOL    HW121738   9.640   0.982   0.695 -0.7888 -0.6925 -1.8906
 3878SOL    HW221739   9.600   1.130   0.640  0.4881  0.9057  1.3666
 3879SOL     OW21740   3.197   5.172   0.840  0.0654  0.1821  0.7616
 3879SOL    HW121741   3.160   5.238   0.774  1.7872  0.8241  0.4262
 3879SOL    HW221742   3.177   5.079   0.809  0.8716  0.4754 -0.6858
 3880SOL     OW21743   2.457   5.860   1.374  0.0472 -0.0610 -0.0309
 3880SOL    HW121744   2.401   5.801   1.316  0.6645 -0.5677 -0.1158
 3880SOL    HW221745   2.443   5.836   1.470 -1.3378  1.0948  0.0704
 3881SOL     OW21746   1.730   2.491   0.940 -0.4670 -0.1012  0.2929
 3881SOL    HW121747   1.767   2.534   0.858  1.4157 -0.9407  0.6864
 3881SOL    HW221748   1.632   2.512   0.947 -0.4045  0.9084 -1.5493
 3882SOL     OW21749   2.471   0.307   0.374 -0.5351 -0.3190 -0.2303
 3882SOL    HW121750   2.545   0.291   0.439 -0.9219 -3.4102 -0.4942
 3882SOL    HW221751   2.436   0.401   0.385  0.3833 -0.3187  2.9761
 3883SOL     OW21752   7.811   6.298   1.897  0.0501 -0.3338  0.2593
 3883SOL    HW121753   7.886   6.327   1.955 -0.0520 -0.2281  0.3375
 3883SOL    HW221754   7.724   6.333   1.934  0.2751  2.4670 -1.7080
 3884SOL     OW21755   1.721   7.680   0.200  0.2418 -0.1580  0.2051
 3884SOL    HW121756   1.741   7.698   0.296  0.0681  0.1895  0.1775
 3884SOL    HW221757   1.796   7.713   0.143  0.1878 -0.0496  0.1966
 3885SOL     OW21758   9.923   6.860   0.384  0.3142 -0.0298  1.0821
 3885SOL    HW121759  10.015   6.897   0.370  0.3294  0.0969  1.4892
 3885SOL    HW221760   9.930   6.763   0.408  0.5071  0.5141  3.3820
 3886SOL     OW21761   0.928   0.122   2.256  0.0156  0.2312  0.2093
 3886SOL    HW121762   0.880   0.087   2.337  2.7372 -0.2520  1.6806
 3886SOL    HW221763   1.025   0.099   2.262  0.7275  2.3941 -1.9956
 3887SOL     OW21764   1.074   8.406   0.136 -0.4102  0.3140  0.0433
 3887SOL    HW121765   0.998   8.471   0.131  0.5449  1.4789  0.4056
 3887SOL    HW221766   1.074   8.349   0.054 -2.0123 -0.0855  0.3017
 3888SOL     OW21767   1.314   3.699   0.762 -0.0698  0.1403 -0.2636
 3888SOL    HW121768   1.342   3.759   0.837  1.8980 -0.3395 -0.5841
 3888SOL    HW221769   1.294   3.753   0.681  0.2184  0.4759 -0.1125
 3889SOL     OW21770   3.206   8.792   2.240  0.1995  0.2709  0.2195
 3889SOL    HW121771   3.304   8.775   2.253  0.2465  1.2854  1.1728
 3889SOL    HW221772   3.185   8.887   2.261 -0.6023  0.6800 -2.1819
 3890SOL     OW21773   4.193   4.299   0.621  0.5472 -0.0496  0.3279
 3890SOL    HW121774   4.256   4.366   0.583 -0.6031 -0.1487 -1.8293
 3890SOL    HW221775   4.200   4.214   0.570 -0.6857 -0.3400  0.6267
 3891SOL     OW21776   3.819   4.643   1.759  0.5684  0.0387  0.4005
 3891SOL    HW121777   3.763   4.578   1.810 -0.4169 -0.4743 -1.3102
 3891SOL    HW221778   3.778   4.660   1.670  1.7431  1.6886  0.1531
 3892SOL     OW21779   2.532   9.319   0.073  0.4907 -0.3332  0.4335
 3892SOL    HW121780   2.513   9.232   0.028 -2.9180  0.4385  0.2696
 3892SOL    HW221781   2.583   9.378   0.011  0.1496 -1.1014 -0.5917
 3893SOL     OW21782   0.647   6.085   2.358  0.6418  0.1435  0.1248
 3893SOL    HW121783   0.688   6.146   2.426  0.5495  0.6652 -0.2770
 3893SOL    HW221784   0.595   6.140   2.292 -0.2780 -0.4656  0.3348
 3894SOL     OW21785   4.089   9.560   2.081  0.7492  0.3650 -0.1680
 3894SOL    HW121786   4.041   9.631   2.029  0.6642  1.4982  1.4383
 3894SOL    HW221787   4.029   9.481   2.092  0.0711  0.8794 -0.1446
 3895SOL     OW21788   3.692   1.514   1.870 -0.2423  0.3328  0.4617
 3895SOL    HW121789   3.712   1.514   1.968  0.4760  1.1854  0.3308
 3895SOL    HW221790   3.771   1.477   1.821 -0.4933  0.1604  0.1908
 3896SOL     OW21791   0.098   7.956   1.160  0.4722  0.0587  0.6083
 3896SOL    HW121792   0.010   7.909   1.153  0.8618 -0.8169  1.3522
 3896SOL    HW221793   0.135   7.942   1.252  1.5885  0.0472  0.1634
 3897SOL     OW21794   3.556   9.794   1.439 -0.1039 -0.0355 -0.1515
 3897SOL    HW121795   3.606   9.874   1.472 -0.1144  0.2278 -0.7595
 3897SOL    HW221796   3.460   9.803   1.462 -0.5597  1.3548 -2.4195
 3898SOL     OW21797   2.270   3.876   2.570 -0.3354 -0.0618  0.4912
 3898SOL    HW121798   2.213   3.926   2.505  0.0081 -1.5084 -0.9416
 3898SOL    HW221799   2.257   3.778   2.557  0.5249 -0.3781  1.9188
 3899SOL     OW21800   1.645   6.771   0.776 -0.0575  0.9676 -0.0017
 3899SOL    HW121801   1.723   6.834   0.785  0.0193  0.6915  1.3491
 3899SOL    HW221802   1.675   6.678   0.798 -0.5755  0.7296 -0.3059
 3900SOL     OW21803   2.096   3.414   0.193  0.1191 -0.2396  0.8389
 3900SOL    HW121804   2.153   3.442   0.270  0.6453  0.3850  0.2326
 3900SOL    HW221805   2.000   3.414   0.221  0.2700  0.3681  1.3792
 3901SOL     OW21806   9.681   1.520   2.250  0.2438 -0.2948 -0.0369
 3901SOL    HW121807   9.680   1.443   2.314 -0.8138  1.8043  2.5794
 3901SOL    HW221808   9.673   1.606   2.301 -1.8191  1.4226 -3.0708
 3902SOL     OW21809   0.326   5.015   0.026  0.0379  0.5026 -0.4335
 3902SOL    HW121810   0.375   4.956   0.090  1.5037  0.4006 -1.6255
 3902SOL    HW221811   0.309   4.965  -0.059 -3.8484 -0.1001  0.6266
 3903SOL     OW21812   0.868   1.030   1.166 -0.4833 -0.6598  0.1341
 3903SOL    HW121813   0.869   0.960   1.094  0.8531 -1.0229  0.4925
 3903SOL    HW221814   0.790   1.014   1.227  0.4233 -2.4786  0.8371
 3904SOL     OW21815   3.434   2.918   0.906  0.1105 -0.4126  0.2278
 3904SOL    HW121816   3.461   2.915   0.810  1.3629 -2.0957  0.6121
 3904SOL    HW221817   3.337   2.895   0.915 -0.5414  1.7963 -0.8017
 3905SOL     OW21818   9.640   7.546   1.287 -0.1059 -0.5434  0.5822
 3905SOL    HW121819   9.597   7.550   1.377  1.7275 -0.0261  1.4651
 3905SOL    HW221820   9.695   7.463   1.281  0.7906  0.0557  0.4185
 3906SOL     OW21821   9.045   5.329   0.715 -0.2587 -0.8368 -0.1112
 3906SOL    HW121822   9.097   5.391   0.656 -1.2905 -1.8305 -2.0915
 3906SOL    HW221823   9.018   5.378   0.798  1.6333  0.4329 -0.2123
 3907SOL     OW21824   2.936   0.354   0.142  0.2199  0.3714  0.4565
 3907SOL    HW121825   2.883   0.436   0.117  0.2073 -0.1679 -1.3695
 3907SOL    HW221826   2.913   0.279   0.079 -0.3264 -1.2745  2.5610
 3908SOL     OW21827   0.528   0.462   2.718 -0.0450  0.3832 -0.2443
 3908SOL    HW121828   0.438   0.476   2.676 -0.4024 -0.5000  0.2156
 3908SOL    HW221829   0.571   0.551   2.733 -1.2534  0.8696  0.4230
 3909SOL     OW21830   3.625   1.306   2.307  0.0744 -0.1308  0.0584
 3909SOL    HW121831   3.546   1.282   2.252  0.5802  0.7349 -1.0644
 3909SOL    HW221832   3.600   1.380   2.371  0.2969  1.0516 -1.1942
 3910SOL     OW21833   0.705   4.742   0.759 -0.2342 -0.4738 -0.4728
 3910SOL    HW121834   0.663   4.734   0.668 -1.7004 -0.1069  0.1504
 3910SOL    HW221835   0.756   4.827   0.765  0.0091 -0.5803 -1.0078
 3911SOL     OW21836   1.781   0.991   1.452  0.0397 -0.1691 -0.0269
 3911SOL    HW121837   1.789   0.891   1.457 -0.8030 -0.2079  0.6850
 3911SOL    HW221838   1.691   1.016   1.418  0.2880  0.3549 -0.3121
 3912SOL     OW21839   0.097   3.485   1.268 -0.3351  0.1677  0.0338
 3912SOL    HW121840   0.061   3.562   1.320  0.2158  0.3939  0.0807
 3912SOL    HW221841   0.040   3.404   1.286 -0.5405  0.4035  0.4747
 3913SOL     OW21842   9.989   8.021   0.807 -0.0938 -0.3573  0.1031
 3913SOL    HW121843   9.941   8.108   0.818 -0.6316 -0.7684  1.0546
 3913SOL    HW221844   9.951   7.954   0.870  1.5896 -0.7599  0.6945
 3914SOL     OW21845   9.476   1.681   2.710  0.1337 -0.8064  0.5002
 3914SOL    HW121846   9.511   1.646   2.797  0.5641  0.6444  0.9292
 3914SOL    HW221847   9.526   1.764   2.685 -0.2825 -0.9719 -0.9199
 3915SOL     OW21848   2.784   6.757   0.898  0.8700 -0.0903 -0.5797
 3915SOL    HW121849   2.756   6.827   0.964 -0.9743 -0.4082 -0.9929
 3915SOL    HW221850   2.840   6.688   0.944  1.8248  1.0944  0.0579
 3916SOL     OW21851   1.591   3.498   1.201  0.3345  0.5428 -0.0394
 3916SOL    HW121852   1.601   3.588   1.244 -1.2720  0.6557  0.0996
 3916SOL    HW221853   1.527   3.442   1.253 -1.3719  0.5560 -2.0664
 3917SOL     OW21854   1.713   1.931   0.884  0.2278  0.7775  0.0008
 3917SOL    HW121855   1.774   1.945   0.963  1.0340 -0.0448 -0.4787
 3917SOL    HW221856   1.699   1.834   0.869  1.5644  0.8721 -2.0115
 3918SOL     OW21857   3.437   3.610   0.106  0.2706 -0.2299  0.1741
 3918SOL    HW121858   3.523   3.647   0.072 -0.1183  1.0935  0.5702
 3918SOL    HW221859   3.374   3.686   0.126 -1.1528 -1.1830 -0.5689
 3919SOL     OW21860   9.673   4.176   1.666 -0.2689 -0.5374 -0.4590
 3919SOL    HW121861   9.641   4.094   1.619 -1.8645  0.4957 -1.2253
 3919SOL    HW221862   9.753   4.213   1.618  0.3496 -1.5493 -0.2067
 3920SOL     OW21863   8.343   3.570   0.067  0.3792  0.5063  0.1849
 3920SOL    HW121864   8.313   3.658   0.104  0.2489  0.0323  1.2239
 3920SOL    HW221865   8.373   3.511   0.142  2.3152  0.3534 -0.6857
 3921SOL     OW21866   0.411   9.132   0.758 -0.2344 -0.1903  0.0730
 3921SOL    HW121867   0.326   9.082   0.771 -0.0124 -0.8008 -0.7858
 3921SOL    HW221868   0.469   9.083   0.694  1.4387 -0.5958  1.8341
 3922SOL     OW21869   1.345   2.030   2.147 -0.0996  0.2562  0.1888
 3922SOL    HW121870   1.376   1.935   2.140  0.6322  0.4255  1.1000
 3922SOL    HW221871   1.247   2.032   2.165 -0.1850 -0.3194 -0.1985
 3923SOL     OW21872   0.734   2.878   1.363 -0.4002  0.5682  0.0701
 3923SOL    HW121873   0.675   2.843   1.435 -0.7216  0.5184 -0.2116
 3923SOL    HW221874   0.704   2.840   1.275  0.6609 -0.2245  0.0446
 3924SOL     OW21875   2.899   8.425   1.670 -0.2967 -0.1196  0.4479
 3924SOL    HW121876   2.843   8.450   1.591 -0.3104  0.1956  0.5569
 3924SOL    HW221877   2.985   8.477   1.669 -1.5051  2.0246  2.1527
 3925SOL     OW21878   1.999   7.921   1.450 -0.4075 -0.1528  0.4535
 3925SOL    HW121879   1.971   7.920   1.546  0.3426  0.9390  0.6849
 3925SOL    HW221880   2.077   7.982   1.438 -1.1436  0.5235 -1.0296
 3926SOL     OW21881   2.931   5.578   2.437  0.2966 -0.7530  0.1418
 3926SOL    HW121882   2.878   5.509   2.485 -1.1706  0.3700  0.1767
 3926SOL    HW221883   2.891   5.594   2.346  2.3026 -1.9715 -0.9926
 3927SOL     OW21884   9.851   0.832   1.947  0.7435 -0.0779 -0.0896
 3927SOL    HW121885   9.853   0.740   1.906 -0.2822 -0.0100 -0.2992
 3927SOL    HW221886   9.766   0.878   1.921  0.6351  0.4252  1.1401
 3928SOL     OW21887   9.331   6.166   2.568 -0.2230  0.1383 -0.0820
 3928SOL    HW121888   9.329   6.128   2.475  1.4194  0.5020 -0.2812
 3928SOL    HW221889   9.336   6.266   2.563 -0.2936  0.1660  0.3911
 3929SOL     OW21890   1.024   1.484   0.405 -0.0718  0.3710 -0.1778
 3929SOL    HW121891   0.981   1.447   0.487 -2.3962 -0.3366 -1.6490
 3929SOL    HW221892   1.044   1.581   0.418  0.8916 -0.0577  1.7092
 3930SOL     OW21893   1.805   8.204   1.095  0.4239  0.0844 -0.1167
 3930SOL    HW121894   1.775   8.112   1.120 -0.8456  0.3883 -0.5045
 3930SOL    HW221895   1.728   8.267   1.101  1.7191  1.5128  2.0022
 3931SOL     OW21896   9.060   4.741   0.014  0.0570 -0.1621 -0.2824
 3931SOL    HW121897   8.996   4.723  -0.061 -0.4734  0.5698 -0.0179
 3931SOL    HW221898   9.128   4.668   0.019 -0.8038 -0.9874 -0.5311
 3932SOL     OW21899   0.226   2.722   1.168  0.2266  0.3623  0.0535
 3932SOL    HW121900   0.147   2.674   1.207 -0.7095  1.7865 -0.0796
 3932SOL    HW221901   0.294   2.738   1.239 -1.2299  2.4431  1.0152
 3933SOL     OW21902   4.250   0.612   0.216  0.0635 -0.0597 -0.1095
 3933SOL    HW121903   4.185   0.540   0.189  0.7108 -0.6360 -0.1448
 3933SOL    HW221904   4.258   0.679   0.142  1.7150 -1.5488 -1.3200
 3934SOL     OW21905   1.956   6.259   1.534 -0.4699  0.1347  0.1402
 3934SOL    HW121906   1.978   6.306   1.619 -0.7932 -0.6739  0.6831
 3934SOL    HW221907   1.914   6.323   1.470 -0.1942  0.7549  0.5760
 3935SOL     OW21908   2.423   1.003   2.814  0.0940 -0.1027  0.7005
 3935SOL    HW121909   2.467   1.070   2.755  1.7763 -1.5941  0.2471
 3935SOL    HW221910   2.347   0.960   2.765 -1.0376  1.4695  1.0148
 3936SOL     OW21911   9.601   7.144   0.021 -0.2627  0.5137 -0.3735
 3936SOL    HW121912   9.600   7.055   0.065  0.7930  0.7298  0.1114
 3936SOL    HW221913   9.689   7.189   0.039 -1.0543  1.9380 -0.0184
 3937SOL     OW21914   8.467   6.975   1.423  0.4940 -0.1306 -0.1052
 3937SOL    HW121915   8.487   7.014   1.513 -0.4370  0.7419 -0.2639
 3937SOL    HW221916   8.496   7.039   1.352  1.1462 -0.7769 -0.4204
 3938SOL     OW21917   2.346   6.866   2.352  0.4380 -0.4618  0.7165
 3938SOL    HW121918   2.405   6.883   2.431  1.1431 -0.1605  0.1328
 3938SOL    HW221919   2.369   6.776   2.313  1.1301  0.0237 -0.0320
 3939SOL     OW21920   9.698   8.285   0.530  0.2732  0.1748 -0.2014
 3939SOL    HW121921   9.709   8.302   0.433 -1.3545 -1.2126 -0.6497
 3939SOL    HW221922   9.686   8.187   0.546 -2.8319  0.6856  1.0013
 3940SOL     OW21923   1.252   2.220   0.026 -0.7381 -0.4098  0.4551
 3940SOL    HW121924   1.267   2.293  -0.040  1.8916 -1.2233  0.0858
 3940SOL    HW221925   1.315   2.231   0.103  1.0322 -3.2019 -0.4746
 3941SOL     OW21926   8.458   6.056   1.265  0.0833 -0.5164  0.0761
 3941SOL    HW121927   8.524   6.079   1.337 -0.7505  2.0228  0.0968
 3941SOL    HW221928   8.376   6.112   1.276 -0.3021 -0.4957 -2.5160
 3942SOL     OW21929   0.198   7.211   2.329  0.0507 -0.6030 -0.2444
 3942SOL    HW121930   0.115   7.211   2.384  1.6062 -1.1551  2.1976
 3942SOL    HW221931   0.174   7.219   2.232 -2.7184  1.2614  0.5384
 3943SOL     OW21932   2.855   4.071   0.047  0.0157 -0.4046 -0.7586
 3943SOL    HW121933   2.802   4.119  -0.023 -0.2895 -0.1164 -0.3267
 3943SOL    HW221934   2.946   4.112   0.054 -0.2443  0.1089 -0.3893
 3944SOL     OW21935   8.057   2.427   2.036  0.0649  0.3480 -0.8372
 3944SOL    HW121936   8.144   2.476   2.031  0.1821  0.2521  0.1707
 3944SOL    HW221937   7.981   2.493   2.033  0.1928  0.5011 -0.6954
 3945SOL     OW21938   8.352   2.963   1.148 -0.6314  0.0323 -0.5086
 3945SOL    HW121939   8.359   2.948   1.049  0.2411 -0.5398 -0.3633
 3945SOL    HW221940   8.284   2.900   1.186 -0.4520 -0.2397 -0.6360
 3946SOL     OW21941   9.991   4.740   1.973 -0.3915 -0.3746 -0.8427
 3946SOL    HW121942  10.030   4.705   2.059 -0.4971 -0.9838 -1.0351
 3946SOL    HW221943   9.973   4.837   1.982 -2.8092 -0.9121  0.7085
 3947SOL     OW21944   0.865   7.663   1.349  0.1073 -0.6532 -0.5187
 3947SOL    HW121945   0.934   7.634   1.283  0.1298 -0.8425 -0.4105
 3947SOL    HW221946   0.870   7.606   1.430 -1.5034 -1.9595 -1.3165
 3948SOL     OW21947   0.965   6.231   0.569  0.0703  0.3217 -0.4273
 3948SOL    HW121948   0.900   6.191   0.504  0.2103 -2.0513  0.8176
 3948SOL    HW221949   1.021   6.158   0.609  1.7243  2.0326  0.4619
 3949SOL     OW21950   0.300   2.204   0.786  0.5197 -0.3247  0.1010
 3949SOL    HW121951   0.223   2.195   0.849  0.8548 -0.2614  0.5268
 3949SOL    HW221952   0.275   2.168   0.696 -0.0971 -0.0387  0.1584
 3950SOL     OW21953   8.932   3.804   0.382  0.4865  0.3242 -0.3766
 3950SOL    HW121954   9.015   3.748   0.374 -0.2386 -0.8532  0.2490
 3950SOL    HW221955   8.866   3.777   0.312  0.1121  0.3527 -0.0362
 3951SOL     OW21956   2.356   6.426   1.039 -0.1335  0.1010  0.2787
 3951SOL    HW121957   2.453   6.435   1.062 -0.2216 -0.1891  0.7651
 3951SOL    HW221958   2.332   6.329   1.031 -0.8508  0.0921  2.2060
 3952SOL     OW21959   4.497   3.281   0.552 -0.3586  0.4400 -0.2273
 3952SOL    HW121960   4.589   3.289   0.514 -1.3749  2.5380 -2.4186
 3952SOL    HW221961   4.485   3.347   0.627  0.3410 -0.8284  1.0240
 3953SOL     OW21962   2.263   6.928   1.656 -0.1708  0.2141  0.4733
 3953SOL    HW121963   2.363   6.927   1.654 -0.1641  1.1638 -0.5031
 3953SOL    HW221964   2.231   7.023   1.647 -1.1809 -0.2146 -0.5136
 3954SOL     OW21965   1.310   6.609   0.441 -0.1494 -0.8889 -0.0961
 3954SOL    HW121966   1.347   6.519   0.419  0.2464 -0.6490 -0.4112
 3954SOL    HW221967   1.263   6.647   0.362  0.7134 -0.3082 -0.3450
 3955SOL     OW21968   0.805   3.545   0.715  0.3519  0.7594 -0.3366
 3955SOL    HW121969   0.853   3.564   0.801 -1.7749 -1.7814  1.5060
 3955SOL    HW221970   0.840   3.460   0.676  0.2695  1.1224 -1.2163
 3956SOL     OW21971   9.655   6.313   2.682  0.1068 -0.0953 -0.6595
 3956SOL    HW121972   9.712   6.247   2.632  2.2756  0.9682  0.3156
 3956SOL    HW221973   9.632   6.275   2.772  3.6693  1.4569  1.0219
 3957SOL     OW21974   2.617   5.201   1.473 -0.0506  0.6555  0.4481
 3957SOL    HW121975   2.545   5.164   1.533  0.3037  0.3749  0.7043
 3957SOL    HW221976   2.604   5.299   1.462 -0.1311  0.7058  0.9737
 3958SOL     OW21977   0.349   6.491   0.811 -0.0258 -0.0324 -0.4030
 3958SOL    HW121978   0.304   6.444   0.734 -2.1841  2.2380 -0.5930
 3958SOL    HW221979   0.425   6.545   0.776 -1.0812  1.0976 -1.0037
 3959SOL     OW21980   4.207   2.394   1.259  0.2174  0.0973 -0.0078
 3959SOL    HW121981   4.267   2.391   1.339  0.7251 -0.7576 -0.4042
 3959SOL    HW221982   4.115   2.364   1.285 -0.0394  1.3927  0.5975
 3960SOL     OW21983   1.331   9.391   2.686  0.3425  0.1014 -0.0137
 3960SOL    HW121984   1.387   9.384   2.769 -0.0456 -0.9277  0.1589
 3960SOL    HW221985   1.247   9.339   2.697  0.5709 -0.5800 -1.2881
 3961SOL     OW21986   2.842   3.025   2.086 -0.3583  0.2028  0.0943
 3961SOL    HW121987   2.768   2.973   2.130  0.9586 -1.4432  0.4388
 3961SOL    HW221988   2.848   2.998   1.990 -1.0716  1.3485 -0.2856
 3962SOL     OW21989   8.594   6.989   1.716  0.0514 -0.2889 -0.5277
 3962SOL    HW121990   8.614   6.896   1.746  0.8442 -0.4761 -1.6266
 3962SOL    HW221991   8.672   7.049   1.736  0.8194 -0.5334 -2.6922
 3963SOL     OW21992   2.094   9.832   0.296  0.1827  0.5970  0.4760
 3963SOL    HW121993   2.147   9.814   0.213 -0.5803 -2.1475  0.5399
 3963SOL    HW221994   2.142   9.796   0.375 -1.0100 -0.4903  0.7235
 3964SOL     OW21995   9.870   8.254   0.917 -0.2650  0.3241  0.4255
 3964SOL    HW121996   9.939   8.274   0.987  1.1925 -0.3478 -0.7954
 3964SOL    HW221997   9.865   8.329   0.852 -0.2145  0.0651  0.1239
 3965SOL     OW21998   3.412   5.238   1.514 -0.3966 -0.2597 -0.3397
 3965SOL    HW121999   3.480   5.194   1.573 -1.6681 -0.0841  1.2811
 3965SOL    HW222000   3.442   5.332   1.494 -0.0905 -0.2220  0.2659
 3966SOL     OW22001   0.323   3.968   0.534 -0.2628  0.0714 -0.0207
 3966SOL    HW122002   0.393   3.898   0.521  0.3892  0.5961  0.6655
 3966SOL    HW222003   0.276   3.953   0.621  0.1470  0.7244  0.3128
 3967SOL     OW22004   2.509   6.533   2.816 -0.3493 -0.7268 -0.0527
 3967SOL    HW122005   2.486   6.506   2.722 -2.6815 -0.4576  0.4281
 3967SOL    HW222006   2.459   6.476   2.881 -0.3730  0.5006  1.0247
 3968SOL     OW22007   1.641   2.831   2.311  0.4227 -0.3182 -0.2807
 3968SOL    HW122008   1.712   2.791   2.254  0.4934 -0.8197  0.1561
 3968SOL    HW222009   1.566   2.864   2.253  1.5820  1.4163 -0.8480
 3969SOL     OW22010   9.108   2.437   2.288 -0.2530 -0.9164 -0.1254
 3969SOL    HW122011   9.194   2.480   2.314 -0.5305 -0.8710  0.7595
 3969SOL    HW222012   9.062   2.493   2.219 -0.5751  0.1824  0.9656
 3970SOL     OW22013   3.970   9.697   0.886  0.1399  0.6126 -0.1914
 3970SOL    HW122014   3.903   9.623   0.892 -0.0777  0.7816 -0.4898
 3970SOL    HW222015   3.940   9.774   0.942 -0.2770  0.9603 -0.8760
 3971SOL     OW22016   8.768   3.801   1.831 -0.1642  0.2581  0.2045
 3971SOL    HW122017   8.800   3.715   1.871  0.2417 -0.2031 -1.0817
 3971SOL    HW222018   8.678   3.787   1.790 -0.3719  0.6056  0.5436
 3972SOL     OW22019   0.225   4.859   2.564  0.4042  0.5284 -0.2889
 3972SOL    HW122020   0.260   4.951   2.547 -1.0305  0.8895 -1.3843
 3972SOL    HW222021   0.189   4.821   2.479 -0.5298 -0.3885  0.5100
 3973SOL     OW22022   8.244   3.727   0.683  0.0549 -0.2170 -0.2859
 3973SOL    HW122023   8.208   3.764   0.768 -2.0219 -1.6457 -0.5160
 3973SOL    HW222024   8.275   3.633   0.698 -0.9421 -0.7088 -1.2377
 3974SOL     OW22025   0.518   2.239   2.748 -0.0564 -0.1224 -0.1902
 3974SOL    HW122026   0.552   2.159   2.798 -0.1744  0.3832  0.7000
 3974SOL    HW222027   0.502   2.314   2.812  0.6099  0.8068 -1.1052
 3975SOL     OW22028   3.874   2.809   2.277  0.0130  0.4383  0.0960
 3975SOL    HW122029   3.957   2.771   2.236 -1.4696  0.9297 -3.5544
 3975SOL    HW222030   3.809   2.736   2.296 -0.5266  0.5243 -1.3995
 3976SOL     OW22031   1.545   3.537   2.274 -0.4864  0.3859 -0.2486
 3976SOL    HW122032   1.484   3.503   2.203 -1.1385  2.3596 -0.6779
 3976SOL    HW222033   1.539   3.637   2.278  1.4510  0.4926  0.8510
 3977SOL     OW22034   1.141   3.346   1.809  0.0070 -0.5702  0.7752
 3977SOL    HW122035   1.138   3.446   1.805  0.3450 -0.5788  0.1327
 3977SOL    HW222036   1.118   3.315   1.901  0.9002  0.1415  1.2519
 3978SOL     OW22037   1.835   8.646   2.029 -0.3679  0.1411 -0.4322
 3978SOL    HW122038   1.758   8.582   2.032 -1.4271  1.4137 -0.4117
 3978SOL    HW222039   1.851   8.675   1.934  0.2091 -0.2425 -0.4609
 3979SOL     OW22040   2.876   2.231   1.382 -0.5260  0.2443 -0.3259
 3979SOL    HW122041   2.868   2.167   1.306 -0.9302  0.9505 -0.8914
 3979SOL    HW222042   2.814   2.204   1.456 -1.2271  0.3985 -0.8588
 3980SOL     OW22043   1.407   3.827   2.899 -0.3070 -0.1011  0.0779
 3980SOL    HW122044   1.492   3.877   2.888  0.7944 -2.0549 -0.5075
 3980SOL    HW222045   1.417   3.735   2.862 -2.0455 -1.0237  1.7668
 3981SOL     OW22046   1.955   3.092   1.308  0.7981  0.1681  0.1730
 3981SOL    HW122047   1.939   3.152   1.230  0.0627  0.3034  0.4254
 3981SOL    HW222048   1.868   3.068   1.350  1.0521 -1.4694 -0.2090
 3982SOL     OW22049   0.226   9.447   1.691 -0.8693  0.1640  0.4195
 3982SOL    HW122050   0.204   9.524   1.751 -1.9759 -0.0676  0.3289
 3982SOL    HW222051   0.286   9.383   1.738 -1.1899  0.3155  1.0395
 3983SOL     OW22052   9.115   2.150   2.016 -0.3868 -0.6081  0.1690
 3983SOL    HW122053   9.052   2.226   1.998  1.2727  0.8437  0.4173
 3983SOL    HW222054   9.092   2.109   2.105  0.7630  1.7528  1.6186
 3984SOL     OW22055   9.981   6.438   2.414 -0.2986  0.3204  0.5076
 3984SOL    HW122056   9.904   6.437   2.350 -0.1043 -0.7891  0.2821
 3984SOL    HW222057   9.952   6.482   2.499 -1.1861 -0.0847  0.4284
 3985SOL     OW22058   4.161   4.121   1.500 -0.1484 -0.0173  0.1411
 3985SOL    HW122059   4.222   4.066   1.558  0.2309 -0.8601 -1.0470
 3985SOL    HW222060   4.097   4.061   1.453 -0.0729  0.6040 -0.7648
 3986SOL     OW22061   1.068   7.632   1.181  0.4200 -0.1723  0.3234
 3986SOL    HW122062   1.040   7.727   1.174 -2.1442 -0.9223 -0.2931
 3986SOL    HW222063   1.163   7.622   1.153  0.7819  2.2230  0.6317
 3987SOL     OW22064   1.279   8.614   0.194 -0.0243  0.4454  0.3548
 3987SOL    HW122065   1.220   8.539   0.162  0.2059 -0.7904  2.7048
 3987SOL    HW222066   1.245   8.701   0.158 -1.2727 -0.6140 -1.0779
 3988SOL     OW22067   8.832   3.972   1.283 -0.6062  0.1381 -0.1283
 3988SOL    HW122068   8.824   3.920   1.198 -1.7472  0.5445 -0.2811
 3988SOL    HW222069   8.851   4.068   1.262  1.0898 -0.1243  0.1427
 3989SOL     OW22070   1.543   3.054   0.251  0.0270  0.2081  0.3790
 3989SOL    HW122071   1.592   2.967   0.248  1.8858  1.2488 -1.5778
 3989SOL    HW222072   1.479   3.054   0.327 -1.8139 -3.8197 -1.0365
 3990SOL     OW22073   3.750   2.598   1.969  0.3990 -0.2276 -0.9426
 3990SOL    HW122074   3.791   2.669   2.026  0.6867 -0.1557 -1.2364
 3990SOL    HW222075   3.753   2.626   1.873 -0.1553 -0.3134 -0.9849
 3991SOL     OW22076   2.503   6.820   1.164  0.2563 -0.7811 -0.4660
 3991SOL    HW122077   2.405   6.807   1.146 -0.8511 -0.0957  4.2960
 3991SOL    HW222078   2.540   6.737   1.207  0.5882  0.5468  1.9239
 3992SOL     OW22079   9.383   5.937   0.627 -0.1311  0.1993 -0.3469
 3992SOL    HW122080   9.451   6.010   0.619  1.1787 -0.7515  1.6919
 3992SOL    HW222081   9.297   5.974   0.660  0.4502  0.8751  0.4237
 3993SOL     OW22082   3.934   5.291   0.095 -0.1827  0.2367  0.3349
 3993SOL    HW122083   3.937   5.240   0.009  1.5322 -0.5525  0.8399
 3993SOL    HW222084   3.956   5.387   0.077 -2.9939  0.7455 -0.5579
 3994SOL     OW22085   8.998   2.937   1.180 -0.4557  0.2047 -0.1142
 3994SOL    HW122086   8.926   2.902   1.121 -0.4735 -1.8428  1.0827
 3994SOL    HW222087   9.017   3.033   1.157 -2.6133  0.3655 -1.3173
 3995SOL     OW22088   0.211   0.569   2.120 -0.0008 -0.6052 -0.0033
 3995SOL    HW122089   0.261   0.486   2.096 -1.1884 -2.1087  2.4087
 3995SOL    HW222090   0.139   0.545   2.186 -2.2846  1.8740 -1.5318
 3996SOL     OW22091   0.404   3.402   1.434  0.6308  0.0774 -0.3531
 3996SOL    HW122092   0.425   3.484   1.382 -0.5223  0.0777 -0.8297
 3996SOL    HW222093   0.401   3.323   1.372 -0.2894  0.0041 -0.2128
 3997SOL     OW22094   1.329   5.650   2.601  0.0523  0.2603  0.0257
 3997SOL    HW122095   1.409   5.709   2.613  0.7408 -0.3851 -1.3721
 3997SOL    HW222096   1.245   5.704   2.612  0.6531  1.8516 -2.7981
 3998SOL     OW22097   8.562   3.094   1.280 -0.4619 -0.0591  1.1648
 3998SOL    HW122098   8.604   3.025   1.340  2.5644  0.1592 -0.5844
 3998SOL    HW222099   8.483   3.054   1.233  0.2341 -1.8300  1.4569
 3999SOL     OW22100   0.637   2.013   2.908  0.1712 -0.9142 -0.0285
 3999SOL    HW122101   0.598   2.006   3.000  0.8632 -1.8782  0.1989
 3999SOL    HW222102   0.607   1.934   2.853  0.5257 -0.8357 -0.3343
 4000SOL     OW22103   0.397   5.257   0.191 -0.4705 -0.6665  0.7438
 4000SOL    HW122104   0.433   5.217   0.106  0.2414  1.6929 -0.0955
 4000SOL    HW222105   0.297   5.253   0.189 -0.4977  0.1551 -0.6306
 4001SOL     OW22106   2.725   1.887   0.988  0.8475  0.1426  0.4363
 4001SOL    HW122107   2.772   1.799   0.995  0.8856 -0.0104 -1.4093
 4001SOL    HW222108   2.735   1.923   0.895 -1.7928  0.6219  0.2971
 4002SOL     OW22109   1.763   9.833   2.668  0.2878 -0.6438  0.3272
 4002SOL    HW122110   1.855   9.796   2.684  0.2456 -0.1399  1.8657
 4002SOL    HW222111   1.730   9.804   2.579  0.7729 -3.2192  0.9567
 4003SOL     OW22112   3.871   0.778   2.396  0.3931 -0.5298  0.1448
 4003SOL    HW122113   3.876   0.843   2.320 -3.1579 -1.5461 -1.0507
 4003SOL    HW222114   3.828   0.821   2.475 -0.3511 -0.8981 -0.0569
 4004SOL     OW22115   1.815   1.389   1.228 -0.3646 -0.7623  0.1194
 4004SOL    HW122116   1.832   1.368   1.325 -1.6132  2.5493  1.1155
 4004SOL    HW222117   1.885   1.452   1.195  0.8554 -2.9381 -1.5808
 4005SOL     OW22118   0.327   8.454   1.188 -0.7614 -0.1422  0.1977
 4005SOL    HW122119   0.296   8.494   1.102 -0.2503 -1.1362 -0.4624
 4005SOL    HW222120   0.373   8.525   1.243  1.1833 -0.0773 -1.4640
 4006SOL     OW22121   0.778   2.447   0.405 -0.6330 -0.2348 -0.3927
 4006SOL    HW122122   0.683   2.469   0.383 -0.8328 -0.6805 -0.0026
 4006SOL    HW222123   0.828   2.530   0.428 -1.9613 -0.3594  3.3467
 4007SOL     OW22124   0.378   8.610   1.791 -0.5186 -0.0179 -0.5371
 4007SOL    HW122125   0.460   8.599   1.735 -1.3622  2.1134 -2.2812
 4007SOL    HW222126   0.341   8.702   1.777 -2.0343 -0.2398  1.8271
 4008SOL     OW22127   4.042   3.523   0.842 -0.4117 -0.4498 -0.1797
 4008SOL    HW122128   4.004   3.485   0.926 -0.5701 -0.0066 -0.0490
 4008SOL    HW222129   3.996   3.609   0.820  0.4674  0.0618 -0.0537
 4009SOL     OW22130   0.537   9.572   0.934 -0.1700 -0.5297  0.3205
 4009SOL    HW122131   0.486   9.607   0.855 -1.1487  0.7714  1.5190
 4009SOL    HW222132   0.516   9.475   0.946 -1.2800 -0.3462 -0.0479
 4010SOL     OW22133   0.131   6.229   1.856 -0.3956  0.2597  0.0085
 4010SOL    HW122134   0.178   6.151   1.816 -1.5738 -0.8407  0.7527
 4010SOL    HW222135   0.042   6.201   1.891 -0.8604  1.9435  0.2378
 4011SOL     OW22136   1.053   4.397   1.554 -0.3116  0.1740  0.2441
 4011SOL    HW122137   1.116   4.378   1.629  0.8427  0.0578 -0.7571
 4011SOL    HW222138   0.993   4.318   1.541  1.4212 -1.0019 -0.8534
 4012SOL     OW22139   2.298   8.005   0.607  0.2597  0.5159 -0.4307
 4012SOL    HW122140   2.344   7.986   0.520 -0.6181 -0.2244 -0.7317
 4012SOL    HW222141   2.324   7.935   0.674  1.0353  1.1552 -0.0509
 4013SOL     OW22142   0.638   0.259   0.560  0.2073 -0.2542  0.1347
 4013SOL    HW122143   0.701   0.241   0.635 -0.9123  3.9379  2.2428
 4013SOL    HW222144   0.686   0.306   0.486  0.2054  0.4540  0.5723
 4014SOL     OW22145   3.887   1.281   0.214  0.1333  0.7387 -0.3834
 4014SOL    HW122146   3.808   1.239   0.171  0.5493  1.5107 -1.9458
 4014SOL    HW222147   3.953   1.210   0.240 -0.3895  0.2178 -0.4842
 4015SOL     OW22148   0.322   4.329   2.180 -0.3754 -0.5464 -0.5831
 4015SOL    HW122149   0.264   4.254   2.212  0.4327 -0.7480  0.4390
 4015SOL    HW222150   0.411   4.291   2.152  0.2717  0.0949  0.5569
 4016SOL     OW22151   2.658   8.145   1.350  0.6713 -0.0713  0.0861
 4016SOL    HW122152   2.715   8.207   1.297  0.8889 -1.2584 -1.0795
 4016SOL    HW222153   2.579   8.116   1.296  0.4729 -0.6775  0.6819
 4017SOL     OW22154   0.399   2.818   2.184 -0.0133  0.5112 -0.1538
 4017SOL    HW122155   0.364   2.891   2.127 -1.7967 -0.9452 -0.9665
 4017SOL    HW222156   0.494   2.798   2.159 -0.5036  0.4667 -2.0335
 4018SOL     OW22157   1.415   4.760   1.316  0.1640 -0.0932  0.0527
 4018SOL    HW122158   1.400   4.720   1.406  0.2092 -0.0492  0.0797
 4018SOL    HW222159   1.441   4.688   1.252  2.5829  0.2262  0.6443
 4019SOL     OW22160   2.863   5.013   2.144 -0.1404 -0.2944  0.2933
 4019SOL    HW122161   2.802   5.055   2.077  1.3007  0.4875 -0.5744
 4019SOL    HW222162   2.936   5.078   2.167  0.4819 -1.2813  1.1510
 4020SOL     OW22163   9.400   7.036   0.354  0.4110  0.2261 -0.3294
 4020SOL    HW122164   9.468   6.980   0.306  0.5464  0.0274  0.0870
 4020SOL    HW222165   9.340   7.080   0.287 -1.1329 -2.1998 -0.6043
 4021SOL     OW22166   0.743   9.116   0.820  0.2997 -0.7533  0.5014
 4021SOL    HW122167   0.793   9.040   0.862 -2.3929 -3.7258 -1.4496
 4021SOL    HW222168   0.694   9.083   0.739 -1.2061  3.0218 -0.2161
 4022SOL     OW22169   3.555   4.254   2.556  1.1758  0.4537 -0.2985
 4022SOL    HW122170   3.473   4.305   2.583  1.4799  0.5854  0.3794
 4022SOL    HW222171   3.530   4.186   2.486  0.2867 -0.2561  0.6914
 4023SOL     OW22172   1.034   4.878   0.889 -0.0318 -0.6815 -0.8675
 4023SOL    HW122173   0.988   4.926   0.815  0.7425  0.7717 -0.4116
 4023SOL    HW222174   1.132   4.891   0.881 -0.0050  0.4065  1.0338
 4024SOL     OW22175   3.208   1.234   0.461 -0.7600  0.0184  0.3020
 4024SOL    HW122176   3.274   1.242   0.535 -0.1028 -0.9942 -0.1669
 4024SOL    HW222177   3.116   1.220   0.499 -0.5463  0.3422  0.9351
 4025SOL     OW22178   3.796   1.757   0.600  0.4349  0.4837  0.7694
 4025SOL    HW122179   3.883   1.789   0.561 -1.3288  1.3372 -2.6375
 4025SOL    HW222180   3.791   1.657   0.593  0.6843  0.5254 -0.0535
 4026SOL     OW22181   1.680   3.979   0.673 -0.1994 -0.0512 -0.2297
 4026SOL    HW122182   1.685   4.075   0.700  0.2591  0.1467 -1.0062
 4026SOL    HW222183   1.712   3.922   0.748  2.1070  0.5503 -0.7221
 4027SOL     OW22184   3.147   9.837   1.966 -0.0434 -0.0779  0.9230
 4027SOL    HW122185   3.227   9.787   1.934 -0.6510 -0.0704 -0.6446
 4027SOL    HW222186   3.108   9.790   2.046  0.4265 -1.1157  0.5474
 4028SOL     OW22187   9.311   8.067   1.323  0.4630 -0.2475  0.1484
 4028SOL    HW122188   9.303   8.080   1.421 -1.4017 -1.6536  0.2167
 4028SOL    HW222189   9.300   7.970   1.301 -3.3023  0.5062 -1.7580
 4029SOL     OW22190   0.819   3.221   1.941  0.2148 -0.7027  0.1975
 4029SOL    HW122191   0.737   3.272   1.915  0.5212 -1.1769 -1.7459
 4029SOL    HW222192   0.834   3.232   2.040 -0.0240  2.5094 -0.0487
 4030SOL     OW22193   2.708   0.662   2.347  0.4123 -0.2714  0.4657
 4030SOL    HW122194   2.794   0.662   2.399  0.4977 -0.3480  0.3226
 4030SOL    HW222195   2.646   0.593   2.386 -0.1218  0.7602  1.4648
 4031SOL     OW22196   2.705   3.205   2.480 -0.4457  0.6124 -0.5096
 4031SOL    HW122197   2.738   3.288   2.525 -0.8605  0.2481  0.4624
 4031SOL    HW222198   2.770   3.179   2.408  1.2887  0.0339  1.2119
 4032SOL     OW22199   3.358   0.830   1.436  0.3775  0.0233 -0.4954
 4032SOL    HW122200   3.424   0.768   1.393  0.2102 -0.4456 -0.0731
 4032SOL    HW222201   3.286   0.853   1.370  0.1244 -0.6962 -0.4805
 4033SOL     OW22202   0.878   5.489   2.789 -0.3993  0.2445  0.1881
 4033SOL    HW122203   0.781   5.509   2.804 -0.0117  2.8432 -0.7139
 4033SOL    HW222204   0.891   5.454   2.696 -0.1381  2.2868 -0.5579
 4034SOL     OW22205   1.860   8.415   2.827  0.4945  0.2950 -0.5657
 4034SOL    HW122206   1.894   8.351   2.896 -1.1633 -0.0522 -0.0406
 4034SOL    HW222207   1.804   8.485   2.872 -0.5881  0.0664 -1.5530
 4035SOL     OW22208   0.895   7.410   2.730  0.1252 -0.1636 -0.0888
 4035SOL    HW122209   0.884   7.312   2.711  1.3303 -0.3209 -0.0269
 4035SOL    HW222210   0.982   7.441   2.693  0.9176  0.3068  2.1023
 4036SOL     OW22211   3.802   4.374   2.484  0.5479 -0.5215  0.0558
 4036SOL    HW122212   3.714   4.343   2.521 -0.2926  2.4048  0.6123
 4036SOL    HW222213   3.790   4.395   2.386  0.1056  1.7029  0.5647
 4037SOL     OW22214   8.316   3.503   2.702 -0.6605  0.3223  0.1111
 4037SOL    HW122215   8.344   3.505   2.798 -0.5539 -1.0498  0.1176
 4037SOL    HW222216   8.220   3.474   2.696 -0.6324  0.2917 -0.2014
 4038SOL     OW22217   0.632   1.203   2.844 -0.2028  0.0429 -0.2351
 4038SOL    HW122218   0.577   1.132   2.798 -0.8450  1.0224 -1.0097
 4038SOL    HW222219   0.581   1.289   2.845  0.2978  0.3381  1.2885
 4039SOL     OW22220   8.662   5.541   0.466 -0.2999 -0.2635 -0.5417
 4039SOL    HW122221   8.724   5.523   0.390  2.0174 -0.7360  1.4003
 4039SOL    HW222222   8.575   5.574   0.431  0.0182 -2.4152 -3.4781
 4040SOL     OW22223   1.379   2.227   1.269  0.1569 -0.7178 -0.1096
 4040SOL    HW122224   1.395   2.262   1.362  1.1038 -0.1043 -0.5018
 4040SOL    HW222225   1.334   2.297   1.214 -3.0601 -2.0808  0.6892
 4041SOL     OW22226   9.546   6.467   2.466  0.4828 -0.6042 -0.0054
 4041SOL    HW122227   9.580   6.416   2.545  0.0966 -1.2572 -0.2462
 4041SOL    HW222228   9.464   6.421   2.430  0.1732  0.1495 -0.2817
 4042SOL     OW22229   1.549   1.458   1.975 -0.3898  0.2847 -0.5399
 4042SOL    HW122230   1.638   1.478   2.016  0.2585 -0.8308 -1.3755
 4042SOL    HW222231   1.534   1.360   1.973 -1.9441  0.4925  0.1923
 4043SOL     OW22232   0.235   8.027   0.193 -0.2985 -1.2977  0.6205
 4043SOL    HW122233   0.301   7.991   0.127  0.5629  1.6458 -0.1904
 4043SOL    HW222234   0.279   8.035   0.283  1.2956  2.8132 -0.4084
 4044SOL     OW22235   9.425   3.287   0.810  0.3741 -0.6245 -0.9480
 4044SOL    HW122236   9.504   3.346   0.792  1.3316 -1.5591  0.1243
 4044SOL    HW222237   9.418   3.218   0.737 -0.0999  0.1382 -1.6232
 4045SOL     OW22238   2.025   2.084   2.359  0.1103 -0.3935 -0.0721
 4045SOL    HW122239   2.078   2.154   2.407  0.8938 -1.4164  0.5759
 4045SOL    HW222240   2.087   2.026   2.306 -0.1979 -2.5187  1.8590
 4046SOL     OW22241   8.129   3.427   0.895 -0.4309 -0.1401  0.0382
 4046SOL    HW122242   8.220   3.414   0.856 -0.4249 -2.0173  0.6053
 4046SOL    HW222243   8.115   3.523   0.917  2.1082 -0.0864  1.6063
 4047SOL     OW22244   2.408   5.862   1.675 -0.0329  0.2112 -0.0550
 4047SOL    HW122245   2.348   5.802   1.728  0.1069 -2.5553 -2.8729
 4047SOL    HW222246   2.358   5.945   1.651 -2.1720 -1.2179 -0.7680
 4048SOL     OW22247   9.965   7.454   1.587 -0.7337 -0.4383 -0.3033
 4048SOL    HW122248   9.885   7.488   1.636 -1.8601 -2.7955 -0.4489
 4048SOL    HW222249   9.938   7.424   1.496  0.3609 -1.0050 -0.4470
 4049SOL     OW22250   0.386   1.524   2.302 -0.1518  0.0738 -0.4571
 4049SOL    HW122251   0.415   1.437   2.262 -0.3536  0.0407 -0.5330
 4049SOL    HW222252   0.454   1.594   2.280 -0.2270  0.0422 -0.8049
 4050SOL     OW22253   0.708   5.516   0.692  0.6335  0.2216  0.0279
 4050SOL    HW122254   0.799   5.498   0.730 -0.0009  0.4479  1.7185
 4050SOL    HW222255   0.698   5.469   0.605  2.1492 -0.3188  0.1331
 4051SOL     OW22256   1.212   5.537   0.803  0.3830 -0.0686 -0.7474
 4051SOL    HW122257   1.204   5.518   0.901  1.8063  0.6827 -0.4728
 4051SOL    HW222258   1.255   5.459   0.757  0.0629 -0.2663 -0.7114
 4052SOL     OW22259   2.707   2.977   0.304  0.0219 -0.6208  0.2860
 4052SOL    HW122260   2.764   2.986   0.222 -0.5965 -2.8498 -0.4375
 4052SOL    HW222261   2.704   3.064   0.352  0.6400  0.6554 -1.9010
 4053SOL     OW22262   2.069   5.915   0.207  0.0583 -0.0689 -0.6568
 4053SOL    HW122263   2.040   6.008   0.232  1.0624  0.2441 -0.6141
 4053SOL    HW222264   2.056   5.854   0.284  1.0651  0.4205 -0.0956
 4054SOL     OW22265   9.142   7.111   0.185 -0.4695 -0.6428  0.1211
 4054SOL    HW122266   9.135   7.053   0.103 -2.9801 -1.0326  0.5449
 4054SOL    HW222267   9.070   7.180   0.182 -0.5217 -0.5988  1.9375
 4055SOL     OW22268   9.390   7.796   1.010  0.0262 -0.1978 -0.0243
 4055SOL    HW122269   9.381   7.884   0.962 -0.2462 -0.3353 -0.2230
 4055SOL    HW222270   9.301   7.751   1.013  0.2275 -0.6101 -0.1985
 4056SOL     OW22271   9.859   4.497   1.638  0.3936  0.0551  0.6591
 4056SOL    HW122272   9.856   4.480   1.540 -0.5197 -1.4226  0.9281
 4056SOL    HW222273   9.790   4.566   1.662  0.3195  0.0964  0.3360
 4057SOL     OW22274   9.706   8.506   1.924 -0.0911 -0.0880 -0.0140
 4057SOL    HW122275   9.730   8.410   1.938  3.9039  0.9117  0.6894
 4057SOL    HW222276   9.684   8.521   1.828 -1.0748 -1.7470 -0.0734
 4058SOL     OW22277   3.545   3.150   0.569 -0.4904 -0.0468  0.0820
 4058SOL    HW122278   3.510   3.056   0.576 -1.6556  0.5312  2.4826
 4058SOL    HW222279   3.520   3.188   0.480 -1.7966 -1.3238 -0.1149
 4059SOL     OW22280   3.076   5.163   2.103 -0.5894  0.3093 -0.3189
 4059SOL    HW122281   3.046   5.249   2.143 -0.2552  0.5226 -0.5304
 4059SOL    HW222282   3.078   5.171   2.004 -2.6644 -0.6187 -0.4500
 4060SOL     OW22283   4.185   1.104   2.206  0.2021 -0.6071  0.0260
 4060SOL    HW122284   4.231   1.143   2.285 -0.3516  0.8211 -0.3338
 4060SOL    HW222285   4.142   1.017   2.231  1.5291 -1.0432  0.8207
 4061SOL     OW22286   0.863   6.161   1.429 -0.6923  0.1605 -0.0590
 4061SOL    HW122287   0.921   6.214   1.367 -0.1661  1.4321  1.4955
 4061SOL    HW222288   0.802   6.102   1.375  0.2694  0.6852 -1.7582
 4062SOL     OW22289   1.648   5.536   1.031  0.2851  0.1791  0.1260
 4062SOL    HW122290   1.570   5.584   1.071  0.7169  0.3662  0.7609
 4062SOL    HW222291   1.687   5.475   1.099 -0.4215 -1.2827 -0.7634
 4063SOL     OW22292   9.421   2.272   1.947 -1.2815  0.0539  0.0952
 4063SOL    HW122293   9.509   2.282   1.902 -1.1439  0.1100  0.3794
 4063SOL    HW222294   9.370   2.358   1.942 -2.4166 -0.7153 -2.3846
 4064SOL     OW22295   2.228   0.977   0.673 -0.3835 -0.3074 -0.0689
 4064SOL    HW122296   2.305   1.042   0.670 -0.0554 -0.7276 -0.8814
 4064SOL    HW222297   2.197   0.958   0.580 -1.9042  0.3606  0.2957
 4065SOL     OW22298   0.943   1.147   0.760 -0.2880 -0.0764 -0.3307
 4065SOL    HW122299   1.035   1.172   0.729  1.1141 -2.2038  1.9139
 4065SOL    HW222300   0.911   1.069   0.706 -1.6724  1.9199 -2.4816
 4066SOL     OW22301   1.044   7.143   1.495 -0.1853  0.2153 -0.3244
 4066SOL    HW122302   0.987   7.173   1.572 -0.6038  0.0058 -0.5551
 4066SOL    HW222303   1.007   7.180   1.410 -1.0386 -1.4198 -0.6786
 4067SOL     OW22304   3.063   9.106   0.857  0.3028 -0.0088 -0.3602
 4067SOL    HW122305   3.074   9.183   0.920 -0.6428  0.7887 -1.1375
 4067SOL    HW222306   2.971   9.109   0.818 -0.0938 -2.1434  0.3684
 4068SOL     OW22307   2.586   5.486   0.630  0.2556  0.1606 -0.3120
 4068SOL    HW122308   2.601   5.501   0.532  3.1421 -0.6263 -0.0494
 4068SOL    HW222309   2.655   5.422   0.664 -0.3869  0.8496  2.3551
 4069SOL     OW22310   9.144   4.422   1.134 -0.2748 -0.1706 -0.0202
 4069SOL    HW122311   9.108   4.512   1.110 -0.6099 -0.3931 -0.3427
 4069SOL    HW222312   9.237   4.413   1.097 -0.0203  0.2584  0.5018
 4070SOL     OW22313   3.894   5.138   1.143  0.0343 -0.0562  0.1992
 4070SOL    HW122314   3.795   5.127   1.146 -0.2358  2.2186  0.2232
 4070SOL    HW222315   3.930   5.143   1.237  0.1971 -0.9359  0.1920
 4071SOL     OW22316   9.851   1.603   1.902 -0.4055 -0.2768 -0.0882
 4071SOL    HW122317   9.935   1.637   1.944  1.0946 -1.6741 -1.8704
 4071SOL    HW222318   9.794   1.560   1.972 -0.6301  2.5128  1.5095
 4072SOL     OW22319   2.461   4.503   0.475  0.1493  0.0363  0.1291
 4072SOL    HW122320   2.483   4.594   0.511  2.0464 -0.5424  0.5149
 4072SOL    HW222321   2.499   4.434   0.537  3.1032 -0.9912 -2.7006
 4073SOL     OW22322   9.977   6.250   0.276  0.4955 -0.1491 -0.1340
 4073SOL    HW122323   9.980   6.189   0.354  0.6451  1.0137  0.7879
 4073SOL    HW222324   9.941   6.202   0.197  0.7952 -1.4700  0.5268
 4074SOL     OW22325   0.797   2.820   1.700 -0.2033 -0.3067  0.7182
 4074SOL    HW122326   0.826   2.765   1.778 -1.0198  0.2815  1.4528
 4074SOL    HW222327   0.877   2.847   1.647  0.5313  0.4906  2.1772
 4075SOL     OW22328   2.725   0.282   2.259 -0.1290  0.2359 -0.3304
 4075SOL    HW122329   2.663   0.209   2.231 -0.2548  0.3072 -0.2443
 4075SOL    HW222330   2.820   0.253   2.248 -0.1784  0.3083 -0.9387
 4076SOL     OW22331   3.060   0.619   0.568 -0.2363 -0.3910  0.6807
 4076SOL    HW122332   3.001   0.582   0.640  0.1548  0.0784  1.2477
 4076SOL    HW222333   3.142   0.563   0.561 -1.1553 -1.5807 -0.7285
 4077SOL     OW22334   1.283   6.358   1.453 -0.4798  0.0123 -0.0099
 4077SOL    HW122335   1.350   6.381   1.523 -1.2623  1.3301  0.3411
 4077SOL    HW222336   1.326   6.301   1.382  1.1496  1.2568 -0.0595
 4078SOL     OW22337   0.078   1.796   2.027 -0.0873  0.3742  0.3454
 4078SOL    HW122338   0.175   1.822   2.028 -0.1123  0.4301  1.2219
 4078SOL    HW222339   0.024   1.864   2.076 -0.5541  0.2590 -0.0025
 4079SOL     OW22340   9.146   4.180   1.280  0.0479 -0.2554 -0.3353
 4079SOL    HW122341   9.160   4.274   1.247 -0.2472 -0.1219 -0.0907
 4079SOL    HW222342   9.109   4.125   1.205 -0.8323  0.1030 -0.1785
 4080SOL     OW22343   2.027   7.159   2.546  0.7731 -0.0240 -0.1898
 4080SOL    HW122344   1.941   7.117   2.516  0.5776  0.3442 -0.1560
 4080SOL    HW222345   2.069   7.103   2.617 -0.0885  0.4408  0.7104
 4081SOL     OW22346   2.256   2.652   1.182  0.1976 -0.1000  0.2414
 4081SOL    HW122347   2.325   2.584   1.206 -0.1770 -0.1372  1.2477
 4081SOL    HW222348   2.219   2.632   1.092  0.0070 -1.3019  0.5806
 4082SOL     OW22349   9.039   7.427   0.399 -0.0209 -0.4701  0.2934
 4082SOL    HW122350   9.044   7.374   0.483 -0.0049 -1.1945 -0.1609
 4082SOL    HW222351   9.064   7.522   0.418 -0.2561 -0.5734  1.1494
 4083SOL     OW22352   4.020   9.522   1.670 -0.2555  0.1852  0.3200
 4083SOL    HW122353   4.114   9.534   1.702 -0.2775  0.9590  0.0998
 4083SOL    HW222354   3.985   9.609   1.636 -1.4029  0.1178  1.3224
 4084SOL     OW22355   0.577   3.834   0.487  0.5749 -0.3990 -0.0267
 4084SOL    HW122356   0.667   3.873   0.470 -0.7223  1.5041 -2.7479
 4084SOL    HW222357   0.576   3.738   0.460  1.3228  0.0201 -1.5467
 4085SOL     OW22358   4.669   3.361   1.577  0.6864  0.5466 -0.2548
 4085SOL    HW122359   4.648   3.276   1.528  0.0382  0.3227  0.4063
 4085SOL    HW222360   4.621   3.437   1.533  1.4765  0.6181 -1.0070
 4086SOL     OW22361   3.212   0.686   0.994  0.3038 -0.1753  0.5244
 4086SOL    HW122362   3.175   0.758   0.936  0.4576 -1.7603 -1.5852
 4086SOL    HW222363   3.143   0.657   1.061 -1.3504 -1.1754 -1.5533
 4087SOL     OW22364   3.040   4.679   0.215  0.1667 -0.0803  0.0359
 4087SOL    HW122365   2.953   4.630   0.215  0.5916 -0.9125  2.3246
 4087SOL    HW222366   3.084   4.668   0.304  2.1853  1.0955 -0.7833
 4088SOL     OW22367   9.371   6.406   2.698  0.9270 -0.5991  0.1317
 4088SOL    HW122368   9.471   6.411   2.694  1.0137 -1.4330  0.9827
 4088SOL    HW222369   9.344   6.349   2.776 -0.1705 -1.9218 -1.1873
 4089SOL     OW22370   2.410   7.778   0.774 -0.2762  0.4754 -0.3760
 4089SOL    HW122371   2.501   7.790   0.734 -1.0194  0.4908 -2.1366
 4089SOL    HW222372   2.410   7.699   0.834  0.5377 -0.4261 -1.5365
 4090SOL     OW22373   3.648   4.462   1.906 -0.0368 -0.0392  0.2360
 4090SOL    HW122374   3.563   4.516   1.908 -1.1269 -1.6608 -0.8699
 4090SOL    HW222375   3.637   4.387   1.841  2.8741  0.7256 -1.2026
 4091SOL     OW22376   2.924   3.993   1.434  0.4308  1.0244 -0.1944
 4091SOL    HW122377   3.008   3.960   1.391 -0.5250 -1.1223 -0.4764
 4091SOL    HW222378   2.932   3.987   1.533 -0.1557 -1.2237 -0.2595
 4092SOL     OW22379   8.945   3.876   0.637 -0.2322  0.2733 -0.0004
 4092SOL    HW122380   8.907   3.867   0.545  0.6912  2.1141 -0.5833
 4092SOL    HW222381   8.981   3.788   0.667 -2.0362 -0.7271 -0.7284
 4093SOL     OW22382   2.627   9.969   1.120  0.5168 -0.5065  0.5132
 4093SOL    HW122383   2.610   9.910   1.199  0.0707 -0.6043  0.3500
 4093SOL    HW222384   2.636  10.064   1.150 -0.7033 -0.3985  0.5816
 4094SOL     OW22385   3.252   5.100   1.105 -0.1044 -0.1981 -0.8025
 4094SOL    HW122386   3.222   5.140   1.018  0.9518 -0.4872 -1.3041
 4094SOL    HW222387   3.324   5.033   1.088 -0.4356 -0.8217  0.2297
 4095SOL     OW22388   3.672   1.896   0.786  0.3239  0.6979 -0.3231
 4095SOL    HW122389   3.613   1.823   0.819 -0.4518  1.2143 -0.5383
 4095SOL    HW222390   3.730   1.862   0.712  0.9804 -0.0621  0.5314
 4096SOL     OW22391   1.849   6.989   0.022 -0.2211  0.5577  0.1790
 4096SOL    HW122392   1.820   6.902   0.061 -0.9322 -0.4285 -2.4424
 4096SOL    HW222393   1.946   6.983  -0.003 -0.4377  0.2923 -0.5998
 4097SOL     OW22394   3.490   1.706   0.876 -0.2648  0.2093 -0.1135
 4097SOL    HW122395   3.470   1.751   0.963  0.0119 -0.5051  0.3207
 4097SOL    HW222396   3.413   1.719   0.813 -0.3146  1.0251  0.1125
 4098SOL     OW22397   2.307   1.881   2.785  0.1434  0.2710 -0.2791
 4098SOL    HW122398   2.315   1.830   2.870 -0.6279 -0.2525 -0.5157
 4098SOL    HW222399   2.234   1.842   2.729 -0.3230  1.4985 -0.5502
 4099SOL     OW22400   8.990   5.654   0.590 -0.1571  0.4772  0.9911
 4099SOL    HW122401   8.915   5.647   0.657 -0.5259 -0.0379  0.5309
 4099SOL    HW222402   8.953   5.684   0.502  0.0921 -0.2790  0.6229
 4100SOL     OW22403   0.253   6.846   2.693  0.5393 -0.1244  0.1628
 4100SOL    HW122404   0.215   6.938   2.704  0.9624 -0.2239  2.7743
 4100SOL    HW222405   0.214   6.803   2.612 -1.5194  1.4481  0.2854
 4101SOL     OW22406   0.602   0.973   0.932  0.7364  0.8168 -0.2918
 4101SOL    HW122407   0.531   0.909   0.905  2.6745 -0.7785 -1.7536
 4101SOL    HW222408   0.561   1.061   0.954 -1.8988 -0.7141  1.1212
 4102SOL     OW22409   9.560   6.260   0.409  0.0773  0.2133 -0.0592
 4102SOL    HW122410   9.486   6.225   0.351  0.4593  0.4229 -0.6756
 4102SOL    HW222411   9.556   6.215   0.498  0.2919 -1.0855 -0.6857
 4103SOL     OW22412   0.931   9.231   1.980  0.4464  0.1284  0.0782
 4103SOL    HW122413   0.882   9.305   2.026  0.4775 -0.3396  0.8812
 4103SOL    HW222414   0.933   9.150   2.040  1.8047 -0.0030 -0.1163
 4104SOL     OW22415   0.598   8.567   1.567 -0.3976 -0.8900  0.3997
 4104SOL    HW122416   0.638   8.479   1.539  1.2165  0.2544 -0.9953
 4104SOL    HW222417   0.658   8.612   1.632  0.5838  0.7605 -1.5751
 4105SOL     OW22418   0.857   8.202   2.783 -0.0481 -0.3803  0.2843
 4105SOL    HW122419   0.948   8.208   2.823 -0.5885  0.9277  1.3591
 4105SOL    HW222420   0.798   8.148   2.844 -0.4805  0.3674  0.5368
 4106SOL     OW22421   4.111   2.542   1.045 -0.3725 -0.1124  0.1466
 4106SOL    HW122422   4.149   2.628   1.078  1.2966 -0.5709 -0.5536
 4106SOL    HW222423   4.151   2.466   1.095  0.7920 -0.6900 -1.6212
 4107SOL     OW22424   1.981   9.572   1.487 -0.0852  0.1358 -0.5266
 4107SOL    HW122425   1.980   9.669   1.466  1.1895 -0.0592 -1.6502
 4107SOL    HW222426   2.056   9.552   1.550 -2.8573  0.4546  2.9649
 4108SOL     OW22427   4.233   0.873   1.455  0.1644 -0.0950 -0.2370
 4108SOL    HW122428   4.315   0.853   1.509  0.4602 -0.6097 -0.8657
 4108SOL    HW222429   4.191   0.787   1.426 -1.1372  0.1421  0.8702
 4109SOL     OW22430   4.208   1.321   1.555 -0.5040 -0.5437 -0.0790
 4109SOL    HW122431   4.150   1.249   1.519 -2.1913  0.6838  0.1345
 4109SOL    HW222432   4.167   1.358   1.639  1.2425 -0.5393  0.8003
 4110SOL     OW22433   1.544   5.608   1.736 -0.0872 -0.0763 -0.3295
 4110SOL    HW122434   1.565   5.520   1.777 -1.5319  0.1288  0.8760
 4110SOL    HW222435   1.600   5.679   1.779  3.5570 -0.8033 -3.5870
 4111SOL     OW22436   2.268   9.274   1.067  0.6076 -0.0536 -0.4422
 4111SOL    HW122437   2.356   9.227   1.072 -1.9089 -5.0474 -0.0178
 4111SOL    HW222438   2.223   9.250   0.981 -1.8933 -0.6302  0.9681
 4112SOL     OW22439   9.907   6.909   2.350 -0.1064 -0.1143 -0.5687
 4112SOL    HW122440   9.977   6.968   2.390 -0.5849  0.3211 -0.3806
 4112SOL    HW222441   9.827   6.963   2.327 -0.0287 -0.4448 -1.6592
 4113SOL     OW22442   0.452   4.839   1.898  0.0864  0.6872 -0.4202
 4113SOL    HW122443   0.421   4.922   1.851 -1.8463  0.4301  0.3841
 4113SOL    HW222444   0.537   4.859   1.948  0.4516  1.7749 -1.4546
 4114SOL     OW22445   0.016   3.105   2.567  0.3025  0.0691 -0.2621
 4114SOL    HW122446  -0.053   3.050   2.615 -0.6515 -0.4713 -2.1690
 4114SOL    HW222447   0.107   3.080   2.599 -0.1301 -2.4774 -0.9279
 4115SOL     OW22448   1.782   5.786   0.983  0.7285 -0.0080 -0.3134
 4115SOL    HW122449   1.734   5.710   1.028  0.5711  1.2380  1.6865
 4115SOL    HW222450   1.839   5.750   0.910 -2.0620 -1.6800 -1.7553
 4116SOL     OW22451   0.262   8.863   1.751  0.0461  0.5342  0.1647
 4116SOL    HW122452   0.276   8.867   1.653  0.5512  1.7663  0.2896
 4116SOL    HW222453   0.164   8.857   1.770 -0.2188  2.8144 -0.3430
 4117SOL     OW22454   0.240   5.491   1.374  0.1080  0.1943  0.1737
 4117SOL    HW122455   0.252   5.590   1.368  0.6636  0.1710  0.8424
 4117SOL    HW222456   0.142   5.470   1.375 -0.0137  0.7445  0.1222
 4118SOL     OW22457   2.354   8.300   0.522 -0.1640  0.5309 -0.0675
 4118SOL    HW122458   2.324   8.220   0.574 -0.5485  0.9868  0.4199
 4118SOL    HW222459   2.295   8.378   0.545  2.4158  1.9057  2.2322
 4119SOL     OW22460   1.508   6.947   0.363  1.2482  0.6716 -0.5543
 4119SOL    HW122461   1.547   6.862   0.326 -1.8646 -0.2826 -1.7667
 4119SOL    HW222462   1.449   6.925   0.440 -2.0900  1.3082 -2.8153
 4120SOL     OW22463   9.729   1.338   2.481  0.1888  0.4160 -0.2186
 4120SOL    HW122464   9.737   1.416   2.544 -1.1575  0.0395  0.4339
 4120SOL    HW222465   9.779   1.260   2.519 -0.3520  0.2873  0.2354
 4121SOL     OW22466   1.914   7.667   0.754  0.2887 -0.2026 -0.1723
 4121SOL    HW122467   1.881   7.576   0.778 -0.2722  0.5975  2.2160
 4121SOL    HW222468   1.952   7.711   0.835  1.9601  1.1309 -1.6312
 4122SOL     OW22469   1.338   1.698   0.330  0.3383  0.3816 -0.0348
 4122SOL    HW122470   1.243   1.711   0.357  1.1382  3.7028  1.4280
 4122SOL    HW222471   1.349   1.726   0.235 -0.3295 -1.0183 -0.5395
 4123SOL     OW22472   1.368   7.163   2.720 -1.1410  0.0083 -0.3397
 4123SOL    HW122473   1.437   7.198   2.784 -1.7785 -2.5331  1.8168
 4123SOL    HW222474   1.412   7.104   2.652 -1.0889 -1.2102  0.7334
 4124SOL     OW22475   0.559   4.610   1.773 -0.1119  0.2790 -0.7420
 4124SOL    HW122476   0.503   4.691   1.787  1.1642  1.1841 -0.7668
 4124SOL    HW222477   0.513   4.548   1.709 -0.9941  1.0800 -0.8899
 4125SOL     OW22478   8.919   6.253   1.995  0.0990 -0.4727 -0.6997
 4125SOL    HW122479   9.000   6.311   2.009 -0.3708  0.3937 -1.5463
 4125SOL    HW222480   8.884   6.266   1.903 -1.7132  0.0550  0.0375
 4126SOL     OW22481   1.268   2.395   0.534 -0.2180  0.0819 -0.2027
 4126SOL    HW122482   1.224   2.311   0.568  0.7706 -0.3428  0.0580
 4126SOL    HW222483   1.310   2.443   0.610 -0.5389  0.6726 -0.3985
 4127SOL     OW22484   2.679   2.441   1.904 -0.2089 -0.0001  0.1668
 4127SOL    HW122485   2.707   2.534   1.880 -1.5256  0.6441  1.0424
 4127SOL    HW222486   2.760   2.384   1.915  0.7406  1.6074  1.8405
 4128SOL     OW22487   3.294   2.560   0.348 -0.1600 -0.5986 -0.1737
 4128SOL    HW122488   3.361   2.510   0.403  1.1150  1.6781  0.4251
 4128SOL    HW222489   3.332   2.576   0.257 -0.2340 -0.0562 -0.1100
 4129SOL     OW22490   0.789   7.972   2.454  0.3558  0.4188  0.2512
 4129SOL    HW122491   0.861   8.017   2.402 -0.3699  0.0996 -1.0612
 4129SOL    HW222492   0.829   7.902   2.514  0.9980 -1.0359 -1.8190
 4130SOL     OW22493   3.139   0.388   2.819 -0.1239 -0.0024 -0.2902
 4130SOL    HW122494   3.041   0.370   2.813 -0.5406  1.6866  1.3378
 4130SOL    HW222495   3.173   0.414   2.729 -0.9259 -1.6452 -1.1056
 4131SOL     OW22496   0.086   7.212   2.074  0.1462 -0.8746  0.2401
 4131SOL    HW122497  -0.014   7.212   2.076  0.0735 -1.0185 -1.9758
 4131SOL    HW222498   0.117   7.146   2.006  1.8424 -3.2227  3.2203
 4132SOL     OW22499   1.553   8.956   0.077  0.2771 -0.3478  0.3070
 4132SOL    HW122500   1.607   8.947  -0.007  1.4536  0.1688  0.9991
 4132SOL    HW222501   1.582   8.886   0.143  1.4270  1.1082  1.3838
 4133SOL     OW22502   1.300   8.545   1.896  0.3409 -0.1890  0.9629
 4133SOL    HW122503   1.349   8.632   1.908  0.9174 -0.5897  1.5943
 4133SOL    HW222504   1.203   8.558   1.917  0.4215  0.3149  1.0267
 4134SOL     OW22505   8.654   4.905   0.187  0.1425  0.1655  0.4970
 4134SOL    HW122506   8.591   4.838   0.148  2.4310 -1.0725 -1.2330
 4134SOL    HW222507   8.642   4.993   0.140  1.1187 -0.6363 -1.3223
 4135SOL     OW22508   2.932   6.060   0.300  0.2923 -0.6263 -0.5060
 4135SOL    HW122509   2.832   6.063   0.298  0.3355  1.7765 -0.7943
 4135SOL    HW222510   2.964   6.094   0.389  0.8320 -3.4439  0.4167
 4136SOL     OW22511   9.658   2.934   2.217 -0.0740  0.3179  0.1042
 4136SOL    HW122512   9.613   2.956   2.304 -1.5053 -2.1870  0.0381
 4136SOL    HW222513   9.601   2.967   2.141  0.6778  1.5923  0.0765
 4137SOL     OW22514   9.904   5.548   2.855  0.0971 -0.0559 -0.4815
 4137SOL    HW122515   9.863   5.457   2.847  1.2505 -0.5737 -0.5546
 4137SOL    HW222516   9.831   5.616   2.863 -0.7649 -1.0263  0.0959
 4138SOL     OW22517   2.070   1.158   1.027  0.0594  0.5230 -0.1581
 4138SOL    HW122518   2.146   1.102   0.998  1.7618  0.9341  3.2673
 4138SOL    HW222519   2.019   1.111   1.099 -2.1776  0.8310 -1.4655
 4139SOL     OW22520   1.064   3.848   0.868  0.2641 -0.0300  0.1494
 4139SOL    HW122521   1.039   3.942   0.845 -1.2548 -0.2615  0.8593
 4139SOL    HW222522   1.100   3.802   0.786  1.1099  1.1846 -0.1770
 4140SOL     OW22523   1.338   5.054   2.205 -0.1838 -0.4348 -0.4725
 4140SOL    HW122524   1.359   4.991   2.280  1.2296 -0.3493 -0.7736
 4140SOL    HW222525   1.381   5.020   2.121 -0.9671 -0.0335 -1.0373
 4141SOL     OW22526   1.967   3.599   1.632  0.1087  0.0679  0.0866
 4141SOL    HW122527   2.010   3.636   1.550  0.3057 -1.5920 -0.5712
 4141SOL    HW222528   1.871   3.628   1.635  0.0348 -0.0793 -0.8534
 4142SOL     OW22529   9.706   7.491   0.125  0.6516 -0.4678 -0.4501
 4142SOL    HW122530   9.639   7.488   0.199 -1.9339 -1.1641 -2.7281
 4142SOL    HW222531   9.761   7.407   0.126 -0.4114 -1.1629 -0.2604
 4143SOL     OW22532   1.543   1.764   1.348 -0.4054 -0.3567  0.0597
 4143SOL    HW122533   1.486   1.806   1.418  0.5101  2.2561 -0.7027
 4143SOL    HW222534   1.589   1.835   1.294  0.2145 -2.3208 -2.1288
 4144SOL     OW22535   2.160   0.728   0.365 -0.1870 -0.5640 -0.0090
 4144SOL    HW122536   2.075   0.676   0.363  0.0566 -0.9445 -0.5846
 4144SOL    HW222537   2.232   0.672   0.406  0.3713 -1.1360 -1.7346
 4145SOL     OW22538   1.752   8.921   2.145 -0.4423 -0.4004 -0.3586
 4145SOL    HW122539   1.791   8.840   2.100  0.8513 -0.0285  0.0982
 4145SOL    HW222540   1.665   8.896   2.188 -0.2723 -1.4411 -0.6065
 4146SOL     OW22541   9.864   4.860   1.409 -0.0969  0.2878  0.3099
 4146SOL    HW122542   9.775   4.820   1.388  0.2210 -1.3060  1.8702
 4146SOL    HW222543   9.933   4.788   1.412  1.5636  1.6876 -2.3972
 4147SOL     OW22544   9.896   2.320   2.926  0.0056 -0.9754  0.4427
 4147SOL    HW122545   9.892   2.378   2.844  2.9633  0.6214  1.3592
 4147SOL    HW222546   9.882   2.377   3.007  1.4234 -1.7881  1.2751
 4148SOL     OW22547   0.059   3.788   1.020 -0.0148  0.2388  0.3297
 4148SOL    HW122548   0.103   3.870   1.056 -0.3821  0.9351 -0.7931
 4148SOL    HW222549   0.129   3.725   0.986  0.2498  0.2710  0.8143
 4149SOL     OW22550   0.390   1.585   1.945  0.0779  0.5455 -0.0185
 4149SOL    HW122551   0.308   1.537   1.974 -0.3211  1.3253  0.1488
 4149SOL    HW222552   0.469   1.524   1.951 -0.4413 -0.1049  0.1155
 4150SOL     OW22553   0.001   2.033   0.005 -0.3810  0.2534  0.3758
 4150SOL    HW122554  -0.028   2.127  -0.011  0.7034  0.3042 -1.4311
 4150SOL    HW222555   0.043   1.997  -0.078  1.4993 -0.9814  1.8263
 4151SOL     OW22556   0.705   9.981   0.622  0.2273  0.4089 -0.3848
 4151SOL    HW122557   0.702   9.904   0.559  1.4725  0.3979 -0.4420
 4151SOL    HW222558   0.649  10.056   0.586  1.7326  0.7821 -2.0322
 4152SOL     OW22559   3.120   2.480   0.576  0.3051 -0.2062 -0.4749
 4152SOL    HW122560   3.167   2.520   0.496 -0.4361 -1.3290 -1.4747
 4152SOL    HW222561   3.027   2.515   0.581  0.9011  1.2725  0.9664
 4153SOL     OW22562   8.720   6.965   2.754 -0.0380 -0.3000  0.2674
 4153SOL    HW122563   8.626   6.948   2.783 -0.1916 -0.5164 -0.3393
 4153SOL    HW222564   8.747   7.057   2.782 -0.8026  0.1621 -0.4658
 4154SOL     OW22565   3.060   3.367   1.641 -0.0095  0.6686 -0.0607
 4154SOL    HW122566   2.989   3.430   1.610  0.0538  1.0611  0.5739
 4154SOL    HW222567   3.142   3.380   1.586 -1.2707 -1.6957 -2.6420
 4155SOL     OW22568   1.385   9.932   1.034 -0.1183  0.3583 -0.3264
 4155SOL    HW122569   1.400   9.953   0.938  0.6098  0.3222 -0.2241
 4155SOL    HW222570   1.309   9.868   1.043  0.1889 -0.0916 -0.9170
 4156SOL     OW22571   3.242   0.378   0.546  0.0252  0.1211  0.6596
 4156SOL    HW122572   3.289   0.320   0.612  1.0642 -0.1445 -0.2927
 4156SOL    HW222573   3.207   0.322   0.471  1.5796  0.7789 -0.5775
 4157SOL     OW22574   2.485   2.081   1.752 -0.3086 -0.9265 -0.1010
 4157SOL    HW122575   2.506   2.105   1.847  0.9679 -0.4945 -0.4681
 4157SOL    HW222576   2.484   1.982   1.742 -1.3254 -0.9818  0.5480
 4158SOL     OW22577   2.160   4.534   0.450  0.1156  0.1868  0.6765
 4158SOL    HW122578   2.250   4.497   0.474 -0.6627 -1.7264  0.6583
 4158SOL    HW222579   2.162   4.565   0.355  0.7252  0.1005  0.6544
 4159SOL     OW22580   0.612   2.029   0.492  0.4406  0.2916  0.6018
 4159SOL    HW122581   0.658   1.941   0.480 -1.5730 -0.3926 -2.8247
 4159SOL    HW222582   0.668   2.088   0.550  2.6151 -2.6275  1.6212
 4160SOL     OW22583   2.192   9.051   0.514  0.5204  0.5164  0.2026
 4160SOL    HW122584   2.277   9.023   0.559  1.9295  0.5856 -2.3472
 4160SOL    HW222585   2.135   8.971   0.499 -0.0096  0.4967  2.1211
 4161SOL     OW22586   3.936   9.891   0.691 -0.1245 -0.3039  0.0826
 4161SOL    HW122587   3.951   9.802   0.734  1.8360 -0.1937 -0.3257
 4161SOL    HW222588   4.019   9.919   0.643 -1.7019  0.3754 -2.3309
 4162SOL     OW22589   3.480   8.850   2.318 -0.1065  0.0123 -0.2417
 4162SOL    HW122590   3.466   8.949   2.317 -1.0932 -0.1241 -0.2461
 4162SOL    HW222591   3.534   8.825   2.399 -0.5883  0.4602  0.2218
 4163SOL     OW22592   9.517   2.007   0.465  1.0268 -0.1019  0.3484
 4163SOL    HW122593   9.554   1.914   0.475  1.8752  0.1351 -0.6076
 4163SOL    HW222594   9.588   2.068   0.431  0.0352  0.5736 -0.5363
 4164SOL     OW22595   3.106   1.943   0.727 -0.1042  0.4842 -0.5926
 4164SOL    HW122596   3.203   1.962   0.742 -0.0565 -0.3626  0.1640
 4164SOL    HW222597   3.097   1.868   0.661 -0.2452  0.5744 -0.6756
 4165SOL     OW22598   2.330   8.357   1.193  0.3716 -0.1255 -0.0219
 4165SOL    HW122599   2.354   8.304   1.112 -2.3421 -2.7150  0.8047
 4165SOL    HW222600   2.231   8.373   1.194  0.4948  0.5976  2.3333
 4166SOL     OW22601   1.451   3.815   2.237  0.3440  0.4543 -0.0215
 4166SOL    HW122602   1.462   3.893   2.175 -0.1226  1.3680  1.0213
 4166SOL    HW222603   1.420   3.848   2.326 -0.3075 -0.9789  0.2947
 4167SOL     OW22604   3.608   8.347   0.991 -0.0048  0.1724  0.0589
 4167SOL    HW122605   3.657   8.434   0.979  0.3472  0.0561  0.6148
 4167SOL    HW222606   3.535   8.360   1.058 -1.1356  0.4987 -1.2242
 4168SOL     OW22607   9.885   0.045   1.197  0.0169  0.2159  0.5941
 4168SOL    HW122608   9.970   0.096   1.215  0.7108 -1.3104  1.7744
 4168SOL    HW222609   9.901  -0.052   1.214 -2.0000 -0.0747  0.8745
 4169SOL     OW22610   0.531   3.758   1.021  0.0710  0.0830  0.0544
 4169SOL    HW122611   0.530   3.737   0.923  0.3627  1.1595 -0.1835
 4169SOL    HW222612   0.568   3.850   1.035 -1.1085  0.4144  1.0820
 4170SOL     OW22613   9.414   7.586   0.774 -0.2180 -0.1039  0.5209
 4170SOL    HW122614   9.431   7.495   0.737  1.8380 -0.2792  1.8118
 4170SOL    HW222615   9.443   7.590   0.869 -0.2610  1.9008  0.4815
 4171SOL     OW22616   1.539   7.741   0.428  0.2778 -0.2060 -0.1465
 4171SOL    HW122617   1.583   7.786   0.505 -0.6141  0.4558 -0.0232
 4171SOL    HW222618   1.575   7.779   0.342 -0.3620  0.6400 -0.0443
 4172SOL     OW22619   1.741   3.385   0.871  0.4436 -0.2485  0.5597
 4172SOL    HW122620   1.736   3.317   0.944  3.0859 -0.8093  0.2353
 4172SOL    HW222621   1.733   3.476   0.910 -3.9117 -0.6565  0.9267
 4173SOL     OW22622   8.666   4.642   1.721 -0.0390  0.4899  0.6430
 4173SOL    HW122623   8.663   4.549   1.683  0.0999  0.6800  0.1650
 4173SOL    HW222624   8.717   4.701   1.658 -0.4303  0.9689  0.7831
 4174SOL     OW22625   9.577   3.611   2.877 -0.1167 -0.3314 -0.2336
 4174SOL    HW122626   9.667   3.643   2.848 -0.5396 -1.1077 -2.4840
 4174SOL    HW222627   9.506   3.668   2.835 -0.7365 -1.3032 -0.5237
 4175SOL     OW22628   2.807   9.133   0.676  0.6402 -0.4651 -0.0208
 4175SOL    HW122629   2.853   9.130   0.588 -0.6977 -0.2753 -0.7423
 4175SOL    HW222630   2.738   9.061   0.680 -0.8441  0.9266 -0.0069
 4176SOL     OW22631   9.920   1.016   1.688  0.0726  0.5115  0.2429
 4176SOL    HW122632   9.880   1.089   1.632  0.6978  0.2490 -0.5574
 4176SOL    HW222633   9.903   1.035   1.784 -0.1450  1.4925  0.0179
 4177SOL     OW22634   1.609   4.957   0.778  0.4118 -0.5284 -0.3026
 4177SOL    HW122635   1.660   4.883   0.823  0.9489  0.0220  0.0066
 4177SOL    HW222636   1.617   5.040   0.833  1.3350  0.2396 -1.5761
 4178SOL     OW22637   1.359   1.969   0.159 -0.5831 -0.1130 -0.0590
 4178SOL    HW122638   1.322   1.987   0.250 -0.1080  2.4681 -0.3393
 4178SOL    HW222639   1.312   2.026   0.092 -1.8794 -2.9664 -1.7028
 4179SOL     OW22640   3.830   4.025   2.127 -0.2798 -0.6726  0.1843
 4179SOL    HW122641   3.734   4.053   2.130 -0.1643 -0.2280 -0.2784
 4179SOL    HW222642   3.872   4.055   2.041  0.4232 -0.3678  0.6242
 4180SOL     OW22643   0.919   8.637   0.066  0.2004  0.2024  0.3962
 4180SOL    HW122644   0.820   8.642   0.063  0.0217 -1.5463  2.4759
 4180SOL    HW222645   0.955   8.713   0.121 -0.1045 -0.0407  0.9371
 4181SOL     OW22646   1.275   8.817   1.689  0.6002  0.2136  0.4360
 4181SOL    HW122647   1.358   8.771   1.719  0.5629  0.7143  1.3138
 4181SOL    HW222648   1.292   8.915   1.682 -0.0896  0.3923  1.2225
 4182SOL     OW22649   3.386   3.234   0.362  0.2601  0.4151 -0.0524
 4182SOL    HW122650   3.292   3.200   0.362  0.7385 -0.9724  0.0021
 4182SOL    HW222651   3.431   3.206   0.277 -0.0629  3.0900 -1.1374
 4183SOL     OW22652   1.575   2.117   1.477 -0.6761 -0.5184 -0.1160
 4183SOL    HW122653   1.535   2.117   1.386 -0.6606 -2.6758 -0.1662
 4183SOL    HW222654   1.674   2.110   1.471 -0.7084 -1.2221  0.0504
 4184SOL     OW22655   2.586   0.979   1.114 -0.3421  0.2674 -0.1398
 4184SOL    HW122656   2.578   1.077   1.132  3.9066  0.6893  0.0759
 4184SOL    HW222657   2.594   0.964   1.016 -0.9621  0.1502 -0.1708
 4185SOL     OW22658   3.541   9.060   1.906  0.0904 -0.3067 -0.2009
 4185SOL    HW122659   3.490   8.974   1.903  1.0939 -0.8838 -1.1606
 4185SOL    HW222660   3.545   9.100   1.814  2.0536 -0.6877 -0.3046
 4186SOL     OW22661   2.192   5.089   1.072  0.1748 -0.1889 -0.7248
 4186SOL    HW122662   2.291   5.103   1.069  0.1359  0.5634  0.6586
 4186SOL    HW222663   2.146   5.178   1.068 -0.3531 -0.3803  0.7299
 4187SOL     OW22664   2.662   3.050   1.315 -0.1619 -0.5862  0.7053
 4187SOL    HW122665   2.586   3.049   1.381 -0.6937  2.5838  0.2264
 4187SOL    HW222666   2.688   3.145   1.297  3.6703 -1.6253  0.5263
 4188SOL     OW22667   8.418   6.413   2.234 -0.8084 -0.0273  0.4501
 4188SOL    HW122668   8.384   6.348   2.166  1.3461  0.6367 -1.3393
 4188SOL    HW222669   8.464   6.363   2.308  1.7613 -0.5674 -1.4412
 4189SOL     OW22670   3.738   1.048   2.859  0.5427 -0.1036  0.3404
 4189SOL    HW122671   3.641   1.065   2.839  0.1572 -1.7095  0.7238
 4189SOL    HW222672   3.750   1.030   2.957  1.2281  0.0949  0.2964
 4190SOL     OW22673   3.953   2.020   1.695  0.2675  0.3645  0.0365
 4190SOL    HW122674   3.886   2.000   1.623  0.5948  1.2769 -0.5312
 4190SOL    HW222675   3.919   1.985   1.783 -0.2797 -0.4739 -0.5019
 4191SOL     OW22676   0.173   7.711   1.445 -0.5089  0.2886 -0.4447
 4191SOL    HW122677   0.234   7.767   1.389 -1.5337  0.7699 -1.0896
 4191SOL    HW222678   0.213   7.620   1.457  0.6094  0.7758 -0.3665
 4192SOL     OW22679   3.622   5.185   1.119 -0.8289 -0.5581 -0.0557
 4192SOL    HW122680   3.574   5.268   1.147  0.8342  0.4530 -0.1577
 4192SOL    HW222681   3.602   5.166   1.023 -0.2921  0.3931 -0.3647
 4193SOL     OW22682   0.751   8.249   2.540  0.3236  0.0573  0.1795
 4193SOL    HW122683   0.782   8.236   2.635 -1.2732  0.5881  0.7901
 4193SOL    HW222684   0.737   8.160   2.497  0.1666 -0.1888  0.7360
 4194SOL     OW22685   4.199   3.600   0.120  0.4108 -0.6033 -0.3357
 4194SOL    HW122686   4.222   3.530   0.187  0.5939 -1.5900 -1.4150
 4194SOL    HW222687   4.198   3.560   0.028  1.8366  1.1011 -1.1202
 4195SOL     OW22688   0.174   3.227   0.658 -0.2208  0.4277 -0.3147
 4195SOL    HW122689   0.099   3.190   0.713 -0.8978  0.3250 -1.2794
 4195SOL    HW222690   0.139   3.299   0.597  0.3154 -0.1129 -1.2844
 4196SOL     OW22691   1.390   9.219   1.490  0.4913 -0.1148 -0.1733
 4196SOL    HW122692   1.479   9.257   1.514 -0.0922  0.9233  0.3862
 4196SOL    HW222693   1.351   9.271   1.414  0.6607 -0.9994 -0.8713
 4197SOL     OW22694   3.417   4.868   0.983  0.2338  0.6207 -0.3949
 4197SOL    HW122695   3.338   4.824   0.941  0.4033 -1.3612  1.2784
 4197SOL    HW222696   3.458   4.807   1.051  4.2014  0.9201 -2.3499
 4198SOL     OW22697   3.093   9.387   1.582  0.0361  0.6253 -0.4867
 4198SOL    HW122698   3.161   9.435   1.526 -0.8661  0.2782 -1.9068
 4198SOL    HW222699   3.132   9.301   1.614  0.0317  0.0748 -1.9161
 4199SOL     OW22700   3.128   2.949   1.272 -0.0166  0.6804 -0.1825
 4199SOL    HW122701   3.130   3.049   1.270 -0.2060  0.7183  0.9101
 4199SOL    HW222702   3.034   2.917   1.278  0.0567  0.4491 -0.2604
 4200SOL     OW22703   2.918   8.498   0.896 -0.1136 -0.1243  0.3297
 4200SOL    HW122704   2.835   8.540   0.934 -0.2032  1.0162 -1.0958
 4200SOL    HW222705   2.994   8.562   0.902  0.2282 -0.4932 -0.0260
 4201SOL     OW22706   1.434   5.060   1.428 -0.1705  0.2518  0.4518
 4201SOL    HW122707   1.343   5.075   1.468  0.3791 -0.0155  1.8229
 4201SOL    HW222708   1.466   4.969   1.454 -0.6545 -0.7591 -2.2847
 4202SOL     OW22709   1.617   4.379   1.899  0.6271  0.0250  0.7544
 4202SOL    HW122710   1.631   4.365   1.801  2.6533  1.6788  0.7761
 4202SOL    HW222711   1.532   4.431   1.913  1.4539  1.6847 -0.2782
 4203SOL     OW22712   3.159   4.919   0.116 -0.0585  0.0808 -0.1126
 4203SOL    HW122713   3.253   4.923   0.148  0.2501 -0.5755 -0.9020
 4203SOL    HW222714   3.118   4.832   0.145 -0.9957  1.1153  1.7449
 4204SOL     OW22715   3.401   8.771   0.322  0.1856  0.3773 -0.3669
 4204SOL    HW122716   3.440   8.747   0.411 -0.5621 -0.9605 -0.3876
 4204SOL    HW222717   3.359   8.862   0.327 -1.7267 -0.5589  1.2743
 4205SOL     OW22718   9.226   6.624   2.613 -0.2971 -0.0074  0.1128
 4205SOL    HW122719   9.165   6.638   2.691 -0.2957  0.4281  0.0387
 4205SOL    HW222720   9.290   6.550   2.634 -1.0908 -0.7214  0.0438
 4206SOL     OW22721   3.425   9.489   1.835  0.5151  0.1689  0.6029
 4206SOL    HW122722   3.326   9.478   1.846  0.5220  0.7234  1.3149
 4206SOL    HW222723   3.452   9.465   1.742  0.0357 -2.2380  1.0619
 4207SOL     OW22724   9.067   4.674   1.083 -0.0500 -0.0715 -0.2428
 4207SOL    HW122725   9.000   4.637   1.019 -1.6565 -1.3546  2.1305
 4207SOL    HW222726   9.031   4.758   1.124  0.4840  0.1294 -0.1815
 4208SOL     OW22727   9.344   4.286   2.527 -0.6651 -0.2697 -0.1488
 4208SOL    HW122728   9.402   4.364   2.504  0.2418 -1.0048 -0.3973
 4208SOL    HW222729   9.296   4.255   2.445  0.0593 -0.8496 -0.3585
 4209SOL     OW22730   0.004   9.577   2.382  0.1615  0.3057  0.4794
 4209SOL    HW122731   0.005   9.500   2.318  1.8728  1.1926 -0.6056
 4209SOL    HW222732  -0.081   9.576   2.435 -1.7106  0.0513 -2.4095
 4210SOL     OW22733   8.372   5.272   2.131 -0.1547 -0.4876  0.0542
 4210SOL    HW122734   8.336   5.341   2.068 -0.3745  0.1244  0.8521
 4210SOL    HW222735   8.298   5.241   2.191 -0.0986 -1.5333 -0.3898
 4211SOL     OW22736   2.788   3.443   0.574  0.0882  0.5519  0.5181
 4211SOL    HW122737   2.864   3.488   0.622  1.1170 -0.5005 -0.1004
 4211SOL    HW222738   2.812   3.347   0.556 -1.8493 -0.1128  1.3282
 4212SOL     OW22739   1.187   4.445   1.337  0.1588 -0.2684 -0.1486
 4212SOL    HW122740   1.127   4.426   1.415  0.7192 -1.6904 -0.0656
 4212SOL    HW222741   1.275   4.479   1.370  0.2718 -0.5339 -0.1766
 4213SOL     OW22742   1.111   2.184   2.180 -1.2122 -0.7138  0.7820
 4213SOL    HW122743   1.158   2.246   2.117 -0.3727 -1.3337  0.7810
 4213SOL    HW222744   1.017   2.215   2.194 -0.8716  0.4160  0.5998
 4214SOL     OW22745   2.899   3.633   1.550 -0.6491 -0.3085 -0.4427
 4214SOL    HW122746   2.824   3.655   1.488 -0.4227  2.1175  0.0867
 4214SOL    HW222747   2.868   3.641   1.645  0.1278  0.2808 -0.2249
 4215SOL     OW22748   3.568   2.118   2.328 -0.7680  0.3362 -0.0134
 4215SOL    HW122749   3.511   2.180   2.381  0.6588  1.3454  0.3852
 4215SOL    HW222750   3.636   2.170   2.277 -0.0219 -0.8456 -0.2640
 4216SOL     OW22751   0.497   3.255   2.435  0.1034  0.1664  0.3956
 4216SOL    HW122752   0.443   3.180   2.397 -0.9671 -0.0167  2.2002
 4216SOL    HW222753   0.476   3.265   2.532  1.7295  1.5147  0.6347
 4217SOL     OW22754   1.680   6.098   1.351  0.5646  0.7265 -0.4178
 4217SOL    HW122755   1.634   6.016   1.387 -0.7310  1.2604 -0.8209
 4217SOL    HW222756   1.744   6.071   1.280 -0.2626  0.1099 -0.9414
 4218SOL     OW22757   2.836   0.371   1.024 -0.4455  0.1171 -0.5351
 4218SOL    HW122758   2.915   0.343   1.079 -1.0053  1.0027  0.7656
 4218SOL    HW222759   2.759   0.309   1.042 -0.8369  0.8040  0.2337
 4219SOL     OW22760   2.066   8.750   0.648 -0.0616 -1.2169 -0.5940
 4219SOL    HW122761   1.988   8.765   0.587  0.5367 -2.0990 -1.5914
 4219SOL    HW222762   2.116   8.669   0.618  1.2609 -0.6315  0.0032
 4220SOL     OW22763   9.056   6.025   2.153  0.5326 -0.7085 -0.5054
 4220SOL    HW122764   9.110   6.026   2.069  1.9924  2.0895  0.4166
 4220SOL    HW222765   8.983   6.094   2.146  1.1024  0.0386  0.7738
 4221SOL     OW22766   1.755   6.187   2.185 -0.0591  0.3597 -0.4939
 4221SOL    HW122767   1.698   6.143   2.254 -0.2996 -3.2601 -2.8967
 4221SOL    HW222768   1.738   6.286   2.186 -2.6417 -0.0473  2.1997
 4222SOL     OW22769   2.100   6.000   2.725 -0.0312  0.3735  0.2826
 4222SOL    HW122770   2.018   6.057   2.736 -1.5801 -1.3731 -1.6682
 4222SOL    HW222771   2.078   5.923   2.665  2.7093 -0.8692  0.8311
 4223SOL     OW22772   9.496   2.882   0.878 -0.0422 -0.3345 -0.1297
 4223SOL    HW122773   9.594   2.898   0.862  0.0626 -1.9817 -1.1505
 4223SOL    HW222774   9.473   2.788   0.856 -2.0591  0.2850 -0.7500
 4224SOL     OW22775   8.833   2.295   2.347 -0.6551  0.0861 -0.3745
 4224SOL    HW122776   8.800   2.340   2.431 -1.4332 -0.0419 -0.6011
 4224SOL    HW222777   8.909   2.347   2.308  0.2526 -0.3000  0.8545
 4225SOL     OW22778   1.316   8.005   2.511 -0.1410  0.4504 -0.4993
 4225SOL    HW122779   1.354   7.961   2.593 -0.4912  2.1991  0.6331
 4225SOL    HW222780   1.345   7.955   2.430  0.9087 -0.8268  0.6336
 4226SOL     OW22781   2.377   1.532   2.877 -0.1974 -0.6096  0.7889
 4226SOL    HW122782   2.324   1.617   2.876  3.0527  1.5190  0.0858
 4226SOL    HW222783   2.326   1.460   2.831 -1.3814  2.0692 -2.2815
 4227SOL     OW22784   0.343   7.716   2.492 -0.4490 -0.2785  0.8087
 4227SOL    HW122785   0.292   7.789   2.446  0.4274  0.8712  1.6464
 4227SOL    HW222786   0.439   7.719   2.463 -0.8616 -2.6228 -0.9968
 4228SOL     OW22787   2.883   3.984   2.664  0.2427  0.3154  0.9274
 4228SOL    HW122788   2.819   3.984   2.742 -2.2024 -0.0217 -1.0128
 4228SOL    HW222789   2.921   3.892   2.653 -3.0215 -0.8815 -1.0753
 4229SOL     OW22790   1.260   6.523   2.838  0.2583 -0.3322 -0.6834
 4229SOL    HW122791   1.200   6.551   2.763 -1.8288  0.4478  1.2094
 4229SOL    HW222792   1.246   6.426   2.858 -0.5057 -0.1314 -0.1833
 4230SOL     OW22793   3.622   0.825   0.216  0.6011  0.1118  0.5168
 4230SOL    HW122794   3.524   0.840   0.231  0.7272  2.9208 -0.9980
 4230SOL    HW222795   3.640   0.728   0.205 -1.7703 -0.5974  2.3984
 4231SOL     OW22796   0.029   1.689   0.036 -0.7840 -0.7913  0.0216
 4231SOL    HW122797  -0.051   1.749   0.037 -1.1483 -1.2709  1.2717
 4231SOL    HW222798   0.056   1.670  -0.058 -0.0257  2.1533 -0.4031
 4232SOL     OW22799   4.065   2.712   0.588 -0.5115 -0.5842 -0.1893
 4232SOL    HW122800   4.027   2.789   0.639 -0.8805 -0.8359 -0.0811
 4232SOL    HW222801   4.100   2.644   0.653  2.3920  0.7429 -0.2751
 4233SOL     OW22802   1.323   3.777   2.506 -1.1007  0.5354  0.8309
 4233SOL    HW122803   1.282   3.805   2.593 -1.4024  0.5055  0.6969
 4233SOL    HW222804   1.325   3.677   2.501  0.4138  0.5109  1.5208
 4234SOL     OW22805   9.129   7.411   0.853  0.2772  0.3381 -0.3191
 4234SOL    HW122806   9.078   7.356   0.787  0.1091 -0.5023  0.5128
 4234SOL    HW222807   9.126   7.507   0.825 -0.4394  0.0880 -1.1198
 4235SOL     OW22808   0.104   3.166   0.112  0.1873 -0.3206 -0.7594
 4235SOL    HW122809   0.133   3.074   0.139 -1.5935 -0.5679  0.3616
 4235SOL    HW222810   0.004   3.171   0.112  0.2551  2.0552  0.7945
 4236SOL     OW22811   1.822   5.225   0.212  0.3672 -0.2517  0.0756
 4236SOL    HW122812   1.790   5.135   0.180 -0.7446 -0.2501  1.1686
 4236SOL    HW222813   1.744   5.286   0.223  1.0991  0.7856 -0.4267
 4237SOL     OW22814   3.585   9.982   0.120 -0.1274  0.1144 -0.0498
 4237SOL    HW122815   3.632   9.956   0.205  0.1175  1.5212  0.2750
 4237SOL    HW222816   3.535  10.068   0.136  2.2675  1.9432 -2.1139
 4238SOL     OW22817   1.739   7.958   0.608  0.0449 -0.4053 -0.1252
 4238SOL    HW122818   1.778   7.897   0.539 -0.2603  0.4694 -1.0806
 4238SOL    HW222819   1.754   7.919   0.699 -1.7485 -2.8106 -0.7982
 4239SOL     OW22820   8.821   2.249   1.225  0.2504 -0.2384 -0.6087
 4239SOL    HW122821   8.897   2.225   1.164  1.5296 -2.5771  1.7866
 4239SOL    HW222822   8.851   2.243   1.320 -2.4539  0.6388  0.3598
 4240SOL     OW22823   1.262   5.193   0.780 -0.5457 -0.2006  0.0455
 4240SOL    HW122824   1.250   5.265   0.712  2.4910  2.5245  2.2217
 4240SOL    HW222825   1.187   5.197   0.846 -0.4639  0.9167  0.0848
 4241SOL     OW22826   9.291   2.904   2.764 -0.3299 -0.1737  0.4843
 4241SOL    HW122827   9.386   2.892   2.734  0.1787  1.5052  1.4234
 4241SOL    HW222828   9.262   2.823   2.815  0.8542 -0.3629  0.8655
 4242SOL     OW22829   1.563   8.194   1.354  0.2033 -0.2346  0.1143
 4242SOL    HW122830   1.536   8.099   1.340  0.8675 -0.1919 -1.5586
 4242SOL    HW222831   1.654   8.198   1.393  0.5079 -0.2851 -0.5813
 4243SOL     OW22832   3.025   4.407   1.658  0.3439  0.3500  0.3975
 4243SOL    HW122833   3.072   4.332   1.611  0.9422  0.8916  0.1175
 4243SOL    HW222834   2.928   4.385   1.667 -0.0893  0.8607 -2.3974
 4244SOL     OW22835   4.484   0.328   1.795  0.3288 -0.4430  0.3665
 4244SOL    HW122836   4.452   0.406   1.741  0.3918  0.0853  1.0882
 4244SOL    HW222837   4.420   0.310   1.869 -0.1171 -1.6092 -0.3005
 4245SOL     OW22838   0.826   3.136   0.167  0.3694  0.0408  0.3861
 4245SOL    HW122839   0.907   3.078   0.175 -0.0849 -0.9120 -1.7359
 4245SOL    HW222840   0.745   3.084   0.196  0.1836  0.1757  0.1094
 4246SOL     OW22841   9.830   8.027   2.885  0.4879 -0.3261 -0.8008
 4246SOL    HW122842   9.759   7.976   2.836  1.2198 -0.2759 -1.9362
 4246SOL    HW222843   9.808   8.030   2.982 -0.1653 -1.8054 -0.8888
 4247SOL     OW22844   1.577   4.014   1.850 -0.1175  0.8105 -0.6853
 4247SOL    HW122845   1.554   3.950   1.923 -1.1918  0.2235 -1.5189
 4247SOL    HW222846   1.661   4.063   1.874  0.5574 -0.6770  0.1085
 4248SOL     OW22847   3.945   2.944   2.019 -0.4325  0.1642  0.3031
 4248SOL    HW122848   4.044   2.942   2.033 -0.4036  0.8567  0.1888
 4248SOL    HW222849   3.900   2.972   2.104 -0.5207  0.0959  0.2798
 4249SOL     OW22850   9.980   1.982   1.388  0.1757  0.2916  0.5299
 4249SOL    HW122851   9.980   2.065   1.445  0.2842  1.8935 -1.7469
 4249SOL    HW222852  10.074   1.949   1.377  0.0933 -0.3936  1.7647
 4250SOL     OW22853   8.444   4.587   0.967 -0.4278  0.3814  0.1049
 4250SOL    HW122854   8.445   4.488   0.979  0.0290  0.4757  0.8663
 4250SOL    HW222855   8.360   4.614   0.918 -0.9703 -0.2939  0.6460
 4251SOL     OW22856   1.948   6.467   2.586 -0.2833  0.1931  0.3672
 4251SOL    HW122857   2.026   6.426   2.538 -2.2331 -0.5597 -2.2732
 4251SOL    HW222858   1.956   6.567   2.584  0.7562  0.1113  0.3563
 4252SOL     OW22859   2.267   2.313   1.326 -0.4424  0.2626  0.0494
 4252SOL    HW122860   2.353   2.358   1.302 -1.2908  2.0312  0.2258
 4252SOL    HW222861   2.273   2.276   1.419 -0.1487  1.1072  0.3715
 4253SOL     OW22862   0.422   6.256   2.929  0.2863  0.1189 -0.0380
 4253SOL    HW122863   0.403   6.164   2.896  2.4117 -1.4426  2.8712
 4253SOL    HW222864   0.337   6.296   2.965 -0.6560 -0.6734 -1.3442
 4254SOL     OW22865   3.653   3.216   2.156 -1.1113  0.2781  0.5718
 4254SOL    HW122866   3.663   3.204   2.057 -0.2580  1.0592  0.5543
 4254SOL    HW222867   3.560   3.244   2.178 -1.0826  0.9048 -0.0966
 4255SOL     OW22868   1.000   2.809   1.230 -0.2247  0.1224  0.1219
 4255SOL    HW122869   0.906   2.841   1.218 -0.4889 -0.6478  0.0895
 4255SOL    HW222870   1.062   2.869   1.179 -0.8749 -0.3507 -1.2685
 4256SOL     OW22871   3.983   3.044   2.357 -0.5492 -0.1862 -0.0224
 4256SOL    HW122872   3.998   3.068   2.453  1.0659 -1.6803  0.1098
 4256SOL    HW222873   3.928   2.961   2.351 -0.2247 -0.3761 -0.3876
 4257SOL     OW22874   8.955   2.492   0.136  0.2388  0.1620  0.3524
 4257SOL    HW122875   9.011   2.409   0.126 -0.5195 -0.5390  1.7770
 4257SOL    HW222876   8.901   2.506   0.053  0.7898 -0.4593 -0.1162
 4258SOL     OW22877   9.577   5.489   2.039 -0.0100  0.4990  0.0968
 4258SOL    HW122878   9.521   5.411   2.012  3.0496 -2.1394  1.0021
 4258SOL    HW222879   9.659   5.493   1.981  0.9013  1.7886  1.4178
 4259SOL     OW22880   2.418   0.143   2.872  0.2854  0.7973 -0.1141
 4259SOL    HW122881   2.356   0.140   2.793  0.9833  0.1998 -0.6504
 4259SOL    HW222882   2.370   0.109   2.953 -0.0823  0.3063 -0.5275
 4260SOL     OW22883   2.871   0.331   2.743  0.3219 -0.3357  0.0152
 4260SOL    HW122884   2.787   0.334   2.797 -0.7151 -0.3674 -1.5464
 4260SOL    HW222885   2.858   0.270   2.665  1.7963 -0.3315 -0.2445
 4261SOL     OW22886   1.593   3.705   1.946  0.4173 -0.5620 -0.1621
 4261SOL    HW122887   1.497   3.686   1.969 -0.6322  4.0602 -0.2307
 4261SOL    HW222888   1.643   3.729   2.030  1.2433 -1.8319 -0.2850
 4262SOL     OW22889   1.989   6.103   0.812  0.0275 -0.5034  0.5107
 4262SOL    HW122890   2.073   6.126   0.763  0.6509 -0.1156  1.7513
 4262SOL    HW222891   2.011   6.068   0.903 -1.1778  0.6491  1.2639
 4263SOL     OW22892   2.921   6.094   0.646 -0.2723 -0.3167 -0.4092
 4263SOL    HW122893   2.842   6.044   0.610 -0.1047 -1.4405  0.7499
 4263SOL    HW222894   2.891   6.157   0.717 -0.1354 -0.7627  0.0503
 4264SOL     OW22895   9.450   1.189   0.905  0.0301 -0.2694 -0.8648
 4264SOL    HW122896   9.521   1.251   0.872  1.1991 -0.0644  1.8766
 4264SOL    HW222897   9.385   1.240   0.961  0.6740 -1.3631  0.9234
 4265SOL     OW22898   1.402   2.739   0.185 -0.0331  0.3013 -0.6002
 4265SOL    HW122899   1.322   2.789   0.218  0.0789  0.0104  0.1296
 4265SOL    HW222900   1.449   2.697   0.263 -1.0910 -2.3771 -1.3203
 4266SOL     OW22901   0.304   0.775   1.959 -0.1835  0.2865 -0.2504
 4266SOL    HW122902   0.311   0.720   1.875 -0.6540  0.5311 -0.4508
 4266SOL    HW222903   0.266   0.718   2.033 -0.9458  0.4165 -0.5348
 4267SOL     OW22904   3.874   8.366   0.229  0.3004  0.1111 -0.3692
 4267SOL    HW122905   3.909   8.302   0.161  0.7773 -0.7499  0.6633
 4267SOL    HW222906   3.944   8.384   0.298 -0.3275  0.6022  0.1578
 4268SOL     OW22907   3.207   9.347   2.597 -0.3623 -0.1137 -0.3196
 4268SOL    HW122908   3.288   9.304   2.559  0.8756  0.9567  1.0547
 4268SOL    HW222909   3.207   9.445   2.575  0.4932  0.5859  2.4955
 4269SOL     OW22910   3.689   1.741   1.158 -0.1784  0.3062 -0.4682
 4269SOL    HW122911   3.776   1.789   1.146 -0.0511 -0.0710 -1.0907
 4269SOL    HW222912   3.670   1.686   1.077 -0.5019 -0.4011  0.0763
 4270SOL     OW22913   4.508   0.185   0.481 -0.1515  0.2400 -0.2024
 4270SOL    HW122914   4.474   0.117   0.415 -0.1326 -0.8911  0.9311
 4270SOL    HW222915   4.587   0.147   0.529 -1.5375  0.1465  2.0723
 4271SOL     OW22916   3.070   9.181   1.317 -0.4774  0.2308  0.1915
 4271SOL    HW122917   3.129   9.244   1.368  2.5164 -2.1174 -0.2282
 4271SOL    HW222918   3.055   9.098   1.370  2.2880 -2.0505 -2.4151
 4272SOL     OW22919   0.899   3.959   1.671 -0.0006 -0.0753  0.8514
 4272SOL    HW122920   0.997   3.940   1.682 -0.3144 -2.3993 -0.0391
 4272SOL    HW222921   0.847   3.906   1.739 -0.8078 -1.0311 -0.4984
 4273SOL     OW22922   0.980   7.016   0.307  0.4283  0.1760  0.0037
 4273SOL    HW122923   1.079   7.027   0.298  0.6820 -0.2383  1.9394
 4273SOL    HW222924   0.939   7.103   0.333  0.7333 -0.3478  2.3827
 4274SOL     OW22925   2.496   4.242   1.866  0.3825 -0.1302 -0.0716
 4274SOL    HW122926   2.538   4.289   1.944  1.3942 -0.1148 -0.6083
 4274SOL    HW222927   2.542   4.154   1.853 -0.1984 -0.4035 -0.2697
 4275SOL     OW22928   0.886   9.648   2.098  0.5372  0.4289 -0.2470
 4275SOL    HW122929   0.803   9.682   2.053  0.5002 -0.0297 -0.5350
 4275SOL    HW222930   0.958   9.716   2.092 -0.0005  1.0780  0.5341
 4276SOL     OW22931   1.198   1.013   2.270 -0.2004  0.1887 -0.5417
 4276SOL    HW122932   1.207   0.928   2.322  0.2040 -0.1269 -1.1299
 4276SOL    HW222933   1.157   0.994   2.181 -0.0851  0.6077 -0.6836
 4277SOL     OW22934   0.783   9.206   1.086  0.0945  0.6079 -0.1868
 4277SOL    HW122935   0.857   9.141   1.103 -0.7558  0.5640  3.7613
 4277SOL    HW222936   0.739   9.184   0.999  1.8232 -2.1690 -0.4053
 4278SOL     OW22937   8.761   6.354   2.820  0.0371 -0.3866 -0.3995
 4278SOL    HW122938   8.814   6.283   2.774  2.1076  1.8947 -1.5916
 4278SOL    HW222939   8.809   6.441   2.816 -2.3542  1.0927  1.2415
 4279SOL     OW22940   1.198   6.948   1.376  0.2533  0.4694  0.0776
 4279SOL    HW122941   1.144   6.865   1.365  1.9552 -0.8478  1.2577
 4279SOL    HW222942   1.146   7.016   1.429 -1.3678  0.4042 -1.3917
 4280SOL     OW22943   4.335   4.453   2.409  0.0080 -0.0303  0.3507
 4280SOL    HW122944   4.387   4.412   2.484 -1.3167  0.0310  1.3171
 4280SOL    HW222945   4.248   4.487   2.443 -0.8263 -0.4322 -1.3206
 4281SOL     OW22946   9.819   2.862   1.823 -0.1820 -0.2430 -0.5185
 4281SOL    HW122947   9.835   2.919   1.904 -1.7171 -0.9795  0.3328
 4281SOL    HW222948   9.775   2.917   1.752 -1.1792 -0.2162  0.1054
 4282SOL     OW22949   0.859   2.859   0.601  0.3001  0.1856  0.1010
 4282SOL    HW122950   0.776   2.805   0.592  0.1508  0.0962  1.7796
 4282SOL    HW222951   0.848   2.946   0.552 -0.3181 -0.3337 -0.6867
 4283SOL     OW22952   0.158   1.559   0.696 -0.2859  0.1572  0.4185
 4283SOL    HW122953   0.246   1.543   0.741 -0.3828  0.6252  0.7744
 4283SOL    HW222954   0.088   1.575   0.766 -1.3865 -3.6530  0.3302
 4284SOL     OW22955   1.727   9.184   2.425 -0.3561 -0.9175  0.2064
 4284SOL    HW122956   1.804   9.133   2.386 -0.7936 -0.1973 -1.6375
 4284SOL    HW222957   1.753   9.220   2.515  1.0802 -1.6007  0.0775
 4285SOL     OW22958   3.905   1.072   1.233 -0.0885  0.2840  0.2129
 4285SOL    HW122959   3.864   1.002   1.291 -1.9762 -0.5620 -2.0883
 4285SOL    HW222960   3.838   1.144   1.214  0.8238  1.0714 -0.0655
 4286SOL     OW22961   8.645   5.564   0.083 -0.0327 -0.3288  0.3694
 4286SOL    HW122962   8.683   5.641   0.032  0.3006 -2.5305 -2.8654
 4286SOL    HW222963   8.718   5.518   0.134  0.3490 -0.2780 -0.1264
 4287SOL     OW22964   3.095   3.468   0.391 -0.0288  0.3065 -0.2225
 4287SOL    HW122965   3.117   3.538   0.323 -1.2066 -1.1750 -2.1877
 4287SOL    HW222966   3.055   3.511   0.472 -1.2746  1.8745 -1.6446
 4288SOL     OW22967   1.565   1.486   0.760  0.1406  0.2979  0.2420
 4288SOL    HW122968   1.612   1.555   0.815 -0.0745  0.3362  0.3827
 4288SOL    HW222969   1.502   1.531   0.696  1.0588  0.2926 -0.6778
 4289SOL     OW22970   8.518   4.609   1.952  0.2800  0.4672 -0.0357
 4289SOL    HW122971   8.509   4.695   2.004 -0.3584  0.7642 -0.6249
 4289SOL    HW222972   8.562   4.628   1.864 -1.5213  0.5329 -0.9651
 4290SOL     OW22973   0.296   2.126   0.049  0.0473 -0.5100  0.7297
 4290SOL    HW122974   0.216   2.091   0.100  0.4687  0.9059  2.4136
 4290SOL    HW222975   0.312   2.068  -0.031 -3.5965  0.0664 -0.5258
 4291SOL     OW22976   2.232   9.642   2.158 -0.1319 -0.6061 -0.7962
 4291SOL    HW122977   2.260   9.600   2.072  1.1254 -1.6876  0.1335
 4291SOL    HW222978   2.163   9.585   2.203  0.7131 -1.0908 -0.1026
 4292SOL     OW22979   2.972   5.407   1.297  0.3076 -0.5400 -0.0796
 4292SOL    HW122980   2.891   5.464   1.283  0.6691  0.3776  1.4353
 4292SOL    HW222981   2.956   5.317   1.256 -0.9395  0.0734 -0.9905
 4293SOL     OW22982   1.737   0.956   1.758 -0.3872  0.4394 -0.2245
 4293SOL    HW122983   1.637   0.948   1.752 -0.5387  1.9531  0.0906
 4293SOL    HW222984   1.769   1.019   1.688  0.2700  0.5564  0.1827
 4294SOL     OW22985   1.440   5.681   1.123 -0.4929 -0.3603 -0.3459
 4294SOL    HW122986   1.376   5.705   1.195  0.8631 -1.0069  1.0926
 4294SOL    HW222987   1.445   5.756   1.057 -0.9788  0.6679  0.7703
 4295SOL     OW22988   0.227   8.267   0.511  0.2146 -0.0544  0.6298
 4295SOL    HW122989   0.183   8.319   0.438  0.3955  2.1928  2.0613
 4295SOL    HW222990   0.178   8.182   0.527 -1.1518  0.4937 -0.5905
 4296SOL     OW22991   8.990   4.709   1.448  0.1277  1.2266  0.2002
 4296SOL    HW122992   9.078   4.750   1.425 -0.1390  2.0454  0.6403
 4296SOL    HW222993   8.930   4.778   1.488 -1.0019  0.8677 -0.8508
 4297SOL     OW22994   0.847   4.709   1.033  0.1558 -0.1863  0.2667
 4297SOL    HW122995   0.775   4.689   0.966 -1.4881  1.2666  1.5846
 4297SOL    HW222996   0.897   4.791   1.005  0.6080 -0.5792 -0.0846
 4298SOL     OW22997   1.586   4.996   2.833 -0.2370  0.1829 -0.0472
 4298SOL    HW122998   1.544   4.913   2.796  1.4733 -0.6228 -0.1957
 4298SOL    HW222999   1.544   5.018   2.921 -1.3392 -0.3046 -0.4444
 4299SOL     OW23000   9.084   2.341   2.554  0.0436  0.0034 -0.2155
 4299SOL    HW123001   9.093   2.367   2.457  0.7464 -1.9909 -0.7132
 4299SOL    HW223002   8.988   2.345   2.580 -0.2578 -0.1893 -1.2453
 4300SOL     OW23003   2.439   2.974   1.846 -0.4047  0.1737 -0.4007
 4300SOL    HW123004   2.535   2.983   1.823 -0.3146  0.5609  0.1094
 4300SOL    HW223005   2.416   2.878   1.857  0.1187  0.1201  0.2724
 4301SOL     OW23006   9.495   6.984   1.851  0.1249  0.4235 -0.4442
 4301SOL    HW123007   9.520   6.916   1.920  1.2539  1.2976  0.0381
 4301SOL    HW223008   9.506   7.076   1.890  0.6082  0.9212 -1.7237
 4302SOL     OW23009   9.415   5.030   0.637  0.1103 -0.1345 -0.0246
 4302SOL    HW123010   9.403   5.015   0.538  0.0719 -1.8227  0.2173
 4302SOL    HW223011   9.374   4.953   0.687  0.5053  0.5049  1.2992
 4303SOL     OW23012   0.217   7.248   0.941 -0.0454 -0.0723 -0.5905
 4303SOL    HW123013   0.134   7.270   0.891 -0.5805  0.2141  0.4050
 4303SOL    HW223014   0.295   7.295   0.900 -0.4082 -0.1979 -1.4132
 4304SOL     OW23015   0.162   1.814   1.018 -0.3098 -0.4400 -0.0959
 4304SOL    HW123016   0.165   1.910   0.991 -4.1857 -0.0514  0.4948
 4304SOL    HW223017   0.121   1.806   1.109 -1.7445 -2.6989 -0.8803
 4305SOL     OW23018   9.336   5.384   0.954  0.1913  0.5555 -0.0201
 4305SOL    HW123019   9.321   5.321   0.878  3.2274  0.6140 -0.7124
 4305SOL    HW223020   9.249   5.398   1.002 -0.9516 -2.7068 -0.9487
 4306SOL     OW23021   9.655   0.574   1.186 -0.3670  0.1683 -0.0160
 4306SOL    HW123022   9.734   0.635   1.187  0.4166 -0.8288 -0.4521
 4306SOL    HW223023   9.644   0.533   1.276  0.1175 -0.3295 -0.1810
 4307SOL     OW23024   1.689   5.366   1.313 -0.0932  0.3527  0.6309
 4307SOL    HW123025   1.591   5.349   1.305  0.3542 -2.4151  0.4154
 4307SOL    HW223026   1.708   5.418   1.396 -1.7194  0.5543  0.8723
 4308SOL     OW23027   8.731   4.834   0.880  0.1154 -0.1111 -0.1987
 4308SOL    HW123028   8.776   4.790   0.802  0.9996  0.8071 -0.2220
 4308SOL    HW223029   8.797   4.892   0.928 -0.7954  0.4841  0.3514
 4309SOL     OW23030   8.858   6.041   2.897 -0.5192 -0.0064  0.1074
 4309SOL    HW123031   8.850   6.092   2.811 -0.3375 -0.5682 -0.2404
 4309SOL    HW223032   8.952   6.011   2.909 -0.5567  0.0198  0.4777
 4310SOL     OW23033   1.295   4.914   0.718  0.0571 -0.2536 -0.4238
 4310SOL    HW123034   1.276   5.011   0.727  1.4032 -0.1194  1.3449
 4310SOL    HW223035   1.393   4.898   0.728 -0.0859 -1.7279 -1.2686
 4311SOL     OW23036   2.227   0.293   0.648 -0.3821  0.0780 -0.0951
 4311SOL    HW123037   2.203   0.258   0.739 -2.1916  0.7811 -0.2937
 4311SOL    HW223038   2.270   0.220   0.595  0.9533 -0.2734  1.3956
 4312SOL     OW23039   2.789   7.267   0.077  0.7700 -0.0194  0.9266
 4312SOL    HW123040   2.840   7.352   0.066  0.5043 -0.1370 -1.6164
 4312SOL    HW223041   2.800   7.211  -0.005 -2.4748 -0.5845  0.8126
 4313SOL     OW23042   0.664   0.448   2.449 -0.2883 -0.0327  0.2571
 4313SOL    HW123043   0.637   0.499   2.531 -0.4367  1.6424 -0.8064
 4313SOL    HW223044   0.620   0.358   2.450  1.8772 -1.1776  3.3580
 4314SOL     OW23045   1.103   1.853   1.649  0.4507  0.1135 -0.0003
 4314SOL    HW123046   1.061   1.787   1.710 -0.3650 -0.2654 -0.9531
 4314SOL    HW223047   1.041   1.873   1.573  1.8102 -0.1682 -1.2246
 4315SOL     OW23048   1.431   7.288   0.057 -0.0741  0.3950 -0.3275
 4315SOL    HW123049   1.513   7.343   0.041  1.2816 -1.7303 -0.8017
 4315SOL    HW223050   1.437   7.246   0.147 -0.6390  0.2058 -0.3777
 4316SOL     OW23051   9.122   4.820   2.115 -0.4070 -0.1315  0.2796
 4316SOL    HW123052   9.152   4.888   2.049  0.6282 -0.1480  0.7236
 4316SOL    HW223053   9.085   4.740   2.067 -0.8114  0.3763 -0.2517
 4317SOL     OW23054   9.738   3.274   1.956 -0.2969  0.3376 -0.2193
 4317SOL    HW123055   9.818   3.333   1.963 -0.7594  0.8555  0.7903
 4317SOL    HW223056   9.656   3.328   1.975 -0.7780 -0.4877  0.0564
 4318SOL     OW23057   1.944   2.352   0.111  0.2805 -0.3768  0.2809
 4318SOL    HW123058   1.873   2.351   0.041 -0.6887 -0.1388  1.2474
 4318SOL    HW223059   1.975   2.258   0.128 -3.0959 -1.0807  3.1275
 4319SOL     OW23060   4.144   1.348   0.640  0.0041 -0.1682 -0.1259
 4319SOL    HW123061   4.131   1.256   0.603 -0.4443 -0.0428 -0.2717
 4319SOL    HW223062   4.136   1.345   0.740  0.3303 -0.3447 -0.1014
 4320SOL     OW23063   8.484   5.639   2.305  0.0008 -0.0786  0.0434
 4320SOL    HW123064   8.548   5.639   2.382  1.7331  0.0944 -1.3832
 4320SOL    HW223065   8.402   5.588   2.331  1.1578 -1.2534  1.5111
 4321SOL     OW23066   2.262   2.133   2.842  0.2535  0.3892  0.1078
 4321SOL    HW123067   2.281   2.042   2.807 -0.7724 -0.1566  0.9444
 4321SOL    HW223068   2.163   2.150   2.839  0.3487  1.1051  0.8190
 4322SOL     OW23069   9.339   4.450   0.728  0.1362  0.3344 -0.0418
 4322SOL    HW123070   9.282   4.383   0.775  0.1449 -1.1823 -2.1494
 4322SOL    HW223071   9.430   4.452   0.769  0.5461 -1.9119 -0.7666
 4323SOL     OW23072   8.844   6.058   1.249  0.3826 -0.0303 -0.6370
 4323SOL    HW123073   8.808   5.976   1.294  0.1185 -0.1833 -1.1151
 4323SOL    HW223074   8.912   6.031   1.181  1.6181  0.2847  0.4781
 4324SOL     OW23075   2.035   2.837   1.154  0.1965  0.2346 -0.3871
 4324SOL    HW123076   2.134   2.836   1.138  0.1739  0.9908 -0.6047
 4324SOL    HW223077   2.005   2.745   1.179  1.0261  0.0917  0.1296
 4325SOL     OW23078   1.653   5.792   2.148  0.6191  0.5813 -0.0143
 4325SOL    HW123079   1.570   5.736   2.156  1.1826 -0.4147 -1.1007
 4325SOL    HW223080   1.698   5.797   2.237 -0.4741  0.9528  0.5404
 4326SOL     OW23081   2.293   9.707   1.736  0.7355 -0.5983 -0.6128
 4326SOL    HW123082   2.249   9.719   1.647  0.1173 -0.9899 -0.3657
 4326SOL    HW223083   2.314   9.796   1.776  0.1764 -0.4117 -0.7368
 4327SOL     OW23084   1.790   1.764   0.304  0.4780  0.0477 -0.2360
 4327SOL    HW123085   1.748   1.676   0.323  0.1393  0.6680  1.9894
 4327SOL    HW223086   1.734   1.814   0.238 -0.4365 -0.5377  0.0896
 4328SOL     OW23087   0.668   9.296   1.558 -0.1896  0.1590  0.0892
 4328SOL    HW123088   0.711   9.217   1.515 -3.6505 -1.5952 -0.3168
 4328SOL    HW223089   0.663   9.371   1.492 -1.8592 -1.1607 -1.3210
 4329SOL     OW23090   9.996   0.376   2.294 -0.0880  0.3618  0.1265
 4329SOL    HW123091   9.914   0.406   2.244  0.8662  0.9856 -1.0848
 4329SOL    HW223092  10.027   0.288   2.257 -0.1373  0.1811  0.5104
 4330SOL     OW23093   9.760   4.261   1.201  0.4517  0.3682 -0.1347
 4330SOL    HW123094   9.852   4.243   1.236  0.4251 -0.3643 -0.4361
 4330SOL    HW223095   9.727   4.181   1.150 -0.7315  0.2729  0.7691
 4331SOL     OW23096   3.738   0.519   2.346  0.2470 -0.0527  0.5352
 4331SOL    HW123097   3.809   0.590   2.349 -0.0605  0.2128  1.5111
 4331SOL    HW223098   3.685   0.521   2.431 -0.6821 -0.5053 -0.0255
 4332SOL     OW23099   9.593   8.330   2.740  0.0482 -0.5247  0.4395
 4332SOL    HW123100   9.547   8.346   2.653  0.1203 -3.2217 -0.1086
 4332SOL    HW223101   9.680   8.284   2.725  0.5339 -0.1159  1.8774
 4333SOL     OW23102   0.158   7.249   1.591 -0.1384  0.4918  0.1165
 4333SOL    HW123103   0.129   7.344   1.605 -1.6830  0.1218 -0.4942
 4333SOL    HW223104   0.229   7.226   1.658  0.8541  2.3290 -0.2617
 4334SOL     OW23105   0.588   5.759   0.659 -0.1515  0.6548 -0.7497
 4334SOL    HW123106   0.608   5.810   0.742  1.0439  0.9416 -1.1937
 4334SOL    HW223107   0.619   5.664   0.670  0.7662  0.8990 -1.1512
 4335SOL     OW23108   0.166   8.972   0.742 -0.6077  0.2733  0.2951
 4335SOL    HW123109   0.079   9.003   0.782  0.5604  0.7546  2.5524
 4335SOL    HW223110   0.153   8.882   0.701 -2.2603  0.4769  0.3184
 4336SOL     OW23111   9.556   6.872   2.695 -0.0115 -0.0306 -0.2126
 4336SOL    HW123112   9.521   6.807   2.763  1.2254  0.3773  0.8474
 4336SOL    HW223113   9.621   6.826   2.635 -0.8184 -0.3007 -0.8848
 4337SOL     OW23114   4.265   8.370   0.251  0.4142 -0.2333 -0.5163
 4337SOL    HW123115   4.205   8.326   0.319  0.6190  0.5457  0.1804
 4337SOL    HW223116   4.316   8.444   0.295  1.7911 -0.7977 -1.1372
 4338SOL     OW23117   2.105   3.300   0.856 -0.1840 -0.2428 -0.3232
 4338SOL    HW123118   2.025   3.297   0.796 -0.1670 -1.2763 -0.2927
 4338SOL    HW223119   2.164   3.222   0.836 -0.0417 -0.4345  0.8472
 4339SOL     OW23120   9.130   7.935   0.494  0.3955  0.9328 -0.3864
 4339SOL    HW123121   9.195   7.943   0.419  0.7435 -0.1721 -0.2128
 4339SOL    HW223122   9.043   7.900   0.460  1.0676 -1.1793 -0.0436
 4340SOL     OW23123   2.696   9.857   2.918  0.1626  0.1080  0.0375
 4340SOL    HW123124   2.724   9.930   2.981  1.3581 -1.2725  1.1151
 4340SOL    HW223125   2.694   9.893   2.824 -1.1558  2.0415  0.7731
 4341SOL     OW23126   1.443   0.412   2.182  0.6887 -0.8412  0.5489
 4341SOL    HW123127   1.419   0.332   2.238  0.5970 -1.0895  0.1530
 4341SOL    HW223128   1.464   0.489   2.243 -0.7462 -0.7231  0.9232
 4342SOL     OW23129   4.199   1.956   2.082 -0.6957 -0.0001 -0.0311
 4342SOL    HW123130   4.102   1.934   2.069 -0.3646 -1.0591 -0.7341
 4342SOL    HW223131   4.241   1.888   2.142 -0.5834  0.9652  1.0146
 4343SOL     OW23132   9.321   5.394   2.679 -0.1369 -0.0762 -0.2837
 4343SOL    HW123133   9.421   5.396   2.677 -0.1723  2.4581 -0.9405
 4343SOL    HW223134   9.289   5.304   2.650  1.9279 -0.6939 -0.7462
 4344SOL     OW23135   0.863   0.627   1.082 -0.0704  0.2800  0.7141
 4344SOL    HW123136   0.948   0.596   1.124 -0.0602 -0.7910 -0.0841
 4344SOL    HW223137   0.874   0.719   1.047 -0.0312  1.1520  2.9253
 4345SOL     OW23138   2.136   2.442   1.548  0.0600  0.4221  0.3915
 4345SOL    HW123139   2.190   2.367   1.586 -1.5818 -1.1566 -0.2442
 4345SOL    HW223140   2.179   2.475   1.464 -0.5999 -1.7180 -0.8426
 4346SOL     OW23141   1.839   7.317   0.649  0.4040 -0.4211 -0.9081
 4346SOL    HW123142   1.829   7.359   0.740  0.8021  0.8582 -1.4333
 4346SOL    HW223143   1.786   7.233   0.645 -0.3995  0.0159  0.1951
 4347SOL     OW23144   9.314   2.020   1.432 -0.6317  0.3425 -0.8535
 4347SOL    HW123145   9.270   1.945   1.481 -0.4402  1.1065  0.4963
 4347SOL    HW223146   9.400   1.988   1.393 -0.8955 -0.3319 -0.8834
 4348SOL     OW23147   2.708   5.107   1.918 -0.3450  0.7703  0.0738
 4348SOL    HW123148   2.614   5.095   1.951 -0.9847  2.2818 -1.1674
 4348SOL    HW223149   2.720   5.054   1.834  0.6673 -1.3936  1.5303
 4349SOL     OW23150   2.985   0.725   2.074 -0.0795 -0.2142 -0.4879
 4349SOL    HW123151   2.984   0.654   2.003 -0.1698 -0.2326 -0.4682
 4349SOL    HW223152   3.070   0.718   2.127 -0.9590 -1.5755  0.7970
 4350SOL     OW23153   3.102   3.341   0.834 -0.3727  0.3314  0.1291
 4350SOL    HW123154   3.098   3.250   0.874  1.3658  0.6285  1.0101
 4350SOL    HW223155   3.184   3.350   0.778  0.1832  1.7989  1.1532
 4351SOL     OW23156   3.359   8.561   1.623  0.1324 -0.1113 -0.6934
 4351SOL    HW123157   3.423   8.502   1.573  0.8083  0.3806 -0.4099
 4351SOL    HW223158   3.285   8.589   1.562  0.4441 -0.2980 -1.1584
 4352SOL     OW23159   0.045   0.948   1.454  0.0754 -0.0986  0.1389
 4352SOL    HW123160   0.003   0.963   1.543 -2.1402 -0.2953 -0.8508
 4352SOL    HW223161   0.026   1.026   1.394  0.1148 -0.7157 -0.6899
 4353SOL     OW23162   2.258   6.408   2.156  0.4641  0.2710  0.3353
 4353SOL    HW123163   2.318   6.486   2.175 -0.1940  0.6439  0.9271
 4353SOL    HW223164   2.176   6.414   2.214 -0.0388 -0.3465 -0.3003
 4354SOL     OW23165   0.500   7.918   1.847  0.0608  0.4964 -0.3777
 4354SOL    HW123166   0.591   7.876   1.841 -0.8675 -1.4812 -1.2761
 4354SOL    HW223167   0.471   7.919   1.943  1.7576  2.8115  0.1444
 4355SOL     OW23168   4.238   2.121   1.223 -0.2697  0.0669  0.2876
 4355SOL    HW123169   4.297   2.104   1.302  0.2903 -0.6703 -0.2761
 4355SOL    HW223170   4.236   2.219   1.203  0.4256  0.1435  0.5775
 4356SOL     OW23171   9.651   4.288   1.920 -0.3081  0.7781 -0.3922
 4356SOL    HW123172   9.552   4.276   1.925 -0.4284  2.2167  1.1110
 4356SOL    HW223173   9.682   4.269   1.827 -1.8962 -0.3233 -0.7133
 4357SOL     OW23174   0.038   5.830   0.008  0.7395 -0.0087 -0.3268
 4357SOL    HW123175   0.029   5.805   0.104  1.2953 -0.2554 -0.3368
 4357SOL    HW223176  -0.004   5.760  -0.049  0.3193  0.1870 -0.2626
 4358SOL     OW23177   1.932   4.033   1.303  0.1495  0.3316  0.7300
 4358SOL    HW123178   1.982   4.118   1.289 -0.1144  0.6959  1.9883
 4358SOL    HW223179   1.992   3.965   1.344  1.1228 -0.9680 -2.6450
 4359SOL     OW23180   0.660   9.171   0.177 -0.3551 -0.1568 -0.1274
 4359SOL    HW123181   0.747   9.216   0.156  0.2539 -1.1861  0.0951
 4359SOL    HW223182   0.670   9.072   0.163 -0.4774 -0.6848  3.0505
 4360SOL     OW23183   9.834   2.927   0.565  0.5528  0.1107  0.2918
 4360SOL    HW123184   9.767   3.000   0.578  1.4942  0.8303  1.2254
 4360SOL    HW223185   9.923   2.967   0.541  0.7990 -0.7962 -0.3452
 4361SOL     OW23186   4.702   2.780   1.417 -0.4165 -0.1521  0.3621
 4361SOL    HW123187   4.746   2.742   1.336  0.4210  1.9678 -0.2183
 4361SOL    HW223188   4.760   2.852   1.456 -2.3188  1.1141  0.9212
 4362SOL     OW23189   2.332   8.311   2.031 -0.1184  0.0415 -0.3611
 4362SOL    HW123190   2.246   8.324   1.982 -0.6721  0.2490  0.6420
 4362SOL    HW223191   2.372   8.224   2.004 -0.7109 -0.1229 -0.7397
 4363SOL     OW23192   0.520   9.456   2.037  0.3638 -0.1774  0.0862
 4363SOL    HW123193   0.452   9.461   2.110  1.6465 -1.1054  1.3954
 4363SOL    HW223194   0.488   9.394   1.966 -0.6582  0.2931  0.1299
 4364SOL     OW23195   1.756   9.017   0.287  0.6082 -0.2451  0.1415
 4364SOL    HW123196   1.689   9.062   0.227 -0.4271 -0.9567  0.7382
 4364SOL    HW223197   1.714   9.002   0.377  1.7309 -0.2997  0.6600
 4365SOL     OW23198   0.574   2.808   1.575  0.3469  0.5692 -0.2634
 4365SOL    HW123199   0.516   2.743   1.624 -1.1504  1.2274 -1.1234
 4365SOL    HW223200   0.666   2.808   1.615 -0.6726  0.6747  2.1717
 4366SOL     OW23201   3.496   0.956   0.735 -0.5073 -0.1250  0.2867
 4366SOL    HW123202   3.546   0.927   0.653 -0.5077  2.5314 -0.6995
 4366SOL    HW223203   3.413   0.901   0.744 -0.5510 -0.4150 -1.5672
 4367SOL     OW23204   4.177   7.965   0.241  0.0471  0.1234 -0.2345
 4367SOL    HW123205   4.141   8.037   0.301 -3.1745 -2.4979  1.1063
 4367SOL    HW223206   4.275   7.955   0.256  0.0805  2.4834  1.3896
 4368SOL     OW23207   0.279   0.214   0.814  0.1548 -0.2492  0.1528
 4368SOL    HW123208   0.322   0.265   0.739 -0.5527  1.4444  0.8715
 4368SOL    HW223209   0.342   0.210   0.892  0.2174 -0.4842  0.0896
 4369SOL     OW23210   1.183   3.863   2.712  0.3885  0.1319 -0.4447
 4369SOL    HW123211   1.144   3.952   2.688  1.6614  0.6759 -0.5333
 4369SOL    HW223212   1.236   3.872   2.796  0.7690 -0.4858 -0.6196
 4370SOL     OW23213   3.866   4.829   1.971  0.1522 -0.0005 -0.2677
 4370SOL    HW123214   3.871   4.755   1.904  1.8033 -1.6523  1.6194
 4370SOL    HW223215   3.940   4.819   2.037 -1.4187  1.6169  1.7939
 4371SOL     OW23216   9.140   5.657   0.261 -0.3091  0.0986 -0.1401
 4371SOL    HW123217   9.075   5.716   0.309  0.4597  1.0550 -0.2701
 4371SOL    HW223218   9.233   5.688   0.278  0.1543 -1.5756  0.4450
 4372SOL     OW23219   1.669   1.192   1.969 -0.5029 -0.2986  0.0334
 4372SOL    HW123220   1.624   1.103   1.978  0.1544 -0.6538 -0.1112
 4372SOL    HW223221   1.741   1.199   2.039 -2.3985  1.2683  1.8822
 4373SOL     OW23222   2.328   4.515   2.053  0.5921 -0.2183 -0.0099
 4373SOL    HW123223   2.317   4.430   2.103  1.3566 -1.2426 -1.5240
 4373SOL    HW223224   2.397   4.572   2.098  0.7633 -0.8118  0.4852
 4374SOL     OW23225   0.360   2.436   0.571  0.1911  0.4208  0.5575
 4374SOL    HW123226   0.398   2.432   0.664 -0.4100 -2.2200  0.7266
 4374SOL    HW223227   0.386   2.354   0.521 -1.3037  0.8279 -0.9157
 4375SOL     OW23228   2.261   0.439   1.090  0.4397 -0.1405  0.0896
 4375SOL    HW123229   2.259   0.443   1.190 -1.2800 -1.7502  0.1301
 4375SOL    HW223230   2.191   0.377   1.057  1.1548  0.1783 -2.1337
 4376SOL     OW23231   2.218   1.612   0.295  0.0914 -0.3554  0.1540
 4376SOL    HW123232   2.171   1.538   0.343 -0.3297  0.7080  1.4041
 4376SOL    HW223233   2.151   1.680   0.266  0.6265  0.1523  0.1127
 4377SOL     OW23234   2.467   0.176   1.539 -0.4398 -0.3370  0.5376
 4377SOL    HW123235   2.563   0.197   1.518 -0.6222  0.2391  0.2735
 4377SOL    HW223236   2.459   0.153   1.636 -0.2730  1.0823  0.9106
 4378SOL     OW23237   1.126   8.531   2.272 -0.6157  0.1279  0.1663
 4378SOL    HW123238   1.213   8.505   2.312 -0.3475  0.4523 -0.2007
 4378SOL    HW223239   1.078   8.449   2.239 -0.9317 -0.1583  1.3277
 4379SOL     OW23240   1.572   7.665   1.113  0.0781 -0.3757 -0.0540
 4379SOL    HW123241   1.597   7.745   1.058  0.5311 -0.2867  0.2736
 4379SOL    HW223242   1.550   7.588   1.053 -0.2417 -0.0416 -0.3703
 4380SOL     OW23243   1.943   0.029   0.036 -0.8546  0.3955  0.4204
 4380SOL    HW123244   1.873  -0.039   0.057  0.3073 -0.7132  0.8185
 4380SOL    HW223245   1.938   0.054  -0.060  1.3166 -3.3764 -0.7673
 4381SOL     OW23246   1.628   3.171   1.299  0.1669 -0.2704 -0.2921
 4381SOL    HW123247   1.581   3.083   1.301  0.6387 -0.5016  2.4058
 4381SOL    HW223248   1.593   3.229   1.372 -0.4774  1.9996 -2.3548
 4382SOL     OW23249   0.865   2.510   2.701  0.1093 -0.2108  0.5674
 4382SOL    HW123250   0.897   2.577   2.768  1.4767 -0.8925  0.6134
 4382SOL    HW223251   0.925   2.431   2.702 -0.4841 -0.6874 -0.7158
 4383SOL     OW23252   2.785   8.609   2.062 -0.8640  0.5529 -0.0163
 4383SOL    HW123253   2.791   8.673   1.986 -0.2651  0.9369  0.3532
 4383SOL    HW223254   2.689   8.589   2.081 -1.0557  1.4342 -0.0493
 4384SOL     OW23255   3.382   1.831   1.110  0.2694 -0.1343  0.5503
 4384SOL    HW123256   3.428   1.913   1.143  1.4212 -1.1048  1.4384
 4384SOL    HW223257   3.284   1.840   1.122 -0.0166  2.6533 -2.8679
 4385SOL     OW23258   4.068   8.123   0.429 -0.9419  0.3248  0.0625
 4385SOL    HW123259   3.989   8.082   0.474 -0.9511  0.4670  0.1757
 4385SOL    HW223260   4.102   8.200   0.483 -1.3987  0.9611 -0.5416
 4386SOL     OW23261   1.385   1.376   2.815  0.6690  0.2344  0.5179
 4386SOL    HW123262   1.447   1.454   2.819  3.2515 -1.6841 -0.8470
 4386SOL    HW223263   1.412   1.309   2.883 -0.2783 -0.3949  0.2856
 4387SOL     OW23264   3.937   3.058   1.338 -0.6608  1.1088  0.8793
 4387SOL    HW123265   3.888   3.145   1.330  0.6806  1.8033 -0.0486
 4387SOL    HW223266   4.028   3.075   1.378 -0.5941  0.0602  1.1758
 4388SOL     OW23267   0.412   3.313   2.151  0.1098  0.3924  0.0675
 4388SOL    HW123268   0.329   3.368   2.151 -0.8155 -0.9774  0.9004
 4388SOL    HW223269   0.450   3.309   2.243  0.3476 -0.0828 -0.0479
 4389SOL     OW23270   2.991   5.787   2.674 -0.1241 -0.1622 -0.1066
 4389SOL    HW123271   2.998   5.753   2.580  1.4425  1.1945 -0.5266
 4389SOL    HW223272   3.076   5.836   2.698 -1.5376  1.8122  1.0681
 4390SOL     OW23273   4.327   0.561   1.710 -0.7110 -0.3401 -0.2745
 4390SOL    HW123274   4.347   0.658   1.702 -0.7042 -0.3501 -0.3693
 4390SOL    HW223275   4.255   0.536   1.646 -1.6056 -0.1321  0.6309
 4391SOL     OW23276   3.773   0.897   1.395 -0.2641 -0.1150  0.0095
 4391SOL    HW123277   3.778   0.900   1.495  0.9005 -0.4744 -0.0298
 4391SOL    HW223278   3.691   0.945   1.365 -2.2666 -2.6111  1.3017
 4392SOL     OW23279   0.469   4.749   2.209 -0.0506  0.2972 -0.0674
 4392SOL    HW123280   0.538   4.772   2.278  1.0665 -1.5850 -0.5214
 4392SOL    HW223281   0.451   4.830   2.153  3.3655  0.3049 -1.2700
 4393SOL     OW23282   3.407   1.604   0.370  0.0057 -0.0263  0.1312
 4393SOL    HW123283   3.332   1.578   0.309 -0.9248  0.4658  1.0521
 4393SOL    HW223284   3.473   1.660   0.319 -0.4677 -0.1010 -0.5740
 4394SOL     OW23285   4.341   3.673   0.373  0.2648 -0.1343 -0.0587
 4394SOL    HW123286   4.258   3.670   0.318  0.6852 -0.6789 -0.6785
 4394SOL    HW223287   4.392   3.587   0.361  0.1024 -0.4772  1.5883
 4395SOL     OW23288   3.229   5.802   2.091 -0.2802  0.1896  0.3767
 4395SOL    HW123289   3.276   5.887   2.067  3.0179 -1.7265 -0.1617
 4395SOL    HW223290   3.158   5.821   2.159  0.0141  3.4438 -0.1673
 4396SOL     OW23291   9.166   4.232   0.847 -0.0242 -0.5468  0.6392
 4396SOL    HW123292   9.161   4.165   0.921 -0.7264  0.8389  1.8776
 4396SOL    HW223293   9.085   4.290   0.848  0.6282  0.4131 -0.3083
 4397SOL     OW23294   2.672   4.803   1.979  0.1536  0.0375 -0.2902
 4397SOL    HW123295   2.756   4.824   1.928  0.3724  0.2562  0.1571
 4397SOL    HW223296   2.680   4.840   2.072  0.2190 -1.3585  0.2640
 4398SOL     OW23297   3.385   1.802   2.624  0.2511  0.1416 -0.2430
 4398SOL    HW123298   3.326   1.798   2.705 -1.1160  2.6464 -1.0685
 4398SOL    HW223299   3.478   1.825   2.651  0.1861 -0.7219  0.7574
 4399SOL     OW23300   0.753   9.419   1.770  0.6074  0.1112  0.2290
 4399SOL    HW123301   0.787   9.357   1.841  0.3577  0.3363  0.5532
 4399SOL    HW223302   0.714   9.366   1.695 -0.6664 -0.1323  1.0303
 4400SOL     OW23303   8.705   3.415   2.355 -0.6169 -0.8346 -0.2790
 4400SOL    HW123304   8.676   3.375   2.267  0.0472  0.1374 -0.9525
 4400SOL    HW223305   8.762   3.495   2.337 -0.0760 -0.9191  1.0541
 4401SOL     OW23306   1.914   6.710   0.543 -0.3710  0.0027  0.5006
 4401SOL    HW123307   1.897   6.616   0.574  0.4289 -0.3943 -0.2192
 4401SOL    HW223308   1.912   6.772   0.621  0.1872 -0.7758  1.1367
 4402SOL     OW23309   8.733   2.962   1.048  0.3828  0.0501 -0.2515
 4402SOL    HW123310   8.659   3.025   1.073  0.7718 -1.2269  4.7068
 4402SOL    HW223311   8.696   2.871   1.034  0.7306 -0.0822 -0.3110
 4403SOL     OW23312   0.477   8.288   0.397  0.0934  0.3810 -0.2155
 4403SOL    HW123313   0.571   8.276   0.429  0.6153 -1.1008 -2.2390
 4403SOL    HW223314   0.416   8.288   0.476  1.6743  0.2854  1.0498
 4404SOL     OW23315   1.606   8.462   1.265  0.1091 -0.3076  0.0401
 4404SOL    HW123316   1.574   8.384   1.320 -1.7974  0.6508  0.3266
 4404SOL    HW223317   1.540   8.480   1.192  0.2704  1.3554  0.2896
 4405SOL     OW23318   0.433   7.876   0.043 -0.1662 -0.0227 -0.4552
 4405SOL    HW123319   0.407   7.849  -0.049 -1.8893  1.1129 -0.3437
 4405SOL    HW223320   0.403   7.807   0.109  1.7157 -1.1800 -0.8113
 4406SOL     OW23321   3.699   8.325   2.901  0.1295 -0.0519  0.2704
 4406SOL    HW123322   3.653   8.290   2.982  0.2298 -0.0721  0.3186
 4406SOL    HW223323   3.742   8.250   2.851 -1.3278 -0.2707 -0.6983
 4407SOL     OW23324   4.032   0.423   2.334 -0.0659 -0.0804 -0.2081
 4407SOL    HW123325   4.047   0.498   2.397 -1.8943  0.3368 -0.2280
 4407SOL    HW223326   4.049   0.453   2.240 -0.1354  0.1289 -0.1529
 4408SOL     OW23327   3.550   0.007   0.933 -0.7304 -0.0106 -0.2630
 4408SOL    HW123328   3.597   0.073   0.992 -1.9856  2.0161 -1.4660
 4408SOL    HW223329   3.591   0.009   0.842 -0.8513 -0.8064 -0.3332
 4409SOL     OW23330   2.045   6.198   1.112 -0.0161 -0.6939 -0.0198
 4409SOL    HW123331   1.973   6.142   1.153  0.4740 -1.0472  0.3637
 4409SOL    HW223332   2.115   6.138   1.072  0.0341 -0.3520 -0.4489
 4410SOL     OW23333   2.739   4.015   0.310  0.2586  0.2370 -0.1364
 4410SOL    HW123334   2.786   4.009   0.222  2.0933 -0.3989  0.8593
 4410SOL    HW223335   2.799   4.058   0.377  0.1916 -2.3756  1.6601
 4411SOL     OW23336   4.009   3.805   0.106 -0.1721 -0.4360  0.0229
 4411SOL    HW123337   4.084   3.741   0.089 -1.0880 -1.4594 -0.2026
 4411SOL    HW223338   3.984   3.850   0.020 -0.0382 -0.3374  0.0354
 4412SOL     OW23339   3.376   3.861   2.043 -0.0841 -0.3205  0.1984
 4412SOL    HW123340   3.344   3.946   2.002  2.7783  1.5593  1.7412
 4412SOL    HW223341   3.384   3.791   1.972  0.9503  1.7113 -1.7464
 4413SOL     OW23342   2.390   5.083   1.620 -0.1355  0.3935 -0.3495
 4413SOL    HW123343   2.318   5.127   1.674  0.5053  1.6337 -0.4851
 4413SOL    HW223344   2.434   5.012   1.675  0.7804  1.9182  0.9512
 4414SOL     OW23345   1.249   6.540   2.113  0.0094 -0.4275  0.1941
 4414SOL    HW123346   1.196   6.457   2.096  1.9415 -1.5366 -0.4924
 4414SOL    HW223347   1.310   6.558   2.035  1.4818  0.1791  1.4560
 4415SOL     OW23348   2.751   6.032   0.947  0.0003 -0.3121  0.8176
 4415SOL    HW123349   2.772   6.130   0.940 -0.2025 -0.2401  1.1834
 4415SOL    HW223350   2.658   6.016   0.917  0.0529 -0.4029  0.7017
 4416SOL     OW23351   3.756   9.942   1.856  0.4033 -0.3194  0.8088
 4416SOL    HW123352   3.797  10.029   1.828 -0.8568 -0.0418 -0.2432
 4416SOL    HW223353   3.710   9.953   1.944  0.7219 -0.0821  0.9473
 4417SOL     OW23354   2.410   1.664   1.583  0.1958 -0.1179  0.3574
 4417SOL    HW123355   2.457   1.706   1.506 -0.6615  0.0507 -0.0912
 4417SOL    HW223356   2.472   1.655   1.660  1.4339 -1.4906 -0.7813
 4418SOL     OW23357   3.095   8.555   0.136 -0.2845  0.0310  0.2344
 4418SOL    HW123358   3.081   8.652   0.159 -1.1818  0.1617 -0.8358
 4418SOL    HW223359   3.181   8.524   0.177 -0.6745  0.8929  1.7764
 4419SOL     OW23360   9.926   5.267   2.034 -0.1410  0.1401  0.1960
 4419SOL    HW123361   9.932   5.200   2.109 -2.7723  1.1298  1.3406
 4419SOL    HW223362   9.945   5.358   2.069 -0.2451  0.4683 -0.5910
 4420SOL     OW23363   0.275   1.780   2.299 -0.2405  0.1188  0.5249
 4420SOL    HW123364   0.306   1.685   2.309  0.8301  0.1067 -2.2740
 4420SOL    HW223365   0.178   1.786   2.320 -0.8515 -2.0721 -1.4480
 4421SOL     OW23366   9.387   2.719   0.151 -0.7360 -0.0382  0.0014
 4421SOL    HW123367   9.377   2.694   0.247  0.3745 -0.6951 -0.0470
 4421SOL    HW223368   9.303   2.696   0.101 -1.0996 -0.2208  0.6977
 4422SOL     OW23369   1.769   9.831   2.028 -0.0252  0.1568  0.0165
 4422SOL    HW123370   1.847   9.882   2.066  0.3030 -1.3672  1.4297
 4422SOL    HW223371   1.791   9.734   2.026 -1.6191 -0.2008 -0.3065
 4423SOL     OW23372   0.297   0.006   0.335 -0.5408 -1.0343 -0.4353
 4423SOL    HW123373   0.319  -0.054   0.258  1.3534  1.3485 -1.8094
 4423SOL    HW223374   0.255   0.090   0.302 -0.6602 -0.4176  1.2267
 4424SOL     OW23375   9.866   4.733   0.464 -0.1726 -0.0841  0.4371
 4424SOL    HW123376   9.873   4.669   0.540 -3.6130 -1.2818 -0.1252
 4424SOL    HW223377   9.937   4.714   0.397  0.1399 -1.9539  1.2714
 4425SOL     OW23378   0.445   3.082   0.127 -0.4439  0.0827 -0.8439
 4425SOL    HW123379   0.357   3.037   0.114 -0.4140 -0.3767  0.5284
 4425SOL    HW223380   0.477   3.117   0.039 -2.0969  0.4437 -1.3261
 4426SOL     OW23381   2.636   8.580   0.067 -0.1084 -1.0910  0.0395
 4426SOL    HW123382   2.596   8.569   0.158  0.4072 -0.6181  0.3298
 4426SOL    HW223383   2.564   8.585  -0.001 -0.5469 -0.3246  0.5509
 4427SOL     OW23384   3.226   0.926   0.622 -0.3795  0.8730 -0.0035
 4427SOL    HW123385   3.273   0.959   0.540  2.1302  1.7021  1.6941
 4427SOL    HW223386   3.129   0.946   0.616 -0.1033  1.5769 -2.4398
 4428SOL     OW23387   1.011   4.624   2.363 -0.1789  0.8710  0.7122
 4428SOL    HW123388   1.063   4.709   2.355 -1.0187  1.3609  0.4645
 4428SOL    HW223389   1.074   4.546   2.359  0.3308  1.3730 -1.8039
 4429SOL     OW23390   8.838   7.034   0.262  0.6575  0.2794  0.1541
 4429SOL    HW123391   8.859   7.023   0.359  1.0340 -0.2682  0.0168
 4429SOL    HW223392   8.899   6.975   0.208  0.3010  0.4096 -0.3971
 4430SOL     OW23393   3.828   3.986   0.543 -0.2195 -0.0904 -0.2472
 4430SOL    HW123394   3.772   4.068   0.534 -2.9154 -1.8529  0.1594
 4430SOL    HW223395   3.835   3.941   0.453 -0.7921 -0.7294  0.0271
 4431SOL     OW23396   0.891   3.339   0.533  0.0527  0.1600 -0.3913
 4431SOL    HW123397   0.900   3.355   0.435 -1.5290 -0.7278 -0.7089
 4431SOL    HW223398   0.835   3.258   0.548  1.4534 -0.5204  1.2459
 4432SOL     OW23399   3.221   4.986   2.281 -0.3047  0.4952 -0.2018
 4432SOL    HW123400   3.167   5.006   2.199 -0.2172  0.4395 -0.2738
 4432SOL    HW223401   3.173   5.020   2.362 -0.6035  0.1519 -0.2342
 4433SOL     OW23402   2.058   0.668   1.923  0.3045 -0.1670  0.0009
 4433SOL    HW123403   2.019   0.757   1.898  0.1520 -0.1488  0.3015
 4433SOL    HW223404   2.076   0.666   2.021 -0.5820 -0.8069  0.1645
 4434SOL     OW23405   9.293   5.122   1.739  0.3762  0.3598  0.0048
 4434SOL    HW123406   9.275   5.042   1.796  0.1357  0.1088 -0.4240
 4434SOL    HW223407   9.383   5.114   1.698  0.1157  0.0178 -0.5127
 4435SOL     OW23408   9.356   2.582   2.333  0.7265 -0.2058  0.4514
 4435SOL    HW123409   9.382   2.594   2.428  0.5929 -1.7962  0.7052
 4435SOL    HW223410   9.394   2.496   2.298  1.5922  0.8137 -1.2231
 4436SOL     OW23411   0.270   9.400   2.629 -0.4416  0.6131  0.1848
 4436SOL    HW123412   0.360   9.404   2.672 -1.6071  3.2758  2.5709
 4436SOL    HW223413   0.202   9.374   2.696 -1.5068 -1.2167 -1.5668
 4437SOL     OW23414   1.452   2.546   1.019 -0.2935 -0.0494  0.2346
 4437SOL    HW123415   1.522   2.570   1.087  0.8443 -0.4709 -0.7689
 4437SOL    HW223416   1.383   2.487   1.062 -1.3692  2.2910  1.8717
 4438SOL     OW23417   2.888   5.017   1.677 -0.0158 -0.3144  0.1842
 4438SOL    HW123418   2.942   4.985   1.599  0.2614 -1.9801  1.0249
 4438SOL    HW223419   2.875   5.116   1.671  0.4281 -0.3608 -1.6972
 4439SOL     OW23420   0.951   3.750   2.764  0.3474  0.1015  0.1437
 4439SOL    HW123421   1.038   3.791   2.738 -0.4655  1.8617  0.1707
 4439SOL    HW223422   0.931   3.770   2.860  1.4073 -2.9899  1.0850
 4440SOL     OW23423   3.360   4.535   1.562  0.4102 -0.9736 -0.2913
 4440SOL    HW123424   3.277   4.586   1.585  1.1227  0.9493 -1.8266
 4440SOL    HW223425   3.343   4.482   1.478  0.4191 -1.3936 -0.0284
 4441SOL     OW23426   9.282   4.629   0.533  0.1570 -0.1657  0.5109
 4441SOL    HW123427   9.297   4.551   0.595 -0.7507 -0.3450  0.5164
 4441SOL    HW223428   9.327   4.612   0.446 -1.8932 -1.7399 -0.2943
 4442SOL     OW23429   0.421   9.602   0.683  0.3734  0.1908  0.1607
 4442SOL    HW123430   0.499   9.559   0.639  0.8229  0.8844  0.2824
 4442SOL    HW223431   0.341   9.593   0.624  0.4497 -0.8459  0.2020
 4443SOL     OW23432   2.936   5.063   0.470  0.2192 -0.5006 -0.0412
 4443SOL    HW123433   2.998   5.056   0.549  0.5136 -1.0078 -0.3148
 4443SOL    HW223434   2.895   4.973   0.452  0.4709 -0.4788 -0.7257
 4444SOL     OW23435   0.337   1.400   1.264  0.0507 -0.1554  0.4711
 4444SOL    HW123436   0.357   1.475   1.201  1.9058 -0.4798  0.6597
 4444SOL    HW223437   0.419   1.346   1.279 -0.7003 -0.8556  2.1640
 4445SOL     OW23438   2.231   3.102   1.086  0.3159 -0.1858 -0.0579
 4445SOL    HW123439   2.306   3.044   1.121  2.7291  1.8882 -1.6362
 4445SOL    HW223440   2.171   3.047   1.028 -0.2644 -2.2186  2.3591
 4446SOL     OW23441   3.451   8.192   2.351  0.6243 -0.4500 -0.1078
 4446SOL    HW123442   3.538   8.226   2.316  0.4683  1.0022  0.8430
 4446SOL    HW223443   3.427   8.242   2.435 -2.2981  0.8887 -1.6664
 4447SOL     OW23444   1.753   3.264   0.468 -0.0795  0.4519  0.3623
 4447SOL    HW123445   1.818   3.339   0.454  1.1409 -0.6373  0.0726
 4447SOL    HW223446   1.687   3.290   0.539 -2.4037  3.5004 -2.7663
 4448SOL     OW23447   1.222   9.509   0.813  0.2698  0.1728 -0.3057
 4448SOL    HW123448   1.123   9.521   0.821  0.2431 -2.0596  4.1424
 4448SOL    HW223449   1.243   9.459   0.729 -2.5763 -1.0361 -0.3460
 4449SOL     OW23450   1.928   2.447   2.138  0.4170 -0.0828  0.0198
 4449SOL    HW123451   1.883   2.360   2.162 -1.0056  1.0998  1.7976
 4449SOL    HW223452   2.003   2.464   2.203 -0.1394  0.6268  0.4886
 4450SOL     OW23453   4.131   4.567   0.814  0.3783 -0.0048 -0.3967
 4450SOL    HW123454   4.073   4.552   0.894 -0.2880 -1.0962 -1.0806
 4450SOL    HW223455   4.130   4.485   0.756 -1.2642  1.7301 -2.8854
 4451SOL     OW23456   8.661   6.509   2.049  0.9627  0.4322 -0.1546
 4451SOL    HW123457   8.635   6.443   1.978 -1.0320 -0.0080  0.9546
 4451SOL    HW223458   8.585   6.522   2.112  1.6258  3.1865  0.1421
 4452SOL     OW23459   8.566   4.178   2.926  0.3470 -0.3345  0.2113
 4452SOL    HW123460   8.537   4.084   2.945 -0.8548 -0.0822 -0.3075
 4452SOL    HW223461   8.602   4.220   3.009 -1.0924 -0.5538  0.9635
 4453SOL     OW23462   3.079   4.664   1.104  0.1806 -0.2413  0.2345
 4453SOL    HW123463   3.146   4.698   1.170  0.1994  1.7886 -0.7878
 4453SOL    HW223464   2.990   4.707   1.122  0.2588  0.5559 -1.2203
 4454SOL     OW23465   9.458   3.616   0.631 -0.1525  0.7404 -0.1543
 4454SOL    HW123466   9.428   3.691   0.690  0.0472  0.5167  0.2360
 4454SOL    HW223467   9.379   3.572   0.590 -0.3886 -0.0233  1.0776
 4455SOL     OW23468   1.263   7.648   0.206 -0.4850 -0.1253 -0.5375
 4455SOL    HW123469   1.195   7.640   0.133 -0.5524  1.9745 -0.7385
 4455SOL    HW223470   1.354   7.659   0.165 -0.5191  1.0208 -0.3278
 4456SOL     OW23471   1.904   2.052   1.268  0.2619  0.4723 -0.6019
 4456SOL    HW123472   1.889   1.963   1.223 -0.1067 -0.8117  1.9669
 4456SOL    HW223473   1.921   2.037   1.365  0.4287  3.2314 -0.1873
 4457SOL     OW23474   9.988   6.144   0.624 -0.3689  0.0164  0.0075
 4457SOL    HW123475  10.007   6.050   0.599  3.9116  1.0532 -1.1116
 4457SOL    HW223476   9.981   6.152   0.723  2.5405 -1.0092  0.3298
 4458SOL     OW23477   2.330   3.646   0.745  0.0402 -0.5592  0.6027
 4458SOL    HW123478   2.313   3.653   0.843  2.7329  0.5852  1.0430
 4458SOL    HW223479   2.307   3.733   0.702 -4.1137 -2.0169 -0.3514
 4459SOL     OW23480   1.952   3.447   0.421 -0.5278 -0.4933 -0.3983
 4459SOL    HW123481   1.887   3.522   0.428  1.0979  0.9873 -0.8966
 4459SOL    HW223482   2.010   3.444   0.503  2.1252  1.4165 -2.1189
 4460SOL     OW23483   8.215   4.581   0.820  0.4148 -0.3579 -0.6300
 4460SOL    HW123484   8.170   4.516   0.882  0.7373 -0.2169 -0.2422
 4460SOL    HW223485   8.175   4.573   0.729  0.5228 -1.1844 -0.6144
 4461SOL     OW23486   0.384   3.618   1.232 -0.2964  0.2689 -0.7281
 4461SOL    HW123487   0.433   3.681   1.171 -0.0781 -0.4159 -1.2686
 4461SOL    HW223488   0.294   3.599   1.193 -0.0098 -0.4723 -1.0366
 4462SOL     OW23489   4.129   9.038   0.707  0.2220 -0.0210  0.5887
 4462SOL    HW123490   4.140   9.126   0.661 -0.5648  0.4975  1.3730
 4462SOL    HW223491   4.085   8.973   0.645  2.1822 -0.3384 -0.5221
 4463SOL     OW23492   9.678   0.601   0.566  0.4959  0.0987 -0.2477
 4463SOL    HW123493   9.681   0.700   0.553  1.3414  0.3132  1.4177
 4463SOL    HW223494   9.769   0.568   0.590 -0.0321 -0.9050  0.4173
 4464SOL     OW23495   1.897   1.815   1.093  0.8624 -0.0850  0.6882
 4464SOL    HW123496   1.858   1.755   1.023  0.8701 -1.4256  1.8255
 4464SOL    HW223497   1.975   1.864   1.054  1.2367 -1.2639 -0.0849
 4465SOL     OW23498   2.916   7.881   0.411 -0.0414 -0.1973 -0.0376
 4465SOL    HW123499   2.906   7.965   0.465 -0.0130  0.0554 -0.4246
 4465SOL    HW223500   2.965   7.813   0.465 -1.5492 -0.5509  0.9068
 4466SOL     OW23501   2.068   1.390   1.672  0.0298  0.2343 -0.7938
 4466SOL    HW123502   2.072   1.434   1.582  2.2071  0.1628 -0.7687
 4466SOL    HW223503   2.157   1.349   1.692 -0.2767  0.6756  1.5958
 4467SOL     OW23504   4.077   9.855   0.026  0.1516  0.7359  0.0048
 4467SOL    HW123505   4.140   9.925   0.057 -1.6754  1.3727  2.4478
 4467SOL    HW223506   4.045   9.877  -0.067  0.3803  2.5970  0.3486
 4468SOL     OW23507   2.326   0.096   0.451 -0.1804  0.1333 -0.0636
 4468SOL    HW123508   2.379   0.162   0.398 -0.8751  0.6706 -0.1041
 4468SOL    HW223509   2.379   0.011   0.462  0.2205  0.2421 -1.0734
 4469SOL     OW23510   0.811   9.401   0.817  0.1270  0.1676  0.4431
 4469SOL    HW123511   0.871   9.474   0.851  0.5153 -0.1442  0.4352
 4469SOL    HW223512   0.856   9.312   0.830 -0.6657 -0.1300  1.1408
 4470SOL     OW23513   9.738   6.455   2.261 -0.3816 -0.2704 -0.5933
 4470SOL    HW123514   9.751   6.543   2.213  0.2278  0.4109  0.7923
 4470SOL    HW223515   9.661   6.463   2.323  1.7473  0.4310  2.0781
 4471SOL     OW23516   1.866   0.851   2.680 -0.1496 -0.7486  0.2425
 4471SOL    HW123517   1.855   0.860   2.581 -0.4575 -1.3663  0.2171
 4471SOL    HW223518   1.830   0.762   2.709 -1.4114  0.0160  1.1010
 4472SOL     OW23519   4.253   0.281   0.362  0.1976  0.3859  1.0809
 4472SOL    HW123520   4.337   0.228   0.347 -0.4613 -0.2318 -0.5748
 4472SOL    HW223521   4.276   0.367   0.408  1.7550  0.2705  0.5576
 4473SOL     OW23522   3.407   5.576   2.648 -0.3240 -0.3310  0.3577
 4473SOL    HW123523   3.335   5.579   2.580 -1.5702  1.8160  1.7013
 4473SOL    HW223524   3.374   5.528   2.730 -0.2496  0.6460  0.9698
 4474SOL     OW23525   0.760   9.096   1.351  0.3840  0.5632  0.1218
 4474SOL    HW123526   0.726   9.007   1.320  2.3740 -0.9622  2.1649
 4474SOL    HW223527   0.762   9.159   1.273  0.7138 -1.7120 -1.7901
 4475SOL     OW23528   2.522   8.760   1.944 -0.3888 -0.0284 -0.8315
 4475SOL    HW123529   2.456   8.811   1.889 -1.7264 -1.6804 -0.7820
 4475SOL    HW223530   2.605   8.744   1.890 -0.0702  1.9098 -0.9501
 4476SOL     OW23531   3.518   2.920   0.272 -0.2096 -0.1066 -0.3922
 4476SOL    HW123532   3.489   2.983   0.200  0.6802  1.1920  0.3568
 4476SOL    HW223533   3.609   2.947   0.306 -0.6931 -0.5529  1.3454
 4477SOL     OW23534   9.843   4.774   2.611 -0.3225 -0.3341 -0.0832
 4477SOL    HW123535   9.768   4.708   2.617 -2.0439  1.5110 -0.8291
 4477SOL    HW223536   9.896   4.756   2.527 -0.6860 -0.8631 -0.2050
 4478SOL     OW23537   0.949   9.850   0.769 -0.4255  0.5892  0.0498
 4478SOL    HW123538   0.971   9.904   0.850  1.9318 -0.0053 -0.1621
 4478SOL    HW223539   0.876   9.895   0.717 -0.2812  2.2132  1.2294
 4479SOL     OW23540   9.682   0.913   1.361  0.2958 -0.2989 -0.1379
 4479SOL    HW123541   9.643   0.976   1.429  1.0271 -1.1563  1.1069
 4479SOL    HW223542   9.661   0.946   1.269  1.7459  2.4623  0.4536
 4480SOL     OW23543   3.209   3.599   2.606 -0.5216 -0.0737  0.3580
 4480SOL    HW123544   3.262   3.553   2.678 -0.8507 -0.1630  0.5414
 4480SOL    HW223545   3.245   3.572   2.517  1.7196  2.1768  0.5043
 4481SOL     OW23546   2.429   2.355   0.224 -0.4963 -0.2143  0.2915
 4481SOL    HW123547   2.508   2.367   0.165 -0.5380  1.4194  0.5517
 4481SOL    HW223548   2.353   2.316   0.171 -1.2674  3.3372 -1.3226
 4482SOL     OW23549   8.853   3.627   2.269  0.6068 -0.0232 -0.0626
 4482SOL    HW123550   8.835   3.626   2.170  1.0522 -1.4038 -0.1447
 4482SOL    HW223551   8.858   3.721   2.301  0.6065  0.4397 -1.3916
 4483SOL     OW23552   2.529   3.520   0.525 -0.2905 -0.2992  0.1174
 4483SOL    HW123553   2.628   3.506   0.520 -0.0940  1.2779 -0.5114
 4483SOL    HW223554   2.510   3.612   0.557 -1.5710 -0.6705  0.4572
 4484SOL     OW23555   1.768   9.309   1.001 -0.1203 -0.0244  0.4369
 4484SOL    HW123556   1.724   9.232   1.048  0.3354 -0.9942 -0.7158
 4484SOL    HW223557   1.745   9.394   1.049 -3.5983 -0.4359 -0.3842
 4485SOL     OW23558   9.735   6.271   1.687 -0.2168 -0.3602 -0.5464
 4485SOL    HW123559   9.790   6.260   1.770 -0.3280  1.0189 -0.2806
 4485SOL    HW223560   9.683   6.187   1.671 -0.3806 -0.5654  0.9143
 4486SOL     OW23561   4.424   0.039   0.268  0.1566 -0.4533  0.7223
 4486SOL    HW123562   4.460  -0.054   0.282 -0.5143 -0.7192  0.6699
 4486SOL    HW223563   4.378   0.044   0.180 -0.1482 -0.1755  0.8975
 4487SOL     OW23564   1.408   6.164   2.694  0.4468  0.5624 -0.2758
 4487SOL    HW123565   1.470   6.089   2.670 -0.1654 -0.2165  0.5426
 4487SOL    HW223566   1.456   6.232   2.749  0.1886 -0.7838  1.6455
 4488SOL     OW23567   4.406   3.217   1.188 -0.5408 -0.2914 -0.6842
 4488SOL    HW123568   4.323   3.169   1.160 -0.5498 -3.4516  4.2874
 4488SOL    HW223569   4.381   3.303   1.234 -0.9246 -0.3286 -0.8190
 4489SOL     OW23570   3.579   2.096   2.729  0.1704 -0.0798 -0.2240
 4489SOL    HW123571   3.614   2.004   2.713  0.5753  0.1074 -0.4058
 4489SOL    HW223572   3.648   2.164   2.705 -0.0260  0.2678  0.1732
 4490SOL     OW23573   8.284   6.103   2.391 -0.2701 -0.1802 -0.1314
 4490SOL    HW123574   8.226   6.049   2.330  0.7858 -1.2807 -0.1792
 4490SOL    HW223575   8.380   6.093   2.363  0.0705  0.5627  0.7530
 4491SOL     OW23576   9.787   6.572   1.368 -0.2299 -0.1576  0.2599
 4491SOL    HW123577   9.817   6.601   1.277 -4.6628  2.1127 -0.6145
 4491SOL    HW223578   9.859   6.592   1.435  1.8493  1.1027 -2.2711
 4492SOL     OW23579   2.544   0.053   2.250 -0.1790 -0.5604 -0.3189
 4492SOL    HW123580   2.484   0.112   2.304  1.2127  0.0329  0.5893
 4492SOL    HW223581   2.489  -0.017   2.204 -1.6619  0.4736 -0.1535
 4493SOL     OW23582   2.100   6.398   1.278 -0.3236  0.1520 -0.1215
 4493SOL    HW123583   2.030   6.463   1.246 -0.6025 -0.2033 -0.2304
 4493SOL    HW223584   2.089   6.311   1.230  1.3148  0.6455 -1.4874
 4494SOL     OW23585   9.642   5.218   2.293  0.1389  0.0537 -0.4633
 4494SOL    HW123586   9.587   5.284   2.241 -3.0215 -2.1046 -0.0519
 4494SOL    HW223587   9.648   5.133   2.242  1.2982 -0.4322  0.4772
 4495SOL     OW23588   3.308   0.236   1.738  0.0438 -0.0919 -0.2330
 4495SOL    HW123589   3.295   0.196   1.648 -0.5557  0.4463 -0.3854
 4495SOL    HW223590   3.243   0.311   1.752 -0.4813 -0.7467  0.9859
 4496SOL     OW23591   2.033   6.725   2.675 -0.6701  0.6423 -0.1281
 4496SOL    HW123592   2.062   6.748   2.582 -0.9956  2.9056  0.2874
 4496SOL    HW223593   2.028   6.809   2.729 -0.8092 -0.6209  1.8424
 4497SOL     OW23594   1.621   7.248   2.182 -0.3134  0.5786 -0.1330
 4497SOL    HW123595   1.604   7.294   2.095 -1.7163 -2.7503 -1.7005
 4497SOL    HW223596   1.546   7.268   2.245 -1.8164 -0.8679 -1.4082
 4498SOL     OW23597   2.259   6.104   1.945  0.1477  0.0761  0.0742
 4498SOL    HW123598   2.359   6.104   1.941  0.2767  2.7743  2.0434
 4498SOL    HW223599   2.228   6.014   1.974  2.0843 -0.4067  0.7754
 4499SOL     OW23600   0.628   0.324   1.534  0.2841  0.5692  0.4633
 4499SOL    HW123601   0.725   0.343   1.518  0.9709 -2.1238  1.1504
 4499SOL    HW223602   0.589   0.277   1.455  0.9246 -3.0568  2.2178
 4500SOL     OW23603   1.774   1.678   0.611 -0.9293 -0.2317  0.3382
 4500SOL    HW123604   1.765   1.762   0.557 -3.1541 -0.5048  0.2222
 4500SOL    HW223605   1.763   1.599   0.552 -1.1090 -0.5684  0.8170
 4501SOL     OW23606   9.682   2.176   0.330  0.4692 -0.4975 -0.5849
 4501SOL    HW123607   9.773   2.215   0.342  1.0796 -2.3714  1.2216
 4501SOL    HW223608   9.613   2.249   0.336  1.6886  0.5769  0.7616
 4502SOL     OW23609   9.792   5.591   0.751  0.2112  0.2718 -0.5172
 4502SOL    HW123610   9.753   5.576   0.842 -0.7077 -0.8398 -1.0927
 4502SOL    HW223611   9.857   5.668   0.755 -1.2316  1.4678  0.6663
 4503SOL     OW23612   8.795   4.279   2.132  1.0909 -0.7355  0.0875
 4503SOL    HW123613   8.821   4.183   2.138  0.9024 -0.7073  1.4207
 4503SOL    HW223614   8.875   4.334   2.108  0.9799 -1.3362 -1.7247
 4504SOL     OW23615   2.951   2.277   1.018  0.2186  0.0174 -0.2173
 4504SOL    HW123616   2.925   2.369   0.991 -2.3618 -0.8891 -1.0114
 4504SOL    HW223617   3.033   2.249   0.968  0.4961  1.5567 -0.6311
 4505SOL     OW23618   4.926   3.777   1.409 -0.5357  0.1936 -0.3733
 4505SOL    HW123619   4.959   3.756   1.501 -0.3398  0.3195 -0.4142
 4505SOL    HW223620   4.951   3.871   1.386  1.5973 -0.6374 -1.5168
 4506SOL     OW23621   2.047   9.754   2.741  0.0568  0.4957 -0.0552
 4506SOL    HW123622   2.033   9.844   2.698 -0.6303  0.8561  0.9040
 4506SOL    HW223623   2.143   9.744   2.767 -0.1140  1.4961  1.0141
 4507SOL     OW23624   2.134   8.515   2.244  0.5689 -0.6127 -0.6656
 4507SOL    HW123625   2.035   8.525   2.251  0.7406  0.2615  0.8423
 4507SOL    HW223626   2.161   8.422   2.270  0.2400 -0.5253 -0.0162
 4508SOL     OW23627   2.270   5.689   0.607  0.3026 -0.0857  0.0574
 4508SOL    HW123628   2.311   5.598   0.615  1.6073  0.5655  1.1277
 4508SOL    HW223629   2.292   5.742   0.689 -1.3687  0.8318 -0.0778
 4509SOL     OW23630   0.091   3.544   0.619 -0.2364 -0.2659 -0.2632
 4509SOL    HW123631   0.038   3.628   0.617  0.1143  0.0280  1.4342
 4509SOL    HW223632   0.042   3.472   0.570 -1.7040  0.2840  0.3521
 4510SOL     OW23633   9.986   7.773   2.501  0.1690 -1.0434 -0.1658
 4510SOL    HW123634   9.945   7.835   2.567 -1.0654 -0.1910 -1.6927
 4510SOL    HW223635  10.054   7.821   2.446  1.3000 -1.7826  0.5591
 4511SOL     OW23636   3.483   1.263   0.238  0.2648 -0.9231  0.1894
 4511SOL    HW123637   3.506   1.282   0.333 -1.6734 -0.8046  0.6532
 4511SOL    HW223638   3.427   1.337   0.201  1.6464 -0.5971 -1.2906
 4512SOL     OW23639   9.540   8.435   1.509 -0.0729 -0.2544  0.1222
 4512SOL    HW123640   9.545   8.384   1.424  3.1326 -1.1065  0.7608
 4512SOL    HW223641   9.501   8.378   1.581 -1.1819 -0.0868 -0.3241
 4513SOL     OW23642   2.999   6.418   1.270 -0.3291  0.9552 -0.6391
 4513SOL    HW123643   3.000   6.392   1.366 -2.9507  0.6094 -0.6599
 4513SOL    HW223644   3.011   6.337   1.213  2.6703  1.3414 -0.6353
 4514SOL     OW23645   5.113   3.123   1.411  0.4197  0.1575  0.4248
 4514SOL    HW123646   5.196   3.127   1.355  1.4685 -1.1410  1.8539
 4514SOL    HW223647   5.100   3.211   1.456  1.5835  0.0581  0.9767
 4515SOL     OW23648   0.251   0.268   2.040  0.2336  0.3480 -0.0718
 4515SOL    HW123649   0.327   0.323   2.007  0.5924 -0.3968 -0.5007
 4515SOL    HW223650   0.182   0.260   1.967  0.1437  0.3006  0.0180
 4516SOL     OW23651   2.319   6.724   1.996 -0.1962  0.4235 -0.0008
 4516SOL    HW123652   2.262   6.779   1.936  1.0943  3.2384  1.2490
 4516SOL    HW223653   2.412   6.719   1.960 -0.3638 -1.2052 -0.2472
 4517SOL     OW23654   1.837   5.786   1.519 -0.4468 -0.5043 -0.3303
 4517SOL    HW123655   1.815   5.867   1.574 -0.8310 -0.4588 -0.5544
 4517SOL    HW223656   1.935   5.767   1.527 -0.4923 -0.4716  0.3398
 4518SOL     OW23657   1.159   5.991   2.600  0.7754  0.7276  0.7839
 4518SOL    HW123658   1.069   5.976   2.640  0.7152  1.5864  0.9836
 4518SOL    HW223659   1.228   5.987   2.672  0.8509  0.5096  0.6990
 4519SOL     OW23660   4.255   2.284   1.814 -0.5716  0.5274 -0.2684
 4519SOL    HW123661   4.207   2.249   1.734 -0.4459 -0.2520 -0.0075
 4519SOL    HW223662   4.304   2.368   1.790 -1.2091  0.7462 -0.7958
 4520SOL     OW23663   3.344   4.568   2.918 -0.4731  0.2675 -0.3687
 4520SOL    HW123664   3.246   4.551   2.926 -0.6848  1.5564 -0.0920
 4520SOL    HW223665   3.378   4.528   2.834 -0.7063 -2.5386  0.8251
 4521SOL     OW23666   9.584   0.985   1.075 -0.5585  0.1566 -0.2112
 4521SOL    HW123667   9.532   1.040   1.009 -0.0674  0.0067 -0.7293
 4521SOL    HW223668   9.608   0.897   1.034  0.8177  0.5477 -0.2825
 4522SOL     OW23669   9.881   7.377   1.327 -0.2603 -0.0041 -1.1353
 4522SOL    HW123670   9.909   7.465   1.287 -2.1097 -0.5256 -3.6890
 4522SOL    HW223671   9.934   7.303   1.286 -1.3961 -0.4366 -1.8595
 4523SOL     OW23672   1.796   3.146   1.614  0.2651 -0.0698 -0.0491
 4523SOL    HW123673   1.711   3.094   1.605 -0.1695  0.1406  2.4235
 4523SOL    HW223674   1.867   3.087   1.652  1.3175 -0.3085 -2.3313
 4524SOL     OW23675   0.754   1.862   0.292  0.0529  0.6104  0.3604
 4524SOL    HW123676   0.696   1.932   0.251  0.4753  0.3849 -0.6326
 4524SOL    HW223677   0.769   1.788   0.226 -0.9980 -0.7869  1.6359
 4525SOL     OW23678   0.897   2.217   0.233  0.7335  0.2086 -0.5227
 4525SOL    HW123679   0.856   2.284   0.295  0.6022 -0.0940 -0.2863
 4525SOL    HW223680   0.875   2.242   0.138 -1.3937 -0.8940 -0.3224
 4526SOL     OW23681   2.094   7.627   1.668  0.5522 -0.8979 -0.2449
 4526SOL    HW123682   2.067   7.722   1.685 -0.3067 -0.7870 -2.0700
 4526SOL    HW223683   2.157   7.597   1.739  0.7668  1.0194  0.4076
 4527SOL     OW23684   3.685   2.367   0.330  0.2147 -0.5156  0.0990
 4527SOL    HW123685   3.699   2.450   0.276  1.5911 -0.3849  0.6352
 4527SOL    HW223686   3.601   2.375   0.383 -1.0506 -0.5754 -1.8712
 4528SOL     OW23687   4.083   8.498   2.198  0.2363 -0.0529  0.4926
 4528SOL    HW123688   4.083   8.598   2.205 -2.1104 -0.0902  1.4109
 4528SOL    HW223689   4.142   8.459   2.268 -1.1856  0.6063  2.0829
 4529SOL     OW23690   3.291   4.625   2.403  0.1334 -0.4566  0.8842
 4529SOL    HW123691   3.305   4.723   2.399  0.2974 -0.4506  1.4714
 4529SOL    HW223692   3.201   4.606   2.443 -0.4128 -0.5328 -0.3493
 4530SOL     OW23693   1.555   0.275   1.949  0.1937 -0.6437 -0.3444
 4530SOL    HW123694   1.521   0.309   2.037  0.2883 -0.7428 -0.2685
 4530SOL    HW223695   1.494   0.204   1.915 -1.2278  1.1321 -1.5828
 4531SOL     OW23696   9.560   5.099   0.314 -0.0839  0.1629 -0.4251
 4531SOL    HW123697   9.540   5.037   0.238  0.1579  0.7372 -0.9656
 4531SOL    HW223698   9.560   5.193   0.281 -2.6881  0.6366  0.8265
 4532SOL     OW23699   3.052   4.527   2.557 -0.1979 -0.0178 -0.0655
 4532SOL    HW123700   3.087   4.521   2.651  0.1721 -0.5043 -0.2355
 4532SOL    HW223701   3.032   4.435   2.522 -0.1776  0.1513 -0.5259
 4533SOL     OW23702   2.730   7.474   0.645 -0.4346  0.4675 -0.3538
 4533SOL    HW123703   2.717   7.526   0.560 -2.9264 -0.2960 -0.4669
 4533SOL    HW223704   2.728   7.536   0.723  0.8593  1.0470 -0.7626
 4534SOL     OW23705   2.226   7.447   0.608  0.3668  0.2214  0.1613
 4534SOL    HW123706   2.134   7.452   0.568 -0.2640 -0.9524  1.4035
 4534SOL    HW223707   2.286   7.513   0.563 -1.0999  1.0408 -0.6284
 4535SOL     OW23708   9.763   3.213   2.491  0.5082  0.4417 -0.2066
 4535SOL    HW123709   9.716   3.128   2.466  1.0590  0.1338 -0.2260
 4535SOL    HW223710   9.849   3.190   2.538  0.8254  0.9863 -0.5152
 4536SOL     OW23711   2.811   4.251   0.732  0.3897  0.0436 -0.0230
 4536SOL    HW123712   2.739   4.190   0.696  0.1677  1.3095 -1.8160
 4536SOL    HW223713   2.891   4.247   0.672  0.2837  1.6830 -0.2968
 4537SOL     OW23714   0.491   0.211   1.340  0.6321 -0.6331 -0.6221
 4537SOL    HW123715   0.422   0.235   1.408  0.4061  0.6450 -1.2957
 4537SOL    HW223716   0.452   0.146   1.274 -0.0052  0.2644 -1.1367
 4538SOL     OW23717   8.855   4.211   1.182  0.1885 -0.4400 -0.0849
 4538SOL    HW123718   8.826   4.261   1.101 -2.1587  0.2256  1.1248
 4538SOL    HW223719   8.903   4.272   1.244 -0.9612 -0.1216  0.5101
 4539SOL     OW23720   2.701   8.248   0.295  0.3101  0.3027 -0.0118
 4539SOL    HW123721   2.789   8.295   0.284  0.1287  0.7613  0.4719
 4539SOL    HW223722   2.673   8.208   0.208  1.1427 -0.1033 -0.0974
 4540SOL     OW23723   0.981   7.346   1.985 -0.1063  0.4963 -0.3687
 4540SOL    HW123724   1.076   7.358   2.014 -0.3586 -0.0506  0.7096
 4540SOL    HW223725   0.944   7.262   2.025 -1.4544  1.3867  0.2949
 4541SOL     OW23726   9.918   1.164   0.684 -0.1115 -0.8518  0.0977
 4541SOL    HW123727   9.986   1.177   0.612 -0.6066 -3.4304 -0.9106
 4541SOL    HW223728   9.833   1.128   0.643 -0.7901 -1.2465  1.8187
 4542SOL     OW23729   1.313   8.231   2.260  0.2284 -0.1956 -0.9741
 4542SOL    HW123730   1.332   8.289   2.340 -1.3305  1.2060 -1.5865
 4542SOL    HW223731   1.267   8.147   2.291  0.8287 -0.2704 -0.2629
 4543SOL     OW23732   2.600   1.196   0.758  0.0671 -0.1031  0.6269
 4543SOL    HW123733   2.569   1.273   0.814 -1.9358 -0.9342  0.7177
 4543SOL    HW223734   2.556   1.200   0.668  1.2620 -0.2025  0.0313
 4544SOL     OW23735   1.523   4.430   1.323  0.4446  0.0747 -0.0063
 4544SOL    HW123736   1.531   4.482   1.238  0.8298  0.3865  0.2211
 4544SOL    HW223737   1.602   4.369   1.332  0.3947  0.0288  0.1185
 4545SOL     OW23738   4.130   8.721   1.289  0.2634 -0.4775 -0.5026
 4545SOL    HW123739   4.051   8.777   1.263  2.2839  1.8948 -1.7579
 4545SOL    HW223740   4.213   8.762   1.253  2.0410 -3.3126  0.1966
 4546SOL     OW23741   9.684   3.165   0.524  0.0325  0.5374 -0.0038
 4546SOL    HW123742   9.688   3.260   0.556 -1.0303 -0.6063  3.8698
 4546SOL    HW223743   9.603   3.120   0.564 -0.5658 -1.4908 -3.3328
 4547SOL     OW23744   0.419   2.694   1.771 -0.3317 -0.5827 -1.0880
 4547SOL    HW123745   0.325   2.708   1.740 -0.3088  0.2941 -0.7710
 4547SOL    HW223746   0.421   2.627   1.845 -0.8018  0.0299 -0.5230
 4548SOL     OW23747   9.931   9.693   1.094 -0.0174  0.9447  0.1735
 4548SOL    HW123748   9.860   9.752   1.054  0.9096  0.1639 -2.7691
 4548SOL    HW223749   9.937   9.608   1.041  0.5302 -0.6464  2.7170
 4549SOL     OW23750   2.567   3.257   1.123  0.3059 -0.4451  0.2821
 4549SOL    HW123751   2.482   3.250   1.175  0.3977  0.6145  0.5967
 4549SOL    HW223752   2.545   3.272   1.027  0.1357 -1.0819  0.2204
 4550SOL     OW23753   1.493   5.150   0.947  0.2921 -0.2626 -0.3685
 4550SOL    HW123754   1.454   5.199   1.024  0.8020  0.7967 -0.7802
 4550SOL    HW223755   1.420   5.130   0.880 -0.4051 -2.3260  0.9448
 4551SOL     OW23756   3.706   2.118   0.907 -0.6234  0.3001  0.1674
 4551SOL    HW123757   3.697   2.028   0.865  1.6305  1.4091 -2.9389
 4551SOL    HW223758   3.665   2.187   0.847  0.7295  1.6901  0.7930
 4552SOL     OW23759   1.445   9.714   2.743  0.1562 -0.3827 -0.8516
 4552SOL    HW123760   1.366   9.694   2.685  0.7636 -0.0738 -1.7974
 4552SOL    HW223761   1.419   9.780   2.813 -1.4054 -3.0811  1.1929
 4553SOL     OW23762   2.981   0.656   0.273  0.3440  0.2194 -0.5785
 4553SOL    HW123763   2.896   0.606   0.254  0.8030 -0.0646 -2.0054
 4553SOL    HW223764   3.024   0.619   0.355 -0.7372  0.1487 -0.0317
 4554SOL     OW23765   0.627   1.939   2.111  0.1156  1.3133 -0.1721
 4554SOL    HW123766   0.591   2.003   2.179  1.1087 -0.7900  2.4475
 4554SOL    HW223767   0.722   1.918   2.132  0.6775  1.1668 -2.6941
 4555SOL     OW23768   9.425   6.310   1.145  0.0018  0.0901  0.0403
 4555SOL    HW123769   9.504   6.294   1.205  0.0806  2.5157  0.6466
 4555SOL    HW223770   9.374   6.225   1.134  1.7231 -1.1155  1.0479
 4556SOL     OW23771   0.220   8.601   0.303  0.5077  0.5246  0.4627
 4556SOL    HW123772   0.311   8.574   0.273  0.8316  1.7652  0.3066
 4556SOL    HW223773   0.228   8.670   0.376 -0.3089  1.8935 -0.7225
 4557SOL     OW23774   2.180   4.006   2.800 -0.2345 -0.4174  0.3554
 4557SOL    HW123775   2.163   4.102   2.778 -1.4771 -0.4232  1.2596
 4557SOL    HW223776   2.194   3.954   2.715 -0.5373  0.3878 -0.1885
 4558SOL     OW23777   3.384   2.549   0.067  0.2445 -0.3973  0.0067
 4558SOL    HW123778   3.455   2.595   0.014 -0.1047 -2.3148 -2.2038
 4558SOL    HW223779   3.397   2.450   0.061 -1.2488 -0.7008  1.5172
 4559SOL     OW23780   1.409   0.163   2.288 -0.2169 -0.0241 -0.7581
 4559SOL    HW123781   1.381   0.111   2.368 -0.3229  0.9984 -0.1288
 4559SOL    HW223782   1.461   0.103   2.226 -0.2782 -0.8541 -0.0138
 4560SOL     OW23783   2.606   0.024   2.715 -0.9970 -0.1889  0.0618
 4560SOL    HW123784   2.547   0.086   2.768 -1.7050  1.0322 -2.0711
 4560SOL    HW223785   2.549  -0.040   2.664 -0.3729 -0.6426 -0.0632
 4561SOL     OW23786   1.237   1.903   2.572 -0.6997  0.4272 -0.4900
 4561SOL    HW123787   1.179   1.929   2.649  2.6804  4.5280  0.8812
 4561SOL    HW223788   1.270   1.985   2.525  1.5952 -1.8274 -3.0326
 4562SOL     OW23789   3.268   2.458   2.678 -0.1007 -0.1635  0.5981
 4562SOL    HW123790   3.239   2.404   2.757  0.1298 -0.5542  0.4161
 4562SOL    HW223791   3.368   2.465   2.677 -0.1315  0.2889  0.6360
 4563SOL     OW23792   9.951   3.675   1.389 -0.0746 -0.2383 -0.2610
 4563SOL    HW123793   9.884   3.689   1.317 -0.4180  2.1747  0.4876
 4563SOL    HW223794   9.905   3.657   1.476  0.2612  0.0419 -0.0191
 4564SOL     OW23795   3.426   5.713   0.629 -0.2877  0.2432  0.1073
 4564SOL    HW123796   3.373   5.741   0.549 -1.9320  0.7739  1.3477
 4564SOL    HW223797   3.494   5.782   0.650 -0.6937  0.7119 -0.1084
 4565SOL     OW23798   0.419   4.889   0.253 -0.6302  0.0627  0.8639
 4565SOL    HW123799   0.415   4.794   0.284 -1.5412 -0.1636  0.0836
 4565SOL    HW223800   0.449   4.947   0.328  2.0318 -1.1036  0.7660
 4566SOL     OW23801   4.193   5.064   2.777  0.8046  0.5727 -0.3777
 4566SOL    HW123802   4.288   5.040   2.798  1.0823  1.1014 -1.0024
 4566SOL    HW223803   4.168   5.146   2.828 -0.1987 -1.1019  1.8887
 4567SOL     OW23804   2.000   2.350   0.928 -0.3698  0.3373  0.1043
 4567SOL    HW123805   1.964   2.311   1.012 -2.0465  0.5060 -0.5263
 4567SOL    HW223806   1.931   2.408   0.885  0.2798 -0.1485 -1.6564
 4568SOL     OW23807   1.222   4.307   1.852  0.0317 -0.2497 -0.2149
 4568SOL    HW123808   1.240   4.220   1.897  2.6225  0.5035  0.2884
 4568SOL    HW223809   1.136   4.346   1.887 -0.4359 -1.9319  0.5402
 4569SOL     OW23810   1.983   0.480   1.745  0.0401 -0.1165  0.1113
 4569SOL    HW123811   1.887   0.460   1.766  0.0200 -0.7041 -0.5085
 4569SOL    HW223812   2.021   0.541   1.814 -0.1106 -1.7163  1.6323
 4570SOL     OW23813   0.274   6.758   0.948 -0.1316  0.3492  0.2184
 4570SOL    HW123814   0.340   6.795   1.013  0.8365 -1.9750  0.5951
 4570SOL    HW223815   0.321   6.695   0.886 -1.5788  0.4223 -0.9630
 4571SOL     OW23816   2.147   0.847   1.645 -0.3552  0.3698 -0.0687
 4571SOL    HW123817   2.095   0.773   1.601 -0.0937 -0.4711  1.0265
 4571SOL    HW223818   2.098   0.880   1.725 -0.7580  1.8079 -0.8841
 4572SOL     OW23819   0.115   0.321   1.716 -0.1171 -0.2033 -0.2712
 4572SOL    HW123820   0.163   0.379   1.649  0.6402 -0.1911  0.2715
 4572SOL    HW223821   0.108   0.229   1.679 -1.2267  0.1940 -1.0917
 4573SOL     OW23822   0.325   0.111   2.784  0.0908  0.3334  0.1201
 4573SOL    HW123823   0.261   0.188   2.784 -0.8625 -0.4324  1.6253
 4573SOL    HW223824   0.328   0.070   2.693 -0.4835  1.2570 -0.3244
 4574SOL     OW23825   0.159   9.608   0.150  0.5531 -0.6912 -0.3997
 4574SOL    HW123826   0.139   9.664   0.069  2.6861 -0.0701 -0.5446
 4574SOL    HW223827   0.190   9.667   0.224  3.1245 -1.6583 -0.6465
 4575SOL     OW23828   4.047   0.041   2.780 -0.1124  0.0276  0.3980
 4575SOL    HW123829   4.109   0.101   2.730 -1.0839  0.8484  0.1572
 4575SOL    HW223830   4.003   0.092   2.854 -1.1196 -0.3305  0.0545
 4576SOL     OW23831   3.220   2.143   2.219  0.0807 -0.2521 -0.2480
 4576SOL    HW123832   3.311   2.147   2.260  0.3070  0.8019 -0.8479
 4576SOL    HW223833   3.156   2.197   2.275  0.3404  0.9981 -1.1491
 4577SOL     OW23834   0.310   8.873   1.447 -0.3578  0.2433  0.0208
 4577SOL    HW123835   0.399   8.914   1.427 -0.3950  0.6511  0.6818
 4577SOL    HW223836   0.242   8.912   1.385 -0.3890  1.1632  0.6267
 4578SOL     OW23837   0.513   5.249   1.379  0.4568  0.5271 -0.0711
 4578SOL    HW123838   0.541   5.308   1.455  0.4755 -0.4409  0.6799
 4578SOL    HW223839   0.440   5.188   1.409 -0.2986  0.8761 -1.1462
 4579SOL     OW23840   1.573   3.714   1.376 -0.2405 -0.5017 -0.0713
 4579SOL    HW123841   1.587   3.808   1.345  0.0246 -0.7615 -0.7428
 4579SOL    HW223842   1.493   3.710   1.437 -1.1410 -0.0843 -1.2140
 4580SOL     OW23843   9.636   7.744   1.074  0.3654  0.3421 -0.5001
 4580SOL    HW123844   9.617   7.683   1.150  0.9840  1.2341  0.3792
 4580SOL    HW223845   9.550   7.781   1.038  0.1283  0.5296  0.2619
 4581SOL     OW23846   1.379   1.840   1.529  0.0309 -0.1108 -0.1592
 4581SOL    HW123847   1.282   1.828   1.547  0.2806 -1.6358  0.2297
 4581SOL    HW223848   1.428   1.856   1.615  0.3994 -1.4260 -0.1124
 4582SOL     OW23849   8.555   6.086   2.361  0.5506  0.0095 -0.3712
 4582SOL    HW123850   8.588   6.062   2.270  0.0632  0.7860 -0.7531
 4582SOL    HW223851   8.607   6.164   2.396 -0.0188  0.4143 -0.4382
 4583SOL     OW23852   1.434   9.207   0.462 -0.4382 -0.1899  0.3897
 4583SOL    HW123853   1.481   9.212   0.551 -0.3636  0.0949  0.3366
 4583SOL    HW223854   1.353   9.266   0.464 -0.1091  0.2782  0.0761
 4584SOL     OW23855   4.106   1.763   2.705  0.7915 -0.2854  0.3038
 4584SOL    HW123856   4.205   1.763   2.720  0.8657 -0.0551 -0.1862
 4584SOL    HW223857   4.060   1.781   2.791  1.2039  0.5232  0.3633
 4585SOL     OW23858   9.619   3.204   0.270  0.3578  0.0648 -0.1423
 4585SOL    HW123859   9.664   3.194   0.359  1.2770  0.1999 -0.5842
 4585SOL    HW223860   9.604   3.113   0.231 -0.0743  0.0037  0.1630
 4586SOL     OW23861   3.294   9.973   0.245 -0.3126 -0.3447  0.0086
 4586SOL    HW123862   3.241   9.892   0.271 -1.2314  0.5079  0.8871
 4586SOL    HW223863   3.368   9.947   0.183  1.3624 -2.3381  2.7397
 4587SOL     OW23864   9.840   8.098   2.433  0.9627 -0.3099 -0.3617
 4587SOL    HW123865   9.773   8.169   2.410  0.8822  0.0259  0.8743
 4587SOL    HW223866   9.799   8.008   2.420  1.4386 -0.1872 -3.0739
 4588SOL     OW23867   1.409   7.349   0.636  0.0556 -0.0904  0.5761
 4588SOL    HW123868   1.456   7.297   0.708  1.3317 -0.8681 -0.8047
 4588SOL    HW223869   1.475   7.384   0.571 -1.0353  1.2338  0.1628
 4589SOL     OW23870   1.100   9.753   0.566  0.0352  0.3573 -0.5674
 4589SOL    HW123871   1.056   9.794   0.646 -0.2134 -0.3353 -0.3426
 4589SOL    HW223872   1.106   9.821   0.493 -0.1813  0.8536 -0.1318
 4590SOL     OW23873   9.555   5.779   1.835  0.1476  0.6639  0.2378
 4590SOL    HW123874   9.461   5.746   1.827  0.8459 -0.9519 -2.0611
 4590SOL    HW223875   9.571   5.814   1.927 -2.5436  0.4844  0.8143
 4591SOL     OW23876   0.411   1.562   0.820  0.1803 -0.4566  0.1969
 4591SOL    HW123877   0.465   1.481   0.801 -1.0359 -1.8447  2.3838
 4591SOL    HW223878   0.429   1.594   0.913 -0.3225  1.0247 -0.1833
 4592SOL     OW23879   3.985   3.941   1.450  0.1387  0.3487 -0.4447
 4592SOL    HW123880   3.938   3.904   1.369  1.3202 -0.5063 -0.7415
 4592SOL    HW223881   4.008   3.866   1.512 -0.1303  0.9323  0.3648
 4593SOL     OW23882   2.515   4.372   0.738 -0.4464 -0.0429 -0.1850
 4593SOL    HW123883   2.554   4.288   0.701 -1.3618 -0.6725  0.2544
 4593SOL    HW223884   2.469   4.353   0.825  0.3667  1.1340  0.5208
 4594SOL     OW23885   9.766   5.190   1.586  0.3265 -0.0116  0.0626
 4594SOL    HW123886   9.764   5.190   1.686  0.2755  1.5307  0.0788
 4594SOL    HW223887   9.674   5.177   1.550  0.4680 -1.4799  0.1949
 4595SOL     OW23888   2.045   2.008   0.960 -0.1965 -0.4323  0.1258
 4595SOL    HW123889   2.087   1.986   0.872  1.8325 -1.8410  1.4141
 4595SOL    HW223890   2.104   2.069   1.012 -1.5423  0.6692  0.4040
 4596SOL     OW23891   2.672   3.071   1.719  0.0487  0.4206  0.4526
 4596SOL    HW123892   2.660   3.170   1.724  2.3459  0.7474 -0.1349
 4596SOL    HW223893   2.615   3.033   1.646 -0.0026  1.4432 -0.0349
 4597SOL     OW23894   3.284   9.105   0.589 -0.0732 -0.3535  0.6405
 4597SOL    HW123895   3.236   9.192   0.598 -1.2900 -0.9635  0.1789
 4597SOL    HW223896   3.361   9.115   0.526 -0.6203  0.2106  0.0654
 4598SOL     OW23897   9.739   6.348   0.891 -0.7422  0.2845 -0.4965
 4598SOL    HW123898   9.700   6.433   0.925  0.6304  0.4935  0.5722
 4598SOL    HW223899   9.836   6.343   0.915 -0.4054 -0.8159 -1.9984
 4599SOL     OW23900   2.348   9.037   2.645 -0.1531 -0.1087 -0.0461
 4599SOL    HW123901   2.269   8.990   2.605 -0.5770  1.4574 -1.0773
 4599SOL    HW223902   2.411   9.064   2.572  1.5229 -1.6319  0.7926
 4600SOL     OW23903   3.560   0.395   0.439 -0.2185  0.5202 -0.1895
 4600SOL    HW123904   3.477   0.351   0.473  0.4168  0.6692  1.5984
 4600SOL    HW223905   3.629   0.397   0.512  0.4103  2.8195 -0.8158
 4601SOL     OW23906   0.740   7.617   2.862  0.9647 -0.6357  0.4782
 4601SOL    HW123907   0.642   7.612   2.839  0.9339 -0.9846  0.6870
 4601SOL    HW223908   0.792   7.562   2.796  1.0181 -0.4796  0.3890
 4602SOL     OW23909   9.736   5.238   0.620 -0.3425 -0.5008  0.5149
 4602SOL    HW123910   9.728   5.139   0.608 -0.2535 -0.2608 -1.8157
 4602SOL    HW223911   9.831   5.261   0.643  0.2519 -0.7611 -1.5348
 4603SOL     OW23912   2.746   0.139   1.407  0.0155 -0.5072 -0.5214
 4603SOL    HW123913   2.822   0.115   1.347  0.4847  0.9172 -0.5138
 4603SOL    HW223914   2.780   0.153   1.500 -0.6395 -2.2554 -0.0023
 4604SOL     OW23915   9.376   5.751   2.229  0.6316  0.6207  0.1635
 4604SOL    HW123916   9.403   5.743   2.133  0.3503  1.1510  0.0368
 4604SOL    HW223917   9.408   5.671   2.280  0.2748  0.0553 -0.4951
 4605SOL     OW23918   8.848   3.871   2.443  0.2712  0.5543 -0.6302
 4605SOL    HW123919   8.781   3.920   2.499  0.9111 -0.7723  1.3490
 4605SOL    HW223920   8.939   3.880   2.484  0.4271 -2.1025 -0.3286
 4606SOL     OW23921   9.241   5.198   2.115  0.5657  0.8231  0.1329
 4606SOL    HW123922   9.263   5.278   2.171  1.5549  0.4249  0.3355
 4606SOL    HW223923   9.240   5.116   2.172 -1.8146  0.8479  0.1835
 4607SOL     OW23924   4.080   3.890   2.205  0.4849  0.1095  0.2346
 4607SOL    HW123925   4.010   3.956   2.177  1.0641  1.3187  1.5331
 4607SOL    HW223926   4.084   3.887   2.305  2.1237 -0.1147  0.1687
 4608SOL     OW23927   9.602   4.595   1.988  0.0965  0.2351 -0.5352
 4608SOL    HW123928   9.620   4.615   1.892 -0.1888  1.2685 -0.3820
 4608SOL    HW223929   9.675   4.537   2.025  2.5050  3.2972 -0.2548
 4609SOL     OW23930   9.013   4.431   2.728 -0.1649  0.0622 -0.2902
 4609SOL    HW123931   9.099   4.480   2.743  0.2470 -0.5977 -0.4967
 4609SOL    HW223932   9.030   4.333   2.727 -1.0171 -0.0940  0.2602
 4610SOL     OW23933   1.119   1.640   2.497 -0.1216 -0.5175 -0.1144
 4610SOL    HW123934   1.116   1.582   2.578 -1.1447  0.0262  0.2409
 4610SOL    HW223935   1.185   1.713   2.510 -0.2231 -0.4826  0.1864
 4611SOL     OW23936   9.887   3.044   2.027  0.3052 -0.3886 -0.2643
 4611SOL    HW123937   9.979   3.064   1.994 -0.0878  1.2600 -0.3789
 4611SOL    HW223938   9.834   3.128   2.035 -1.0368 -1.2534  0.3146
 4612SOL     OW23939   9.685   2.136   1.389  0.3402 -0.0398 -0.1383
 4612SOL    HW123940   9.772   2.134   1.439  1.1464  0.9771 -1.4528
 4612SOL    HW223941   9.656   2.231   1.377  0.0418 -0.2862 -1.3939
 4613SOL     OW23942   9.620   7.474   2.280 -0.2483 -0.2993 -0.2356
 4613SOL    HW123943   9.637   7.393   2.223  0.5207 -1.0554  1.0592
 4613SOL    HW223944   9.563   7.448   2.358 -1.8131  0.8616 -0.9694
 4614SOL     OW23945   2.378   2.549   0.374  0.6991 -0.6879 -0.3116
 4614SOL    HW123946   2.310   2.587   0.311  0.1827 -0.3681  0.4262
 4614SOL    HW223947   2.411   2.461   0.339  0.2042 -0.6495 -0.8789
 4615SOL     OW23948   1.378   3.129   2.745 -0.3874  0.1110  0.1908
 4615SOL    HW123949   1.330   3.040   2.745  1.4732 -0.9146  0.0435
 4615SOL    HW223950   1.387   3.161   2.839  1.0297 -1.0469  0.4794
 4616SOL     OW23951   9.897   7.821   0.961  0.0538 -0.1771  0.4486
 4616SOL    HW123952   9.910   7.734   1.008 -1.2186 -1.6325 -1.8710
 4616SOL    HW223953   9.800   7.846   0.962  0.0997  0.0800 -0.8770
 4617SOL     OW23954   1.223   3.102   1.525  0.7626 -0.3329 -0.0554
 4617SOL    HW123955   1.255   3.007   1.532 -0.4635 -0.6497  1.8612
 4617SOL    HW223956   1.140   3.113   1.581 -0.1045  1.4537 -1.6274
 4618SOL     OW23957   4.813   3.119   1.262  0.5671 -0.0730 -0.0653
 4618SOL    HW123958   4.793   3.077   1.174 -0.8714 -0.7277  0.5620
 4618SOL    HW223959   4.860   3.053   1.321  0.8357  0.1139 -0.0695
 4619SOL     OW23960   2.524   0.287   0.939 -0.0358 -0.0251  0.1098
 4619SOL    HW123961   2.449   0.351   0.921 -1.0181 -0.5835  2.0577
 4619SOL    HW223962   2.554   0.297   1.034  2.2150  0.0361 -0.5985
 4620SOL     OW23963   9.191   6.830   0.811  0.3083  0.1263 -0.3005
 4620SOL    HW123964   9.162   6.809   0.718  0.1568 -1.2760  0.0578
 4620SOL    HW223965   9.284   6.865   0.809  0.4041 -0.1549 -0.9471
 4621SOL     OW23966   2.614   1.244   0.192 -0.1379  0.3430 -0.4755
 4621SOL    HW123967   2.648   1.231   0.285  1.2404  0.0550 -1.0100
 4621SOL    HW223968   2.538   1.310   0.193  1.1485  1.8481  0.6018
 4622SOL     OW23969   1.617   9.292   0.723 -0.5645 -0.3050 -0.7296
 4622SOL    HW123970   1.631   9.262   0.817 -0.5988  2.0674  0.0754
 4622SOL    HW223971   1.688   9.358   0.699 -0.0896 -1.4845 -2.6562
 4623SOL     OW23972   2.332   0.686   0.726 -0.3892  0.4702  0.8579
 4623SOL    HW123973   2.262   0.753   0.751 -1.5288 -0.8042  1.1160
 4623SOL    HW223974   2.394   0.672   0.804 -0.7705  0.4495  1.1573
 4624SOL     OW23975   1.651   7.830   2.437 -0.1457 -0.1206  0.0022
 4624SOL    HW123976   1.600   7.851   2.354 -1.6768  3.3366  1.7322
 4624SOL    HW223977   1.738   7.879   2.435 -0.6351  0.7940  0.8811
 4625SOL     OW23978   1.450   2.254   1.678  0.7580 -0.7081 -0.0038
 4625SOL    HW123979   1.479   2.198   1.600 -1.9897 -1.7329 -0.3388
 4625SOL    HW223980   1.438   2.195   1.758  0.1009 -0.2321  0.2544
 4626SOL     OW23981   2.630   6.439   1.107 -0.1549 -0.7099 -0.1011
 4626SOL    HW123982   2.614   6.507   1.179  0.1308 -2.3469  1.5733
 4626SOL    HW223983   2.717   6.457   1.062  0.2234 -0.3460  0.7670
 4627SOL     OW23984   2.282   1.422   0.500  0.3512 -0.0289  0.8053
 4627SOL    HW123985   2.329   1.489   0.442 -1.8456  0.2820 -0.7142
 4627SOL    HW223986   2.330   1.335   0.497  0.9468  0.3380 -0.5571
 4628SOL     OW23987   3.188   0.138   0.806  0.0899  0.0289 -0.4257
 4628SOL    HW123988   3.221   0.087   0.727  0.1992  0.1360 -0.4477
 4628SOL    HW223989   3.088   0.130   0.811  0.3236 -2.7448  1.2800
 4629SOL     OW23990   0.563   9.190   2.723  0.4957  0.1102 -0.3399
 4629SOL    HW123991   0.538   9.096   2.702 -2.4243  1.1224 -1.6771
 4629SOL    HW223992   0.645   9.215   2.673 -0.6572 -0.6898 -2.7147
 4630SOL     OW23993   1.645   0.450   1.123 -0.0476 -0.1503 -0.6192
 4630SOL    HW123994   1.598   0.364   1.103 -1.1235  0.7607 -2.0757
 4630SOL    HW223995   1.584   0.509   1.176  0.4376 -0.0015 -0.2196
 4631SOL     OW23996   3.268   3.887   0.192  0.2606 -0.0471  0.0998
 4631SOL    HW123997   3.218   3.800   0.189 -0.8239  0.5674  0.1616
 4631SOL    HW223998   3.230   3.950   0.125 -0.7606  1.3335  1.9278
 4632SOL     OW23999   0.885   3.373   1.624  0.1852  0.3631  0.4722
 4632SOL    HW124000   0.939   3.312   1.682  1.9250  0.9399 -0.5007
 4632SOL    HW224001   0.870   3.330   1.535  0.6526  0.9623  0.0956
 4633SOL     OW24002   0.217   7.026   1.086 -0.0609  0.3126  0.5707
 4633SOL    HW124003   0.251   6.944   1.039 -1.2391 -0.3698  0.8881
 4633SOL    HW224004   0.225   7.105   1.026  1.0397 -0.0449  0.2387
 4634SOL     OW24005   2.872   8.517   2.890  0.4813  0.2786 -0.0089
 4634SOL    HW124006   2.791   8.551   2.937  2.0422  2.2840  1.3634
 4634SOL    HW224007   2.949   8.513   2.955  1.7513 -0.4688 -1.5271
 4635SOL     OW24008   1.536   9.864   2.423 -0.1058 -0.1085 -0.1557
 4635SOL    HW124009   1.474   9.897   2.494 -0.0795  0.2629 -0.3048
 4635SOL    HW224010   1.594   9.939   2.392 -1.9393  0.4017 -2.4855
 4636SOL     OW24011   9.709   1.772   0.555  0.2066 -0.3667 -0.5318
 4636SOL    HW124012   9.728   1.786   0.652  1.6148  1.8370 -1.1071
 4636SOL    HW224013   9.758   1.690   0.523  1.5927  0.2028  0.0909
 4637SOL     OW24014   2.259   0.210   0.209  0.6340 -0.8174  0.1816
 4637SOL    HW124015   2.240   0.114   0.190  1.4363 -0.8102 -0.6971
 4637SOL    HW224016   2.356   0.221   0.231  0.9422  0.0514 -1.5387
 4638SOL     OW24017   3.777   4.184   0.269  0.4768 -0.0308  0.1541
 4638SOL    HW124018   3.823   4.271   0.288  0.7697 -0.1381 -0.0575
 4638SOL    HW224019   3.709   4.166   0.339  1.9398 -0.7082  1.4204
 4639SOL     OW24020   0.658   2.641   2.560 -0.2146  0.1236 -0.8592
 4639SOL    HW124021   0.731   2.598   2.614  1.7528  2.8155 -1.2688
 4639SOL    HW224022   0.610   2.708   2.617 -2.2041 -1.3779 -0.7013
 4640SOL     OW24023   0.513   9.182   0.406  0.4316  0.1871  0.1046
 4640SOL    HW124024   0.429   9.162   0.355 -0.1139  1.1391  0.6102
 4640SOL    HW224025   0.589   9.197   0.342  0.1094 -0.2143 -0.3715
 4641SOL     OW24026   3.769   2.246   1.141  0.1900  0.2635  0.4143
 4641SOL    HW124027   3.698   2.313   1.161 -1.9236 -2.2389  1.7214
 4641SOL    HW224028   3.744   2.193   1.060 -0.0326 -1.3270  1.4797
 4642SOL     OW24029   2.941   0.113   1.224  0.2079 -0.1467  0.2004
 4642SOL    HW124030   3.014   0.181   1.213 -0.3735  0.2803 -1.0816
 4642SOL    HW224031   2.976   0.023   1.199  0.1364  0.1521 -1.0113
 4643SOL     OW24032   9.994   7.813   1.875  0.4055 -0.0478  0.2488
 4643SOL    HW124033  10.025   7.908   1.868  0.3866 -0.0948 -0.5369
 4643SOL    HW224034   9.948   7.800   1.963 -0.6670  0.9934 -0.1312
 4644SOL     OW24035   8.590   5.268   0.286 -0.3630 -0.0307 -0.1265
 4644SOL    HW124036   8.638   5.342   0.239  1.4061 -0.8253  0.3682
 4644SOL    HW224037   8.657   5.212   0.336 -1.5103 -2.7467 -1.5874
 4645SOL     OW24038   0.305   8.881   2.302  0.3269 -0.6303 -0.5764
 4645SOL    HW124039   0.317   8.839   2.212 -0.0562  0.3075 -1.0796
 4645SOL    HW224040   0.208   8.898   2.318  0.6390  2.1512 -1.3810
 4646SOL     OW24041   2.744   0.636   1.003  0.2192 -0.4532 -0.0564
 4646SOL    HW124042   2.787   0.546   0.996 -0.5860 -0.8069 -0.5155
 4646SOL    HW224043   2.648   0.629   0.978  0.6588  0.9220 -2.3156
 4647SOL     OW24044   0.119   2.206   2.538  0.5948  0.3471  0.0830
 4647SOL    HW124045   0.047   2.137   2.547  0.8994 -0.1838 -1.3582
 4647SOL    HW224046   0.120   2.241   2.445 -0.2888  3.1474  1.0886
 4648SOL     OW24047   2.826   4.722   2.573  0.3614 -0.2232  0.2379
 4648SOL    HW124048   2.882   4.760   2.499  1.2624 -0.3370  0.8424
 4648SOL    HW224049   2.881   4.656   2.625 -0.4879 -0.6717  0.5692
 4649SOL     OW24050   2.156   7.426   1.499 -0.3889 -0.5400  0.0420
 4649SOL    HW124051   2.125   7.502   1.555 -1.0399  0.2666 -1.3876
 4649SOL    HW224052   2.256   7.429   1.491 -0.5456  1.2831 -1.5396
 4650SOL     OW24053   4.448   9.782   0.619 -0.5076  0.4720 -0.4603
 4650SOL    HW124054   4.480   9.688   0.614  0.3439  0.6733  1.0728
 4650SOL    HW224055   4.457   9.816   0.713 -0.9611  2.0223 -0.9597
 4651SOL     OW24056   2.093   8.048   2.909 -0.6767  0.0228  0.7812
 4651SOL    HW124057   2.191   8.027   2.901 -0.2072  2.3168 -0.1883
 4651SOL    HW224058   2.076   8.096   2.995 -1.0378 -0.7748  1.1574
 4652SOL     OW24059   1.398   5.303   1.322  0.3169 -0.1698  0.9633
 4652SOL    HW124060   1.373   5.369   1.392  0.0341 -0.5644  1.2321
 4652SOL    HW224061   1.413   5.214   1.364  2.7154  0.1607  0.9136
 4653SOL     OW24062   0.839   6.331   0.780  0.1252  0.4074 -0.0221
 4653SOL    HW124063   0.869   6.294   0.692  0.7786  0.2645  0.2618
 4653SOL    HW224064   0.837   6.258   0.848  2.8431  1.1573  0.9036
 4654SOL     OW24065   2.122   2.306   2.519  0.3339 -0.4322  0.6496
 4654SOL    HW124066   2.220   2.292   2.506  0.1329 -0.4224 -0.8926
 4654SOL    HW224067   2.094   2.393   2.479 -0.6758 -1.3819 -0.7721
 4655SOL     OW24068   3.838   0.110   1.324 -0.1652  0.2295 -0.4674
 4655SOL    HW124069   3.835   0.209   1.323  0.0920  0.2487  0.4887
 4655SOL    HW224070   3.911   0.079   1.385 -1.2985 -0.5508  0.5189
 4656SOL     OW24071   8.989   2.716   2.178 -0.0191  0.2979 -0.0905
 4656SOL    HW124072   8.902   2.763   2.188  0.0656  0.2254  1.0986
 4656SOL    HW224073   9.064   2.782   2.189  0.0891  0.0300  0.8479
 4657SOL     OW24074   0.289   4.956   1.314  0.0599  0.5022  0.5783
 4657SOL    HW124075   0.200   4.956   1.270 -0.2234  0.9258  1.1556
 4657SOL    HW224076   0.359   4.927   1.248 -0.9389 -3.1298  1.0131
 4658SOL     OW24077   0.880   3.515   2.281 -0.5834  0.4286 -0.3581
 4658SOL    HW124078   0.926   3.579   2.342 -0.3633 -1.1593  1.2172
 4658SOL    HW224079   0.787   3.499   2.313 -0.4610 -0.4381 -0.4058
 4659SOL     OW24080   0.391   0.028   2.143 -0.1684  0.3145 -0.2745
 4659SOL    HW124081   0.369   0.113   2.094  0.0480 -0.3675 -1.5886
 4659SOL    HW224082   0.485   0.031   2.175 -0.5731  1.1190  0.8539
 4660SOL     OW24083   1.400   2.265   2.267 -0.0421  0.0964 -0.1629
 4660SOL    HW124084   1.365   2.341   2.213  0.5652  0.8971  0.5603
 4660SOL    HW224085   1.390   2.180   2.216 -1.6735  0.5213 -0.5544
 4661SOL     OW24086   2.056   8.206   1.269  0.2413  0.0546  0.0028
 4661SOL    HW124087   1.995   8.208   1.190  0.3884  1.8809 -0.0892
 4661SOL    HW224088   2.085   8.112   1.287 -1.3307 -0.6127 -0.9196
 4662SOL     OW24089   2.100   2.195   0.753 -0.9261  0.4687 -0.2510
 4662SOL    HW124090   2.067   2.270   0.810 -1.7252  0.0508 -0.1554
 4662SOL    HW224091   2.022   2.151   0.708 -0.4872 -0.4280 -0.1407
 4663SOL     OW24092   9.528   6.738   2.183  0.3880 -0.2830  0.1828
 4663SOL    HW124093   9.623   6.714   2.202  0.0435 -1.5481  0.3439
 4663SOL    HW224094   9.484   6.768   2.267 -0.0024 -1.9756  0.5999
 4664SOL     OW24095   0.243   1.251   0.128 -0.5794 -0.0205  0.0794
 4664SOL    HW124096   0.235   1.219   0.033 -2.9103 -0.3815  0.3835
 4664SOL    HW224097   0.169   1.315   0.148  1.2050  1.8171  0.9900
 4665SOL     OW24098   8.362   3.430   1.137 -0.0945 -0.3544 -0.0527
 4665SOL    HW124099   8.439   3.408   1.197 -0.2859 -0.5131  0.1376
 4665SOL    HW224100   8.277   3.394   1.177 -0.6399  2.0761  1.0151
 4666SOL     OW24101   1.666   7.939   1.122  0.1447  0.0735 -0.1907
 4666SOL    HW124102   1.586   7.940   1.062  1.0021 -0.6065 -1.3762
 4666SOL    HW224103   1.640   7.904   1.212 -0.5703 -1.7554 -1.0758
 4667SOL     OW24104   0.171   9.092   1.092  0.1507 -0.1341 -0.5003
 4667SOL    HW124105   0.132   9.184   1.106 -0.0686 -0.5439  1.8277
 4667SOL    HW224106   0.269   9.095   1.110  0.7085  0.2434 -3.3709
 4668SOL     OW24107   9.733   1.989   2.284  0.2968 -0.2009  0.0575
 4668SOL    HW124108   9.730   2.088   2.297 -1.1753 -0.2847  0.4501
 4668SOL    HW224109   9.702   1.966   2.192  1.7228 -0.2306 -0.4239
 4669SOL     OW24110   1.996   1.756   1.584 -0.1534  0.3505 -0.6389
 4669SOL    HW124111   1.918   1.753   1.521  0.1801  0.5083 -1.0595
 4669SOL    HW224112   2.068   1.696   1.549 -0.6132 -0.8603  0.4511
 4670SOL     OW24113   9.809   6.706   2.180 -0.2607 -0.2857  0.0364
 4670SOL    HW124114   9.844   6.774   2.245 -1.6150  0.1021  0.3845
 4670SOL    HW224115   9.808   6.745   2.088 -0.2637 -0.1104  0.1113
 4671SOL     OW24116   2.020   0.357   1.497 -0.4001 -0.4562  0.3338
 4671SOL    HW124117   2.039   0.390   1.589 -1.8603  0.2706  0.3978
 4671SOL    HW224118   2.069   0.413   1.430  1.1442 -1.3736  0.6952
 4672SOL     OW24119   9.698   1.595   1.673 -0.0394 -0.5398 -0.6944
 4672SOL    HW124120   9.726   1.663   1.604  2.0973 -3.1408 -2.4673
 4672SOL    HW224121   9.745   1.614   1.759 -0.1448  0.7711 -0.9157
 4673SOL     OW24122   2.511   1.623   0.599 -0.3113  0.2859 -0.1001
 4673SOL    HW124123   2.438   1.682   0.633  0.2967 -0.0256  1.7717
 4673SOL    HW224124   2.576   1.604   0.672  1.1458 -0.2256 -1.4943
 4674SOL     OW24125   2.974   1.854   2.163 -0.1734 -0.1398  0.3185
 4674SOL    HW124126   3.019   1.854   2.252 -0.8782 -0.2059  0.6724
 4674SOL    HW224127   3.041   1.829   2.093 -0.2000 -2.5715  1.1153
 4675SOL     OW24128   2.488   0.623   0.121  0.1087 -0.1763 -0.0729
 4675SOL    HW124129   2.422   0.574   0.064  0.0154  0.7460 -0.7668
 4675SOL    HW224130   2.508   0.712   0.080  1.7461 -0.4167  0.1546
 4676SOL     OW24131   0.851   5.305   1.405  0.4157  0.7673 -0.7373
 4676SOL    HW124132   0.917   5.243   1.448 -1.5298  0.0554  1.3756
 4676SOL    HW224133   0.791   5.253   1.344 -0.8720  0.6222  0.6194
 4677SOL     OW24134   0.482   6.837   1.088  0.1248 -0.4664 -0.2036
 4677SOL    HW124135   0.531   6.830   1.175 -1.0510  0.2685  0.5356
 4677SOL    HW224136   0.547   6.854   1.014  1.1866 -1.6356  0.4605
 4678SOL     OW24137   0.069   4.286   0.647 -0.7767 -0.3810 -0.1794
 4678SOL    HW124138   0.098   4.249   0.559 -1.8714 -0.1340 -0.6644
 4678SOL    HW224139  -0.007   4.231   0.683  0.0855 -0.8586  0.9151
 4679SOL     OW24140   3.536   9.591   2.476  0.5259 -0.3681  0.2196
 4679SOL    HW124141   3.590   9.674   2.491  0.2965 -0.3012  0.6902
 4679SOL    HW224142   3.451   9.596   2.528 -0.8066  0.3376 -1.9414
 4680SOL     OW24143   1.353   5.898   0.897  0.3603  0.8435 -0.1703
 4680SOL    HW124144   1.257   5.916   0.917  0.3571 -0.8140  1.4255
 4680SOL    HW224145   1.368   5.907   0.798 -2.0192 -1.3268 -0.7977
 4681SOL     OW24146   0.555   5.212   2.903 -0.2792  0.1323 -0.1608
 4681SOL    HW124147   0.577   5.198   2.806 -1.3858  0.0801 -0.4136
 4681SOL    HW224148   0.613   5.284   2.940 -0.4393  0.7595 -1.1018
 4682SOL     OW24149   2.672   2.628   1.442  0.2209 -0.2358  0.2027
 4682SOL    HW124150   2.693   2.709   1.496  1.8044  0.7370 -1.8163
 4682SOL    HW224151   2.757   2.582   1.416 -0.6244 -2.0640  0.5904
 4683SOL     OW24152   2.166   4.604   0.167 -0.0410  0.1735  0.0359
 4683SOL    HW124153   2.102   4.618   0.091  0.8714  2.3592 -0.3896
 4683SOL    HW224154   2.259   4.601   0.131  0.5012  2.4163  1.1273
 4684SOL     OW24155   1.644   4.069   2.194  0.3675  0.0683  0.2777
 4684SOL    HW124156   1.696   4.129   2.133  0.6324  1.1871  1.5694
 4684SOL    HW224157   1.703   3.997   2.230  0.2424 -0.5149 -0.6861
 4685SOL     OW24158   2.286   3.386   1.195 -0.0799 -0.0552 -0.3912
 4685SOL    HW124159   2.218   3.370   1.267  0.4344 -0.2207  0.0552
 4685SOL    HW224160   2.279   3.313   1.127  0.8711 -1.0746  0.5873
 4686SOL     OW24161   0.536   2.016   0.212 -0.2512  0.5286  0.4762
 4686SOL    HW124162   0.532   2.016   0.312 -1.6698 -1.5195  0.4711
 4686SOL    HW224163   0.447   2.044   0.175 -0.1836 -0.1095 -0.1918
 4687SOL     OW24164   0.545   4.216   0.533  0.0731  0.1332 -0.0806
 4687SOL    HW124165   0.520   4.123   0.507  1.6012 -0.3269  0.0080
 4687SOL    HW224166   0.505   4.238   0.622  0.4842 -0.8090  0.3545
 4688SOL     OW24167   2.704   9.386   2.794  0.2442  0.3622  0.5094
 4688SOL    HW124168   2.717   9.485   2.786  0.7355  0.3498  1.1209
 4688SOL    HW224169   2.768   9.339   2.733 -1.9937  0.4771 -2.0276
 4689SOL     OW24170   0.511   7.730   2.087  0.3298 -0.0725 -0.3125
 4689SOL    HW124171   0.466   7.814   2.115 -0.1037 -0.6130  0.6531
 4689SOL    HW224172   0.449   7.653   2.101  0.9584 -0.6299 -0.5537
 4690SOL     OW24173   0.624   9.781   2.429  0.2697  0.1963  0.2681
 4690SOL    HW124174   0.594   9.815   2.340 -0.7636 -1.2558  0.0437
 4690SOL    HW224175   0.545   9.754   2.483  0.9481  0.1497  1.2597
 4691SOL     OW24176   1.581   5.628   2.749  0.4066  0.0141 -0.5552
 4691SOL    HW124177   1.614   5.673   2.666 -1.1726 -0.4227 -1.4520
 4691SOL    HW224178   1.527   5.547   2.724  1.0885 -0.9449  0.9496
 4692SOL     OW24179   0.980   0.286   1.969 -0.2875  0.1624 -0.2991
 4692SOL    HW124180   1.063   0.235   1.992 -0.9812 -1.2107 -0.7407
 4692SOL    HW224181   0.984   0.377   2.009  0.6024 -0.5384  1.2566
  10.00000  10.00000   2.94101
