chitosan Film  in water:acetic acid 2%
10700
    1CHTO  H203    1   3.943   6.357   0.526
    1CHTO   O82    2   3.975   6.270   0.515
    1CHTO  C123    3   4.092   6.250   0.596
    1CHTO  H227    4   4.065   6.268   0.701
    1CHTO   O77    5   4.122   6.109   0.575
    1CHTO  C118    6   4.229   6.060   0.657
    1CHTO  H222    7   4.204   6.079   0.763
    1CHTO  C125    8   4.240   5.904   0.634
    1CHTO   O84    9   4.267   5.870   0.498
    1CHTO  H205   10   4.193   5.893   0.444
    1CHTO  C114   11   4.361   6.132   0.622
    1CHTO  H218   12   4.391   6.102   0.521
    1CHTO  C116   13   4.347   6.288   0.622
    1CHTO  H220   14   4.350   6.323   0.727
    1CHTO   O79   15   4.463   6.346   0.560
    1CHTO  H201   16   4.540   6.328   0.611
    1CHTO  C120   17   4.215   6.338   0.551
    1CHTO  H224   18   4.231   6.325   0.442
    1CHTO   N21   19   4.190   6.483   0.575
    1CHTO  H211   20   4.284   6.536   0.586
    1CHTO  H212   21   4.132   6.524   0.494
    1CHTO   O75   22   4.454   6.081   0.719
    1CHTO  C112   23   4.609   6.080   0.670
    1CHTO  H216   24   4.621   6.153   0.588
    1CHTO   O73   25   4.640   5.946   0.627
    1CHTO  C113   26   4.771   5.936   0.571
    1CHTO  H217   27   4.781   6.009   0.487
    1CHTO  C124   28   4.789   5.796   0.508
    1CHTO   O83   29   4.786   5.689   0.604
    1CHTO  H204   30   4.798   5.608   0.559
    1CHTO  C109   31   4.879   5.966   0.678
    1CHTO  H213   32   4.871   5.887   0.755
    1CHTO  C110   33   4.853   6.105   0.743
    1CHTO  H214   34   4.877   6.183   0.670
    1CHTO   O78   35   4.944   6.122   0.854
    1CHTO  H200   36   5.033   6.129   0.823
    1CHTO  C111   37   4.705   6.120   0.789
    1CHTO  H215   38   4.687   6.050   0.872
    1CHTO   N19   39   4.673   6.256   0.840
    1CHTO  H207   40   4.687   6.329   0.762
    1CHTO  H208   41   4.570   6.259   0.875
    1CHTO   O74   42   5.011   5.961   0.618
    1CHTO  C115   43   5.119   5.888   0.705
    1CHTO  H219   44   5.096   5.895   0.812
    1CHTO   O76   45   5.124   5.731   0.675
    1CHTO  C122   46   5.162   5.705   0.539
    1CHTO  H226   47   5.083   5.745   0.475
    1CHTO  C126   48   5.162   5.550   0.513
    1CHTO   O85   49   5.256   5.480   0.595
    1CHTO  H206   50   5.253   5.388   0.576
    1CHTO  C121   51   5.300   5.772   0.500
    1CHTO  H225   52   5.373   5.692   0.472
    1CHTO   O81   53   5.284   5.856   0.385
    1CHTO  H202   54   5.257   5.805   0.311
    1CHTO  C119   55   5.360   5.853   0.619
    1CHTO  H223   56   5.377   5.781   0.699
    1CHTO  C117   57   5.258   5.959   0.674
    1CHTO  H221   58   5.235   6.040   0.605
    1CHTO   N20   59   5.312   6.027   0.797
    1CHTO  H209   60   5.242   6.101   0.832
    1CHTO  H210   61   5.407   6.075   0.774
    1CHTO   O80   62   5.508   5.903   0.589
    1CHTO  C103   63   5.636   5.813   0.636
    1CHTO  H190   64   5.672   5.846   0.733
    1CHTO  C101   65   5.622   5.655   0.637
    1CHTO  H188   66   5.581   5.621   0.542
    1CHTO   O68   67   5.527   5.614   0.748
    1CHTO  H168   68   5.510   5.522   0.743
    1CHTO   C99   69   5.765   5.586   0.659
    1CHTO  H186   70   5.805   5.616   0.758
    1CHTO   N17   71   5.763   5.435   0.659
    1CHTO  H174   72   5.831   5.394   0.587
    1CHTO  H175   73   5.662   5.398   0.642
    1CHTO   C97   74   5.866   5.642   0.554
    1CHTO  H184   75   5.835   5.607   0.454
    1CHTO   O64   76   5.871   5.786   0.561
    1CHTO  C104   77   5.747   5.851   0.530
    1CHTO  H191   78   5.713   5.821   0.430
    1CHTO  C108   79   5.771   6.003   0.521
    1CHTO   O71   80   5.826   6.057   0.642
    1CHTO  H171   81   5.762   6.052   0.711
    1CHTO   O62   82   6.001   5.603   0.584
    1CHTO   C91   83   6.092   5.595   0.472
    1CHTO  H178   84   6.049   5.650   0.388
    1CHTO   C92   85   6.103   5.445   0.427
    1CHTO  H179   86   6.117   5.383   0.517
    1CHTO   O66   87   5.976   5.406   0.373
    1CHTO  H166   88   5.976   5.314   0.352
    1CHTO   C93   89   6.220   5.420   0.324
    1CHTO  H180   90   6.192   5.472   0.230
    1CHTO   N16   91   6.238   5.277   0.288
    1CHTO  H172   92   6.319   5.267   0.217
    1CHTO  H173   93   6.146   5.238   0.247
    1CHTO   C94   94   6.351   5.485   0.380
    1CHTO  H181   95   6.377   5.444   0.478
    1CHTO   O61   96   6.328   5.626   0.397
    1CHTO   C95   97   6.235   5.657   0.501
    1CHTO  H182   98   6.273   5.618   0.596
    1CHTO  C106   99   6.231   5.813   0.514
    1CHTO   O69  100   6.155   5.856   0.628
    1CHTO  H169  101   6.064   5.836   0.614
    1CHTO   O63  102   6.475   5.467   0.278
    1CHTO   C96  103   6.605   5.542   0.319
    1CHTO  H183  104   6.578   5.647   0.338
    1CHTO   C98  105   6.713   5.540   0.207
    1CHTO  H185  106   6.673   5.583   0.114
    1CHTO   O67  107   6.819   5.628   0.247
    1CHTO  H167  108   6.882   5.636   0.178
    1CHTO  C102  109   6.773   5.393   0.184
    1CHTO  H189  110   6.877   5.408   0.149
    1CHTO   N18  111   6.707   5.314   0.077
    1CHTO  H176  112   6.602   5.302   0.100
    1CHTO  H177  113   6.717   5.364   2.860
    1CHTO  C105  114   6.778   5.316   0.319
    1CHTO  H192  115   6.689   5.253   0.329
    1CHTO   O65  116   6.784   5.403   0.433
    1CHTO  C100  117   6.663   5.478   0.454
    1CHTO  H187  118   6.589   5.408   0.497
    1CHTO  C107  119   6.693   5.584   0.563
    1CHTO   O70  120   6.577   5.658   0.599
    1CHTO  H170  121   6.598   5.720   0.667
    1CHTO   O57  122   6.908   5.225   0.313
    1CHTO   C85  123   6.902   5.093   0.370
    1CHTO  H157  124   6.820   5.041   0.316
    1CHTO   C83  125   6.857   5.098   0.520
    1CHTO  H155  126   6.757   5.141   0.524
    1CHTO   O56  127   6.942   5.188   0.593
    1CHTO  H135  128   6.911   5.198   0.681
    1CHTO   C81  129   6.851   4.953   0.576
    1CHTO  H153  130   6.784   4.896   0.512
    1CHTO   N14  131   6.788   4.948   0.710
    1CHTO  H141  132   6.852   4.899   0.781
    1CHTO  H142  133   6.695   4.895   0.706
    1CHTO   C79  134   6.994   4.887   0.567
    1CHTO  H151  135   6.983   4.783   0.600
    1CHTO   O52  136   7.039   4.883   0.428
    1CHTO   C86  137   7.038   5.014   0.361
    1CHTO  H158  138   7.121   5.071   0.410
    1CHTO   C90  139   7.080   4.997   0.213
    1CHTO   O60  140   7.215   4.949   0.202
    1CHTO  H138  141   7.275   5.016   0.229
    1CHTO   O50  142   7.094   4.950   0.650
    1CHTO   C73  143   7.217   4.950   0.724
    1CHTO  H145  144   7.298   4.909   0.663
    1CHTO   C74  145   7.203   4.865   0.854
    1CHTO  H146  146   7.177   4.763   0.823
    1CHTO   O54  147   7.332   4.857   0.917
    1CHTO  H133  148   7.327   4.803   0.994
    1CHTO   C75  149   7.091   4.929   0.945
    1CHTO  H147  150   6.995   4.922   0.892
    1CHTO   N13  151   7.067   4.857   1.072
    1CHTO  H139  152   7.037   4.756   1.052
    1CHTO  H140  153   7.157   4.855   1.131
    1CHTO   C76  154   7.120   5.085   0.968
    1CHTO  H148  155   7.208   5.094   1.033
    1CHTO   O49  156   7.146   5.154   0.841
    1CHTO   C77  157   7.252   5.097   0.763
    1CHTO  H149  158   7.345   5.097   0.820
    1CHTO   C88  159   7.279   5.184   0.640
    1CHTO   O58  160   7.320   5.322   0.679
    1CHTO  H136  161   7.248   5.367   0.719
    1CHTO   O51  162   6.987   5.159   1.032
    1CHTO   C78  163   6.979   5.320   1.008
    1CHTO  H150  164   7.007   5.347   0.903
    1CHTO   C80  165   7.073   5.395   1.105
    1CHTO  H152  166   7.048   5.364   1.208
    1CHTO   O55  167   7.208   5.353   1.078
    1CHTO  H134  168   7.235   5.379   0.992
    1CHTO   C84  169   7.057   5.551   1.091
    1CHTO  H156  170   7.099   5.580   0.994
    1CHTO   N15  171   7.137   5.626   1.195
    1CHTO  H143  172   7.105   5.597   1.293
    1CHTO  H144  173   7.241   5.604   1.184
    1CHTO   C87  174   6.908   5.595   1.093
    1CHTO  H159  175   6.868   5.588   1.194
    1CHTO   O53  176   6.824   5.506   0.996
    1CHTO   C82  177   6.835   5.367   1.030
    1CHTO  H154  178   6.806   5.352   1.134
    1CHTO   C89  179   6.736   5.284   0.944
    1CHTO   O59  180   6.603   5.298   0.994
    1CHTO  H137  181   6.595   5.255   1.077
    1CHTO   O45  182   6.901   5.753   1.040
    1CHTO   C67  183   6.784   5.835   1.064
    1CHTO  H124  184   6.817   5.939   1.052
    1CHTO   C65  185   6.671   5.807   0.958
    1CHTO  H122  186   6.676   5.701   0.935
    1CHTO   O44  187   6.709   5.882   0.841
    1CHTO  H102  188   6.652   5.860   0.770
    1CHTO   C63  189   6.525   5.829   1.016
    1CHTO  H120  190   6.498   5.741   1.074
    1CHTO   N11  191   6.414   5.833   0.915
    1CHTO  H108  192   6.320   5.833   0.965
    1CHTO  H109  193   6.421   5.748   0.850
    1CHTO   C61  194   6.527   5.950   1.118
    1CHTO  H118  195   6.426   5.954   1.162
    1CHTO   O40  196   6.620   5.928   1.228
    1CHTO   C68  197   6.725   5.827   1.210
    1CHTO  H125  198   6.679   5.726   1.227
    1CHTO   C72  199   6.832   5.846   1.321
    1CHTO   O48  200   6.894   5.975   1.317
    1CHTO  H105  201   6.832   6.041   1.342
    1CHTO   O38  202   6.559   6.074   1.053
    1CHTO   C55  203   6.503   6.195   1.107
    1CHTO  H112  204   6.488   6.184   1.216
    1CHTO   C56  205   6.366   6.229   1.032
    1CHTO  H113  206   6.386   6.217   0.924
    1CHTO   O42  207   6.267   6.130   1.066
    1CHTO  H100  208   6.189   6.144   1.016
    1CHTO   C57  209   6.314   6.376   1.063
    1CHTO  H114  210   6.279   6.377   1.166
    1CHTO   N10  211   6.200   6.416   0.976
    1CHTO  H106  212   6.107   6.386   1.022
    1CHTO  H107  213   6.199   6.523   0.962
    1CHTO   C58  214   6.432   6.476   1.050
    1CHTO  H115  215   6.465   6.479   0.944
    1CHTO   O37  216   6.541   6.435   1.134
    1CHTO   C59  217   6.603   6.313   1.089
    1CHTO  H116  218   6.633   6.323   0.985
    1CHTO   C70  219   6.730   6.294   1.174
    1CHTO   O46  220   6.817   6.193   1.124
    1CHTO  H103  221   6.777   6.108   1.134
    1CHTO   O39  222   6.387   6.627   1.100
    1CHTO   C60  223   6.478   6.729   1.054
    1CHTO  H117  224   6.580   6.691   1.059
    1CHTO   C62  225   6.449   6.771   0.907
    1CHTO  H119  226   6.457   6.679   0.845
    1CHTO   O43  227   6.313   6.819   0.895
    1CHTO  H101  228   6.302   6.898   0.946
    1CHTO   C66  229   6.560   6.877   0.859
    1CHTO  H123  230   6.658   6.830   0.869
    1CHTO   N12  231   6.547   6.912   0.715
    1CHTO  H110  232   6.638   6.889   0.662
    1CHTO  H111  233   6.519   7.016   0.702
    1CHTO   C69  234   6.559   7.001   0.952
    1CHTO  H126  235   6.462   7.056   0.941
    1CHTO   O41  236   6.575   6.956   1.102
    1CHTO   C64  237   6.472   6.853   1.147
    1CHTO  H121  238   6.370   6.898   1.141
    1CHTO   C71  239   6.498   6.814   1.294
    1CHTO   O47  240   6.484   6.928   1.380
    1CHTO  H104  241   6.503   6.903   1.468
    1CHTO   O34  242   6.677   7.102   0.917
    1CHTO   C49  243   6.824   7.143   0.951
    1CHTO   H91  244   6.847   7.225   0.882
    1CHTO   C47  245   6.921   7.025   0.923
    1CHTO   H89  246   6.929   7.019   0.812
    1CHTO   O33  247   6.869   6.902   0.973
    1CHTO   H70  248   6.856   6.906   1.066
    1CHTO   C45  249   7.067   7.048   0.992
    1CHTO   H87  250   7.066   6.996   1.089
    1CHTO    N8  251   7.176   6.990   0.910
    1CHTO   H75  252   7.256   7.060   0.898
    1CHTO   H76  253   7.140   6.959   0.813
    1CHTO   C43  254   7.087   7.202   1.034
    1CHTO   H85  255   7.185   7.209   1.082
    1CHTO   O29  256   6.981   7.242   1.123
    1CHTO   C50  257   6.848   7.192   1.096
    1CHTO   H92  258   6.828   7.108   1.164
    1CHTO   C54  259   6.745   7.298   1.138
    1CHTO   O36  260   6.750   7.322   1.279
    1CHTO   H72  261   6.717   7.247   1.325
    1CHTO   O27  262   7.091   7.288   0.919
    1CHTO   C37  263   7.147   7.402   0.853
    1CHTO   H79  264   7.217   7.455   0.919
    1CHTO   C38  265   7.227   7.357   0.727
    1CHTO   H80  266   7.164   7.288   0.668
    1CHTO   O31  267   7.343   7.285   0.772
    1CHTO   H68  268   7.400   7.341   0.821
    1CHTO   C39  269   7.268   7.479   0.635
    1CHTO   H81  270   7.342   7.537   0.690
    1CHTO    N7  271   7.332   7.438   0.505
    1CHTO   H73  272   7.422   7.383   0.525
    1CHTO   H74  273   7.263   7.377   0.448
    1CHTO   C40  274   7.144   7.573   0.610
    1CHTO   H82  275   7.072   7.525   0.544
    1CHTO   O26  276   7.085   7.611   0.735
    1CHTO   C41  277   7.033   7.499   0.812
    1CHTO   H83  278   6.957   7.445   0.753
    1CHTO   C52  279   6.962   7.557   0.937
    1CHTO   O35  280   6.852   7.643   0.902
    1CHTO   H71  281   6.813   7.678   0.979
    1CHTO   O28  282   7.183   7.701   0.556
    1CHTO   C42  283   7.111   7.765   0.446
    1CHTO   H84  284   7.018   7.708   0.438
    1CHTO   C44  285   7.183   7.751   0.307
    1CHTO   H86  286   7.288   7.726   0.324
    1CHTO   O32  287   7.128   7.637   0.238
    1CHTO   H69  288   7.151   7.558   0.283
    1CHTO   C48  289   7.176   7.878   0.212
    1CHTO   H90  290   7.192   7.842   0.110
    1CHTO    N9  291   7.288   7.975   0.236
    1CHTO   H77  292   7.384   7.926   0.221
    1CHTO   H78  293   7.279   8.059   0.169
    1CHTO   C51  294   7.035   7.947   0.218
    1CHTO   H93  295   7.039   8.037   0.156
    1CHTO   O30  296   6.990   7.976   0.352
    1CHTO   C46  297   7.070   7.911   0.478
    1CHTO   H88  298   7.159   7.971   0.497
    1CHTO   C53  299   6.977   7.916   0.602
    1CHTO   O72  300   6.951   8.051   0.641
    1CHTO  H199  301   7.029   8.090   0.677
    1CHTO   O22  302   6.936   7.857   0.165
    1CHTO   C31  303   6.864   7.887   0.039
    1CHTO   H59  304   6.863   7.998   0.029
    1CHTO   C29  305   6.934   7.831   2.790
    1CHTO   H57  306   6.948   7.723   2.807
    1CHTO   O21  307   7.065   7.890   2.780
    1CHTO   H37  308   7.118   7.865   2.853
    1CHTO   C27  309   6.850   7.853   2.658
    1CHTO   H55  310   6.848   7.960   2.635
    1CHTO    N5  311   6.909   7.781   2.542
    1CHTO   H43  312   6.941   7.852   2.466
    1CHTO   H44  313   6.840   7.709   2.499
    1CHTO   C25  314   6.700   7.811   2.681
    1CHTO   H53  315   6.694   7.702   2.696
    1CHTO   O17  316   6.647   7.877   2.800
    1CHTO   C32  317   6.715   7.842   0.044
    1CHTO   H60  318   6.711   7.734   0.058
    1CHTO   C36  319   6.641   7.910   0.162
    1CHTO   O25  320   6.510   7.855   0.179
    1CHTO   H40  321   6.470   7.894   0.254
    1CHTO   O15  322   6.609   7.852   2.558
    1CHTO   C19  323   6.511   7.798   2.465
    1CHTO   H47  324   6.474   7.886   2.412
    1CHTO   C20  325   6.570   7.699   2.359
    1CHTO   H48  326   6.625   7.616   2.407
    1CHTO   O19  327   6.665   7.774   2.281
    1CHTO   H35  328   6.741   7.795   2.333
    1CHTO   C21  329   6.457   7.637   2.268
    1CHTO   H49  330   6.410   7.717   2.211
    1CHTO    N4  331   6.509   7.538   2.169
    1CHTO   H41  332   6.582   7.586   2.105
    1CHTO   H42  333   6.428   7.500   2.108
    1CHTO   C22  334   6.350   7.577   2.363
    1CHTO   H50  335   6.401   7.505   2.427
    1CHTO   O14  336   6.295   7.682   2.443
    1CHTO   C23  337   6.388   7.736   2.538
    1CHTO   H51  338   6.417   7.654   2.606
    1CHTO   C34  339   6.315   7.843   2.622
    1CHTO   O23  340   6.205   7.787   2.694
    1CHTO   H38  341   6.162   7.854   2.743
    1CHTO   O16  342   6.236   7.517   2.298
    1CHTO   C24  343   6.219   7.357   2.338
    1CHTO   H52  344   6.312   7.314   2.377
    1CHTO   C26  345   6.176   7.276   2.214
    1CHTO   H54  346   6.080   7.318   2.176
    1CHTO   O20  347   6.277   7.294   2.113
    1CHTO   H36  348   6.250   7.251   2.033
    1CHTO   C30  349   6.154   7.126   2.251
    1CHTO   H58  350   6.251   7.080   2.276
    1CHTO    N6  351   6.102   7.048   2.135
    1CHTO   H45  352   6.005   7.086   2.106
    1CHTO   H46  353   6.092   6.944   2.162
    1CHTO   C33  354   6.065   7.110   2.378
    1CHTO   H61  355   5.960   7.135   2.354
    1CHTO   O18  356   6.109   7.199   2.483
    1CHTO   C28  357   6.111   7.338   2.448
    1CHTO   H56  358   6.014   7.369   2.409
    1CHTO   C35  359   6.139   7.420   2.576
    1CHTO   O24  360   6.266   7.391   2.636
    1CHTO   H39  361   6.278   7.445   2.712
    1CHTO    O9  362   6.063   6.973   2.422
    1CHTO   C13  363   6.029   6.944   2.580
    1CHTO   H26  364   5.964   7.027   2.617
    1CHTO   C11  365   6.166   6.935   2.661
    1CHTO   H24  366   6.200   7.038   2.684
    1CHTO    O8  367   6.268   6.871   2.581
    1CHTO    H3  368   6.289   6.925   2.508
    1CHTO    C9  369   6.140   6.859   2.794
    1CHTO   H22  370   6.057   6.912   2.843
    1CHTO    N2  371   6.251   6.869   0.014
    1CHTO   H10  372   6.275   6.973   0.033
    1CHTO   H11  373   6.338   6.817   2.856
    1CHTO    C7  374   6.093   6.711   2.762
    1CHTO   H20  375   6.020   6.690   2.843
    1CHTO    O4  376   6.026   6.700   2.634
    1CHTO   C14  377   5.943   6.811   2.597
    1CHTO   H27  378   5.868   6.826   2.677
    1CHTO   C18  379   5.865   6.770   2.469
    1CHTO   O13  380   5.772   6.872   2.431
    1CHTO    H7  381   5.725   6.844   2.355
    1CHTO    O2  382   6.217   6.598   2.766
    1CHTO    C1  383   6.174   6.462   2.746
    1CHTO   H14  384   6.093   6.459   2.670
    1CHTO    C2  385   6.120   6.391   2.878
    1CHTO   H15  386   6.200   6.400   0.075
    1CHTO    O6  387   6.003   6.460   0.044
    1CHTO    H1  388   6.025   6.546   0.074
    1CHTO    C3  389   6.087   6.237   2.850
    1CHTO   H16  390   6.001   6.233   2.781
    1CHTO    N1  391   6.045   6.163   0.096
    1CHTO    H8  392   6.115   6.084   0.120
    1CHTO    H9  393   6.035   6.230   0.180
    1CHTO    C4  394   6.206   6.167   2.774
    1CHTO   H17  395   6.289   6.153   2.844
    1CHTO    O1  396   6.250   6.244   2.661
    1CHTO    C5  397   6.292   6.378   2.688
    1CHTO   H18  398   6.371   6.374   2.763
    1CHTO   C16  399   6.350   6.438   2.558
    1CHTO   O11  400   6.254   6.442   2.451
    1CHTO    H5  401   6.187   6.504   2.471
    1CHTO    O3  402   6.163   6.041   2.719
    1CHTO    C6  403   6.269   5.945   2.688
    1CHTO   H19  404   6.368   5.991   2.682
    1CHTO    C8  405   6.273   5.835   2.799
    1CHTO   H21  406   6.172   5.796   2.813
    1CHTO    O7  407   6.316   5.898   0.044
    1CHTO    H2  408   6.405   5.929   0.035
    1CHTO   C12  409   6.367   5.715   2.758
    1CHTO   H25  410   6.471   5.756   2.754
    1CHTO    N3  411   6.369   5.605   2.860
    1CHTO   H12  412   6.306   5.629   0.067
    1CHTO   H13  413   6.340   5.511   2.817
    1CHTO   C15  414   6.328   5.666   2.614
    1CHTO   H28  415   6.229   5.619   2.613
    1CHTO   O10  416   6.430   5.570   2.552
    1CHTO    H4  417   6.435   5.492   2.603
    1CHTO    O5  418   6.331   5.775   2.521
    1CHTO   C10  419   6.239   5.882   2.549
    1CHTO   H23  420   6.138   5.842   2.545
    1CHTO   C17  421   6.255   5.981   2.432
    1CHTO   O12  422   6.162   6.090   2.437
    1CHTO    H6  423   6.075   6.058   2.427
    2CHTO  H203  424   3.936   4.247   1.642
    2CHTO   O82  425   3.888   4.324   1.668
    2CHTO  C123  426   3.914   4.432   1.577
    2CHTO  H227  427   4.023   4.441   1.562
    2CHTO   O77  428   3.849   4.389   1.454
    2CHTO  C118  429   3.877   4.474   1.341
    2CHTO  H222  430   3.986   4.481   1.327
    2CHTO  C125  431   3.813   4.404   1.216
    2CHTO   O84  432   3.859   4.461   1.093
    2CHTO  H205  433   3.819   4.418   1.021
    2CHTO  C114  434   3.818   4.614   1.367
    2CHTO  H218  435   3.709   4.606   1.368
    2CHTO  C116  436   3.861   4.674   1.505
    2CHTO  H220  437   3.966   4.711   1.496
    2CHTO   O79  438   3.780   4.790   1.532
    2CHTO  H201  439   3.690   4.766   1.540
    2CHTO  C120  440   3.851   4.568   1.623
    2CHTO  H224  441   3.742   4.554   1.643
    2CHTO   N21  442   3.912   4.621   1.748
    2CHTO  H211  443   3.838   4.675   1.805
    2CHTO  H212  444   3.953   4.540   1.807
    2CHTO   O75  445   3.860   4.692   1.253
    2CHTO  C112  446   3.784   4.837   1.230
    2CHTO  H216  447   3.819   4.908   1.307
    2CHTO   O73  448   3.642   4.815   1.238
    2CHTO  C113  449   3.565   4.935   1.228
    2CHTO  H217  450   3.600   5.008   1.305
    2CHTO  C124  451   3.421   4.897   1.263
    2CHTO   O83  452   3.338   5.010   1.289
    2CHTO  H204  453   3.250   4.981   1.305
    2CHTO  C109  454   3.581   4.994   1.085
    2CHTO  H213  455   3.541   4.918   1.015
    2CHTO  C110  456   3.732   5.019   1.056
    2CHTO  H214  457   3.764   5.104   1.117
    2CHTO   O78  458   3.747   5.060   0.918
    2CHTO  H200  459   3.720   4.991   0.860
    2CHTO  C111  460   3.819   4.894   1.088
    2CHTO  H215  461   3.796   4.815   1.014
    2CHTO   N19  462   3.965   4.919   1.078
    2CHTO  H207  463   3.991   4.948   0.977
    2CHTO  H208  464   3.994   4.997   1.146
    2CHTO   O74  465   3.503   5.117   1.070
    2CHTO  C115  466   3.426   5.127   0.927
    2CHTO  H219  467   3.474   5.064   0.850
    2CHTO   O76  468   3.280   5.072   0.936
    2CHTO  C122  469   3.197   5.155   1.018
    2CHTO  H226  470   3.243   5.161   1.117
    2CHTO  C126  471   3.058   5.084   1.040
    2CHTO   O85  472   2.987   5.060   0.918
    2CHTO  H206  473   2.957   5.141   0.883
    2CHTO  C121  474   3.181   5.301   0.959
    2CHTO  H225  475   3.079   5.311   0.918
    2CHTO   O81  476   3.196   5.396   1.066
    2CHTO  H202  477   3.126   5.387   1.127
    2CHTO  C119  478   3.284   5.331   0.845
    2CHTO  H223  479   3.248   5.273   0.759
    2CHTO  C117  480   3.429   5.279   0.880
    2CHTO  H221  481   3.477   5.332   0.962
    2CHTO   N20  482   3.520   5.298   0.763
    2CHTO  H209  483   3.621   5.270   0.789
    2CHTO  H210  484   3.486   5.239   0.679
    2CHTO   O80  485   3.274   5.483   0.788
    2CHTO  C103  486   3.144   5.530   0.711
    2CHTO  H190  487   3.089   5.444   0.674
    2CHTO  C101  488   3.046   5.624   0.792
    2CHTO  H188  489   3.104   5.705   0.837
    2CHTO   O68  490   2.980   5.543   0.906
    2CHTO  H168  491   3.046   5.513   0.966
    2CHTO   C99  492   2.936   5.688   0.695
    2CHTO  H186  493   2.873   5.606   0.653
    2CHTO   N17  494   2.842   5.784   0.763
    2CHTO  H174  495   2.792   5.734   0.845
    2CHTO  H175  496   2.897   5.870   0.798
    2CHTO   C97  497   3.006   5.754   0.573
    2CHTO  H184  498   3.063   5.841   0.609
    2CHTO   O64  499   3.089   5.658   0.506
    2CHTO  C104  500   3.198   5.609   0.586
    2CHTO  H191  501   3.261   5.692   0.620
    2CHTO  C108  502   3.288   5.521   0.498
    2CHTO   O71  503   3.349   5.595   0.392
    2CHTO  H171  504   3.412   5.655   0.427
    2CHTO   O62  505   2.912   5.792   0.470
    2CHTO   C91  506   2.929   5.923   0.415
    2CHTO  H178  507   2.950   5.992   0.497
    2CHTO   C92  508   2.791   5.970   0.356
    2CHTO  H179  509   2.710   5.947   0.428
    2CHTO   O66  510   2.793   6.113   0.346
    2CHTO  H166  511   2.793   6.152   0.431
    2CHTO   C93  512   2.760   5.911   0.213
    2CHTO  H180  513   2.680   5.973   0.170
    2CHTO   N16  514   2.703   5.774   0.214
    2CHTO  H172  515   2.768   5.703   0.166
    2CHTO  H173  516   2.681   5.742   0.315
    2CHTO   C94  517   2.888   5.921   0.119
    2CHTO  H181  518   2.929   5.823   0.095
    2CHTO   O61  519   2.996   5.994   0.181
    2CHTO   C95  520   3.042   5.934   0.303
    2CHTO  H182  521   3.080   5.834   0.282
    2CHTO  C106  522   3.164   6.017   0.356
    2CHTO   O69  523   3.274   6.013   0.263
    2CHTO  H169  524   3.252   6.062   0.186
    2CHTO   O63  525   2.848   5.994   2.859
    2CHTO   C96  526   2.807   6.148   2.870
    2CHTO  H183  527   2.789   6.170   0.097
    2CHTO   C98  528   2.677   6.182   2.793
    2CHTO  H185  529   2.682   6.142   2.690
    2CHTO   O67  530   2.569   6.110   2.856
    2CHTO  H167  531   2.554   6.142   0.065
    2CHTO  C102  532   2.652   6.340   2.791
    2CHTO  H189  533   2.650   6.371   0.019
    2CHTO   N18  534   2.523   6.387   2.733
    2CHTO  H176  535   2.467   6.442   2.807
    2CHTO  H177  536   2.465   6.304   2.698
    2CHTO  C105  537   2.773   6.409   2.722
    2CHTO  H192  538   2.749   6.430   2.617
    2CHTO   O65  539   2.896   6.334   2.718
    2CHTO  C100  540   2.929   6.237   2.821
    2CHTO  H187  541   3.002   6.170   2.775
    2CHTO  C107  542   3.002   6.307   0.061
    2CHTO   O70  543   2.918   6.398   0.133
    2CHTO  H170  544   2.966   6.434   0.205
    2CHTO   O57  545   2.790   6.548   2.801
    2CHTO   C85  546   2.829   6.667   2.730
    2CHTO  H157  547   2.761   6.673   2.642
    2CHTO   C83  548   2.973   6.650   2.672
    2CHTO  H155  549   2.971   6.569   2.598
    2CHTO   O56  550   3.061   6.606   2.778
    2CHTO  H135  551   3.146   6.586   2.743
    2CHTO   C81  552   3.017   6.781   2.601
    2CHTO  H153  553   2.944   6.804   2.524
    2CHTO   N14  554   3.146   6.769   2.528
    2CHTO  H141  555   3.193   6.675   2.547
    2CHTO  H142  556   3.131   6.780   2.423
    2CHTO   C79  557   3.017   6.900   2.705
    2CHTO  H151  558   3.043   6.991   2.651
    2CHTO   O52  559   2.881   6.918   2.757
    2CHTO   C86  560   2.822   6.799   2.819
    2CHTO  H158  561   2.879   6.786   0.036
    2CHTO   C90  562   2.677   6.833   2.860
    2CHTO   O60  563   2.617   6.731   0.062
    2CHTO  H138  564   2.657   6.729   0.147
    2CHTO   O50  565   3.108   6.883   2.815
    2CHTO   C73  566   3.214   6.946   0.010
    2CHTO  H145  567   3.209   7.055   2.876
    2CHTO   C74  568   3.353   6.896   2.836
    2CHTO  H146  569   3.357   6.921   2.729
    2CHTO   O54  570   3.455   6.975   0.022
    2CHTO  H133  571   3.540   6.951   2.867
    2CHTO   C75  572   3.366   6.741   2.863
    2CHTO  H147  573   3.290   6.689   2.802
    2CHTO   N13  574   3.494   6.682   2.817
    2CHTO  H139  575   3.549   6.639   0.022
    2CHTO  H140  576   3.557   6.756   2.769
    2CHTO   C76  577   3.334   6.708   0.139
    2CHTO  H148  578   3.416   6.746   0.199
    2CHTO   O49  579   3.208   6.769   0.183
    2CHTO   C77  580   3.201   6.911   0.162
    2CHTO  H149  581   3.282   6.961   0.216
    2CHTO   C88  582   3.071   6.966   0.222
    2CHTO   O58  583   3.070   6.950   0.371
    2CHTO  H136  584   3.133   7.007   0.409
    2CHTO   O51  585   3.310   6.553   0.160
    2CHTO   C78  586   3.368   6.500   0.298
    2CHTO  H150  587   3.392   6.584   0.366
    2CHTO   C80  588   3.497   6.419   0.272
    2CHTO  H152  589   3.475   6.343   0.194
    2CHTO   O55  590   3.595   6.510   0.218
    2CHTO  H134  591   3.618   6.576   0.281
    2CHTO   C84  592   3.550   6.347   0.403
    2CHTO  H156  593   3.584   6.425   0.472
    2CHTO   N15  594   3.669   6.259   0.374
    2CHTO  H143  595   3.642   6.182   0.306
    2CHTO  H144  596   3.705   6.215   0.465
    2CHTO   C87  597   3.436   6.268   0.471
    2CHTO  H159  598   3.406   6.185   0.408
    2CHTO   O53  599   3.315   6.364   0.492
    2CHTO   C82  600   3.262   6.414   0.368
    2CHTO  H154  601   3.231   6.331   0.304
    2CHTO   C89  602   3.135   6.497   0.399
    2CHTO   O59  603   3.032   6.415   0.455
    2CHTO  H137  604   2.957   6.468   0.473
    2CHTO   O45  605   3.488   6.205   0.619
    2CHTO   C67  606   3.407   6.232   0.735
    2CHTO  H124  607   3.360   6.330   0.724
    2CHTO   C65  608   3.295   6.124   0.754
    2CHTO  H122  609   3.334   6.032   0.709
    2CHTO   O44  610   3.182   6.169   0.677
    2CHTO  H102  611   3.116   6.102   0.675
    2CHTO   C63  612   3.270   6.088   0.906
    2CHTO  H120  613   3.350   6.023   0.940
    2CHTO   N11  614   3.150   6.003   0.935
    2CHTO  H108  615   3.151   5.915   0.873
    2CHTO  H109  616   3.060   6.059   0.916
    2CHTO   C61  617   3.280   6.219   0.992
    2CHTO  H118  618   3.270   6.189   1.097
    2CHTO   O40  619   3.410   6.284   0.979
    2CHTO   C68  620   3.495   6.245   0.866
    2CHTO  H125  621   3.545   6.148   0.889
    2CHTO   C72  622   3.607   6.350   0.852
    2CHTO   O48  623   3.711   6.311   0.763
    2CHTO  H105  624   3.776   6.379   0.758
    2CHTO   O38  625   3.176   6.313   0.957
    2CHTO   C55  626   3.156   6.427   1.044
    2CHTO  H112  627   3.250   6.452   1.095
    2CHTO   C56  628   3.038   6.397   1.146
    2CHTO  H113  629   2.955   6.354   1.088
    2CHTO   O42  630   3.080   6.295   1.238
    2CHTO  H100  631   3.010   6.272   1.296
    2CHTO   C57  632   2.991   6.529   1.222
    2CHTO  H114  633   3.072   6.559   1.288
    2CHTO   N10  634   2.870   6.507   1.306
    2CHTO  H106  635   2.812   6.598   1.315
    2CHTO  H107  636   2.899   6.473   1.404
    2CHTO   C58  637   2.968   6.641   1.117
    2CHTO  H115  638   2.884   6.611   1.050
    2CHTO   O37  639   3.087   6.662   1.040
    2CHTO   C59  640   3.121   6.551   0.956
    2CHTO  H116  641   3.038   6.528   0.889
    2CHTO   C70  642   3.242   6.590   0.870
    2CHTO   O46  643   3.214   6.699   0.781
    2CHTO  H103  644   3.152   6.672   0.716
    2CHTO   O39  645   2.936   6.784   1.188
    2CHTO   C60  646   2.829   6.860   1.127
    2CHTO  H117  647   2.793   6.809   1.037
    2CHTO   C62  648   2.708   6.874   1.224
    2CHTO  H119  649   2.674   6.770   1.246
    2CHTO   O43  650   2.752   6.933   1.348
    2CHTO  H101  651   2.781   7.021   1.334
    2CHTO   C66  652   2.590   6.956   1.152
    2CHTO  H123  653   2.564   6.905   1.059
    2CHTO   N12  654   2.465   6.959   1.233
    2CHTO  H110  655   2.484   7.006   1.328
    2CHTO  H111  656   2.427   6.859   1.245
    2CHTO   C69  657   2.641   7.097   1.114
    2CHTO  H126  658   2.669   7.153   1.206
    2CHTO   O41  659   2.767   7.083   1.021
    2CHTO   C64  660   2.880   7.000   1.082
    2CHTO  H121  661   2.920   7.053   1.171
    2CHTO   C71  662   2.996   6.989   0.979
    2CHTO   O47  663   2.953   6.925   0.858
    2CHTO  H104  664   3.025   6.920   0.798
    2CHTO   O34  665   2.531   7.181   1.037
    2CHTO   C49  666   2.492   7.330   1.049
    2CHTO   H91  667   2.441   7.341   1.145
    2CHTO   C47  668   2.397   7.364   0.933
    2CHTO   H89  669   2.361   7.468   0.951
    2CHTO   O33  670   2.284   7.275   0.938
    2CHTO   H70  671   2.232   7.292   1.014
    2CHTO   C45  672   2.479   7.358   0.795
    2CHTO   H87  673   2.525   7.258   0.787
    2CHTO    N8  674   2.392   7.378   0.676
    2CHTO   H75  675   2.389   7.289   0.616
    2CHTO   H76  676   2.426   7.462   0.616
    2CHTO   C43  677   2.603   7.461   0.801
    2CHTO   H85  678   2.661   7.445   0.710
    2CHTO   O29  679   2.683   7.435   0.919
    2CHTO   C50  680   2.617   7.422   1.047
    2CHTO   H92  681   2.690   7.379   1.116
    2CHTO   C54  682   2.587   7.561   1.111
    2CHTO   O36  683   2.707   7.634   1.137
    2CHTO   H72  684   2.756   7.593   1.206
    2CHTO   O27  685   2.562   7.598   0.800
    2CHTO   C37  686   2.591   7.717   0.724
    2CHTO   H79  687   2.630   7.690   0.624
    2CHTO   C38  688   2.461   7.800   0.702
    2CHTO   H80  689   2.412   7.813   0.800
    2CHTO   O31  690   2.375   7.722   0.617
    2CHTO   H68  691   2.291   7.763   0.609
    2CHTO   C39  692   2.491   7.941   0.638
    2CHTO   H81  693   2.527   7.925   0.537
    2CHTO    N7  694   2.368   8.028   0.628
    2CHTO   H73  695   2.393   8.123   0.583
    2CHTO   H74  696   2.293   7.978   0.569
    2CHTO   C40  697   2.607   8.014   0.718
    2CHTO   H82  698   2.570   8.040   0.817
    2CHTO   O26  699   2.721   7.927   0.723
    2CHTO   C41  700   2.698   7.804   0.797
    2CHTO   H83  701   2.662   7.828   0.898
    2CHTO   C52  702   2.834   7.731   0.813
    2CHTO   O35  703   2.897   7.693   0.682
    2CHTO   H71  704   2.919   7.771   0.634
    2CHTO   O28  705   2.649   8.135   0.652
    2CHTO   C42  706   2.748   8.229   0.707
    2CHTO   H84  707   2.734   8.319   0.646
    2CHTO   C44  708   2.898   8.187   0.688
    2CHTO   H86  709   2.913   8.090   0.737
    2CHTO   O32  710   2.919   8.170   0.546
    2CHTO   H69  711   2.871   8.096   0.515
    2CHTO   C48  712   2.999   8.290   0.752
    2CHTO   H90  713   2.994   8.383   0.695
    2CHTO    N9  714   3.142   8.243   0.741
    2CHTO   H77  715   3.208   8.316   0.786
    2CHTO   H78  716   3.168   8.227   0.638
    2CHTO   C51  717   2.957   8.319   0.900
    2CHTO   H93  718   2.962   8.226   0.956
    2CHTO   O30  719   2.823   8.372   0.898
    2CHTO   C46  720   2.721   8.270   0.855
    2CHTO   H88  721   2.730   8.182   0.919
    2CHTO   C53  722   2.581   8.334   0.872
    2CHTO   O72  723   2.554   8.361   1.010
    2CHTO  H199  724   2.541   8.280   1.057
    2CHTO   O22  725   3.037   8.421   0.964
    2CHTO   C31  726   3.044   8.431   1.112
    2CHTO   H59  727   3.106   8.522   1.133
    2CHTO   C29  728   2.908   8.452   1.182
    2CHTO   H57  729   2.843   8.368   1.153
    2CHTO   O21  730   2.849   8.572   1.128
    2CHTO   H37  731   2.760   8.580   1.157
    2CHTO   C27  732   2.919   8.456   1.340
    2CHTO   H55  733   2.974   8.546   1.369
    2CHTO    N5  734   2.785   8.459   1.407
    2CHTO   H43  735   2.705   8.451   1.335
    2CHTO   H44  736   2.776   8.382   1.482
    2CHTO   C25  737   3.005   8.334   1.389
    2CHTO   H53  738   2.950   8.240   1.369
    2CHTO   O17  739   3.133   8.329   1.319
    2CHTO   C32  740   3.121   8.312   1.177
    2CHTO   H60  741   3.066   8.220   1.156
    2CHTO   C36  742   3.263   8.297   1.117
    2CHTO   O25  743   3.327   8.178   1.164
    2CHTO   H40  744   3.346   8.186   1.256
    2CHTO   O15  745   3.033   8.342   1.544
    2CHTO   C19  746   3.052   8.244   1.649
    2CHTO   H47  747   2.970   8.172   1.633
    2CHTO   C20  748   3.188   8.167   1.641
    2CHTO   H48  749   3.274   8.235   1.642
    2CHTO   O19  750   3.189   8.096   1.515
    2CHTO   H35  751   3.196   8.157   1.444
    2CHTO   C21  752   3.205   8.066   1.762
    2CHTO   H49  753   3.130   7.987   1.753
    2CHTO    N4  754   3.338   7.999   1.763
    2CHTO   H41  755   3.345   7.931   1.847
    2CHTO   H42  756   3.352   7.944   1.671
    2CHTO   C22  757   3.177   8.140   1.895
    2CHTO   H50  758   3.253   8.218   1.909
    2CHTO   O14  759   3.046   8.201   1.892
    2CHTO   C23  760   3.032   8.303   1.792
    2CHTO   H51  761   3.106   8.381   1.814
    2CHTO   C34  762   2.894   8.368   1.808
    2CHTO   O23  763   2.786   8.274   1.795
    2CHTO   H38  764   2.787   8.215   1.868
    2CHTO   O16  765   3.173   8.052   2.010
    2CHTO   C24  766   3.202   8.130   2.150
    2CHTO   H52  767   3.192   8.238   2.139
    2CHTO   C26  768   3.344   8.096   2.199
    2CHTO   H54  769   3.353   7.985   2.208
    2CHTO   O20  770   3.439   8.141   2.101
    2CHTO   H36  771   3.432   8.089   2.023
    2CHTO   C30  772   3.371   8.159   2.339
    2CHTO   H58  773   3.378   8.269   2.329
    2CHTO    N6  774   3.502   8.116   2.395
    2CHTO   H45  775   3.582   8.145   2.329
    2CHTO   H46  776   3.519   8.162   2.492
    2CHTO   C33  777   3.254   8.133   2.439
    2CHTO   H61  778   3.256   8.028   2.472
    2CHTO   O18  779   3.127   8.159   2.377
    2CHTO   C28  780   3.100   8.085   2.257
    2CHTO   H56  781   3.111   7.978   2.275
    2CHTO   C35  782   2.955   8.112   2.211
    2CHTO   O24  783   2.858   8.066   2.306
    2CHTO   H39  784   2.858   7.972   2.309
    2CHTO    O9  785   3.271   8.212   2.559
    2CHTO   C13  786   3.182   8.167   2.684
    2CHTO   H26  787   3.175   8.057   2.683
    2CHTO   C11  788   3.040   8.235   2.676
    2CHTO   H24  789   2.989   8.195   2.586
    2CHTO    O8  790   3.051   8.378   2.659
    2CHTO    H3  791   3.092   8.397   2.577
    2CHTO    C9  792   2.959   8.191   2.800
    2CHTO   H22  793   2.960   8.081   2.799
    2CHTO    N2  794   2.815   8.226   2.792
    2CHTO   H10  795   2.762   8.181   2.875
    2CHTO   H11  796   2.803   8.333   2.794
    2CHTO    C7  797   3.031   8.240   0.053
    2CHTO   H20  798   2.975   8.189   0.135
    2CHTO    O4  799   3.169   8.196   0.058
    2CHTO   C14  800   3.256   8.203   2.821
    2CHTO   H27  801   3.334   8.127   2.838
    2CHTO   C18  802   3.327   8.342   2.822
    2CHTO   O13  803   3.440   8.345   2.734
    2CHTO    H7  804   3.479   8.430   2.737
    2CHTO    O2  805   3.025   8.407   0.078
    2CHTO    C1  806   2.994   8.442   0.215
    2CHTO   H14  807   3.026   8.359   0.282
    2CHTO    C2  808   2.840   8.472   0.241
    2CHTO   H15  809   2.812   8.551   0.170
    2CHTO    O6  810   2.763   8.354   0.213
    2CHTO    H1  811   2.788   8.284   0.271
    2CHTO    C3  812   2.815   8.521   0.392
    2CHTO   H16  813   2.829   8.434   0.458
    2CHTO    N1  814   2.675   8.570   0.413
    2CHTO    H8  815   2.661   8.601   0.516
    2CHTO    H9  816   2.604   8.492   0.389
    2CHTO    C4  817   2.922   8.627   0.438
    2CHTO   H17  818   2.896   8.725   0.398
    2CHTO    O1  819   3.056   8.591   0.400
    2CHTO    C5  820   3.075   8.567   0.259
    2CHTO   H18  821   3.038   8.653   0.203
    2CHTO   C16  822   3.227   8.555   0.234
    2CHTO   O11  823   3.285   8.445   0.306
    2CHTO    H5  824   3.377   8.441   0.288
    2CHTO    O3  825   2.926   8.631   0.583
    2CHTO    C6  826   2.978   8.754   0.645
    2CHTO   H19  827   3.030   8.818   0.574
    2CHTO    C8  828   2.860   8.835   0.709
    2CHTO   H21  829   2.802   8.767   0.772
    2CHTO    O7  830   2.777   8.883   0.601
    2CHTO    H2  831   2.731   8.811   0.561
    2CHTO   C12  832   2.915   8.954   0.798
    2CHTO   H25  833   2.959   9.028   0.728
    2CHTO    N3  834   2.803   9.024   0.870
    2CHTO   H12  835   2.751   8.955   0.935
    2CHTO   H13  836   2.734   9.067   0.799
    2CHTO   C15  837   3.027   8.902   0.895
    2CHTO   H28  838   2.986   8.838   0.974
    2CHTO   O10  839   3.108   9.019   0.960
    2CHTO    H4  840   3.166   8.985   1.026
    2CHTO    O5  841   3.129   8.832   0.823
    2CHTO   C10  842   3.080   8.715   0.755
    2CHTO   H23  843   3.032   8.649   0.828
    2CHTO   C17  844   3.201   8.639   0.697
    2CHTO   O12  845   3.287   8.591   0.801
    2CHTO    H6  846   3.361   8.549   0.762
    3CHTO  H203  847   7.863   2.369   2.110
    3CHTO   O82  848   7.921   2.363   2.184
    3CHTO  C123  849   7.877   2.261   2.275
    3CHTO  H227  850   7.950   2.253   2.357
    3CHTO   O77  851   7.750   2.312   2.326
    3CHTO  C118  852   7.691   2.230   2.429
    3CHTO  H222  853   7.763   2.219   2.512
    3CHTO  C125  854   7.563   2.306   2.483
    3CHTO   O84  855   7.469   2.331   2.378
    3CHTO  H205  856   7.431   2.251   2.349
    3CHTO  C114  857   7.656   2.091   2.373
    3CHTO  H218  858   7.579   2.103   2.295
    3CHTO  C116  859   7.780   2.023   2.307
    3CHTO  H220  860   7.851   1.992   2.387
    3CHTO   O79  861   7.736   1.902   2.242
    3CHTO  H201  862   7.810   1.856   2.207
    3CHTO  C120  863   7.853   2.121   2.206
    3CHTO  H224  864   7.785   2.134   2.119
    3CHTO   N21  865   7.979   2.061   2.153
    3CHTO  H211  866   8.062   2.085   2.218
    3CHTO  H212  867   7.998   2.097   2.053
    3CHTO   O75  868   7.602   2.019   2.485
    3CHTO  C112  869   7.490   1.906   2.447
    3CHTO  H216  870   7.510   1.869   2.345
    3CHTO   O73  871   7.361   1.969   2.455
    3CHTO  C113  872   7.254   1.883   2.415
    3CHTO  H217  873   7.272   1.849   2.310
    3CHTO  C124  874   7.124   1.965   2.412
    3CHTO   O83  875   7.090   2.022   2.539
    3CHTO  H204  876   7.068   1.954   2.600
    3CHTO  C109  877   7.242   1.760   2.508
    3CHTO  H213  878   7.212   1.798   2.607
    3CHTO  C110  879   7.379   1.686   2.518
    3CHTO  H214  880   7.398   1.635   2.423
    3CHTO   O78  881   7.369   1.584   2.619
    3CHTO  H200  882   7.310   1.516   2.592
    3CHTO  C111  883   7.495   1.786   2.549
    3CHTO  H215  884   7.480   1.826   2.650
    3CHTO   N19  885   7.629   1.722   2.547
    3CHTO  H207  886   7.633   1.643   2.621
    3CHTO  H208  887   7.705   1.796   2.569
    3CHTO   O74  888   7.137   1.671   2.458
    3CHTO  C115  889   7.051   1.598   2.573
    3CHTO  H219  890   7.105   1.594   2.668
    3CHTO   O76  891   6.919   1.678   2.606
    3CHTO  C122  892   6.835   1.698   2.492
    3CHTO  H226  893   6.878   1.779   2.433
    3CHTO  C126  894   6.695   1.750   2.541
    3CHTO   O85  895   6.630   1.661   2.632
    3CHTO  H206  896   6.545   1.696   2.654
    3CHTO  C121  897   6.819   1.568   2.400
    3CHTO  H225  898   6.712   1.555   2.373
    3CHTO   O81  899   6.891   1.586   2.277
    3CHTO  H202  900   6.855   1.657   2.228
    3CHTO  C119  901   6.868   1.441   2.475
    3CHTO  H223  902   6.805   1.434   2.564
    3CHTO  C117  903   7.018   1.452   2.522
    3CHTO  H221  904   7.091   1.434   2.443
    3CHTO   N20  905   7.050   1.349   2.628
    3CHTO  H209  906   6.962   1.293   2.656
    3CHTO  H210  907   7.127   1.282   2.592
    3CHTO   O80  908   6.830   1.306   2.400
    3CHTO  C103  909   6.708   1.217   2.453
    3CHTO  H190  910   6.718   1.199   2.560
    3CHTO  C101  911   6.564   1.272   2.424
    3CHTO  H188  912   6.556   1.297   2.318
    3CHTO   O68  913   6.542   1.400   2.506
    3CHTO  H168  914   6.460   1.440   2.482
    3CHTO   C99  915   6.453   1.160   2.457
    3CHTO  H186  916   6.456   1.139   2.566
    3CHTO   N17  917   6.312   1.203   2.425
    3CHTO  H174  918   6.290   1.297   2.474
    3CHTO  H175  919   6.243   1.126   2.455
    3CHTO   C97  920   6.489   1.026   2.387
    3CHTO  H184  921   6.477   1.040   2.278
    3CHTO   O64  922   6.623   0.986   2.422
    3CHTO  C104  923   6.726   1.078   2.381
    3CHTO  H191  924   6.725   1.092   2.273
    3CHTO  C108  925   6.863   1.017   2.415
    3CHTO   O71  926   6.885   0.896   2.341
    3CHTO  H171  927   6.969   0.860   2.364
    3CHTO   O62  928   6.407   0.917   2.434
    3CHTO   C91  929   6.393   0.804   2.345
    3CHTO  H178  930   6.465   0.814   2.264
    3CHTO   C92  931   6.252   0.804   2.280
    3CHTO  H179  932   6.177   0.808   2.360
    3CHTO   O66  933   6.235   0.926   2.205
    3CHTO  H166  934   6.234   1.000   2.263
    3CHTO   C93  935   6.227   0.680   2.184
    3CHTO  H180  936   6.276   0.703   2.089
    3CHTO   N16  937   6.083   0.662   2.151
    3CHTO  H172  938   6.045   0.751   2.103
    3CHTO  H173  939   6.071   0.577   2.085
    3CHTO   C94  940   6.287   0.546   2.240
    3CHTO  H181  941   6.220   0.497   2.311
    3CHTO   O61  942   6.413   0.564   2.308
    3CHTO   C95  943   6.415   0.663   2.411
    3CHTO  H182  944   6.335   0.642   2.482
    3CHTO  C106  945   6.551   0.650   2.486
    3CHTO   O69  946   6.554   0.730   2.605
    3CHTO  H169  947   6.636   0.720   2.648
    3CHTO   O63  948   6.321   0.448   2.113
    3CHTO   C96  949   6.275   0.296   2.128
    3CHTO  H183  950   6.320   0.242   2.044
    3CHTO   C98  951   6.121   0.278   2.119
    3CHTO  H185  952   6.071   0.349   2.186
    3CHTO   O67  953   6.083   0.316   1.985
    3CHTO  H167  954   5.989   0.314   1.976
    3CHTO  C102  955   6.075   0.128   2.152
    3CHTO  H189  956   6.119   0.064   2.074
    3CHTO   N18  957   5.929   0.103   2.146
    3CHTO  H176  958   5.907  10.000   2.168
    3CHTO  H177  959   5.878   0.167   2.217
    3CHTO  C105  960   6.138   0.090   2.289
    3CHTO  H192  961   6.099   0.157   2.365
    3CHTO   O65  962   6.281   0.101   2.286
    3CHTO  C100  963   6.333   0.233   2.261
    3CHTO  H187  964   6.307   0.296   2.347
    3CHTO  C107  965   6.488   0.217   2.259
    3CHTO   O70  966   6.559   0.338   2.235
    3CHTO  H170  967   6.548   0.396   2.308
    3CHTO   O57  968   6.099   9.932   2.323
    3CHTO   C85  969   6.062   9.880   2.452
    3CHTO  H157  970   6.150   9.821   2.485
    3CHTO   C83  971   5.948   9.775   2.427
    3CHTO  H155  972   5.990   9.693   2.369
    3CHTO   O56  973   5.845   9.835   2.346
    3CHTO  H135  974   5.782   9.770   2.321
    3CHTO   C81  975   5.895   9.718   2.562
    3CHTO  H153  976   5.980   9.676   2.616
    3CHTO   N14  977   5.801   9.604   2.544
    3CHTO  H141  978   5.843   9.514   2.585
    3CHTO  H142  979   5.707   9.624   2.590
    3CHTO   C79  980   5.836   9.836   2.648
    3CHTO  H151  981   5.802   9.793   2.743
    3CHTO   O52  982   5.943   9.929   2.680
    3CHTO   C86  983   6.016   9.985   2.565
    3CHTO  H158  984   5.946   0.060   2.522
    3CHTO   C90  985   6.136   0.065   2.621
    3CHTO   O60  986   6.227   9.979   2.690
    3CHTO  H138  987   6.298   0.031   2.724
    3CHTO   O50  988   5.727   9.906   2.586
    3CHTO   C73  989   5.594   9.941   2.626
    3CHTO  H145  990   5.564   9.884   2.715
    3CHTO   C74  991   5.494   9.906   2.510
    3CHTO  H146  992   5.509   9.800   2.486
    3CHTO   O54  993   5.360   9.918   2.563
    3CHTO  H133  994   5.298   9.892   2.498
    3CHTO   C75  995   5.522   9.999   2.386
    3CHTO  H147  996   5.624   9.981   2.351
    3CHTO   N13  997   5.433   9.971   2.270
    3CHTO  H139  998   5.458   0.037   2.188
    3CHTO  H140  999   5.447   9.869   2.237
    3CHTO   C76 1000   5.514   0.151   2.434
    3CHTO  H148 1001   5.412   0.168   2.471
    3CHTO   O49 1002   5.610   0.174   2.542
    3CHTO   C77 1003   5.584   0.093   2.658
    3CHTO  H149 1004   5.485   0.116   2.696
    3CHTO   C88 1005   5.682   0.138   2.768
    3CHTO   O58 1006   5.659   0.065   0.018
    3CHTO  H136 1007   5.684   9.975   0.007
    3CHTO   O51 1008   5.552   0.252   2.317
    3CHTO   C78 1009   5.561   0.409   2.357
    3CHTO  H150 1010   5.645   0.427   2.428
    3CHTO   C80 1011   5.430   0.462   2.421
    3CHTO  H152 1012   5.345   0.428   2.359
    3CHTO   O55 1013   5.414   0.401   2.551
    3CHTO  H134 1014   5.485   0.426   2.608
    3CHTO   C84 1015   5.427   0.620   2.435
    3CHTO  H156 1016   5.494   0.645   2.518
    3CHTO   N15 1017   5.291   0.670   2.474
    3CHTO  H143 1018   5.293   0.777   2.484
    3CHTO  H144 1019   5.260   0.626   2.567
    3CHTO   C87 1020   5.480   0.692   2.309
    3CHTO  H159 1021   5.404   0.691   2.230
    3CHTO   O53 1022   5.609   0.626   2.258
    3CHTO   C82 1023   5.593   0.487   2.228
    3CHTO  H154 1024   5.514   0.473   2.154
    3CHTO   C89 1025   5.724   0.435   2.164
    3CHTO   O59 1026   5.749   0.495   2.037
    3CHTO  H137 1027   5.770   0.586   2.048
    3CHTO   O45 1028   5.513   0.854   2.345
    3CHTO   C67 1029   5.643   0.879   2.403
    3CHTO  H124 1030   5.685   0.785   2.439
    3CHTO   C65 1031   5.740   0.940   2.295
    3CHTO  H122 1032   5.677   0.994   2.225
    3CHTO   O44 1033   5.802   0.830   2.227
    3CHTO  H102 1034   5.737   0.780   2.179
    3CHTO   C63 1035   5.836   1.050   2.355
    3CHTO  H120 1036   5.779   1.142   2.369
    3CHTO   N11 1037   5.945   1.099   2.264
    3CHTO  H108 1038   6.016   1.021   2.248
    3CHTO  H109 1039   5.903   1.130   2.170
    3CHTO   C61 1040   5.883   1.005   2.498
    3CHTO  H118 1041   5.946   1.087   2.537
    3CHTO   O40 1042   5.769   0.993   2.589
    3CHTO   C68 1043   5.636   0.973   2.530
    3CHTO  H125 1044   5.596   1.072   2.500
    3CHTO   C72 1045   5.543   0.918   2.642
    3CHTO   O48 1046   5.591   0.797   2.702
    3CHTO  H105 1047   5.668   0.815   2.752
    3CHTO   O38 1048   5.960   0.883   2.493
    3CHTO   C55 1049   5.994   0.814   2.615
    3CHTO  H112 1050   5.905   0.809   2.681
    3CHTO   C56 1051   6.118   0.882   2.689
    3CHTO  H113 1052   6.196   0.896   2.613
    3CHTO   O42 1053   6.081   1.013   2.735
    3CHTO  H100 1054   6.060   1.069   2.662
    3CHTO   C57 1055   6.171   0.793   2.808
    3CHTO  H114 1056   6.095   0.797   0.009
    3CHTO   N10 1057   6.298   0.844   2.868
    3CHTO  H106 1058   6.304   0.817   0.094
    3CHTO  H107 1059   6.384   0.805   2.815
    3CHTO   C58 1060   6.187   0.645   2.763
    3CHTO  H115 1061   6.270   0.639   2.688
    3CHTO   O37 1062   6.065   0.597   2.704
    3CHTO   C59 1063   6.028   0.665   2.583
    3CHTO  H116 1064   6.110   0.660   2.511
    3CHTO   C70 1065   5.908   0.593   2.521
    3CHTO   O46 1066   5.941   0.462   2.476
    3CHTO  H103 1067   5.865   0.423   2.436
    3CHTO   O39 1068   6.220   0.548   0.012
    3CHTO   C60 1069   6.263   0.415   2.854
    3CHTO  H117 1070   6.201   0.378   2.772
    3CHTO   C62 1071   6.412   0.411   2.808
    3CHTO  H119 1072   6.418   0.475   2.717
    3CHTO   O43 1073   6.495   0.470   0.032
    3CHTO  H101 1074   6.584   0.474   0.002
    3CHTO   C66 1075   6.453   0.260   2.770
    3CHTO  H123 1076   6.385   0.225   2.692
    3CHTO   N12 1077   6.589   0.252   2.711
    3CHTO  H110 1078   6.611   0.149   2.684
    3CHTO  H111 1079   6.662   0.290   2.780
    3CHTO   C69 1080   6.434   0.169   0.016
    3CHTO  H126 1081   6.502   0.201   0.098
    3CHTO   O41 1082   6.286   0.178   0.063
    3CHTO   C64 1083   6.240   0.319   0.096
    3CHTO  H121 1084   6.298   0.357   0.183
    3CHTO   C71 1085   6.091   0.315   0.139
    3CHTO   O47 1086   6.007   0.260   0.036
    3CHTO  H104 1087   6.004   0.319   2.841
    3CHTO   O34 1088   6.466   0.016   2.860
    3CHTO   C49 1089   6.483   9.868   0.027
    3CHTO   H91 1090   6.512   9.815   2.815
    3CHTO   C47 1091   6.348   9.809   0.077
    3CHTO   H89 1092   6.289   9.789   2.863
    3CHTO   O33 1093   6.276   9.904   0.158
    3CHTO   H70 1094   6.255   9.980   0.107
    3CHTO   C45 1095   6.369   9.676   0.166
    3CHTO   H87 1096   6.371   9.706   0.272
    3CHTO    N8 1097   6.256   9.582   0.148
    3CHTO   H75 1098   6.255   9.544   0.046
    3CHTO   H76 1099   6.162   9.632   0.169
    3CHTO   C43 1100   6.514   9.610   0.144
    3CHTO   H85 1101   6.520   9.524   0.210
    3CHTO   O29 1102   6.616   9.708   0.174
    3CHTO   C50 1103   6.593   9.845   0.134
    3CHTO   H92 1104   6.567   9.905   0.223
    3CHTO   C54 1105   6.728   9.906   0.087
    3CHTO   O36 1106   6.825   9.909   0.193
    3CHTO   H72 1107   6.853   9.821   0.212
    3CHTO   O27 1108   6.535   9.560   0.011
    3CHTO   C37 1109   6.554   9.524   2.751
    3CHTO   H79 1110   6.572   9.416   2.742
    3CHTO   C38 1111   6.428   9.556   2.665
    3CHTO   H80 1112   6.393   9.658   2.690
    3CHTO   O31 1113   6.325   9.463   2.703
    3CHTO   H68 1114   6.349   9.375   2.680
    3CHTO   C39 1115   6.458   9.550   2.510
    3CHTO   H81 1116   6.483   9.446   2.485
    3CHTO    N7 1117   6.340   9.588   2.425
    3CHTO   H73 1118   6.365   9.579   2.320
    3CHTO   H74 1119   6.311   9.690   2.447
    3CHTO   C40 1120   6.586   9.637   2.479
    3CHTO   H82 1121   6.566   9.741   2.506
    3CHTO   O26 1122   6.695   9.581   2.554
    3CHTO   C41 1123   6.680   9.599   2.698
    3CHTO   H83 1124   6.671   9.707   2.720
    3CHTO   C52 1125   6.810   9.550   2.767
    3CHTO   O35 1126   6.840   9.405   2.738
    3CHTO   H71 1127   6.774   9.350   2.775
    3CHTO   O28 1128   6.630   9.634   2.341
    3CHTO   C42 1129   6.725   9.734   2.289
    3CHTO   H84 1130   6.755   9.692   2.193
    3CHTO   C44 1131   6.858   9.752   2.371
    3CHTO   H86 1132   6.833   9.780   2.473
    3CHTO   O32 1133   6.924   9.624   2.375
    3CHTO   H69 1134   6.952   9.598   2.289
    3CHTO   C48 1135   6.953   9.865   2.312
    3CHTO   H90 1136   6.992   9.831   2.217
    3CHTO    N9 1137   7.074   9.889   2.399
    3CHTO   H77 1138   7.043   9.922   2.498
    3CHTO   H78 1139   7.138   9.963   2.354
    3CHTO   C51 1140   6.870   9.996   2.288
    3CHTO   H93 1141   6.834   0.033   2.385
    3CHTO   O30 1142   6.761   9.965   2.200
    3CHTO   C46 1143   6.659   9.872   2.260
    3CHTO   H88 1144   6.621   9.916   2.353
    3CHTO   C53 1145   6.546   9.862   2.154
    3CHTO   O72 1146   6.424   9.813   2.209
    3CHTO  H199 1147   6.388   9.876   2.268
    3CHTO   O22 1148   6.946   0.097   2.219
    3CHTO   C31 1149   6.902   0.237   2.220
    3CHTO   H59 1150   6.795   0.236   2.249
    3CHTO   C29 1151   6.976   0.325   2.324
    3CHTO   H57 1152   7.084   0.315   2.303
    3CHTO   O21 1153   6.955   0.268   2.454
    3CHTO   H37 1154   6.865   0.278   2.481
    3CHTO   C27 1155   6.935   0.478   2.316
    3CHTO   H55 1156   6.830   0.487   2.348
    3CHTO    N5 1157   7.020   0.565   2.403
    3CHTO   H43 1158   6.959   0.610   2.480
    3CHTO   H44 1159   7.101   0.509   2.446
    3CHTO   C25 1160   6.941   0.525   2.167
    3CHTO   H53 1161   7.045   0.520   2.131
    3CHTO   O17 1162   6.858   0.437   2.085
    3CHTO   C32 1163   6.907   0.303   2.078
    3CHTO   H60 1164   7.011   0.302   2.043
    3CHTO   C36 1165   6.819   0.229   1.974
    3CHTO   O25 1166   6.870   0.100   1.940
    3CHTO   H40 1167   6.866   0.043   2.015
    3CHTO   O15 1168   6.887   0.675   2.150
    3CHTO   C19 1169   6.823   0.734   2.033
    3CHTO   H47 1170   6.836   0.660   1.954
    3CHTO   C20 1171   6.671   0.761   2.053
    3CHTO   H48 1172   6.653   0.835   2.133
    3CHTO   O19 1173   6.610   0.637   2.092
    3CHTO   H35 1174   6.618   0.573   2.025
    3CHTO   C21 1175   6.605   0.817   1.920
    3CHTO   H49 1176   6.605   0.736   1.846
    3CHTO    N4 1177   6.463   0.858   1.936
    3CHTO   H41 1178   6.450   0.963   1.918
    3CHTO   H42 1179   6.427   0.834   2.035
    3CHTO   C22 1180   6.692   0.931   1.859
    3CHTO   H50 1181   6.676   1.023   1.915
    3CHTO   O14 1182   6.832   0.899   1.856
    3CHTO   C23 1183   6.890   0.865   1.982
    3CHTO   H51 1184   6.874   0.949   2.051
    3CHTO   C34 1185   7.042   0.847   1.964
    3CHTO   O23 1186   7.104   0.970   1.923
    3CHTO   H38 1187   7.101   1.032   1.994
    3CHTO   O16 1188   6.657   0.947   1.720
    3CHTO   C24 1189   6.672   1.091   1.662
    3CHTO   H52 1190   6.728   1.157   1.728
    3CHTO   C26 1191   6.531   1.149   1.638
    3CHTO   H54 1192   6.470   1.072   1.582
    3CHTO   O20 1193   6.468   1.169   1.766
    3CHTO   H36 1194   6.379   1.196   1.755
    3CHTO   C30 1195   6.535   1.279   1.552
    3CHTO   H58 1196   6.586   1.359   1.607
    3CHTO    N6 1197   6.399   1.329   1.520
    3CHTO   H45 1198   6.343   1.254   1.465
    3CHTO   H46 1199   6.346   1.353   1.611
    3CHTO   C33 1200   6.620   1.251   1.424
    3CHTO   H61 1201   6.573   1.168   1.369
    3CHTO   O18 1202   6.751   1.209   1.464
    3CHTO   C28 1203   6.752   1.081   1.529
    3CHTO   H56 1204   6.705   1.006   1.465
    3CHTO   C35 1205   6.898   1.039   1.556
    3CHTO   O24 1206   6.970   1.017   1.434
    3CHTO   H39 1207   7.058   0.989   1.454
    3CHTO    O9 1208   6.626   1.360   1.330
    3CHTO   C13 1209   6.726   1.481   1.365
    3CHTO   H26 1210   6.755   1.473   1.472
    3CHTO   C11 1211   6.649   1.617   1.335
    3CHTO   H24 1212   6.564   1.623   1.404
    3CHTO    O8 1213   6.598   1.615   1.200
    3CHTO    H3 1214   6.534   1.547   1.191
    3CHTO    C9 1215   6.747   1.734   1.364
    3CHTO   H22 1216   6.771   1.726   1.471
    3CHTO    N2 1217   6.681   1.868   1.355
    3CHTO   H10 1218   6.741   1.935   1.295
    3CHTO   H11 1219   6.582   1.860   1.313
    3CHTO    C7 1220   6.882   1.716   1.282
    3CHTO   H20 1221   6.958   1.708   1.362
    3CHTO    O4 1222   6.885   1.595   1.204
    3CHTO   C14 1223   6.862   1.476   1.281
    3CHTO   H27 1224   6.947   1.466   1.353
    3CHTO   C18 1225   6.873   1.355   1.184
    3CHTO   O13 1226   6.772   1.358   1.082
    3CHTO    H7 1227   6.782   1.284   1.026
    3CHTO    O2 1228   6.921   1.847   1.180
    3CHTO    C1 1229   7.058   1.889   1.177
    3CHTO   H14 1230   7.064   1.977   1.110
    3CHTO    C2 1231   7.159   1.779   1.123
    3CHTO   H15 1232   7.140   1.688   1.181
    3CHTO    O6 1233   7.127   1.754   0.984
    3CHTO    H1 1234   7.143   1.831   0.932
    3CHTO    C3 1235   7.311   1.827   1.142
    3CHTO   H16 1236   7.330   1.917   1.083
    3CHTO    N1 1237   7.409   1.722   1.098
    3CHTO    H8 1238   7.510   1.757   1.113
    3CHTO    H9 1239   7.394   1.700   0.993
    3CHTO    C4 1240   7.329   1.869   1.292
    3CHTO   H17 1241   7.303   1.784   1.355
    3CHTO    O1 1242   7.241   1.979   1.320
    3CHTO    C5 1243   7.102   1.942   1.318
    3CHTO   H18 1244   7.086   1.865   1.393
    3CHTO   C16 1245   7.016   2.066   1.357
    3CHTO   O11 1246   7.051   2.120   1.484
    3CHTO    H5 1247   6.994   2.192   1.504
    3CHTO    O3 1248   7.462   1.915   1.325
    3CHTO    C6 1249   7.507   1.877   1.460
    3CHTO   H19 1250   7.425   1.845   1.525
    3CHTO    C8 1251   7.611   1.760   1.453
    3CHTO   H21 1252   7.690   1.789   1.383
    3CHTO    O7 1253   7.541   1.645   1.402
    3CHTO    H2 1254   7.602   1.575   1.387
    3CHTO   C12 1255   7.674   1.732   1.595
    3CHTO   H25 1256   7.592   1.693   1.659
    3CHTO    N3 1257   7.779   1.625   1.589
    3CHTO   H12 1258   7.736   1.533   1.554
    3CHTO   H13 1259   7.860   1.656   1.524
    3CHTO   C15 1260   7.726   1.867   1.658
    3CHTO   H28 1261   7.813   1.905   1.604
    3CHTO   O10 1262   7.761   1.853   1.809
    3CHTO    H4 1263   7.804   1.930   1.839
    3CHTO    O5 1264   7.622   1.965   1.660
    3CHTO   C10 1265   7.573   2.000   1.529
    3CHTO   H23 1266   7.657   2.035   1.468
    3CHTO   C17 1267   7.474   2.116   1.543
    3CHTO   O12 1268   7.540   2.236   1.585
    3CHTO    H6 1269   7.597   2.266   1.516
    4CHTO  H203 1270   5.240   7.019   0.016
    4CHTO   O82 1271   5.319   7.062   0.044
    4CHTO  C123 1272   5.297   7.202   0.061
    4CHTO  H227 1273   5.218   7.217   0.137
    4CHTO   O77 1274   5.425   7.251   0.111
    4CHTO  C118 1275   5.427   7.391   0.143
    4CHTO  H222 1276   5.346   7.414   0.214
    4CHTO  C125 1277   5.565   7.424   0.209
    4CHTO   O84 1278   5.583   7.353   0.331
    4CHTO  H205 1279   5.667   7.372   0.367
    4CHTO  C114 1280   5.405   7.472   0.013
    4CHTO  H218 1281   5.486   7.450   2.822
    4CHTO  C116 1282   5.271   7.432   2.822
    4CHTO  H220 1283   5.186   7.468   0.006
    4CHTO   O79 1284   5.262   7.501   2.696
    4CHTO  H201 1285   5.251   7.593   2.710
    4CHTO  C120 1286   5.261   7.275   2.803
    4CHTO  H224 1287   5.335   7.248   2.726
    4CHTO   N21 1288   5.128   7.233   2.751
    4CHTO  H211 1289   5.137   7.143   2.693
    4CHTO  H212 1290   5.057   7.220   2.832
    4CHTO   O75 1291   5.408   7.610   0.053
    4CHTO  C112 1292   5.492   7.706   2.828
    4CHTO  H216 1293   5.471   7.675   2.724
    4CHTO   O73 1294   5.631   7.693   2.861
    4CHTO  C113 1295   5.720   7.774   2.782
    4CHTO  H217 1296   5.703   7.750   2.675
    4CHTO  C124 1297   5.865   7.736   2.815
    4CHTO   O83 1298   5.900   7.754   0.074
    4CHTO  H204 1299   5.901   7.846   0.095
    4CHTO  C109 1300   5.690   7.925   2.806
    4CHTO  H213 1301   5.708   7.944   0.035
    4CHTO  C110 1302   5.540   7.953   2.770
    4CHTO  H214 1303   5.528   7.940   2.663
    4CHTO   O78 1304   5.510   8.091   2.801
    4CHTO  H200 1305   5.558   8.148   2.744
    4CHTO  C111 1306   5.445   7.856   2.847
    4CHTO  H215 1307   5.451   7.879   0.076
    4CHTO   N19 1308   5.302   7.870   2.808
    4CHTO  H207 1309   5.290   7.852   2.702
    4CHTO  H208 1310   5.267   7.970   2.831
    4CHTO   O74 1311   5.781   8.007   2.727
    4CHTO  C115 1312   5.821   8.146   2.798
    4CHTO  H219 1313   5.739   8.185   2.859
    4CHTO   O76 1314   5.938   8.126   0.022
    4CHTO  C122 1315   6.063   8.100   2.834
    4CHTO  H226 1316   6.051   8.010   2.774
    4CHTO  C126 1317   6.172   8.066   0.064
    4CHTO   O85 1318   6.143   7.946   0.137
    4CHTO  H206 1319   6.149   7.872   0.080
    4CHTO  C121 1320   6.109   8.221   2.743
    4CHTO  H225 1321   6.190   8.275   2.796
    4CHTO   O81 1322   6.161   8.168   2.620
    4CHTO  H202 1323   6.204   8.236   2.571
    4CHTO  C119 1324   5.993   8.323   2.713
    4CHTO  H223 1325   5.980   8.381   2.805
    4CHTO  C117 1326   5.857   8.249   2.683
    4CHTO  H221 1327   5.858   8.189   2.591
    4CHTO   N20 1328   5.746   8.347   2.662
    4CHTO  H209 1329   5.655   8.296   2.634
    4CHTO  H210 1330   5.729   8.404   2.753
    4CHTO   O80 1331   6.034   8.438   2.607
    4CHTO  C103 1332   6.136   8.554   2.646
    4CHTO  H190 1333   6.125   8.582   2.751
    4CHTO  C101 1334   6.289   8.526   2.614
    4CHTO  H188 1335   6.295   8.469   2.522
    4CHTO   O68 1336   6.347   8.441   2.726
    4CHTO  H168 1337   6.433   8.412   2.703
    4CHTO   C99 1338   6.375   8.661   2.595
    4CHTO  H186 1339   6.381   8.714   2.693
    4CHTO   N17 1340   6.517   8.637   2.549
    4CHTO  H174 1341   6.538   8.691   2.458
    4CHTO  H175 1342   6.586   8.663   2.628
    4CHTO   C97 1343   6.298   8.756   2.500
    4CHTO  H184 1344   6.286   8.704   2.403
    4CHTO   O64 1345   6.171   8.786   2.560
    4CHTO  C104 1346   6.081   8.675   2.560
    4CHTO  H191 1347   6.062   8.640   2.458
    4CHTO  C108 1348   5.945   8.721   2.614
    4CHTO   O71 1349   5.887   8.824   2.533
    4CHTO  H171 1350   5.862   8.789   2.450
    4CHTO   O62 1351   6.357   8.886   2.483
    4CHTO   C91 1352   6.393   8.923   2.348
    4CHTO  H178 1353   6.437   8.836   2.299
    4CHTO   C92 1354   6.505   9.031   2.355
    4CHTO  H179 1355   6.463   9.120   2.406
    4CHTO   O66 1356   6.613   8.987   2.438
    4CHTO  H166 1357   6.585   8.978   2.527
    4CHTO   C93 1358   6.561   9.070   2.212
    4CHTO  H180 1359   6.647   9.002   2.194
    4CHTO   N16 1360   6.619   9.206   2.205
    4CHTO  H172 1361   6.724   9.202   2.178
    4CHTO  H173 1362   6.606   9.259   2.298
    4CHTO   C94 1363   6.455   9.045   2.098
    4CHTO  H181 1364   6.466   9.114   2.015
    4CHTO   O61 1365   6.320   9.062   2.146
    4CHTO   C95 1366   6.275   8.983   2.259
    4CHTO  H182 1367   6.216   9.047   2.324
    4CHTO  C106 1368   6.174   8.873   2.208
    4CHTO   O69 1369   6.233   8.777   2.119
    4CHTO  H169 1370   6.297   8.726   2.165
    4CHTO   O63 1371   6.471   8.898   2.045
    4CHTO   C96 1372   6.586   8.871   1.943
    4CHTO  H183 1373   6.673   8.929   1.972
    4CHTO   C98 1374   6.549   8.909   1.796
    4CHTO  H185 1375   6.444   8.881   1.778
    4CHTO   O67 1376   6.552   9.052   1.785
    4CHTO  H167 1377   6.639   9.084   1.799
    4CHTO  C102 1378   6.643   8.840   1.685
    4CHTO  H189 1379   6.742   8.888   1.696
    4CHTO   N18 1380   6.602   8.863   1.544
    4CHTO  H176 1381   6.681   8.913   1.490
    4CHTO  H177 1382   6.512   8.923   1.540
    4CHTO  C105 1383   6.660   8.690   1.719
    4CHTO  H192 1384   6.562   8.641   1.712
    4CHTO   O65 1385   6.711   8.673   1.852
    4CHTO  C100 1386   6.622   8.718   1.955
    4CHTO  H187 1387   6.529   8.660   1.949
    4CHTO  C107 1388   6.686   8.690   2.094
    4CHTO   O70 1389   6.702   8.550   2.117
    4CHTO  H170 1390   6.739   8.536   2.202
    4CHTO   O57 1391   6.766   8.620   1.608
    4CHTO   C85 1392   6.738   8.487   1.560
    4CHTO  H157 1393   6.628   8.474   1.569
    4CHTO   C83 1394   6.801   8.380   1.655
    4CHTO  H155 1395   6.759   8.394   1.754
    4CHTO   O56 1396   6.942   8.403   1.669
    4CHTO  H135 1397   6.986   8.390   1.588
    4CHTO   C81 1398   6.762   8.239   1.603
    4CHTO  H153 1399   6.654   8.234   1.595
    4CHTO   N14 1400   6.797   8.129   1.698
    4CHTO  H141 1401   6.903   8.121   1.708
    4CHTO  H142 1402   6.758   8.036   1.662
    4CHTO   C79 1403   6.823   8.217   1.459
    4CHTO  H151 1404   6.786   8.121   1.423
    4CHTO   O52 1405   6.772   8.319   1.367
    4CHTO   C86 1406   6.789   8.458   1.413
    4CHTO  H158 1407   6.898   8.477   1.404
    4CHTO   C90 1408   6.722   8.554   1.311
    4CHTO   O60 1409   6.581   8.529   1.300
    4CHTO  H138 1410   6.543   8.589   1.239
    4CHTO   O50 1411   6.966   8.214   1.456
    4CHTO   C73 1412   7.100   8.192   1.409
    4CHTO  H145 1413   7.160   8.283   1.425
    4CHTO   C74 1414   7.100   8.161   1.256
    4CHTO  H146 1415   7.048   8.244   1.205
    4CHTO   O54 1416   7.237   8.165   1.209
    4CHTO  H133 1417   7.288   8.097   1.249
    4CHTO   C75 1418   7.029   8.022   1.230
    4CHTO  H147 1419   6.924   8.030   1.262
    4CHTO   N13 1420   7.024   7.983   1.086
    4CHTO  H139 1421   6.973   7.888   1.076
    4CHTO  H140 1422   6.970   8.057   1.030
    4CHTO   C76 1423   7.098   7.910   1.321
    4CHTO  H148 1424   7.202   7.899   1.288
    4CHTO   O49 1425   7.096   7.951   1.462
    4CHTO   C77 1426   7.166   8.074   1.486
    4CHTO  H149 1427   7.270   8.063   1.453
    4CHTO   C88 1428   7.173   8.101   1.637
    4CHTO   O58 1429   7.246   7.992   1.707
    4CHTO  H136 1430   7.246   8.009   1.799
    4CHTO   O51 1431   7.018   7.773   1.314
    4CHTO   C78 1432   7.081   7.652   1.395
    4CHTO  H150 1433   7.131   7.689   1.488
    4CHTO   C80 1434   7.185   7.576   1.310
    4CHTO  H152 1435   7.137   7.546   1.214
    4CHTO   O55 1436   7.293   7.666   1.280
    4CHTO  H134 1437   7.264   7.734   1.222
    4CHTO   C84 1438   7.237   7.446   1.385
    4CHTO  H156 1439   7.290   7.479   1.474
    4CHTO   N15 1440   7.334   7.366   1.302
    4CHTO  H143 1441   7.367   7.281   1.357
    4CHTO  H144 1442   7.419   7.426   1.277
    4CHTO   C87 1443   7.116   7.361   1.430
    4CHTO  H159 1444   7.064   7.320   1.343
    4CHTO   O53 1445   7.019   7.447   1.512
    4CHTO   C82 1446   6.967   7.558   1.438
    4CHTO  H154 1447   6.914   7.521   1.349
    4CHTO   C89 1448   6.862   7.632   1.525
    4CHTO   O59 1449   6.916   7.681   1.648
    4CHTO  H137 1450   6.849   7.723   1.697
    4CHTO   O45 1451   7.162   7.241   1.529
    4CHTO   C67 1452   7.134   7.109   1.479
    4CHTO  H124 1453   7.156   7.102   1.372
    4CHTO   C65 1454   7.223   7.007   1.556
    4CHTO  H122 1455   7.324   7.049   1.555
    4CHTO   O44 1456   7.224   6.880   1.488
    4CHTO  H102 1457   7.287   6.823   1.527
    4CHTO   C63 1458   7.180   7.004   1.707
    4CHTO  H120 1459   7.186   7.106   1.747
    4CHTO   N11 1460   7.272   6.931   1.799
    4CHTO  H108 1461   7.271   6.827   1.777
    4CHTO  H109 1462   7.243   6.946   1.901
    4CHTO   C61 1463   7.028   6.961   1.718
    4CHTO  H118 1464   7.000   6.982   1.823
    4CHTO   O40 1465   6.942   7.045   1.635
    4CHTO   C68 1466   6.980   7.076   1.496
    4CHTO  H125 1467   6.924   7.167   1.468
    4CHTO   C72 1468   6.934   6.963   1.400
    4CHTO   O48 1469   6.791   6.955   1.391
    4CHTO  H105 1470   6.758   7.029   1.345
    4CHTO   O38 1471   7.003   6.822   1.685
    4CHTO   C55 1472   6.934   6.743   1.784
    4CHTO  H112 1473   6.922   6.799   1.878
    4CHTO   C56 1474   7.010   6.605   1.809
    4CHTO  H113 1475   7.014   6.552   1.712
    4CHTO   O42 1476   7.146   6.630   1.848
    4CHTO  H100 1477   7.194   6.668   1.777
    4CHTO   C57 1478   6.934   6.519   1.918
    4CHTO  H114 1479   6.946   6.572   2.012
    4CHTO   N10 1480   6.990   6.382   1.938
    4CHTO  H106 1481   7.032   6.345   1.846
    4CHTO  H107 1482   7.067   6.385   2.014
    4CHTO   C58 1483   6.782   6.510   1.885
    4CHTO  H115 1484   6.766   6.438   1.801
    4CHTO   O37 1485   6.726   6.637   1.849
    4CHTO   C59 1486   6.790   6.705   1.740
    4CHTO  H116 1487   6.792   6.641   1.652
    4CHTO   C70 1488   6.706   6.829   1.707
    4CHTO   O46 1489   6.579   6.794   1.652
    4CHTO  H103 1490   6.531   6.872   1.632
    4CHTO   O39 1491   6.700   6.463   2.019
    4CHTO   C60 1492   6.561   6.436   1.995
    4CHTO  H117 1493   6.531   6.475   1.898
    4CHTO   C62 1494   6.533   6.283   1.995
    4CHTO  H119 1495   6.598   6.240   1.916
    4CHTO   O43 1496   6.574   6.225   2.121
    4CHTO  H101 1497   6.522   6.260   2.191
    4CHTO   C66 1498   6.379   6.258   1.959
    4CHTO  H123 1499   6.358   6.305   1.863
    4CHTO   N12 1500   6.348   6.114   1.940
    4CHTO  H110 1501   6.243   6.101   1.915
    4CHTO  H111 1502   6.411   6.072   1.863
    4CHTO   C69 1503   6.289   6.326   2.066
    4CHTO  H126 1504   6.306   6.279   2.165
    4CHTO   O41 1505   6.324   6.480   2.072
    4CHTO   C64 1506   6.473   6.507   2.101
    4CHTO  H121 1507   6.499   6.468   2.202
    4CHTO   C71 1508   6.497   6.660   2.101
    4CHTO   O47 1509   6.420   6.725   2.203
    4CHTO  H104 1510   6.433   6.817   2.198
    4CHTO   O34 1511   6.143   6.312   2.031
    4CHTO   C49 1512   6.006   6.362   2.020
    4CHTO   H91 1513   5.974   6.390   2.120
    4CHTO   C47 1514   5.918   6.247   1.966
    4CHTO   H89 1515   5.814   6.287   1.971
    4CHTO   O33 1516   5.926   6.133   2.053
    4CHTO   H70 1517   5.865   6.068   2.027
    4CHTO   C45 1518   5.959   6.207   1.814
    4CHTO   H87 1519   6.032   6.125   1.818
    4CHTO    N8 1520   5.838   6.157   1.744
    4CHTO   H75 1521   5.796   6.074   1.798
    4CHTO   H76 1522   5.864   6.126   1.644
    4CHTO   C43 1523   6.037   6.329   1.742
    4CHTO   H85 1524   6.140   6.320   1.776
    4CHTO   O29 1525   5.978   6.455   1.782
    4CHTO   C50 1526   5.993   6.483   1.923
    4CHTO   H92 1527   6.082   6.546   1.937
    4CHTO   C54 1528   5.877   6.576   1.967
    4CHTO   O36 1529   5.882   6.701   1.899
    4CHTO   H72 1530   5.808   6.754   1.925
    4CHTO   O27 1531   6.045   6.317   1.599
    4CHTO   C37 1532   6.157   6.299   1.510
    4CHTO   H79 1533   6.123   6.302   1.406
    4CHTO   C38 1534   6.261   6.415   1.529
    4CHTO   H80 1535   6.273   6.434   1.636
    4CHTO   O31 1536   6.206   6.533   1.467
    4CHTO   H68 1537   6.131   6.563   1.516
    4CHTO   C39 1538   6.404   6.380   1.469
    4CHTO   H81 1539   6.395   6.376   1.361
    4CHTO    N7 1540   6.507   6.485   1.503
    4CHTO   H73 1541   6.548   6.527   1.413
    4CHTO   H74 1542   6.586   6.443   1.565
    4CHTO   C40 1543   6.445   6.237   1.519
    4CHTO   H82 1544   6.448   6.238   1.628
    4CHTO   O26 1545   6.347   6.145   1.469
    4CHTO   C41 1546   6.219   6.159   1.537
    4CHTO   H83 1547   6.234   6.145   1.646
    4CHTO   C52 1548   6.127   6.045   1.488
    4CHTO   O35 1549   6.178   5.912   1.526
    4CHTO   H71 1550   6.118   5.846   1.495
    4CHTO   O28 1551   6.571   6.186   1.470
    4CHTO   C42 1552   6.642   6.086   1.550
    4CHTO   H84 1553   6.707   6.039   1.477
    4CHTO   C44 1554   6.554   5.971   1.611
    4CHTO   H86 1555   6.470   6.016   1.664
    4CHTO   O32 1556   6.501   5.897   1.499
    4CHTO   H69 1557   6.440   5.832   1.530
    4CHTO   C48 1558   6.630   5.877   1.713
    4CHTO   H90 1559   6.703   5.817   1.657
    4CHTO    N9 1560   6.537   5.779   1.778
    4CHTO   H77 1561   6.490   5.717   1.703
    4CHTO   H78 1562   6.591   5.718   1.849
    4CHTO   C51 1563   6.706   5.966   1.817
    4CHTO   H93 1564   6.632   6.027   1.869
    4CHTO   O30 1565   6.801   6.047   1.745
    4CHTO   C46 1566   6.735   6.153   1.657
    4CHTO   H88 1567   6.676   6.220   1.720
    4CHTO   C53 1568   6.852   6.230   1.592
    4CHTO   O72 1569   6.811   6.348   1.522
    4CHTO  H199 1570   6.780   6.412   1.584
    4CHTO   O22 1571   6.785   5.891   1.911
    4CHTO   C31 1572   6.800   5.943   2.048
    4CHTO   H59 1573   6.783   6.053   2.042
    4CHTO   C29 1574   6.700   5.886   2.150
    4CHTO   H57 1575   6.717   5.778   2.158
    4CHTO   O21 1576   6.566   5.903   2.099
    4CHTO   H37 1577   6.505   5.858   2.153
    4CHTO   C27 1578   6.717   5.952   2.293
    4CHTO   H55 1579   6.686   6.058   2.286
    4CHTO    N5 1580   6.635   5.886   2.397
    4CHTO   H43 1581   6.669   5.784   2.412
    4CHTO   H44 1582   6.640   5.941   2.489
    4CHTO   C25 1583   6.869   5.955   2.335
    4CHTO   H53 1584   6.901   5.854   2.364
    4CHTO   O17 1585   6.956   5.999   2.227
    4CHTO   C32 1586   6.944   5.925   2.105
    4CHTO   H60 1587   6.961   5.819   2.124
    4CHTO   C36 1588   7.052   5.974   2.005
    4CHTO   O25 1589   7.183   5.945   2.054
    4CHTO   H40 1590   7.247   5.974   1.992
    4CHTO   O15 1591   6.889   6.054   2.458
    4CHTO   C19 1592   6.883   6.194   2.499
    4CHTO   H47 1593   6.967   6.203   2.570
    4CHTO   C20 1594   6.905   6.299   2.386
    4CHTO   H48 1595   6.825   6.294   2.310
    4CHTO   O19 1596   7.029   6.266   2.320
    4CHTO   H35 1597   7.101   6.274   2.379
    4CHTO   C21 1598   6.909   6.446   2.444
    4CHTO   H49 1599   7.000   6.456   2.504
    4CHTO    N4 1600   6.918   6.550   2.338
    4CHTO   H41 1601   6.832   6.616   2.340
    4CHTO   H42 1602   7.008   6.609   2.349
    4CHTO   C22 1603   6.790   6.470   2.541
    4CHTO   H50 1604   6.698   6.482   2.483
    4CHTO   O14 1605   6.774   6.363   2.636
    4CHTO   C23 1606   6.755   6.233   2.578
    4CHTO   H51 1607   6.666   6.238   2.513
    4CHTO   C34 1608   6.724   6.134   2.691
    4CHTO   O23 1609   6.599   6.165   2.755
    4CHTO   H38 1610   6.607   6.244   2.805
    4CHTO   O16 1611   6.815   6.587   2.623
    4CHTO   C24 1612   6.683   6.651   2.686
    4CHTO   H52 1613   6.593   6.614   2.638
    4CHTO   C26 1614   6.692   6.805   2.668
    4CHTO   H54 1615   6.713   6.826   2.560
    4CHTO   O20 1616   6.563   6.863   2.695
    4CHTO   H36 1617   6.561   6.952   2.666
    4CHTO   C30 1618   6.797   6.874   2.761
    4CHTO   H58 1619   6.751   6.961   2.811
    4CHTO    N6 1620   6.911   6.932   2.685
    4CHTO   H45 1621   6.980   6.980   2.753
    4CHTO   H46 1622   6.875   7.006   2.614
    4CHTO   C33 1623   6.845   6.780   2.876
    4CHTO   H61 1624   6.919   6.708   2.837
    4CHTO   O18 1625   6.731   6.708   0.047
    4CHTO   C28 1626   6.676   6.609   2.836
    4CHTO   H56 1627   6.730   6.515   2.849
    4CHTO   C35 1628   6.530   6.583   0.002
    4CHTO   O24 1629   6.519   6.527   0.134
    4CHTO   H39 1630   6.549   6.438   0.133
    4CHTO    O9 1631   6.912   6.851   0.104
    4CHTO   C13 1632   7.035   6.767   0.178
    4CHTO   H26 1633   7.123   6.771   0.110
    4CHTO   C11 1634   6.993   6.617   0.210
    4CHTO   H24 1635   6.982   6.563   0.115
    4CHTO    O8 1636   6.866   6.612   0.279
    4CHTO    H3 1637   6.798   6.645   0.223
    4CHTO    C9 1638   7.107   6.553   0.293
    4CHTO   H22 1639   7.200   6.574   0.236
    4CHTO    N2 1640   7.101   6.404   0.298
    4CHTO   H10 1641   7.009   6.367   0.256
    4CHTO   H11 1642   7.186   6.361   0.247
    4CHTO    C7 1643   7.118   6.626   0.433
    4CHTO   H20 1644   7.227   6.634   0.451
    4CHTO    O4 1645   7.060   6.759   0.431
    4CHTO   C14 1646   7.085   6.838   0.313
    4CHTO   H27 1647   7.195   6.855   0.306
    4CHTO   C18 1648   7.020   6.977   0.338
    4CHTO   O13 1649   7.054   7.070   0.234
    4CHTO    H7 1650   7.146   7.090   0.238
    4CHTO    O2 1651   7.047   6.541   0.560
    4CHTO    C1 1652   7.133   6.516   0.672
    4CHTO   H14 1653   7.195   6.607   0.692
    4CHTO    C2 1654   7.230   6.392   0.654
    4CHTO   H15 1655   7.166   6.308   0.621
    4CHTO    O6 1656   7.326   6.421   0.551
    4CHTO    H1 1657   7.284   6.428   0.468
    4CHTO    C3 1658   7.305   6.353   0.791
    4CHTO   H16 1659   7.378   6.433   0.813
    4CHTO    N1 1660   7.383   6.225   0.780
    4CHTO    H8 1661   7.376   6.183   0.681
    4CHTO    H9 1662   7.349   6.152   0.852
    4CHTO    C4 1663   7.204   6.353   0.912
    4CHTO   H17 1664   7.139   6.266   0.904
    4CHTO    O1 1665   7.126   6.474   0.915
    4CHTO    C5 1666   7.045   6.495   0.799
    4CHTO   H18 1667   6.982   6.407   0.781
    4CHTO   C16 1668   6.953   6.616   0.826
    4CHTO   O11 1669   6.860   6.589   0.932
    4CHTO    H5 1670   6.906   6.582   1.014
    4CHTO    O3 1671   7.276   6.354   1.037
    4CHTO    C6 1672   7.210   6.287   1.150
    4CHTO   H19 1673   7.103   6.273   1.135
    4CHTO    C8 1674   7.276   6.147   1.174
    4CHTO   H21 1675   7.384   6.160   1.174
    4CHTO    O7 1676   7.237   6.064   1.063
    4CHTO    H2 1677   7.281   5.981   1.069
    4CHTO   C12 1678   7.231   6.085   1.313
    4CHTO   H25 1679   7.124   6.060   1.302
    4CHTO    N3 1680   7.304   5.957   1.341
    4CHTO   H12 1681   7.272   5.917   1.436
    4CHTO   H13 1682   7.286   5.886   1.262
    4CHTO   C15 1683   7.246   6.192   1.427
    4CHTO   H28 1684   7.351   6.215   1.447
    4CHTO   O10 1685   7.178   6.148   1.559
    4CHTO    H4 1686   7.199   6.208   1.628
    4CHTO    O5 1687   7.174   6.312   1.393
    4CHTO   C10 1688   7.226   6.377   1.276
    4CHTO   H23 1689   7.332   6.398   1.293
    4CHTO   C17 1690   7.156   6.513   1.261
    4CHTO   O12 1691   7.014   6.501   1.245
    4CHTO    H6 1692   6.975   6.471   1.326
    5CHTO  H203 1693   7.667   2.846   2.719
    5CHTO   O82 1694   7.604   2.904   2.680
    5CHTO  C123 1695   7.558   2.999   2.777
    5CHTO  H227 1696   7.645   3.055   2.816
    5CHTO   O77 1697   7.473   3.088   2.698
    5CHTO  C118 1698   7.420   3.200   2.771
    5CHTO  H222 1699   7.502   3.258   2.815
    5CHTO  C125 1700   7.344   3.290   2.666
    5CHTO   O84 1701   7.436   3.350   2.573
    5CHTO  H205 1702   7.475   3.283   2.520
    5CHTO  C114 1703   7.327   3.149   0.005
    5CHTO  H218 1704   7.244   3.094   2.838
    5CHTO  C116 1705   7.404   3.050   0.099
    5CHTO  H220 1706   7.481   3.107   0.156
    5CHTO   O79 1707   7.312   2.997   0.197
    5CHTO  H201 1708   7.283   3.065   0.254
    5CHTO  C120 1709   7.473   2.935   0.016
    5CHTO  H224 1710   7.391   2.873   2.851
    5CHTO   N21 1711   7.555   2.844   0.101
    5CHTO  H211 1712   7.512   2.836   0.200
    5CHTO  H212 1713   7.657   2.881   0.108
    5CHTO   O75 1714   7.280   3.265   0.076
    5CHTO  C112 1715   7.126   3.316   0.040
    5CHTO  H216 1716   7.089   3.260   2.830
    5CHTO   O73 1717   7.134   3.457   0.013
    5CHTO  C113 1718   7.010   3.516   2.850
    5CHTO  H217 1719   6.970   3.461   2.762
    5CHTO  C124 1720   7.042   3.659   2.805
    5CHTO   O83 1721   6.933   3.725   2.740
    5CHTO  H204 1722   6.864   3.742   2.802
    5CHTO  C109 1723   6.909   3.509   0.090
    5CHTO  H213 1724   6.950   3.571   0.171
    5CHTO  C110 1725   6.892   3.361   0.137
    5CHTO  H214 1726   6.836   3.307   0.060
    5CHTO   O78 1727   6.812   3.360   0.257
    5CHTO  H200 1728   6.721   3.352   0.236
    5CHTO  C111 1729   7.029   3.292   0.162
    5CHTO  H215 1730   7.076   3.337   0.250
    5CHTO   N19 1731   7.015   3.146   0.190
    5CHTO  H207 1732   6.971   3.096   0.106
    5CHTO  H208 1733   7.112   3.103   0.212
    5CHTO   O74 1734   6.779   3.564   0.049
    5CHTO  C115 1735   6.711   3.663   0.156
    5CHTO  H219 1736   6.774   3.677   0.245
    5CHTO   O76 1737   6.694   3.807   0.097
    5CHTO  C122 1738   6.616   3.806   2.855
    5CHTO  H226 1739   6.676   3.759   2.777
    5CHTO  C126 1740   6.595   3.954   2.807
    5CHTO   O85 1741   6.718   4.019   2.775
    5CHTO  H206 1742   6.702   4.107   2.747
    5CHTO  C121 1743   6.477   3.730   2.871
    5CHTO  H225 1744   6.395   3.797   2.839
    5CHTO   O81 1745   6.475   3.617   2.782
    5CHTO  H202 1746   6.478   3.645   2.693
    5CHTO  C119 1747   6.453   3.687   0.141
    5CHTO  H223 1748   6.454   3.781   0.196
    5CHTO  C117 1749   6.572   3.600   0.197
    5CHTO  H221 1750   6.577   3.498   0.159
    5CHTO   N20 1751   6.559   3.584   0.346
    5CHTO  H209 1752   6.639   3.521   0.383
    5CHTO  H210 1753   6.464   3.540   0.371
    5CHTO   O80 1754   6.301   3.634   0.172
    5CHTO  C103 1755   6.237   3.513   0.089
    5CHTO  H190 1756   6.259   3.522   2.861
    5CHTO  C101 1757   6.274   3.367   0.137
    5CHTO  H188 1758   6.271   3.364   0.246
    5CHTO   O68 1759   6.418   3.334   0.090
    5CHTO  H168 1760   6.479   3.392   0.131
    5CHTO   C99 1761   6.171   3.258   0.080
    5CHTO  H186 1762   6.180   3.254   2.848
    5CHTO   N17 1763   6.196   3.119   0.132
    5CHTO  H174 1764   6.108   3.077   0.179
    5CHTO  H175 1765   6.231   3.055   0.052
    5CHTO   C97 1766   6.025   3.305   0.108
    5CHTO  H184 1767   6.009   3.307   0.217
    5CHTO   O64 1768   6.004   3.434   0.047
    5CHTO  C104 1769   6.082   3.539   0.106
    5CHTO  H191 1770   6.059   3.551   0.212
    5CHTO  C108 1771   6.042   3.671   0.039
    5CHTO   O71 1772   5.906   3.706   0.071
    5CHTO  H171 1773   5.885   3.787   0.030
    5CHTO   O62 1774   5.927   3.221   0.044
    5CHTO   C91 1775   5.791   3.235   0.092
    5CHTO  H178 1776   5.786   3.323   0.156
    5CHTO   C92 1777   5.757   3.112   0.184
    5CHTO  H179 1778   5.840   3.094   0.254
    5CHTO   O66 1779   5.644   3.149   0.265
    5CHTO  H166 1780   5.628   3.083   0.330
    5CHTO   C93 1781   5.719   2.983   0.103
    5CHTO  H180 1782   5.671   2.914   0.175
    5CHTO   N16 1783   5.836   2.907   0.052
    5CHTO  H172 1784   5.893   2.969   2.862
    5CHTO  H173 1785   5.803   2.817   0.002
    5CHTO   C94 1786   5.614   3.017   2.866
    5CHTO  H181 1787   5.654   2.996   2.766
    5CHTO   O61 1788   5.575   3.156   2.865
    5CHTO   C95 1789   5.684   3.249   2.853
    5CHTO  H182 1790   5.734   3.232   2.757
    5CHTO  C106 1791   5.626   3.395   2.847
    5CHTO   O69 1792   5.544   3.414   2.732
    5CHTO  H169 1793   5.464   3.365   2.741
    5CHTO   O63 1794   5.486   2.932   0.013
    5CHTO   C96 1795   5.406   2.900   2.760
    5CHTO  H183 1796   5.469   2.922   2.674
    5CHTO   C98 1797   5.274   2.981   2.744
    5CHTO  H185 1798   5.212   2.969   2.835
    5CHTO   O67 1799   5.308   3.121   2.739
    5CHTO  H167 1800   5.343   3.149   2.821
    5CHTO  C102 1801   5.191   2.939   2.613
    5CHTO  H189 1802   5.247   2.980   2.528
    5CHTO   N18 1803   5.055   2.998   2.604
    5CHTO  H176 1804   5.007   2.967   2.512
    5CHTO  H177 1805   5.061   3.105   2.607
    5CHTO  C105 1806   5.189   2.784   2.596
    5CHTO  H192 1807   5.111   2.741   2.660
    5CHTO   O65 1808   5.314   2.719   2.626
    5CHTO  C100 1809   5.370   2.747   2.754
    5CHTO  H187 1810   5.295   2.724   2.831
    5CHTO  C107 1811   5.491   2.653   2.773
    5CHTO   O70 1812   5.542   2.657   0.029
    5CHTO  H170 1813   5.614   2.598   0.037
    5CHTO   O57 1814   5.154   2.760   2.439
    5CHTO   C85 1815   5.096   2.637   2.391
    5CHTO  H157 1816   4.998   2.627   2.444
    5CHTO   C83 1817   5.180   2.512   2.433
    5CHTO  H155 1818   5.175   2.503   2.542
    5CHTO   O56 1819   5.319   2.534   2.401
    5CHTO  H135 1820   5.354   2.605   2.451
    5CHTO   C81 1821   5.120   2.385   2.369
    5CHTO  H153 1822   5.015   2.379   2.398
    5CHTO   N14 1823   5.179   2.259   2.419
    5CHTO  H141 1824   5.168   2.253   2.526
    5CHTO  H142 1825   5.283   2.255   2.395
    5CHTO   C79 1826   5.126   2.397   2.212
    5CHTO  H151 1827   5.080   2.308   2.170
    5CHTO   O52 1828   5.043   2.511   2.170
    5CHTO   C86 1829   5.078   2.638   2.233
    5CHTO  H158 1830   5.173   2.667   2.184
    5CHTO   C90 1831   4.975   2.746   2.191
    5CHTO   O60 1832   4.842   2.712   2.231
    5CHTO  H138 1833   4.810   2.641   2.178
    5CHTO   O50 1834   5.259   2.411   2.158
    5CHTO   C73 1835   5.330   2.378   2.038
    5CHTO  H145 1836   5.260   2.371   1.954
    5CHTO   C74 1837   5.403   2.241   2.052
    5CHTO  H146 1838   5.326   2.166   2.078
    5CHTO   O54 1839   5.454   2.204   1.922
    5CHTO  H133 1840   5.494   2.120   1.926
    5CHTO   C75 1841   5.514   2.252   2.164
    5CHTO  H147 1842   5.464   2.269   2.261
    5CHTO   N13 1843   5.593   2.128   2.183
    5CHTO  H139 1844   5.528   2.047   2.211
    5CHTO  H140 1845   5.665   2.142   2.262
    5CHTO   C76 1846   5.609   2.379   2.139
    5CHTO  H148 1847   5.672   2.358   2.052
    5CHTO   O49 1848   5.531   2.501   2.113
    5CHTO   C77 1849   5.437   2.487   2.006
    5CHTO  H149 1850   5.490   2.458   1.915
    5CHTO   C88 1851   5.372   2.622   1.974
    5CHTO   O58 1852   5.470   2.715   1.912
    5CHTO  H136 1853   5.534   2.740   1.976
    5CHTO   O51 1854   5.696   2.410   2.273
    5CHTO   C78 1855   5.821   2.510   2.254
    5CHTO  H150 1856   5.801   2.584   2.174
    5CHTO   C80 1857   5.949   2.431   2.218
    5CHTO  H152 1858   5.959   2.346   2.291
    5CHTO   O55 1859   5.928   2.374   2.088
    5CHTO  H134 1860   6.000   2.318   2.065
    5CHTO   C84 1861   6.079   2.521   2.224
    5CHTO  H156 1862   6.071   2.595   2.144
    5CHTO   N15 1863   6.205   2.443   2.198
    5CHTO  H143 1864   6.216   2.366   2.271
    5CHTO  H144 1865   6.201   2.400   2.100
    5CHTO   C87 1866   6.085   2.596   2.359
    5CHTO  H159 1867   6.098   2.525   2.441
    5CHTO   O53 1868   5.954   2.675   2.377
    5CHTO   C82 1869   5.839   2.588   2.386
    5CHTO  H154 1870   5.850   2.519   2.470
    5CHTO   C89 1871   5.713   2.674   2.414
    5CHTO   O59 1872   5.723   2.743   2.539
    5CHTO  H137 1873   5.790   2.809   2.533
    5CHTO   O45 1874   6.208   2.709   2.362
    5CHTO   C67 1875   6.287   2.708   2.482
    5CHTO  H124 1876   6.236   2.651   2.560
    5CHTO   C65 1877   6.428   2.643   2.456
    5CHTO  H122 1878   6.445   2.650   2.348
    5CHTO   O44 1879   6.415   2.505   2.492
    5CHTO  H102 1880   6.492   2.458   2.465
    5CHTO   C63 1881   6.548   2.724   2.519
    5CHTO  H120 1882   6.565   2.814   2.458
    5CHTO   N11 1883   6.683   2.659   2.510
    5CHTO  H108 1884   6.759   2.728   2.541
    5CHTO  H109 1885   6.685   2.573   2.574
    5CHTO   C61 1886   6.509   2.777   2.662
    5CHTO  H118 1887   6.589   2.848   2.691
    5CHTO   O40 1888   6.385   2.853   2.662
    5CHTO   C68 1889   6.303   2.854   2.541
    5CHTO  H125 1890   6.350   2.921   2.466
    5CHTO   C72 1891   6.165   2.916   2.576
    5CHTO   O48 1892   6.175   3.051   2.622
    5CHTO  H105 1893   6.204   3.106   2.552
    5CHTO   O38 1894   6.499   2.673   2.762
    5CHTO   C55 1895   6.494   2.720   0.021
    5CHTO  H112 1896   6.457   2.824   0.023
    5CHTO   C56 1897   6.635   2.707   0.093
    5CHTO  H113 1898   6.662   2.600   0.092
    5CHTO   O42 1899   6.735   2.776   0.017
    5CHTO  H100 1900   6.820   2.761   0.054
    5CHTO   C57 1901   6.624   2.762   0.241
    5CHTO  H114 1902   6.607   2.869   0.233
    5CHTO   N10 1903   6.748   2.743   0.321
    5CHTO  H106 1904   6.800   2.654   0.290
    5CHTO  H107 1905   6.813   2.828   0.309
    5CHTO   C58 1906   6.503   2.698   0.315
    5CHTO  H115 1907   6.528   2.593   0.343
    5CHTO   O37 1908   6.383   2.697   0.235
    5CHTO   C59 1909   6.392   2.638   0.105
    5CHTO  H116 1910   6.424   2.534   0.113
    5CHTO   C70 1911   6.252   2.637   0.041
    5CHTO   O46 1912   6.193   2.767   0.031
    5CHTO  H103 1913   6.107   2.760   2.871
    5CHTO   O39 1914   6.471   2.790   0.458
    5CHTO   C60 1915   6.363   2.884   0.448
    5CHTO  H117 1916   6.355   2.919   0.345
    5CHTO   C62 1917   6.228   2.816   0.487
    5CHTO  H119 1918   6.216   2.728   0.420
    5CHTO   O43 1919   6.235   2.768   0.623
    5CHTO  H101 1920   6.156   2.723   0.645
    5CHTO   C66 1921   6.108   2.919   0.461
    5CHTO  H123 1922   6.111   2.950   0.357
    5CHTO   N12 1923   5.975   2.857   0.480
    5CHTO  H110 1924   5.965   2.820   0.581
    5CHTO  H111 1925   5.960   2.777   0.409
    5CHTO   C69 1926   6.128   3.045   0.549
    5CHTO  H126 1927   6.123   3.016   0.656
    5CHTO   O41 1928   6.268   3.109   0.518
    5CHTO   C64 1929   6.387   3.011   0.536
    5CHTO  H121 1930   6.396   2.981   0.643
    5CHTO   C71 1931   6.515   3.088   0.496
    5CHTO   O47 1932   6.635   3.018   0.533
    5CHTO  H104 1933   6.643   2.940   0.483
    5CHTO   O34 1934   6.015   3.152   0.521
    5CHTO   C49 1935   5.965   3.278   0.586
    5CHTO   H91 1936   6.050   3.346   0.589
    5CHTO   C47 1937   5.917   3.247   0.729
    5CHTO   H89 1938   5.888   3.345   0.774
    5CHTO   O33 1939   6.027   3.193   0.805
    5CHTO   H70 1940   6.000   3.179   0.894
    5CHTO   C45 1941   5.788   3.151   0.719
    5CHTO   H87 1942   5.814   3.065   0.655
    5CHTO    N8 1943   5.745   3.099   0.851
    5CHTO   H75 1944   5.756   2.991   0.854
    5CHTO   H76 1945   5.642   3.125   0.872
    5CHTO   C43 1946   5.672   3.230   0.639
    5CHTO   H85 1947   5.590   3.158   0.627
    5CHTO   O29 1948   5.722   3.276   0.512
    5CHTO   C50 1949   5.849   3.343   0.505
    5CHTO   H92 1950   5.879   3.342   0.399
    5CHTO   C54 1951   5.833   3.495   0.534
    5CHTO   O36 1952   5.954   3.568   0.512
    5CHTO   H72 1953   6.018   3.545   0.576
    5CHTO   O27 1954   5.617   3.341   0.714
    5CHTO   C37 1955   5.480   3.374   0.740
    5CHTO   H79 1956   5.413   3.294   0.702
    5CHTO   C38 1957   5.453   3.386   0.893
    5CHTO   H80 1958   5.523   3.461   0.934
    5CHTO   O31 1959   5.480   3.259   0.954
    5CHTO   H68 1960   5.571   3.239   0.950
    5CHTO   C39 1961   5.305   3.431   0.924
    5CHTO   H81 1962   5.241   3.346   0.898
    5CHTO    N7 1963   5.281   3.460   1.069
    5CHTO   H73 1964   5.178   3.488   1.085
    5CHTO   H74 1965   5.305   3.373   1.129
    5CHTO   C40 1966   5.259   3.553   0.834
    5CHTO   H82 1967   5.297   3.646   0.877
    5CHTO   O26 1968   5.300   3.537   0.698
    5CHTO   C41 1969   5.441   3.508   0.673
    5CHTO   H83 1970   5.503   3.589   0.713
    5CHTO   C52 1971   5.459   3.504   0.519
    5CHTO   O35 1972   5.434   3.636   0.457
    5CHTO   H71 1973   5.445   3.628   0.364
    5CHTO   O28 1974   5.115   3.568   0.826
    5CHTO   C42 1975   5.012   3.467   0.793
    5CHTO   H84 1976   4.930   3.530   0.758
    5CHTO   C44 1977   4.954   3.389   0.917
    5CHTO   H86 1978   5.037   3.355   0.978
    5CHTO   O32 1979   4.879   3.484   0.995
    5CHTO   H69 1980   4.849   3.445   1.074
    5CHTO   C48 1981   4.868   3.261   0.879
    5CHTO   H90 1982   4.776   3.293   0.831
    5CHTO    N9 1983   4.826   3.183   1.001
    5CHTO   H77 1984   4.913   3.151   1.056
    5CHTO   H78 1985   4.762   3.244   1.064
    5CHTO   C51 1986   4.954   3.177   0.779
    5CHTO   H93 1987   5.052   3.164   0.824
    5CHTO   O30 1988   4.960   3.255   0.660
    5CHTO   C46 1989   5.051   3.373   0.673
    5CHTO   H88 1990   5.152   3.334   0.689
    5CHTO   C53 1991   5.046   3.447   0.537
    5CHTO   O72 1992   4.915   3.493   0.504
    5CHTO  H199 1993   4.916   3.537   0.421
    5CHTO   O22 1994   4.899   3.050   0.737
    5CHTO   C31 1995   4.993   2.939   0.709
    5CHTO   H59 1996   4.934   2.862   0.656
    5CHTO   C29 1997   5.111   2.977   0.616
    5CHTO   H57 1998   5.155   3.070   0.655
    5CHTO   O21 1999   5.057   3.011   0.487
    5CHTO   H37 2000   5.002   3.086   0.493
    5CHTO   C27 2001   5.225   2.868   0.606
    5CHTO   H55 2002   5.186   2.782   0.549
    5CHTO    N5 2003   5.346   2.920   0.537
    5CHTO   H43 2004   5.390   3.001   0.594
    5CHTO   H44 2005   5.418   2.840   0.525
    5CHTO   C25 2006   5.258   2.816   0.751
    5CHTO   H53 2007   5.297   2.901   0.811
    5CHTO   O17 2008   5.137   2.766   0.813
    5CHTO   C32 2009   5.043   2.871   0.841
    5CHTO   H60 2010   5.089   2.946   0.904
    5CHTO   C36 2011   4.924   2.809   0.919
    5CHTO   O25 2012   4.966   2.755   1.045
    5CHTO   H40 2013   4.991   2.824   1.103
    5CHTO   O15 2014   5.364   2.702   0.752
    5CHTO   C19 2015   5.478   2.697   0.841
    5CHTO   H47 2016   5.509   2.802   0.851
    5CHTO   C20 2017   5.449   2.641   0.984
    5CHTO   H48 2018   5.414   2.536   0.980
    5CHTO   O19 2019   5.344   2.721   1.040
    5CHTO   H35 2020   5.318   2.687   1.123
    5CHTO   C21 2021   5.580   2.646   1.074
    5CHTO   H49 2022   5.605   2.751   1.092
    5CHTO    N4 2023   5.559   2.585   1.208
    5CHTO   H41 2024   5.649   2.594   1.267
    5CHTO   H42 2025   5.533   2.481   1.198
    5CHTO   C22 2026   5.700   2.584   0.998
    5CHTO   H50 2027   5.687   2.476   0.992
    5CHTO   O14 2028   5.713   2.640   0.866
    5CHTO   C23 2029   5.600   2.621   0.781
    5CHTO   H51 2030   5.581   2.513   0.773
    5CHTO   C34 2031   5.637   2.671   0.640
    5CHTO   O23 2032   5.671   2.810   0.638
    5CHTO   H38 2033   5.595   2.862   0.654
    5CHTO   O16 2034   5.824   2.615   1.066
    5CHTO   C24 2035   5.959   2.562   0.993
    5CHTO   H52 2036   5.940   2.531   0.890
    5CHTO   C26 2037   6.016   2.443   1.072
    5CHTO   H54 2038   6.027   2.473   1.178
    5CHTO   O20 2039   5.921   2.335   1.065
    5CHTO   H36 2040   5.949   2.264   1.120
    5CHTO   C30 2041   6.158   2.402   1.018
    5CHTO   H58 2042   6.149   2.366   0.915
    5CHTO    N6 2043   6.219   2.292   1.097
    5CHTO   H45 2044   6.237   2.206   1.034
    5CHTO   H46 2045   6.156   2.262   1.180
    5CHTO   C33 2046   6.249   2.529   1.013
    5CHTO   H61 2047   6.260   2.569   1.115
    5CHTO   O18 2048   6.184   2.630   0.932
    5CHTO   C28 2049   6.061   2.678   0.986
    5CHTO   H56 2050   6.076   2.718   1.087
    5CHTO   C35 2051   6.008   2.793   0.897
    5CHTO   O24 2052   6.096   2.906   0.895
    5CHTO   H39 2053   6.175   2.884   0.849
    5CHTO    O9 2054   6.383   2.504   0.968
    5CHTO   C13 2055   6.401   2.474   0.808
    5CHTO   H26 2056   6.303   2.486   0.758
    5CHTO   C11 2057   6.458   2.326   0.791
    5CHTO   H24 2058   6.377   2.256   0.813
    5CHTO    O8 2059   6.565   2.302   0.884
    5CHTO    H3 2060   6.532   2.304   0.972
    5CHTO    C9 2061   6.503   2.310   0.643
    5CHTO   H22 2062   6.416   2.338   0.582
    5CHTO    N2 2063   6.528   2.169   0.605
    5CHTO   H10 2064   6.442   2.108   0.628
    5CHTO   H11 2065   6.551   2.162   0.500
    5CHTO    C7 2066   6.621   2.411   0.612
    5CHTO   H20 2067   6.597   2.448   0.510
    5CHTO    O4 2068   6.625   2.524   0.702
    5CHTO   C14 2069   6.498   2.580   0.738
    5CHTO   H27 2070   6.449   2.614   0.644
    5CHTO   C18 2071   6.522   2.706   0.825
    5CHTO   O13 2072   6.593   2.807   0.753
    5CHTO    H7 2073   6.539   2.843   0.685
    5CHTO    O2 2074   6.770   2.343   0.610
    5CHTO    C1 2075   6.851   2.384   0.499
    5CHTO   H14 2076   6.824   2.487   0.469
    5CHTO    C2 2077   6.838   2.289   0.372
    5CHTO   H15 2078   6.852   2.186   0.409
    5CHTO    O6 2079   6.705   2.302   0.319
    5CHTO    H1 2080   6.690   2.390   0.289
    5CHTO    C3 2081   6.949   2.323   0.261
    5CHTO   H16 2082   6.927   2.422   0.219
    5CHTO    N1 2083   6.947   2.226   0.146
    5CHTO    H8 2084   7.041   2.173   0.138
    5CHTO    H9 2085   6.866   2.155   0.156
    5CHTO    C4 2086   7.091   2.335   0.329
    5CHTO   H17 2087   7.122   2.235   0.362
    5CHTO    O1 2088   7.087   2.426   0.439
    5CHTO    C5 2089   6.999   2.390   0.547
    5CHTO   H18 2090   7.026   2.293   0.587
    5CHTO   C16 2091   7.018   2.497   0.657
    5CHTO   O11 2092   7.150   2.493   0.711
    5CHTO    H5 2093   7.159   2.557   0.779
    5CHTO    O3 2094   7.189   2.392   0.239
    5CHTO    C6 2095   7.327   2.355   0.270
    5CHTO   H19 2096   7.338   2.302   0.365
    5CHTO    C8 2097   7.384   2.264   0.157
    5CHTO   H21 2098   7.375   2.317   0.062
    5CHTO    O7 2099   7.303   2.144   0.152
    5CHTO    H2 2100   7.217   2.164   0.122
    5CHTO   C12 2101   7.536   2.231   0.183
    5CHTO   H25 2102   7.539   2.169   0.276
    5CHTO    N3 2103   7.597   2.147   0.074
    5CHTO   H12 2104   7.525   2.123   2.876
    5CHTO   H13 2105   7.640   2.057   0.116
    5CHTO   C15 2106   7.615   2.364   0.210
    5CHTO   H28 2107   7.626   2.423   0.119
    5CHTO   O10 2108   7.756   2.338   0.272
    5CHTO    H4 2109   7.804   2.419   0.277
    5CHTO    O5 2110   7.551   2.443   0.312
    5CHTO   C10 2111   7.417   2.483   0.280
    5CHTO   H23 2112   7.418   2.537   0.185
    5CHTO   C17 2113   7.375   2.581   0.390
    5CHTO   O12 2114   7.255   2.653   0.354
    5CHTO    H6 2115   7.182   2.594   0.355
    6CHTO  H203 2116   4.658   4.374   0.440
    6CHTO   O82 2117   4.725   4.362   0.505
    6CHTO  C123 2118   4.802   4.482   0.522
    6CHTO  H227 2119   4.829   4.521   0.422
    6CHTO   O77 2120   4.709   4.573   0.587
    6CHTO  C118 2121   4.761   4.705   0.609
    6CHTO  H222 2122   4.794   4.750   0.514
    6CHTO  C125 2123   4.645   4.794   0.670
    6CHTO   O84 2124   4.534   4.805   0.580
    6CHTO  H205 2125   4.559   4.855   0.504
    6CHTO  C114 2126   4.879   4.697   0.707
    6CHTO  H218 2127   4.844   4.654   0.801
    6CHTO  C116 2128   4.990   4.601   0.652
    6CHTO  H220 2129   5.037   4.648   0.563
    6CHTO   O79 2130   5.094   4.588   0.750
    6CHTO  H201 2131   5.061   4.548   0.829
    6CHTO  C120 2132   4.929   4.460   0.612
    6CHTO  H224 2133   4.899   4.411   0.707
    6CHTO   N21 2134   5.030   4.372   0.547
    6CHTO  H211 2135   5.083   4.315   0.621
    6CHTO  H212 2136   5.099   4.431   0.487
    6CHTO   O75 2137   4.925   4.832   0.726
    6CHTO  C112 2138   4.959   4.865   0.883
    6CHTO  H216 2139   4.979   4.771   0.935
    6CHTO   O73 2140   4.845   4.933   0.938
    6CHTO  C113 2141   4.856   4.954   1.080
    6CHTO  H217 2142   4.870   4.856   1.129
    6CHTO  C124 2143   4.723   5.011   1.134
    6CHTO   O83 2144   4.691   5.141   1.082
    6CHTO  H204 2145   4.671   5.135   0.990
    6CHTO  C109 2146   4.976   5.046   1.112
    6CHTO  H213 2147   4.954   5.145   1.069
    6CHTO  C110 2148   5.107   4.988   1.049
    6CHTO  H214 2149   5.132   4.895   1.101
    6CHTO   O78 2150   5.214   5.081   1.072
    6CHTO  H200 2151   5.234   5.086   1.164
    6CHTO  C111 2152   5.086   4.958   0.898
    6CHTO  H215 2153   5.064   5.053   0.846
    6CHTO   N19 2154   5.205   4.899   0.831
    6CHTO  H207 2155   5.184   4.801   0.791
    6CHTO  H208 2156   5.289   4.894   0.898
    6CHTO   O74 2157   4.990   5.059   1.257
    6CHTO  C115 2158   5.031   5.204   1.310
    6CHTO  H219 2159   5.063   5.269   1.228
    6CHTO   O76 2160   4.909   5.277   1.376
    6CHTO  C122 2161   4.845   5.194   1.475
    6CHTO  H226 2162   4.782   5.122   1.421
    6CHTO  C126 2163   4.745   5.284   1.557
    6CHTO   O85 2164   4.666   5.208   1.649
    6CHTO  H206 2165   4.608   5.265   1.695
    6CHTO  C121 2166   4.948   5.118   1.569
    6CHTO  H225 2167   4.912   5.125   1.673
    6CHTO   O81 2168   4.950   4.978   1.536
    6CHTO  H202 2169   4.982   4.965   1.449
    6CHTO  C119 2170   5.092   5.182   1.561
    6CHTO  H223 2171   5.077   5.285   1.593
    6CHTO  C117 2172   5.148   5.183   1.413
    6CHTO  H221 2173   5.194   5.089   1.383
    6CHTO   N20 2174   5.256   5.285   1.398
    6CHTO  H209 2175   5.335   5.266   1.470
    6CHTO  H210 2176   5.296   5.282   1.298
    6CHTO   O80 2177   5.202   5.128   1.673
    6CHTO  C103 2178   5.165   5.124   1.830
    6CHTO  H190 2179   5.256   5.122   1.890
    6CHTO  C101 2180   5.075   5.243   1.884
    6CHTO  H188 2181   4.998   5.266   1.810
    6CHTO   O68 2182   5.164   5.368   1.901
    6CHTO  H168 2183   5.111   5.443   1.922
    6CHTO   C99 2184   4.999   5.204   2.020
    6CHTO  H186 2185   5.074   5.189   2.101
    6CHTO   N17 2186   4.901   5.308   2.068
    6CHTO  H174 2187   4.933   5.348   2.163
    6CHTO  H175 2188   4.889   5.386   1.995
    6CHTO   C97 2189   4.931   5.065   1.999
    6CHTO  H184 2190   4.867   5.074   1.910
    6CHTO   O64 2191   5.037   4.970   1.979
    6CHTO  C104 2192   5.095   4.983   1.848
    6CHTO  H191 2193   5.019   4.970   1.773
    6CHTO  C108 2194   5.197   4.870   1.824
    6CHTO   O71 2195   5.132   4.743   1.817
    6CHTO  H171 2196   5.196   4.676   1.801
    6CHTO   O62 2197   4.856   5.014   2.111
    6CHTO   C91 2198   4.739   4.932   2.081
    6CHTO  H178 2199   4.700   4.899   2.177
    6CHTO   C92 2200   4.779   4.801   2.004
    6CHTO  H179 2201   4.843   4.828   1.918
    6CHTO   O66 2202   4.863   4.725   2.093
    6CHTO  H166 2203   4.896   4.649   2.049
    6CHTO   C93 2204   4.655   4.718   1.954
    6CHTO  H180 2205   4.602   4.680   2.043
    6CHTO   N16 2206   4.692   4.598   1.875
    6CHTO  H172 2207   4.746   4.628   1.786
    6CHTO  H173 2208   4.604   4.542   1.848
    6CHTO   C94 2209   4.559   4.814   1.875
    6CHTO  H181 2210   4.610   4.863   1.792
    6CHTO   O61 2211   4.515   4.917   1.966
    6CHTO   C95 2212   4.620   5.007   2.006
    6CHTO  H182 2213   4.658   5.058   1.918
    6CHTO  C106 2214   4.557   5.120   2.096
    6CHTO   O69 2215   4.495   5.067   2.214
    6CHTO  H169 2216   4.459   5.137   2.265
    6CHTO   O63 2217   4.422   4.740   1.823
    6CHTO   C96 2218   4.419   4.713   1.663
    6CHTO  H183 2219   4.517   4.675   1.633
    6CHTO   C98 2220   4.386   4.836   1.573
    6CHTO  H185 2221   4.295   4.885   1.610
    6CHTO   O67 2222   4.492   4.932   1.590
    6CHTO  H167 2223   4.470   5.012   1.545
    6CHTO  C102 2224   4.372   4.797   1.417
    6CHTO  H189 2225   4.474   4.775   1.383
    6CHTO   N18 2226   4.323   4.907   1.330
    6CHTO  H176 2227   4.396   4.931   1.254
    6CHTO  H177 2228   4.301   4.996   1.387
    6CHTO  C105 2229   4.287   4.668   1.399
    6CHTO  H192 2230   4.181   4.692   1.408
    6CHTO   O65 2231   4.319   4.564   1.494
    6CHTO  C100 2232   4.313   4.601   1.632
    6CHTO  H187 2233   4.213   4.641   1.654
    6CHTO  C107 2234   4.333   4.474   1.718
    6CHTO   O70 2235   4.456   4.408   1.689
    6CHTO  H170 2236   4.464   4.331   1.742
    6CHTO   O57 2237   4.324   4.615   1.249
    6CHTO   C85 2238   4.246   4.514   1.183
    6CHTO  H157 2239   4.140   4.547   1.191
    6CHTO   C83 2240   4.255   4.377   1.259
    6CHTO  H155 2241   4.204   4.388   1.355
    6CHTO   O56 2242   4.393   4.347   1.290
    6CHTO  H135 2243   4.441   4.332   1.211
    6CHTO   C81 2244   4.183   4.266   1.178
    6CHTO  H153 2245   4.080   4.297   1.162
    6CHTO   N14 2246   4.168   4.137   1.252
    6CHTO  H141 2247   4.222   4.140   1.345
    6CHTO  H142 2248   4.203   4.055   1.194
    6CHTO   C79 2249   4.251   4.251   1.037
    6CHTO  H151 2250   4.196   4.175   0.982
    6CHTO   O52 2251   4.237   4.376   0.964
    6CHTO   C86 2252   4.290   4.494   1.033
    6CHTO  H158 2253   4.400   4.483   1.026
    6CHTO   C90 2254   4.256   4.622   0.951
    6CHTO   O60 2255   4.320   4.621   0.823
    6CHTO  H138 2256   4.282   4.554   0.769
    6CHTO   O50 2257   4.390   4.211   1.042
    6CHTO   C73 2258   4.504   4.142   0.990
    6CHTO  H145 2259   4.492   4.126   0.881
    6CHTO   C74 2260   4.521   4.003   1.059
    6CHTO  H146 2261   4.429   3.945   1.040
    6CHTO   O54 2262   4.627   3.931   0.994
    6CHTO  H133 2263   4.709   3.975   1.006
    6CHTO   C75 2264   4.545   4.026   1.214
    6CHTO  H147 2265   4.454   4.071   1.256
    6CHTO   N13 2266   4.564   3.901   1.292
    6CHTO  H139 2267   4.478   3.837   1.282
    6CHTO  H140 2268   4.578   3.924   1.396
    6CHTO   C76 2269   4.663   4.131   1.238
    6CHTO  H148 2270   4.758   4.082   1.215
    6CHTO   O49 2271   4.649   4.251   1.155
    6CHTO   C77 2272   4.633   4.225   1.015
    6CHTO  H149 2273   4.719   4.169   0.978
    6CHTO   C88 2274   4.633   4.357   0.936
    6CHTO   O58 2275   4.762   4.429   0.952
    6CHTO  H136 2276   4.772   4.458   1.041
    6CHTO   O51 2277   4.654   4.184   1.392
    6CHTO   C78 2278   4.775   4.274   1.451
    6CHTO  H150 2279   4.761   4.288   1.560
    6CHTO   C80 2280   4.782   4.412   1.383
    6CHTO  H152 2281   4.800   4.398   1.274
    6CHTO   O55 2282   4.654   4.475   1.404
    6CHTO  H134 2283   4.649   4.555   1.356
    6CHTO   C84 2284   4.901   4.498   1.444
    6CHTO  H156 2285   4.879   4.514   1.549
    6CHTO   N15 2286   4.912   4.633   1.379
    6CHTO  H143 2287   4.904   4.711   1.452
    6CHTO  H144 2288   5.006   4.644   1.328
    6CHTO   C87 2289   5.032   4.416   1.435
    6CHTO  H159 2290   5.063   4.407   1.330
    6CHTO   O53 2291   5.014   4.277   1.496
    6CHTO   C82 2292   4.910   4.200   1.435
    6CHTO  H154 2293   4.933   4.182   1.329
    6CHTO   C89 2294   4.904   4.061   1.503
    6CHTO   O59 2295   5.026   3.989   1.484
    6CHTO  H137 2296   5.021   3.906   1.528
    6CHTO   O45 2297   5.146   4.484   1.518
    6CHTO   C67 2298   5.278   4.458   1.468
    6CHTO  H124 2299   5.285   4.359   1.423
    6CHTO   C65 2300   5.315   4.566   1.361
    6CHTO  H122 2301   5.230   4.571   1.292
    6CHTO   O44 2302   5.432   4.526   1.287
    6CHTO  H102 2303   5.507   4.527   1.342
    6CHTO   C63 2304   5.322   4.707   1.430
    6CHTO  H120 2305   5.225   4.727   1.478
    6CHTO   N11 2306   5.334   4.825   1.338
    6CHTO  H108 2307   5.354   4.793   1.238
    6CHTO  H109 2308   5.411   4.891   1.370
    6CHTO   C61 2309   5.428   4.703   1.546
    6CHTO  H118 2310   5.415   4.797   1.602
    6CHTO   O40 2311   5.401   4.595   1.641
    6CHTO   C68 2312   5.379   4.459   1.589
    6CHTO  H125 2313   5.330   4.402   1.671
    6CHTO   C72 2314   5.512   4.386   1.558
    6CHTO   O48 2315   5.597   4.374   1.672
    6CHTO  H105 2316   5.677   4.332   1.648
    6CHTO   O38 2317   5.565   4.689   1.501
    6CHTO   C55 2318   5.659   4.791   1.539
    6CHTO  H112 2319   5.606   4.880   1.577
    6CHTO   C56 2320   5.751   4.826   1.414
    6CHTO  H113 2321   5.797   4.732   1.381
    6CHTO   O42 2322   5.670   4.873   1.305
    6CHTO  H100 2323   5.613   4.804   1.274
    6CHTO   C57 2324   5.861   4.932   1.453
    6CHTO  H114 2325   5.808   5.027   1.468
    6CHTO   N10 2326   5.962   4.957   1.346
    6CHTO  H106 2327   5.918   4.943   1.249
    6CHTO  H107 2328   6.000   5.058   1.354
    6CHTO   C58 2329   5.931   4.893   1.586
    6CHTO  H115 2330   6.004   4.812   1.566
    6CHTO   O37 2331   5.839   4.852   1.688
    6CHTO   C59 2332   5.752   4.744   1.654
    6CHTO  H116 2333   5.810   4.657   1.623
    6CHTO   C70 2334   5.674   4.708   1.781
    6CHTO   O46 2335   5.758   4.658   1.885
    6CHTO  H103 2336   5.706   4.637   1.961
    6CHTO   O39 2337   6.003   5.019   1.648
    6CHTO   C60 2338   6.123   4.990   1.722
    6CHTO  H117 2339   6.133   4.883   1.737
    6CHTO   C62 2340   6.247   5.041   1.642
    6CHTO  H119 2341   6.248   4.984   1.546
    6CHTO   O43 2342   6.231   5.181   1.614
    6CHTO  H101 2343   6.303   5.212   1.562
    6CHTO   C66 2344   6.381   5.007   1.725
    6CHTO  H123 2345   6.386   4.900   1.741
    6CHTO   N12 2346   6.505   5.043   1.651
    6CHTO  H110 2347   6.483   5.085   1.554
    6CHTO  H111 2348   6.570   4.957   1.642
    6CHTO   C69 2349   6.372   5.076   1.863
    6CHTO  H126 2350   6.362   5.186   1.849
    6CHTO   O41 2351   6.247   5.023   1.937
    6CHTO   C64 2352   6.119   5.055   1.864
    6CHTO  H121 2353   6.107   5.165   1.854
    6CHTO   C71 2354   6.002   5.001   1.951
    6CHTO   O47 2355   5.875   5.051   1.908
    6CHTO  H104 2356   5.868   5.142   1.927
    6CHTO   O34 2357   6.499   5.050   1.953
    6CHTO   C49 2358   6.562   5.096   2.086
    6CHTO   H91 2359   6.532   5.023   2.162
    6CHTO   C47 2360   6.510   5.236   2.123
    6CHTO   H89 2361   6.553   5.260   2.223
    6CHTO   O33 2362   6.367   5.230   2.135
    6CHTO   H70 2363   6.334   5.312   2.166
    6CHTO   C45 2364   6.563   5.342   2.014
    6CHTO   H87 2365   6.532   5.308   1.914
    6CHTO    N8 2366   6.508   5.478   2.036
    6CHTO   H75 2367   6.540   5.544   1.956
    6CHTO   H76 2368   6.400   5.474   2.038
    6CHTO   C43 2369   6.724   5.339   2.010
    6CHTO   H85 2370   6.753   5.402   1.926
    6CHTO   O29 2371   6.772   5.204   1.993
    6CHTO   C50 2372   6.717   5.098   2.074
    6CHTO   H92 2373   6.747   5.003   2.027
    6CHTO   C54 2374   6.785   5.089   2.214
    6CHTO   O36 2375   6.924   5.060   2.202
    6CHTO   H72 2376   6.936   4.971   2.172
    6CHTO   O27 2377   6.784   5.399   2.126
    6CHTO   C37 2378   6.911   5.425   2.186
    6CHTO   H79 2379   6.950   5.333   2.233
    6CHTO   C38 2380   7.017   5.470   2.081
    6CHTO   H80 2381   6.976   5.557   2.026
    6CHTO   O31 2382   7.037   5.362   1.988
    6CHTO   H68 2383   6.959   5.348   1.937
    6CHTO   C39 2384   7.153   5.510   2.149
    6CHTO   H81 2385   7.198   5.418   2.186
    6CHTO    N7 2386   7.252   5.570   2.053
    6CHTO   H73 2387   7.273   5.500   1.973
    6CHTO   H74 2388   7.344   5.593   2.104
    6CHTO   C40 2389   7.131   5.604   2.274
    6CHTO   H82 2390   7.108   5.706   2.241
    6CHTO   O26 2391   7.028   5.551   2.359
    6CHTO   C41 2392   6.898   5.534   2.295
    6CHTO   H83 2393   6.866   5.629   2.249
    6CHTO   C52 2394   6.797   5.498   2.407
    6CHTO   O35 2395   6.657   5.501   2.361
    6CHTO   H71 2396   6.633   5.588   2.338
    6CHTO   O28 2397   7.251   5.610   2.355
    6CHTO   C42 2398   7.260   5.658   2.493
    6CHTO   H84 2399   7.367   5.668   2.510
    6CHTO   C44 2400   7.208   5.560   2.603
    6CHTO   H86 2401   7.101   5.543   2.588
    6CHTO   O32 2402   7.278   5.436   2.583
    6CHTO   H69 2403   7.244   5.370   2.641
    6CHTO   C48 2404   7.226   5.617   2.750
    6CHTO   H90 2405   7.333   5.624   2.771
    6CHTO    N9 2406   7.170   5.525   2.854
    6CHTO   H77 2407   7.064   5.509   2.837
    6CHTO   H78 2408   7.222   5.430   2.852
    6CHTO   C51 2409   7.164   5.762   2.758
    6CHTO   H93 2410   7.057   5.754   2.743
    6CHTO   O30 2411   7.226   5.845   2.659
    6CHTO   C46 2412   7.198   5.800   2.515
    6CHTO   H88 2413   7.090   5.795   2.500
    6CHTO   C53 2414   7.261   5.904   2.420
    6CHTO   O72 2415   7.199   6.032   2.436
    6CHTO  H199 2416   7.239   6.093   2.377
    6CHTO   O22 2417   7.195   5.828   0.005
    6CHTO   C31 2418   7.089   5.893   0.086
    6CHTO   H59 2419   6.992   5.859   0.044
    6CHTO   C29 2420   7.090   5.853   0.235
    6CHTO   H57 2421   7.185   5.891   0.279
    6CHTO   O21 2422   7.095   5.710   0.245
    6CHTO   H37 2423   7.108   5.684   0.334
    6CHTO   C27 2424   6.968   5.917   0.313
    6CHTO   H55 2425   6.875   5.875   0.273
    6CHTO    N5 2426   6.972   5.891   0.460
    6CHTO   H43 2427   7.061   5.935   0.503
    6CHTO   H44 2428   6.971   5.784   0.478
    6CHTO   C25 2429   6.962   6.071   0.284
    6CHTO   H53 2430   7.047   6.120   0.333
    6CHTO   O17 2431   6.969   6.099   0.141
    6CHTO   C32 2432   7.088   6.049   0.078
    6CHTO   H60 2433   7.176   6.087   0.130
    6CHTO   C36 2434   7.092   6.102   2.811
    6CHTO   O25 2435   7.100   6.245   2.808
    6CHTO   H40 2436   7.103   6.274   2.719
    6CHTO   O15 2437   6.831   6.134   0.335
    6CHTO   C19 2438   6.717   6.189   0.407
    6CHTO   H47 2439   6.691   6.109   0.479
    6CHTO   C20 2440   6.748   6.319   0.486
    6CHTO   H48 2441   6.786   6.399   0.420
    6CHTO   O19 2442   6.853   6.288   0.580
    6CHTO   H35 2443   6.934   6.272   0.535
    6CHTO   C21 2444   6.620   6.374   0.562
    6CHTO   H49 2445   6.593   6.304   0.641
    6CHTO    N4 2446   6.643   6.506   0.628
    6CHTO   H41 2447   6.673   6.579   0.555
    6CHTO   H42 2448   6.721   6.496   0.702
    6CHTO   C22 2449   6.499   6.379   0.464
    6CHTO   H50 2450   6.518   6.456   0.389
    6CHTO   O14 2451   6.481   6.252   0.399
    6CHTO   C23 2452   6.592   6.210   0.318
    6CHTO   H51 2453   6.609   6.288   0.242
    6CHTO   C34 2454   6.552   6.083   0.241
    6CHTO   O23 2455   6.517   5.974   0.327
    6CHTO   H38 2456   6.437   5.993   0.371
    6CHTO   O16 2457   6.376   6.406   0.533
    6CHTO   C24 2458   6.251   6.436   0.435
    6CHTO   H52 2459   6.269   6.398   0.335
    6CHTO   C26 2460   6.224   6.587   0.429
    6CHTO   H54 2461   6.208   6.625   0.533
    6CHTO   O20 2462   6.341   6.654   0.377
    6CHTO   H36 2463   6.357   6.628   0.288
    6CHTO   C30 2464   6.096   6.618   0.345
    6CHTO   H58 2465   6.119   6.601   0.238
    6CHTO    N6 2466   6.058   6.762   0.355
    6CHTO   H45 2467   5.970   6.781   0.295
    6CHTO   H46 2468   6.139   6.824   0.319
    6CHTO   C33 2469   5.977   6.524   0.380
    6CHTO   H61 2470   5.931   6.556   0.476
    6CHTO   O18 2471   6.019   6.387   0.394
    6CHTO   C28 2472   6.125   6.365   0.490
    6CHTO   H56 2473   6.098   6.409   0.586
    6CHTO   C35 2474   6.147   6.214   0.512
    6CHTO   O24 2475   6.192   6.144   0.395
    6CHTO   H39 2476   6.206   6.054   0.416
    6CHTO    O9 2477   5.873   6.536   0.281
    6CHTO   C13 2478   5.723   6.552   0.331
    6CHTO   H26 2479   5.722   6.627   0.413
    6CHTO   C11 2480   5.666   6.412   0.380
    6CHTO   H24 2481   5.727   6.377   0.464
    6CHTO    O8 2482   5.682   6.316   0.273
    6CHTO    H3 2483   5.629   6.340   0.199
    6CHTO    C9 2484   5.520   6.433   0.430
    6CHTO   H22 2485   5.529   6.491   0.523
    6CHTO    N2 2486   5.456   6.307   0.476
    6CHTO   H10 2487   5.363   6.328   0.525
    6CHTO   H11 2488   5.440   6.241   0.392
    6CHTO    C7 2489   5.435   6.521   0.328
    6CHTO   H20 2490   5.426   6.619   0.381
    6CHTO    O4 2491   5.505   6.541   0.204
    6CHTO   C14 2492   5.630   6.611   0.216
    6CHTO   H27 2493   5.606   6.717   0.241
    6CHTO   C18 2494   5.694   6.614   0.074
    6CHTO   O13 2495   5.711   6.482   0.019
    6CHTO    H7 2496   5.749   6.489   2.812
    6CHTO    O2 2497   5.282   6.466   0.292
    6CHTO    C1 2498   5.176   6.562   0.304
    6CHTO   H14 2499   5.212   6.653   0.359
    6CHTO    C2 2500   5.052   6.503   0.382
    6CHTO   H15 2501   5.026   6.409   0.332
    6CHTO    O6 2502   5.092   6.475   0.518
    6CHTO    H1 2503   5.155   6.406   0.519
    6CHTO    C3 2504   4.926   6.604   0.379
    6CHTO   H16 2505   4.951   6.692   0.440
    6CHTO    N1 2506   4.803   6.542   0.439
    6CHTO    H8 2507   4.776   6.452   0.385
    6CHTO    H9 2508   4.821   6.519   0.543
    6CHTO    C4 2509   4.901   6.658   0.232
    6CHTO   H17 2510   4.861   6.577   0.171
    6CHTO    O1 2511   5.024   6.709   0.176
    6CHTO    C5 2512   5.128   6.611   0.164
    6CHTO   H18 2513   5.089   6.524   0.110
    6CHTO   C16 2514   5.241   6.674   0.079
    6CHTO   O11 2515   5.301   6.786   0.144
    6CHTO    H5 2516   5.368   6.822   0.089
    6CHTO    O3 2517   4.810   6.770   0.235
    6CHTO    C6 2518   4.735   6.815   0.115
    6CHTO   H19 2519   4.671   6.899   0.142
    6CHTO    C8 2520   4.827   6.869   0.001
    6CHTO   H21 2521   4.894   6.788   2.847
    6CHTO    O7 2522   4.904   6.978   0.055
    6CHTO    H2 2523   4.967   6.946   0.118
    6CHTO   C12 2524   4.740   6.914   2.755
    6CHTO   H25 2525   4.678   7.000   2.790
    6CHTO    N3 2526   4.824   6.965   2.641
    6CHTO   H12 2527   4.760   6.998   2.561
    6CHTO   H13 2528   4.890   6.887   2.607
    6CHTO   C15 2529   4.643   6.798   2.714
    6CHTO   H28 2530   4.698   6.713   2.671
    6CHTO   O10 2531   4.534   6.844   2.613
    6CHTO    H4 2532   4.485   6.770   2.582
    6CHTO    O5 2533   4.565   6.753   2.826
    6CHTO   C10 2534   4.641   6.704   0.059
    6CHTO   H23 2535   4.701   6.618   0.025
    6CHTO   C17 2536   4.543   6.652   0.165
    6CHTO   O12 2537   4.469   6.540   0.117
    6CHTO    H6 2538   4.410   6.510   0.184
    7CHTO  H203 2539   4.583   1.861   0.500
    7CHTO   O82 2540   4.620   1.852   0.415
    7CHTO  C123 2541   4.713   1.958   0.388
    7CHTO  H227 2542   4.666   2.054   0.415
    7CHTO   O77 2543   4.825   1.930   0.477
    7CHTO  C118 2544   4.926   2.033   0.478
    7CHTO  H222 2545   4.881   2.130   0.504
    7CHTO  C125 2546   5.033   1.995   0.586
    7CHTO   O84 2547   4.976   1.988   0.717
    7CHTO  H205 2548   4.918   1.915   0.723
    7CHTO  C114 2549   4.991   2.042   0.338
    7CHTO  H218 2550   5.041   1.947   0.317
    7CHTO  C116 2551   4.883   2.065   0.227
    7CHTO  H220 2552   4.843   2.169   0.237
    7CHTO   O79 2553   4.948   2.058   0.098
    7CHTO  H201 2554   5.006   2.130   0.087
    7CHTO  C120 2555   4.765   1.961   0.239
    7CHTO  H224 2556   4.807   1.862   0.212
    7CHTO   N21 2557   4.656   1.990   0.142
    7CHTO  H211 2558   4.696   2.034   0.052
    7CHTO  H212 2559   4.583   2.057   0.186
    7CHTO   O75 2560   5.086   2.149   0.346
    7CHTO  C112 2561   5.231   2.120   0.276
    7CHTO  H216 2562   5.218   2.044   0.198
    7CHTO   O73 2563   5.318   2.074   0.381
    7CHTO  C113 2564   5.459   2.071   0.350
    7CHTO  H217 2565   5.475   2.006   0.261
    7CHTO  C124 2566   5.536   2.009   0.467
    7CHTO   O83 2567   5.513   1.868   0.478
    7CHTO  H204 2568   5.554   1.824   0.406
    7CHTO  C109 2569   5.506   2.215   0.319
    7CHTO  H213 2570   5.474   2.278   0.404
    7CHTO  C110 2571   5.433   2.259   0.189
    7CHTO  H214 2572   5.460   2.192   0.108
    7CHTO   O78 2573   5.477   2.391   0.152
    7CHTO  H200 2574   5.567   2.390   0.127
    7CHTO  C111 2575   5.279   2.257   0.212
    7CHTO  H215 2576   5.253   2.336   0.283
    7CHTO   N19 2577   5.200   2.285   0.089
    7CHTO  H207 2578   5.223   2.212   0.012
    7CHTO  H208 2579   5.223   2.384   0.052
    7CHTO   O74 2580   5.652   2.223   0.306
    7CHTO  C115 2581   5.704   2.360   0.367
    7CHTO  H219 2582   5.637   2.442   0.343
    7CHTO   O76 2583   5.711   2.356   0.531
    7CHTO  C122 2584   5.818   2.276   0.584
    7CHTO  H226 2585   5.802   2.172   0.553
    7CHTO  C126 2586   5.810   2.277   0.741
    7CHTO   O85 2587   5.690   2.216   0.790
    7CHTO  H206 2588   5.691   2.217   0.884
    7CHTO  C121 2589   5.955   2.330   0.530
    7CHTO  H225 2590   5.962   2.439   0.552
    7CHTO   O81 2591   6.067   2.266   0.593
    7CHTO  H202 2592   6.065   2.173   0.577
    7CHTO  C119 2593   5.956   2.310   0.375
    7CHTO  H223 2594   6.053   2.346   0.341
    7CHTO  C117 2595   5.844   2.391   0.299
    7CHTO  H221 2596   5.830   2.362   0.195
    7CHTO   N20 2597   5.872   2.538   0.294
    7CHTO  H209 2598   5.962   2.563   0.349
    7CHTO  H210 2599   5.789   2.596   0.331
    7CHTO   O80 2600   5.961   2.165   0.336
    7CHTO  C103 2601   6.063   2.116   0.226
    7CHTO  H190 2602   6.039   2.158   0.129
    7CHTO  C101 2603   6.217   2.138   0.257
    7CHTO  H188 2604   6.233   2.123   0.364
    7CHTO   O68 2605   6.254   2.287   0.223
    7CHTO  H168 2606   6.342   2.305   0.251
    7CHTO   C99 2607   6.312   2.036   0.178
    7CHTO  H186 2608   6.307   2.059   0.069
    7CHTO   N17 2609   6.457   2.045   0.218
    7CHTO  H174 2610   6.491   2.147   0.205
    7CHTO  H175 2611   6.515   1.977   0.158
    7CHTO   C97 2612   6.255   1.892   0.194
    7CHTO  H184 2613   6.254   1.869   0.301
    7CHTO   O64 2614   6.123   1.892   0.138
    7CHTO  C104 2615   6.028   1.962   0.220
    7CHTO  H191 2616   6.027   1.921   0.321
    7CHTO  C108 2617   5.887   1.939   0.163
    7CHTO   O71 2618   5.849   1.801   0.169
    7CHTO  H171 2619   5.836   1.776   0.259
    7CHTO   O62 2620   6.332   1.791   0.124
    7CHTO   C91 2621   6.286   1.654   0.119
    7CHTO  H178 2622   6.376   1.593   0.113
    7CHTO   C92 2623   6.210   1.635   2.861
    7CHTO  H179 2624   6.141   1.719   2.846
    7CHTO   O66 2625   6.307   1.646   2.755
    7CHTO  H166 2626   6.342   1.733   2.752
    7CHTO   C93 2627   6.131   1.499   2.851
    7CHTO  H180 2628   6.205   1.418   2.845
    7CHTO   N16 2629   6.048   1.487   2.728
    7CHTO  H172 2630   6.112   1.491   2.640
    7CHTO  H173 2631   5.975   1.566   2.724
    7CHTO   C94 2632   6.045   1.480   0.102
    7CHTO  H181 2633   5.976   1.563   0.118
    7CHTO   O61 2634   6.134   1.476   0.215
    7CHTO   C95 2635   6.202   1.599   0.244
    7CHTO  H182 2636   6.128   1.673   0.276
    7CHTO  C106 2637   6.292   1.567   0.369
    7CHTO   O69 2638   6.368   1.680   0.414
    7CHTO  H169 2639   6.311   1.745   0.450
    7CHTO   O63 2640   5.968   1.340   0.103
    7CHTO   C96 2641   5.821   1.353   0.150
    7CHTO  H183 2642   5.776   1.436   0.095
    7CHTO   C98 2643   5.804   1.381   0.303
    7CHTO  H185 2644   5.859   1.472   0.331
    7CHTO   O67 2645   5.666   1.410   0.329
    7CHTO  H167 2646   5.641   1.491   0.289
    7CHTO  C102 2647   5.847   1.255   0.393
    7CHTO  H189 2648   5.783   1.259   0.483
    7CHTO   N18 2649   5.987   1.261   0.445
    7CHTO  H176 2650   6.007   1.174   0.506
    7CHTO  H177 2651   6.001   1.350   0.503
    7CHTO  C105 2652   5.818   1.123   0.317
    7CHTO  H192 2653   5.907   1.092   0.262
    7CHTO   O65 2654   5.711   1.136   0.222
    7CHTO  C100 2655   5.747   1.217   0.108
    7CHTO  H187 2656   5.815   1.158   0.045
    7CHTO  C107 2657   5.619   1.243   0.025
    7CHTO   O70 2658   5.648   1.312   2.781
    7CHTO  H170 2659   5.697   1.257   2.723
    7CHTO   O57 2660   5.783   1.015   0.430
    7CHTO   C85 2661   5.844   0.885   0.419
    7CHTO  H157 2662   5.936   0.899   0.358
    7CHTO   C83 2663   5.753   0.790   0.335
    7CHTO  H155 2664   5.739   0.834   0.236
    7CHTO   O56 2665   5.623   0.781   0.396
    7CHTO  H135 2666   5.580   0.864   0.394
    7CHTO   C81 2667   5.826   0.653   0.319
    7CHTO  H153 2668   5.921   0.671   0.269
    7CHTO   N14 2669   5.756   0.560   0.226
    7CHTO  H141 2670   5.742   0.464   0.271
    7CHTO  H142 2671   5.661   0.599   0.196
    7CHTO   C79 2672   5.857   0.590   0.461
    7CHTO  H151 2673   5.920   0.503   0.444
    7CHTO   O52 2674   5.935   0.683   0.543
    7CHTO   C86 2675   5.874   0.815   0.557
    7CHTO  H158 2676   5.781   0.797   0.614
    7CHTO   C90 2677   5.962   0.905   0.648
    7CHTO   O60 2678   6.093   0.923   0.594
    7CHTO  H138 2679   6.142   0.979   0.651
    7CHTO   O50 2680   5.740   0.550   0.534
    7CHTO   C73 2681   5.723   0.433   0.616
    7CHTO  H145 2682   5.817   0.377   0.623
    7CHTO   C74 2683   5.614   0.341   0.552
    7CHTO  H146 2684   5.647   0.317   0.450
    7CHTO   O54 2685   5.613   0.216   0.625
    7CHTO  H133 2686   5.553   0.156   0.584
    7CHTO   C75 2687   5.475   0.417   0.553
    7CHTO  H147 2688   5.486   0.510   0.495
    7CHTO   N13 2689   5.366   0.341   0.488
    7CHTO  H139 2690   5.323   0.398   0.406
    7CHTO  H140 2691   5.287   0.317   0.558
    7CHTO   C76 2692   5.441   0.460   0.703
    7CHTO  H148 2693   5.429   0.368   0.762
    7CHTO   O49 2694   5.550   0.540   0.760
    7CHTO   C77 2695   5.678   0.474   0.760
    7CHTO  H149 2696   5.673   0.384   0.821
    7CHTO   C88 2697   5.781   0.565   0.829
    7CHTO   O58 2698   5.746   0.586   0.973
    7CHTO  H136 2699   5.667   0.636   0.980
    7CHTO   O51 2700   5.314   0.554   0.709
    7CHTO   C78 2701   5.255   0.564   0.856
    7CHTO  H150 2702   5.330   0.529   0.931
    7CHTO   C80 2703   5.128   0.477   0.868
    7CHTO  H152 2704   5.056   0.509   0.789
    7CHTO   O55 2705   5.166   0.340   0.841
    7CHTO  H134 2706   5.189   0.329   0.751
    7CHTO   C84 2707   5.062   0.491   1.011
    7CHTO  H156 2708   5.129   0.445   1.082
    7CHTO   N15 2709   4.931   0.417   1.022
    7CHTO  H143 2710   4.947   0.312   1.006
    7CHTO  H144 2711   4.862   0.453   0.949
    7CHTO   C87 2712   5.044   0.640   1.050
    7CHTO  H159 2713   4.964   0.685   0.992
    7CHTO   O53 2714   5.177   0.718   1.024
    7CHTO   C82 2715   5.222   0.710   0.888
    7CHTO  H154 2716   5.145   0.748   0.821
    7CHTO   C89 2717   5.346   0.801   0.871
    7CHTO   O59 2718   5.313   0.938   0.894
    7CHTO  H137 2719   5.390   0.991   0.884
    7CHTO   O45 2720   5.000   0.650   1.214
    7CHTO   C67 2721   5.085   0.724   1.304
    7CHTO  H124 2722   5.170   0.767   1.251
    7CHTO   C65 2723   5.005   0.841   1.371
    7CHTO  H122 2724   4.902   0.804   1.380
    7CHTO   O44 2725   5.006   0.948   1.275
    7CHTO  H102 2726   5.090   0.989   1.274
    7CHTO   C63 2727   5.049   0.870   1.520
    7CHTO  H120 2728   4.999   0.799   1.585
    7CHTO   N11 2729   5.000   1.000   1.577
    7CHTO  H108 2730   5.021   1.004   1.682
    7CHTO  H109 2731   5.049   1.082   1.528
    7CHTO   C61 2732   5.203   0.843   1.538
    7CHTO  H118 2733   5.224   0.854   1.645
    7CHTO   O40 2734   5.240   0.706   1.502
    7CHTO   C68 2735   5.149   0.631   1.415
    7CHTO  H125 2736   5.068   0.587   1.477
    7CHTO   C72 2737   5.226   0.513   1.351
    7CHTO   O48 2738   5.266   0.415   1.447
    7CHTO  H105 2739   5.310   0.345   1.404
    7CHTO   O38 2740   5.284   0.933   1.460
    7CHTO   C55 2741   5.411   0.969   1.518
    7CHTO  H112 2742   5.445   0.889   1.586
    7CHTO   C56 2743   5.399   1.109   1.592
    7CHTO  H113 2744   5.346   1.177   1.524
    7CHTO   O42 2745   5.314   1.095   1.708
    7CHTO  H100 2746   5.227   1.073   1.682
    7CHTO   C57 2747   5.540   1.169   1.632
    7CHTO  H114 2748   5.578   1.107   1.713
    7CHTO   N10 2749   5.533   1.309   1.682
    7CHTO  H106 2750   5.452   1.362   1.635
    7CHTO  H107 2751   5.518   1.309   1.789
    7CHTO   C58 2752   5.637   1.158   1.512
    7CHTO  H115 2753   5.600   1.224   1.429
    7CHTO   O37 2754   5.642   1.022   1.466
    7CHTO   C59 2755   5.520   0.976   1.406
    7CHTO  H116 2756   5.489   1.044   1.326
    7CHTO   C70 2757   5.549   0.838   1.345
    7CHTO   O46 2758   5.442   0.789   1.263
    7CHTO  H103 2759   5.436   0.840   1.185
    7CHTO   O39 2760   5.793   1.202   1.554
    7CHTO   C60 2761   5.884   1.193   1.443
    7CHTO  H117 2762   5.858   1.107   1.381
    7CHTO   C62 2763   5.881   1.319   1.353
    7CHTO  H119 2764   5.775   1.334   1.324
    7CHTO   O43 2765   5.923   1.435   1.429
    7CHTO  H101 2766   5.916   1.512   1.376
    7CHTO   C66 2767   5.969   1.291   1.222
    7CHTO  H123 2768   5.928   1.203   1.172
    7CHTO   N12 2769   5.962   1.400   1.122
    7CHTO  H110 2770   5.860   1.414   1.090
    7CHTO  H111 2771   6.002   1.492   1.165
    7CHTO   C69 2772   6.115   1.256   1.259
    7CHTO  H126 2773   6.171   1.347   1.290
    7CHTO   O41 2774   6.123   1.149   1.377
    7CHTO   C64 2775   6.029   1.168   1.494
    7CHTO  H121 2776   6.062   1.254   1.555
    7CHTO   C71 2777   6.035   1.041   1.583
    7CHTO   O47 2778   6.167   1.023   1.636
    7CHTO  H104 2779   6.168   0.946   1.690
    7CHTO   O34 2780   6.187   1.194   1.133
    7CHTO   C49 2781   6.279   1.083   1.079
    7CHTO   H91 2782   6.323   1.122   0.987
    7CHTO   C47 2783   6.196   0.956   1.047
    7CHTO   H89 2784   6.265   0.889   0.990
    7CHTO   O33 2785   6.088   0.994   0.960
    7CHTO   H70 2786   6.026   1.048   1.006
    7CHTO   C45 2787   6.149   0.884   1.183
    7CHTO   H87 2788   6.090   0.956   1.240
    7CHTO    N8 2789   6.064   0.765   1.157
    7CHTO   H75 2790   6.121   0.689   1.106
    7CHTO   H76 2791   6.026   0.726   1.250
    7CHTO   C43 2792   6.278   0.851   1.275
    7CHTO   H85 2793   6.238   0.813   1.369
    7CHTO   O29 2794   6.357   0.970   1.294
    7CHTO   C50 2795   6.392   1.050   1.179
    7CHTO   H92 2796   6.427   1.147   1.217
    7CHTO   C54 2797   6.517   0.995   1.105
    7CHTO   O36 2798   6.636   1.004   1.183
    7CHTO   H72 2799   6.660   1.094   1.194
    7CHTO   O27 2800   6.359   0.745   1.220
    7CHTO   C37 2801   6.418   0.621   1.265
    7CHTO   H79 2802   6.380   0.595   1.365
    7CHTO   C38 2803   6.378   0.504   1.169
    7CHTO   H80 2804   6.392   0.538   1.065
    7CHTO   O31 2805   6.238   0.479   1.190
    7CHTO   H68 2806   6.207   0.415   1.129
    7CHTO   C39 2807   6.464   0.374   1.194
    7CHTO   H81 2808   6.439   0.336   1.294
    7CHTO    N7 2809   6.435   0.264   1.096
    7CHTO   H73 2810   6.457   0.297   0.996
    7CHTO   H74 2811   6.492   0.176   1.121
    7CHTO   C40 2812   6.617   0.413   1.195
    7CHTO   H82 2813   6.644   0.451   1.096
    7CHTO   O26 2814   6.639   0.510   1.298
    7CHTO   C41 2815   6.572   0.638   1.273
    7CHTO   H83 2816   6.610   0.680   1.179
    7CHTO   C52 2817   6.614   0.734   1.387
    7CHTO   O35 2818   6.575   0.686   1.524
    7CHTO   H71 2819   6.623   0.609   1.546
    7CHTO   O28 2820   6.704   0.303   1.229
    7CHTO   C42 2821   6.842   0.300   1.178
    7CHTO   H84 2822   6.888   0.220   1.236
    7CHTO   C44 2823   6.928   0.428   1.203
    7CHTO   H86 2824   6.875   0.514   1.163
    7CHTO   O32 2825   6.936   0.446   1.346
    7CHTO   H69 2826   6.985   0.376   1.385
    7CHTO   C48 2827   7.071   0.423   1.135
    7CHTO   H90 2828   7.130   0.346   1.184
    7CHTO    N9 2829   7.148   0.551   1.153
    7CHTO   H77 2830   7.172   0.597   1.058
    7CHTO   H78 2831   7.095   0.621   1.216
    7CHTO   C51 2832   7.052   0.383   0.984
    7CHTO   H93 2833   6.988   0.458   0.938
    7CHTO   O30 2834   6.992   0.253   0.981
    7CHTO   C46 2835   6.848   0.256   1.028
    7CHTO   H88 2836   6.792   0.327   0.967
    7CHTO   C53 2837   6.789   0.114   1.010
    7CHTO   O72 2838   6.788   0.075   0.872
    7CHTO  H199 2839   6.724   0.126   0.825
    7CHTO   O22 2840   7.176   0.371   0.912
    7CHTO   C31 2841   7.181   0.380   0.764
    7CHTO   H59 2842   7.289   0.376   0.737
    7CHTO   C29 2843   7.111   0.263   0.691
    7CHTO   H57 2844   7.006   0.260   0.725
    7CHTO   O21 2845   7.173   0.140   0.734
    7CHTO   H37 2846   7.158   0.127   0.826
    7CHTO   C27 2847   7.114   0.279   0.533
    7CHTO   H55 2848   7.219   0.274   0.500
    7CHTO    N5 2849   7.036   0.174   0.462
    7CHTO   H43 2850   7.102   0.118   0.397
    7CHTO   H44 2851   6.987   0.108   0.531
    7CHTO   C25 2852   7.060   0.422   0.498
    7CHTO   H53 2853   6.956   0.430   0.534
    7CHTO   O17 2854   7.141   0.522   0.566
    7CHTO   C32 2855   7.129   0.517   0.709
    7CHTO   H60 2856   7.024   0.529   0.736
    7CHTO   C36 2857   7.209   0.637   0.767
    7CHTO   O25 2858   7.151   0.762   0.729
    7CHTO   H40 2859   7.068   0.773   0.772
    7CHTO   O15 2860   7.064   0.453   0.343
    7CHTO   C19 2861   6.993   0.565   0.282
    7CHTO   H47 2862   7.001   0.545   0.174
    7CHTO   C20 2863   6.842   0.575   0.320
    7CHTO   H48 2864   6.828   0.588   0.429
    7CHTO   O19 2865   6.781   0.450   0.283
    7CHTO   H35 2866   6.812   0.381   0.338
    7CHTO   C21 2867   6.772   0.697   0.247
    7CHTO   H49 2868   6.773   0.678   0.140
    7CHTO    N4 2869   6.630   0.713   0.287
    7CHTO   H41 2870   6.574   0.624   0.263
    7CHTO   H42 2871   6.586   0.797   0.234
    7CHTO   C22 2872   6.856   0.825   0.272
    7CHTO   H50 2873   6.851   0.852   0.378
    7CHTO   O14 2874   6.993   0.805   0.233
    7CHTO   C23 2875   7.063   0.703   0.306
    7CHTO   H51 2876   7.063   0.731   0.412
    7CHTO   C34 2877   7.208   0.700   0.257
    7CHTO   O23 2878   7.275   0.824   0.286
    7CHTO   H38 2879   7.361   0.822   0.249
    7CHTO   O16 2880   6.816   0.935   0.187
    7CHTO   C24 2881   6.775   1.073   0.263
    7CHTO   H52 2882   6.755   1.056   0.369
    7CHTO   C26 2883   6.649   1.127   0.194
    7CHTO   H54 2884   6.667   1.128   0.084
    7CHTO   O20 2885   6.540   1.036   0.218
    7CHTO   H36 2886   6.520   1.032   0.310
    7CHTO   C30 2887   6.614   1.273   0.239
    7CHTO   H58 2888   6.576   1.272   0.342
    7CHTO    N6 2889   6.505   1.330   0.155
    7CHTO   H45 2890   6.415   1.270   0.166
    7CHTO   H46 2891   6.534   1.332   0.051
    7CHTO   C33 2892   6.740   1.365   0.239
    7CHTO   H61 2893   6.774   1.382   0.135
    7CHTO   O18 2894   6.846   1.299   0.311
    7CHTO   C28 2895   6.891   1.175   0.254
    7CHTO   H56 2896   6.918   1.189   0.149
    7CHTO   C35 2897   7.016   1.128   0.332
    7CHTO   O24 2898   7.125   1.220   0.320
    7CHTO   H39 2899   7.198   1.188   0.370
    7CHTO    O9 2900   6.713   1.495   0.293
    7CHTO   C13 2901   6.813   1.617   0.240
    7CHTO   H26 2902   6.803   1.623   0.130
    7CHTO   C11 2903   6.963   1.589   0.283
    7CHTO   H24 2904   6.998   1.501   0.226
    7CHTO    O8 2905   6.970   1.556   0.423
    7CHTO    H3 2906   7.057   1.530   0.446
    7CHTO    C9 2907   7.050   1.711   0.243
    7CHTO   H22 2908   7.033   1.725   0.135
    7CHTO    N2 2909   7.196   1.688   0.256
    7CHTO   H10 2910   7.250   1.773   0.217
    7CHTO   H11 2911   7.224   1.598   0.203
    7CHTO    C7 2912   6.998   1.839   0.319
    7CHTO   H20 2913   7.057   1.923   0.276
    7CHTO    O4 2914   6.859   1.864   0.292
    7CHTO   C14 2915   6.762   1.757   0.296
    7CHTO   H27 2916   6.678   1.789   0.230
    7CHTO   C18 2917   6.704   1.745   0.439
    7CHTO   O13 2918   6.629   1.862   0.475
    7CHTO    H7 2919   6.596   1.853   0.562
    7CHTO    O2 2920   7.022   1.830   0.484
    7CHTO    C1 2921   7.066   1.952   0.547
    7CHTO   H14 2922   7.011   2.038   0.503
    7CHTO    C2 2923   7.222   1.979   0.535
    7CHTO   H15 2924   7.272   1.889   0.573
    7CHTO    O6 2925   7.257   1.999   0.397
    7CHTO    H1 2926   7.350   2.005   0.388
    7CHTO    C3 2927   7.266   2.107   0.623
    7CHTO   H16 2928   7.221   2.197   0.577
    7CHTO    N1 2929   7.415   2.129   0.626
    7CHTO    H8 2930   7.439   2.225   0.584
    7CHTO    H9 2931   7.466   2.051   0.571
    7CHTO    C4 2932   7.204   2.098   0.767
    7CHTO   H17 2933   7.257   2.020   0.824
    7CHTO    O1 2934   7.064   2.069   0.763
    7CHTO    C5 2935   7.029   1.947   0.698
    7CHTO   H18 2936   7.084   1.864   0.743
    7CHTO   C16 2937   6.877   1.924   0.721
    7CHTO   O11 2938   6.850   1.902   0.860
    7CHTO    H5 2939   6.758   1.889   0.872
    7CHTO    O3 2940   7.212   2.225   0.836
    7CHTO    C6 2941   7.228   2.218   0.981
    7CHTO   H19 2942   7.211   2.118   1.022
    7CHTO    C8 2943   7.373   2.261   1.019
    7CHTO   H21 2944   7.394   2.357   0.971
    7CHTO    O7 2945   7.463   2.161   0.966
    7CHTO    H2 2946   7.449   2.078   1.008
    7CHTO   C12 2947   7.391   2.277   1.175
    7CHTO   H25 2948   7.386   2.175   1.218
    7CHTO    N3 2949   7.527   2.331   1.210
    7CHTO   H12 2950   7.542   2.428   1.164
    7CHTO   H13 2951   7.604   2.262   1.178
    7CHTO   C15 2952   7.274   2.362   1.235
    7CHTO   H28 2953   7.283   2.468   1.211
    7CHTO   O10 2954   7.263   2.344   1.387
    7CHTO    H4 2955   7.202   2.405   1.422
    7CHTO    O5 2956   7.146   2.313   1.192
    7CHTO   C10 2957   7.125   2.313   1.050
    7CHTO   H23 2958   7.134   2.415   1.013
    7CHTO   C17 2959   6.979   2.268   1.031
    7CHTO   O12 2960   6.931   2.286   0.898
    7CHTO    H6 2961   6.975   2.227   0.840
    8CHTO  H203 2962   6.902   8.276   2.626
    8CHTO   O82 2963   6.910   8.230   2.545
    8CHTO  C123 2964   6.795   8.255   2.462
    8CHTO  H227 2965   6.787   8.364   2.445
    8CHTO   O77 2966   6.831   8.189   2.337
    8CHTO  C118 2967   6.735   8.203   2.231
    8CHTO  H222 2968   6.722   8.309   2.208
    8CHTO  C125 2969   6.795   8.131   2.103
    8CHTO   O84 2970   6.819   7.991   2.124
    8CHTO  H205 2971   6.738   7.946   2.134
    8CHTO  C114 2972   6.599   8.143   2.273
    8CHTO  H218 2973   6.614   8.037   2.295
    8CHTO  C116 2974   6.549   8.207   2.407
    8CHTO  H220 2975   6.524   8.314   2.391
    8CHTO   O79 2976   6.427   8.141   2.445
    8CHTO  H201 2977   6.391   8.181   2.522
    8CHTO  C120 2978   6.662   8.194   2.518
    8CHTO  H224 2979   6.676   8.086   2.536
    8CHTO   N21 2980   6.622   8.256   2.647
    8CHTO  H211 2981   6.556   8.340   2.631
    8CHTO  H212 2982   6.575   8.182   2.710
    8CHTO   O75 2983   6.512   8.154   2.158
    8CHTO  C112 2984   6.431   8.298   2.134
    8CHTO  H216 2985   6.494   8.382   2.170
    8CHTO   O73 2986   6.308   8.290   2.208
    8CHTO  C113 2987   6.220   8.403   2.192
    8CHTO  H217 2988   6.274   8.495   2.226
    8CHTO  C124 2989   6.101   8.385   2.287
    8CHTO   O83 2990   6.027   8.264   2.264
    8CHTO  H204 2991   5.956   8.259   2.325
    8CHTO  C109 2992   6.177   8.420   2.044
    8CHTO  H213 2993   6.124   8.328   2.015
    8CHTO  C110 2994   6.305   8.437   1.957
    8CHTO  H214 2995   6.354   8.530   1.985
    8CHTO   O78 2996   6.266   8.448   1.818
    8CHTO  H200 2997   6.219   8.528   1.804
    8CHTO  C111 2998   6.401   8.317   1.980
    8CHTO  H215 2999   6.352   8.225   1.945
    8CHTO   N19 3000   6.529   8.329   1.905
    8CHTO  H207 3001   6.581   8.419   1.934
    8CHTO  H208 3002   6.509   8.330   1.799
    8CHTO   O74 3003   6.089   8.535   2.025
    8CHTO  C115 3004   5.940   8.498   1.994
    8CHTO  H219 3005   5.916   8.397   2.029
    8CHTO   O76 3006   5.837   8.595   2.070
    8CHTO  C122 3007   5.845   8.730   2.022
    8CHTO  H226 3008   5.947   8.766   2.036
    8CHTO  C126 3009   5.754   8.823   2.110
    8CHTO   O85 3010   5.797   8.830   2.246
    8CHTO  H206 3011   5.785   8.747   2.287
    8CHTO  C121 3012   5.807   8.733   1.869
    8CHTO  H225 3013   5.709   8.683   1.856
    8CHTO   O81 3014   5.790   8.867   1.820
    8CHTO  H202 3015   5.870   8.915   1.826
    8CHTO  C119 3016   5.916   8.652   1.791
    8CHTO  H223 3017   5.888   8.654   1.685
    8CHTO  C117 3018   5.922   8.501   1.837
    8CHTO  H221 3019   6.007   8.445   1.798
    8CHTO   N20 3020   5.801   8.422   1.793
    8CHTO  H209 3021   5.831   8.343   1.725
    8CHTO  H210 3022   5.748   8.380   1.877
    8CHTO   O80 3023   6.062   8.719   1.787
    8CHTO  C103 3024   6.081   8.861   1.719
    8CHTO  H190 3025   5.987   8.894   1.673
    8CHTO  C101 3026   6.132   8.975   1.814
    8CHTO  H188 3027   6.228   8.945   1.858
    8CHTO   O68 3028   6.032   8.995   1.927
    8CHTO  H168 3029   6.028   8.918   1.980
    8CHTO   C99 3030   6.154   9.110   1.731
    8CHTO  H186 3031   6.055   9.144   1.694
    8CHTO   N17 3032   6.212   9.223   1.811
    8CHTO  H174 3033   6.242   9.190   1.909
    8CHTO  H175 3034   6.140   9.304   1.818
    8CHTO   C97 3035   6.239   9.083   1.603
    8CHTO  H184 3036   6.345   9.073   1.633
    8CHTO   O64 3037   6.192   8.968   1.529
    8CHTO  C104 3038   6.186   8.845   1.604
    8CHTO  H191 3039   6.283   8.820   1.647
    8CHTO  C108 3040   6.150   8.730   1.509
    8CHTO   O71 3041   6.255   8.708   1.414
    8CHTO  H171 3042   6.232   8.637   1.358
    8CHTO   O62 3043   6.224   9.192   1.509
    8CHTO   C91 3044   6.334   9.215   1.419
    8CHTO  H178 3045   6.388   9.121   1.407
    8CHTO   C92 3046   6.434   9.317   1.483
    8CHTO  H179 3047   6.447   9.295   1.590
    8CHTO   O66 3048   6.563   9.296   1.423
    8CHTO  H166 3049   6.628   9.347   1.467
    8CHTO   C93 3050   6.393   9.468   1.459
    8CHTO  H180 3051   6.481   9.528   1.486
    8CHTO   N16 3052   6.287   9.518   1.550
    8CHTO  H172 3053   6.197   9.458   1.537
    8CHTO  H173 3054   6.320   9.513   1.652
    8CHTO   C94 3055   6.359   9.494   1.307
    8CHTO  H181 3056   6.257   9.532   1.293
    8CHTO   O61 3057   6.368   9.375   1.226
    8CHTO   C95 3058   6.288   9.265   1.274
    8CHTO  H182 3059   6.184   9.298   1.280
    8CHTO  C106 3060   6.293   9.151   1.168
    8CHTO   O69 3061   6.206   9.043   1.204
    8CHTO  H169 3062   6.209   8.976   1.138
    8CHTO   O63 3063   6.461   9.600   1.251
    8CHTO   C96 3064   6.408   9.679   1.125
    8CHTO  H183 3065   6.305   9.652   1.106
    8CHTO   C98 3066   6.488   9.654   0.995
    8CHTO  H185 3067   6.594   9.683   1.011
    8CHTO   O67 3068   6.491   9.513   0.968
    8CHTO  H167 3069   6.405   9.481   0.951
    8CHTO  C102 3070   6.426   9.734   0.871
    8CHTO  H189 3071   6.342   9.672   0.836
    8CHTO   N18 3072   6.516   9.747   0.753
    8CHTO  H176 3073   6.465   9.799   0.673
    8CHTO  H177 3074   6.605   9.800   0.781
    8CHTO  C105 3075   6.367   9.871   0.916
    8CHTO  H192 3076   6.392   9.949   0.843
    8CHTO   O65 3077   6.417   9.920   1.043
    8CHTO  C100 3078   6.412   9.834   1.158
    8CHTO  H187 3079   6.504   9.853   1.215
    8CHTO  C107 3080   6.293   9.874   1.249
    8CHTO   O70 3081   6.310   0.006   1.302
    8CHTO  H170 3082   6.381   0.007   1.363
    8CHTO   O57 3083   6.205   9.848   0.915
    8CHTO   C85 3084   6.123   9.954   0.862
    8CHTO  H157 3085   6.188   0.015   0.796
    8CHTO   C83 3086   6.080   0.050   0.977
    8CHTO  H155 3087   6.170   0.089   1.024
    8CHTO   O56 3088   6.010   9.976   1.079
    8CHTO  H135 3089   5.930   9.941   1.046
    8CHTO   C81 3090   5.999   0.168   0.916
    8CHTO  H153 3091   6.062   0.216   0.840
    8CHTO   N14 3092   5.972   0.276   1.014
    8CHTO  H141 3093   6.064   0.310   1.057
    8CHTO  H142 3094   5.909   0.240   1.092
    8CHTO   C79 3095   5.869   0.113   0.844
    8CHTO  H151 3096   5.823   0.198   0.792
    8CHTO   O52 3097   5.905   0.015   0.741
    8CHTO   C86 3098   5.992   9.906   0.787
    8CHTO  H158 3099   5.928   9.846   0.854
    8CHTO   C90 3100   6.027   9.814   0.667
    8CHTO   O60 3101   6.095   9.884   0.564
    8CHTO  H138 3102   6.113   9.826   0.492
    8CHTO   O50 3103   5.771   0.057   0.932
    8CHTO   C73 3104   5.628   0.037   0.942
    8CHTO  H145 3105   5.585   0.023   0.842
    8CHTO   C74 3106   5.559   0.159   1.010
    8CHTO  H146 3107   5.577   0.246   0.946
    8CHTO   O54 3108   5.416   0.139   1.009
    8CHTO  H133 3109   5.393   0.064   1.060
    8CHTO   C75 3110   5.621   0.178   1.153
    8CHTO  H147 3111   5.727   0.206   1.142
    8CHTO   N13 3112   5.563   0.289   1.232
    8CHTO  H139 3113   5.578   0.383   1.179
    8CHTO  H140 3114   5.457   0.274   1.245
    8CHTO   C76 3115   5.620   0.039   1.236
    8CHTO  H148 3116   5.521   0.024   1.278
    8CHTO   O49 3117   5.660   9.922   1.157
    8CHTO   C77 3118   5.599   9.911   1.028
    8CHTO  H149 3119   5.491   9.900   1.040
    8CHTO   C88 3120   5.646   9.783   0.957
    8CHTO   O58 3121   5.594   9.663   1.026
    8CHTO  H136 3122   5.501   9.658   1.015
    8CHTO   O51 3123   5.730   0.048   1.343
    8CHTO   C78 3124   5.712   9.959   1.469
    8CHTO  H150 3125   5.647   9.871   1.447
    8CHTO   C80 3126   5.647   0.042   1.581
    8CHTO  H152 3127   5.695   0.143   1.583
    8CHTO   O55 3128   5.509   0.063   1.547
    8CHTO  H134 3129   5.462   9.981   1.547
    8CHTO   C84 3130   5.663   9.977   1.725
    8CHTO  H156 3131   5.603   9.886   1.727
    8CHTO   N15 3132   5.610   0.065   1.836
    8CHTO  H143 3133   5.688   0.092   1.904
    8CHTO  H144 3134   5.567   0.155   1.796
    8CHTO   C87 3135   5.811   9.938   1.745
    8CHTO  H159 3136   5.873   0.028   1.739
    8CHTO   O53 3137   5.849   9.839   1.632
    8CHTO   C82 3138   5.852   9.906   1.505
    8CHTO  H154 3139   5.924   9.987   1.507
    8CHTO   C89 3140   5.899   9.806   1.397
    8CHTO   O59 3141   6.031   9.758   1.424
    8CHTO  H137 3142   6.030   9.702   1.500
    8CHTO   O45 3143   5.840   9.870   1.892
    8CHTO   C67 3144   5.836   9.726   1.899
    8CHTO  H124 3145   5.768   9.687   1.823
    8CHTO   C65 3146   5.979   9.663   1.879
    8CHTO  H122 3147   6.042   9.741   1.836
    8CHTO   O44 3148   5.968   9.554   1.786
    8CHTO  H102 3149   6.053   9.522   1.764
    8CHTO   C63 3150   6.043   9.626   2.018
    8CHTO  H120 3151   6.041   9.715   2.082
    8CHTO   N11 3152   6.189   9.593   2.017
    8CHTO  H108 3153   6.225   9.580   2.117
    8CHTO  H109 3154   6.244   9.671   1.969
    8CHTO   C61 3155   5.950   9.518   2.088
    8CHTO  H118 3156   5.975   9.520   2.195
    8CHTO   O40 3157   5.809   9.552   2.077
    8CHTO   C68 3158   5.773   9.687   2.038
    8CHTO  H125 3159   5.808   9.757   2.116
    8CHTO   C72 3160   5.618   9.696   2.036
    8CHTO   O48 3161   5.559   9.665   2.163
    8CHTO  H105 3162   5.571   9.575   2.183
    8CHTO   O38 3163   5.970   9.384   2.035
    8CHTO   C55 3164   5.875   9.276   2.054
    8CHTO  H112 3165   5.936   9.185   2.054
    8CHTO   C56 3166   5.770   9.276   1.933
    8CHTO  H113 3167   5.736   9.380   1.919
    8CHTO   O42 3168   5.838   9.241   1.812
    8CHTO  H100 3169   5.902   9.306   1.790
    8CHTO   C57 3170   5.646   9.182   1.960
    8CHTO  H114 3171   5.681   9.079   1.956
    8CHTO   N10 3172   5.539   9.197   1.857
    8CHTO  H106 3173   5.484   9.105   1.847
    8CHTO  H107 3174   5.470   9.276   1.885
    8CHTO   C58 3175   5.594   9.211   2.103
    8CHTO  H115 3176   5.568   9.319   2.111
    8CHTO   O37 3177   5.697   9.180   2.197
    8CHTO   C59 3178   5.804   9.276   2.195
    8CHTO  H116 3179   5.763   9.373   2.220
    8CHTO   C70 3180   5.902   9.241   2.308
    8CHTO   O46 3181   5.952   9.107   2.302
    8CHTO  H103 3182   6.010   9.092   2.374
    8CHTO   O39 3183   5.466   9.119   2.146
    8CHTO   C60 3184   5.348   9.196   2.177
    8CHTO  H117 3185   5.357   9.297   2.137
    8CHTO   C62 3186   5.223   9.132   2.110
    8CHTO  H119 3187   5.245   9.129   2.001
    8CHTO   O43 3188   5.207   8.997   2.158
    8CHTO  H101 3189   5.135   8.956   2.114
    8CHTO   C66 3190   5.096   9.226   2.137
    8CHTO  H123 3191   5.119   9.327   2.103
    8CHTO   N12 3192   4.978   9.182   2.058
    8CHTO  H110 3193   4.895   9.250   2.076
    8CHTO  H111 3194   4.952   9.081   2.085
    8CHTO   C69 3195   5.069   9.233   2.290
    8CHTO  H126 3196   5.044   9.132   2.329
    8CHTO   O41 3197   5.198   9.287   2.363
    8CHTO   C64 3198   5.327   9.209   2.331
    8CHTO  H121 3199   5.319   9.108   2.375
    8CHTO   C71 3200   5.445   9.282   2.400
    8CHTO   O47 3201   5.462   9.416   2.351
    8CHTO  H104 3202   5.390   9.469   2.377
    8CHTO   O34 3203   4.950   9.329   2.323
    8CHTO   C49 3204   4.922   9.476   2.364
    8CHTO   H91 3205   4.925   9.480   2.473
    8CHTO   C47 3206   4.781   9.511   2.313
    8CHTO   H89 3207   4.757   9.613   2.353
    8CHTO   O33 3208   4.687   9.418   2.370
    8CHTO   H70 3209   4.702   9.332   2.336
    8CHTO   C45 3210   4.784   9.514   2.153
    8CHTO   H87 3211   4.824   9.418   2.118
    8CHTO    N8 3212   4.650   9.531   2.092
    8CHTO   H75 3213   4.584   9.453   2.127
    8CHTO   H76 3214   4.610   9.628   2.119
    8CHTO   C43 3215   4.890   9.624   2.103
    8CHTO   H85 3216   4.894   9.615   1.995
    8CHTO   O29 3217   5.019   9.597   2.163
    8CHTO   C50 3218   5.027   9.574   2.306
    8CHTO   H92 3219   5.126   9.532   2.326
    8CHTO   C54 3220   5.030   9.708   2.386
    8CHTO   O36 3221   5.147   9.785   2.357
    8CHTO   H72 3222   5.222   9.742   2.392
    8CHTO   O27 3223   4.849   9.760   2.131
    8CHTO   C37 3224   4.810   9.864   2.039
    8CHTO   H79 3225   4.784   9.821   1.942
    8CHTO   C38 3226   4.684   9.941   2.090
    8CHTO   H80 3227   4.706   9.982   2.190
    8CHTO   O31 3228   4.575   9.847   2.102
    8CHTO   H68 3229   4.592   9.786   2.172
    8CHTO   C39 3230   4.645   0.059   1.992
    8CHTO   H81 3231   4.618   0.013   1.897
    8CHTO    N7 3232   4.527   0.140   2.037
    8CHTO   H73 3233   4.547   0.184   2.134
    8CHTO   H74 3234   4.439   0.077   2.043
    8CHTO   C40 3235   4.772   0.150   1.966
    8CHTO   H82 3236   4.795   0.204   2.057
    8CHTO   O26 3237   4.882   0.068   1.923
    8CHTO   C41 3238   4.925   9.968   2.019
    8CHTO   H83 3239   4.950   0.016   2.115
    8CHTO   C52 3240   5.054   9.907   1.959
    8CHTO   O35 3241   5.134   9.839   2.055
    8CHTO   H71 3242   5.211   9.805   2.014
    8CHTO   O28 3243   4.752   0.253   1.866
    8CHTO   C42 3244   4.762   0.240   1.719
    8CHTO   H84 3245   4.728   0.338   1.685
    8CHTO   C44 3246   4.668   0.136   1.652
    8CHTO   H86 3247   4.694   0.036   1.688
    8CHTO   O32 3248   4.533   0.167   1.692
    8CHTO   H69 3249   4.522   0.150   1.784
    8CHTO   C48 3250   4.681   0.136   1.494
    8CHTO   H90 3251   4.639   0.230   1.458
    8CHTO    N9 3252   4.600   0.026   1.430
    8CHTO   H77 3253   4.545   9.969   1.504
    8CHTO   H78 3254   4.531   0.068   1.357
    8CHTO   C51 3255   4.832   0.129   1.450
    8CHTO   H93 3256   4.869   0.031   1.476
    8CHTO   O30 3257   4.906   0.234   1.514
    8CHTO   C46 3258   4.907   0.221   1.666
    8CHTO   H88 3259   4.942   0.121   1.691
    8CHTO   C53 3260   5.004   0.327   1.723
    8CHTO   O72 3261   5.139   0.296   1.690
    8CHTO  H199 3262   5.166   0.218   1.734
    8CHTO   O22 3263   4.850   0.155   1.309
    8CHTO   C31 3264   4.944   0.079   1.222
    8CHTO   H59 3265   4.972   0.149   1.141
    8CHTO   C29 3266   5.076   0.035   1.290
    8CHTO   H57 3267   5.050   9.982   1.383
    8CHTO   O21 3268   5.147   0.153   1.331
    8CHTO   H37 3269   5.178   0.201   1.256
    8CHTO   C27 3270   5.165   9.939   1.201
    8CHTO   H55 3271   5.207   9.998   1.118
    8CHTO    N5 3272   5.277   9.880   1.277
    8CHTO   H43 3273   5.239   9.816   1.356
    8CHTO   H44 3274   5.342   9.823   1.211
    8CHTO   C25 3275   5.076   9.828   1.136
    8CHTO   H53 3276   5.036   9.762   1.216
    8CHTO   O17 3277   4.964   9.888   1.066
    8CHTO   C32 3278   4.873   9.960   1.151
    8CHTO   H60 3279   4.831   9.893   1.227
    8CHTO   C36 3280   4.758   0.013   1.061
    8CHTO   O25 3281   4.693   9.908   0.989
    8CHTO   H40 3282   4.625   9.944   0.936
    8CHTO   O15 3283   5.157   9.739   1.032
    8CHTO   C19 3284   5.177   9.735   0.888
    8CHTO   H47 3285   5.075   9.725   0.848
    8CHTO   C20 3286   5.241   9.865   0.828
    8CHTO   H48 3287   5.338   9.887   0.875
    8CHTO   O19 3288   5.153   9.975   0.857
    8CHTO   H35 3289   5.070   9.964   0.814
    8CHTO   C21 3290   5.265   9.852   0.672
    8CHTO   H49 3291   5.168   9.846   0.622
    8CHTO    N4 3292   5.336   9.969   0.615
    8CHTO   H41 3293   5.278   0.059   0.632
    8CHTO   H42 3294   5.350   9.955   0.508
    8CHTO   C22 3295   5.338   9.718   0.643
    8CHTO   H50 3296   5.437   9.722   0.689
    8CHTO   O14 3297   5.265   9.607   0.697
    8CHTO   C23 3298   5.255   9.609   0.840
    8CHTO   H51 3299   5.357   9.607   0.880
    8CHTO   C34 3300   5.188   9.479   0.887
    8CHTO   O23 3301   5.056   9.462   0.834
    8CHTO   H38 3302   5.061   9.446   0.741
    8CHTO   O16 3303   5.348   9.691   0.501
    8CHTO   C24 3304   5.478   9.606   0.463
    8CHTO   H52 3305   5.512   9.545   0.546
    8CHTO   C26 3306   5.591   9.701   0.419
    8CHTO   H54 3307   5.553   9.767   0.338
    8CHTO   O20 3308   5.628   9.784   0.531
    8CHTO   H36 3309   5.558   9.842   0.553
    8CHTO   C30 3310   5.715   9.622   0.365
    8CHTO   H58 3311   5.764   9.571   0.448
    8CHTO    N6 3312   5.817   9.713   0.306
    8CHTO   H45 3313   5.901   9.656   0.270
    8CHTO   H46 3314   5.852   9.783   0.382
    8CHTO   C33 3315   5.672   9.510   0.264
    8CHTO   H61 3316   5.640   9.555   0.169
    8CHTO   O18 3317   5.562   9.433   0.318
    8CHTO   C28 3318   5.444   9.509   0.347
    8CHTO   H56 3319   5.414   9.567   0.260
    8CHTO   C35 3320   5.327   9.413   0.383
    8CHTO   O24 3321   5.355   9.327   0.494
    8CHTO   H39 3322   5.364   9.377   0.572
    8CHTO    O9 3323   5.785   9.427   0.232
    8CHTO   C13 3324   5.758   9.275   0.181
    8CHTO   H26 3325   5.667   9.275   0.117
    8CHTO   C11 3326   5.741   9.177   0.307
    8CHTO   H24 3327   5.634   9.177   0.335
    8CHTO    O8 3328   5.816   9.228   0.419
    8CHTO    H3 3329   5.798   9.177   0.496
    8CHTO    C9 3330   5.784   9.034   0.267
    8CHTO   H22 3331   5.727   9.010   0.176
    8CHTO    N2 3332   5.744   8.929   0.364
    8CHTO   H10 3333   5.638   8.934   0.382
    8CHTO   H11 3334   5.771   8.831   0.327
    8CHTO    C7 3335   5.939   9.036   0.232
    8CHTO   H20 3336   5.953   8.949   0.165
    8CHTO    O4 3337   5.979   9.157   0.163
    8CHTO   C14 3338   5.877   9.226   0.087
    8CHTO   H27 3339   5.836   9.155   0.011
    8CHTO   C18 3340   5.943   9.342   0.009
    8CHTO   O13 3341   6.039   9.294   2.792
    8CHTO    H7 3342   6.078   9.366   2.747
    8CHTO    O2 3343   6.033   9.021   0.368
    8CHTO    C1 3344   6.175   8.999   0.355
    8CHTO   H14 3345   6.216   8.989   0.458
    8CHTO    C2 3346   6.257   9.114   0.282
    8CHTO   H15 3347   6.220   9.119   0.178
    8CHTO    O6 3348   6.232   9.238   0.350
    8CHTO    H1 3349   6.143   9.264   0.337
    8CHTO    C3 3350   6.412   9.075   0.281
    8CHTO   H16 3351   6.448   9.068   0.385
    8CHTO    N1 3352   6.497   9.179   0.213
    8CHTO    H8 3353   6.488   9.273   0.264
    8CHTO    H9 3354   6.466   9.190   0.110
    8CHTO    C4 3355   6.431   8.931   0.220
    8CHTO   H17 3356   6.408   8.935   0.113
    8CHTO    O1 3357   6.346   8.835   0.285
    8CHTO    C5 3358   6.205   8.863   0.285
    8CHTO   H18 3359   6.169   8.869   0.182
    8CHTO   C16 3360   6.134   8.745   0.356
    8CHTO   O11 3361   6.176   8.732   0.493
    8CHTO    H5 3362   6.133   8.659   0.532
    8CHTO    O3 3363   6.563   8.879   0.242
    8CHTO    C6 3364   6.621   8.799   0.134
    8CHTO   H19 3365   6.550   8.778   0.054
    8CHTO    C8 3366   6.742   8.877   0.072
    8CHTO   H21 3367   6.809   8.906   0.153
    8CHTO    O7 3368   6.690   8.995   0.008
    8CHTO    H2 3369   6.635   8.972   2.814
    8CHTO   C12 3370   6.824   8.787   2.848
    8CHTO   H25 3371   6.758   8.773   2.760
    8CHTO    N3 3372   6.948   8.856   2.799
    8CHTO   H12 3373   6.960   8.953   2.845
    8CHTO   H13 3374   6.946   8.865   2.692
    8CHTO   C15 3375   6.852   8.646   0.033
    8CHTO   H28 3376   6.926   8.652   0.114
    8CHTO   O10 3377   6.898   8.542   2.807
    8CHTO    H4 3378   6.982   8.567   2.772
    8CHTO    O5 3379   6.731   8.587   0.081
    8CHTO   C10 3380   6.669   8.661   0.188
    8CHTO   H23 3381   6.742   8.674   0.268
    8CHTO   C17 3382   6.556   8.572   0.241
    8CHTO   O12 3383   6.510   8.614   0.370
    8CHTO    H6 3384   6.577   8.598   0.435
    9CHTO  H203 3385   7.184   2.633   0.891
    9CHTO   O82 3386   7.212   2.713   0.929
    9CHTO  C123 3387   7.284   2.793   0.833
    9CHTO  H227 3388   7.355   2.728   0.780
    9CHTO   O77 3389   7.180   2.837   0.740
    9CHTO  C118 3390   7.231   2.910   0.627
    9CHTO  H222 3391   7.307   2.848   0.577
    9CHTO  C125 3392   7.112   2.934   0.526
    9CHTO   O84 3393   7.006   3.012   0.583
    9CHTO  H205 3394   6.965   2.964   0.652
    9CHTO  C114 3395   7.296   3.041   0.674
    9CHTO  H218 3396   7.219   3.103   0.721
    9CHTO  C116 3397   7.407   3.014   0.781
    9CHTO  H220 3398   7.495   2.967   0.731
    9CHTO   O79 3399   7.453   3.139   0.836
    9CHTO  H201 3400   7.498   3.188   0.770
    9CHTO  C120 3401   7.355   2.918   0.897
    9CHTO  H224 3402   7.281   2.977   0.956
    9CHTO   N21 3403   7.464   2.877   0.989
    9CHTO  H211 3404   7.558   2.872   0.937
    9CHTO  H212 3405   7.471   2.947   1.071
    9CHTO   O75 3406   7.343   3.104   0.553
    9CHTO  C112 3407   7.362   3.267   0.562
    9CHTO  H216 3408   7.371   3.297   0.668
    9CHTO   O73 3409   7.247   3.328   0.500
    9CHTO  C113 3410   7.247   3.471   0.511
    9CHTO  H217 3411   7.253   3.499   0.619
    9CHTO  C124 3412   7.114   3.526   0.457
    9CHTO   O83 3413   7.000   3.479   0.531
    9CHTO  H204 3414   6.922   3.517   0.496
    9CHTO  C109 3415   7.367   3.532   0.435
    9CHTO  H213 3416   7.353   3.509   0.329
    9CHTO  C110 3417   7.501   3.468   0.486
    9CHTO  H214 3418   7.519   3.504   0.588
    9CHTO   O78 3419   7.609   3.515   0.404
    9CHTO  H200 3420   7.691   3.485   0.438
    9CHTO  C111 3421   7.492   3.312   0.485
    9CHTO  H215 3422   7.483   3.279   0.381
    9CHTO   N19 3423   7.612   3.246   0.541
    9CHTO  H207 3424   7.601   3.139   0.536
    9CHTO  H208 3425   7.700   3.276   0.485
    9CHTO   O74 3426   7.368   3.678   0.453
    9CHTO  C115 3427   7.427   3.756   0.330
    9CHTO  H219 3428   7.527   3.720   0.303
    9CHTO   O76 3429   7.338   3.736   0.197
    9CHTO  C122 3430   7.400   3.793   0.080
    9CHTO  H226 3431   7.320   3.808   0.007
    9CHTO  C126 3432   7.498   3.688   0.015
    9CHTO   O85 3433   7.432   3.568   2.854
    9CHTO  H206 3434   7.374   3.585   2.782
    9CHTO  C121 3435   7.473   3.931   0.109
    9CHTO  H225 3436   7.581   3.913   0.128
    9CHTO   O81 3437   7.462   4.018   2.874
    9CHTO  H202 3438   7.372   4.038   2.856
    9CHTO  C119 3439   7.410   3.995   0.237
    9CHTO  H223 3440   7.456   4.094   0.248
    9CHTO  C117 3441   7.438   3.910   0.367
    9CHTO  H221 3442   7.365   3.924   0.448
    9CHTO   N20 3443   7.571   3.939   0.430
    9CHTO  H209 3444   7.627   4.011   0.371
    9CHTO  H210 3445   7.558   3.977   0.530
    9CHTO   O80 3446   7.266   4.031   0.217
    9CHTO  C103 3447   7.191   4.117   0.321
    9CHTO  H190 3448   7.193   4.070   0.420
    9CHTO  C101 3449   7.238   4.267   0.336
    9CHTO  H188 3450   7.259   4.307   0.237
    9CHTO   O68 3451   7.371   4.270   0.418
    9CHTO  H168 3452   7.405   4.357   0.420
    9CHTO   C99 3453   7.125   4.358   0.404
    9CHTO  H186 3454   7.108   4.324   0.509
    9CHTO   N17 3455   7.160   4.504   0.411
    9CHTO  H174 3456   7.083   4.558   0.463
    9CHTO  H175 3457   7.256   4.517   0.459
    9CHTO   C97 3458   6.991   4.334   0.329
    9CHTO  H184 3459   7.007   4.363   0.224
    9CHTO   O64 3460   6.955   4.195   0.342
    9CHTO  C104 3461   7.043   4.109   0.268
    9CHTO  H191 3462   7.042   4.137   0.162
    9CHTO  C108 3463   6.990   3.965   0.273
    9CHTO   O71 3464   6.986   3.913   0.406
    9CHTO  H171 3465   6.954   3.825   0.405
    9CHTO   O62 3466   6.878   4.404   0.387
    9CHTO   C91 3467   6.792   4.471   0.292
    9CHTO  H178 3468   6.841   4.474   0.195
    9CHTO   C92 3469   6.777   4.621   0.338
    9CHTO  H179 3470   6.871   4.656   0.384
    9CHTO   O66 3471   6.760   4.702   0.221
    9CHTO  H166 3472   6.765   4.793   0.243
    9CHTO   C93 3473   6.653   4.646   0.431
    9CHTO  H180 3474   6.643   4.755   0.439
    9CHTO   N16 3475   6.674   4.601   0.571
    9CHTO  H172 3476   6.759   4.652   0.613
    9CHTO  H173 3477   6.585   4.621   0.629
    9CHTO   C94 3478   6.521   4.587   0.365
    9CHTO  H181 3479   6.463   4.528   0.436
    9CHTO   O61 3480   6.547   4.501   0.252
    9CHTO   C95 3481   6.650   4.403   0.275
    9CHTO  H182 3482   6.627   4.347   0.366
    9CHTO  C106 3483   6.652   4.300   0.158
    9CHTO   O69 3484   6.531   4.223   0.156
    9CHTO  H169 3485   6.534   4.162   0.085
    9CHTO   O63 3486   6.435   4.707   0.314
    9CHTO   C96 3487   6.356   4.776   0.429
    9CHTO  H183 3488   6.407   4.754   0.523
    9CHTO   C98 3489   6.209   4.730   0.444
    9CHTO  H185 3490   6.155   4.748   0.350
    9CHTO   O67 3491   6.209   4.587   0.461
    9CHTO  H167 3492   6.121   4.555   0.463
    9CHTO  C102 3493   6.137   4.803   0.567
    9CHTO  H189 3494   6.184   4.763   0.658
    9CHTO   N18 3495   5.991   4.775   0.582
    9CHTO  H176 3496   5.958   4.707   0.505
    9CHTO  H177 3497   5.971   4.733   0.679
    9CHTO  C105 3498   6.165   4.956   0.564
    9CHTO  H192 3499   6.099   5.004   0.491
    9CHTO   O65 3500   6.301   4.990   0.531
    9CHTO  C100 3501   6.355   4.932   0.412
    9CHTO  H187 3502   6.291   4.960   0.326
    9CHTO  C107 3503   6.495   4.995   0.390
    9CHTO   O70 3504   6.550   4.962   0.263
    9CHTO  H170 3505   6.634   5.002   0.254
    9CHTO   O57 3506   6.132   5.008   0.715
    9CHTO   C85 3507   6.124   5.148   0.746
    9CHTO  H157 3508   6.073   5.196   0.660
    9CHTO   C83 3509   6.267   5.212   0.752
    9CHTO  H155 3510   6.310   5.208   0.652
    9CHTO   O56 3511   6.352   5.130   0.836
    9CHTO  H135 3512   6.440   5.162   0.833
    9CHTO   C81 3513   6.257   5.360   0.797
    9CHTO  H153 3514   6.193   5.413   0.726
    9CHTO   N14 3515   6.387   5.433   0.790
    9CHTO  H141 3516   6.372   5.536   0.814
    9CHTO  H142 3517   6.428   5.425   0.692
    9CHTO   C79 3518   6.190   5.368   0.939
    9CHTO  H151 3519   6.181   5.474   0.964
    9CHTO   O52 3520   6.054   5.315   0.929
    9CHTO   C86 3521   6.049   5.176   0.883
    9CHTO  H158 3522   6.094   5.117   0.966
    9CHTO   C90 3523   5.901   5.129   0.873
    9CHTO   O60 3524   5.837   5.135   1.001
    9CHTO  H138 3525   5.747   5.110   0.992
    9CHTO   O50 3526   6.262   5.304   1.045
    9CHTO   C73 3527   6.220   5.291   1.182
    9CHTO  H145 3528   6.117   5.253   1.186
    9CHTO   C74 3529   6.223   5.429   1.255
    9CHTO  H146 3530   6.159   5.498   1.199
    9CHTO   O54 3531   6.162   5.415   1.385
    9CHTO  H133 3532   6.212   5.357   1.439
    9CHTO   C75 3533   6.373   5.481   1.262
    9CHTO  H147 3534   6.410   5.492   1.158
    9CHTO   N13 3535   6.389   5.614   1.326
    9CHTO  H139 3536   6.433   5.684   1.257
    9CHTO  H140 3537   6.293   5.653   1.358
    9CHTO   C76 3538   6.463   5.369   1.332
    9CHTO  H148 3539   6.430   5.359   1.436
    9CHTO   O49 3540   6.448   5.240   1.264
    9CHTO   C77 3541   6.313   5.191   1.257
    9CHTO  H149 3542   6.274   5.175   1.358
    9CHTO   C88 3543   6.313   5.053   1.190
    9CHTO   O58 3544   6.388   4.954   1.271
    9CHTO  H136 3545   6.343   4.938   1.351
    9CHTO   O51 3546   6.616   5.400   1.318
    9CHTO   C78 3547   6.698   5.356   1.446
    9CHTO  H150 3548   6.635   5.299   1.517
    9CHTO   C80 3549   6.753   5.481   1.517
    9CHTO  H152 3550   6.803   5.546   1.441
    9CHTO   O55 3551   6.639   5.552   1.567
    9CHTO  H134 3552   6.665   5.633   1.605
    9CHTO   C84 3553   6.856   5.444   1.632
    9CHTO  H156 3554   6.802   5.390   1.709
    9CHTO   N15 3555   6.916   5.566   1.697
    9CHTO  H143 3556   6.967   5.626   1.624
    9CHTO  H144 3557   6.839   5.624   1.743
    9CHTO   C87 3558   6.964   5.351   1.572
    9CHTO  H159 3559   7.016   5.405   1.492
    9CHTO   O53 3560   6.892   5.228   1.516
    9CHTO   C82 3561   6.812   5.262   1.402
    9CHTO  H154 3562   6.874   5.310   1.326
    9CHTO   C89 3563   6.757   5.132   1.340
    9CHTO   O59 3564   6.863   5.048   1.292
    9CHTO  H137 3565   6.903   5.088   1.217
    9CHTO   O45 3566   7.072   5.298   1.681
    9CHTO   C67 3567   7.168   5.207   1.623
    9CHTO  H124 3568   7.114   5.128   1.571
    9CHTO   C65 3569   7.264   5.280   1.522
    9CHTO  H122 3570   7.263   5.386   1.548
    9CHTO   O44 3571   7.204   5.264   1.392
    9CHTO  H102 3572   7.248   5.317   1.329
    9CHTO   C63 3573   7.414   5.235   1.536
    9CHTO  H120 3574   7.455   5.280   1.626
    9CHTO   N11 3575   7.509   5.288   1.431
    9CHTO  H108 3576   7.609   5.263   1.457
    9CHTO  H109 3577   7.484   5.246   1.336
    9CHTO   C61 3578   7.418   5.080   1.557
    9CHTO  H118 3579   7.524   5.052   1.573
    9CHTO   O40 3580   7.346   5.038   1.677
    9CHTO   C68 3581   7.250   5.133   1.736
    9CHTO  H125 3582   7.306   5.207   1.797
    9CHTO   C72 3583   7.157   5.057   1.833
    9CHTO   O48 3584   7.227   5.000   1.943
    9CHTO  H105 3585   7.167   4.956   2.000
    9CHTO   O38 3586   7.364   5.009   1.444
    9CHTO   C55 3587   7.405   4.872   1.428
    9CHTO  H112 3588   7.444   4.832   1.524
    9CHTO   C56 3589   7.512   4.860   1.312
    9CHTO  H113 3590   7.468   4.908   1.223
    9CHTO   O42 3591   7.628   4.938   1.347
    9CHTO  H100 3592   7.689   4.939   1.276
    9CHTO   C57 3593   7.548   4.709   1.284
    9CHTO  H114 3594   7.602   4.673   1.371
    9CHTO   N10 3595   7.637   4.693   1.166
    9CHTO  H106 3596   7.740   4.700   1.197
    9CHTO  H107 3597   7.621   4.597   1.118
    9CHTO   C58 3598   7.418   4.625   1.268
    9CHTO  H115 3599   7.368   4.651   1.172
    9CHTO   O37 3600   7.326   4.646   1.377
    9CHTO   C59 3601   7.283   4.783   1.392
    9CHTO  H116 3602   7.239   4.817   1.298
    9CHTO   C70 3603   7.173   4.791   1.499
    9CHTO   O46 3604   7.214   4.745   1.628
    9CHTO  H103 3605   7.277   4.804   1.664
    9CHTO   O39 3606   7.455   4.464   1.273
    9CHTO   C60 3607   7.386   4.382   1.177
    9CHTO  H117 3608   7.281   4.410   1.175
    9CHTO   C62 3609   7.445   4.397   1.033
    9CHTO  H119 3610   7.427   4.503   1.003
    9CHTO   O43 3611   7.587   4.374   1.036
    9CHTO  H101 3612   7.630   4.442   1.084
    9CHTO   C66 3613   7.368   4.300   0.931
    9CHTO  H123 3614   7.261   4.322   0.936
    9CHTO   N12 3615   7.408   4.322   0.790
    9CHTO  H110 3616   7.354   4.254   0.725
    9CHTO  H111 3617   7.391   4.425   0.762
    9CHTO   C69 3618   7.388   4.153   0.978
    9CHTO  H126 3619   7.496   4.129   0.981
    9CHTO   O41 3620   7.327   4.140   1.120
    9CHTO   C64 3621   7.393   4.233   1.223
    9CHTO  H121 3622   7.499   4.204   1.236
    9CHTO   C71 3623   7.321   4.215   1.359
    9CHTO   O47 3624   7.336   4.081   1.407
    9CHTO  H104 3625   7.292   4.072   1.490
    9CHTO   O34 3626   7.316   4.048   0.883
    9CHTO   C49 3627   7.382   3.912   0.840
    9CHTO   H91 3628   7.462   3.936   0.769
    9CHTO   C47 3629   7.274   3.825   0.772
    9CHTO   H89 3630   7.329   3.737   0.731
    9CHTO   O33 3631   7.215   3.896   0.661
    9CHTO   H70 3632   7.279   3.911   0.594
    9CHTO   C45 3633   7.160   3.780   0.877
    9CHTO   H87 3634   7.077   3.853   0.873
    9CHTO    N8 3635   7.106   3.648   0.836
    9CHTO   H75 3636   7.183   3.572   0.846
    9CHTO   H76 3637   7.022   3.622   0.897
    9CHTO   C43 3638   7.214   3.789   1.029
    9CHTO   H85 3639   7.205   3.894   1.057
    9CHTO   O29 3640   7.351   3.745   1.034
    9CHTO   C50 3641   7.441   3.830   0.961
    9CHTO   H92 3642   7.483   3.902   1.032
    9CHTO   C54 3643   7.566   3.747   0.919
    9CHTO   O36 3644   7.533   3.633   0.840
    9CHTO   H72 3645   7.611   3.585   0.820
    9CHTO   O27 3646   7.131   3.720   1.123
    9CHTO   C37 3647   7.090   3.687   1.256
    9CHTO   H79 3648   6.991   3.639   1.254
    9CHTO   C38 3649   7.187   3.586   1.324
    9CHTO   H80 3650   7.289   3.628   1.318
    9CHTO   O31 3651   7.182   3.464   1.248
    9CHTO   H68 3652   7.246   3.403   1.279
    9CHTO   C39 3653   7.149   3.561   1.476
    9CHTO   H81 3654   7.053   3.509   1.477
    9CHTO    N7 3655   7.247   3.473   1.548
    9CHTO   H73 3656   7.345   3.520   1.549
    9CHTO   H74 3657   7.214   3.455   1.649
    9CHTO   C40 3658   7.127   3.699   1.552
    9CHTO   H82 3659   7.223   3.748   1.565
    9CHTO   O26 3660   7.036   3.780   1.475
    9CHTO   C41 3661   7.080   3.816   1.342
    9CHTO   H83 3662   7.178   3.864   1.347
    9CHTO   C52 3663   6.978   3.917   1.283
    9CHTO   O35 3664   6.974   4.043   1.359
    9CHTO   H71 3665   6.940   4.028   1.445
    9CHTO   O28 3666   7.072   3.679   1.685
    9CHTO   C42 3667   6.971   3.765   1.747
    9CHTO   H84 3668   6.970   3.731   1.851
    9CHTO   C44 3669   6.825   3.742   1.694
    9CHTO   H86 3670   6.829   3.732   1.585
    9CHTO   O32 3671   6.781   3.615   1.744
    9CHTO   H69 3672   6.697   3.593   1.709
    9CHTO   C48 3673   6.723   3.859   1.727
    9CHTO   H90 3674   6.697   3.852   1.833
    9CHTO    N9 3675   6.593   3.842   1.652
    9CHTO   H77 3676   6.611   3.846   1.546
    9CHTO   H78 3677   6.524   3.920   1.681
    9CHTO   C51 3678   6.793   3.996   1.700
    9CHTO   H93 3679   6.826   3.996   1.596
    9CHTO   O30 3680   6.903   4.004   1.791
    9CHTO   C46 3681   7.015   3.916   1.750
    9CHTO   H88 3682   7.048   3.947   1.651
    9CHTO   C53 3683   7.131   3.937   1.850
    9CHTO   O72 3684   7.179   4.072   1.846
    9CHTO  H199 3685   7.251   4.082   1.905
    9CHTO   O22 3686   6.713   4.113   1.728
    9CHTO   C31 3687   6.727   4.233   1.644
    9CHTO   H59 3688   6.678   4.315   1.701
    9CHTO   C29 3689   6.873   4.279   1.617
    9CHTO   H57 3690   6.927   4.193   1.574
    9CHTO   O21 3691   6.934   4.306   1.744
    9CHTO   H37 3692   7.026   4.321   1.733
    9CHTO   C27 3693   6.883   4.401   1.517
    9CHTO   H55 3694   6.836   4.489   1.565
    9CHTO    N5 3695   7.023   4.435   1.481
    9CHTO   H43 3696   7.039   4.430   1.375
    9CHTO   H44 3697   7.094   4.371   1.533
    9CHTO   C25 3698   6.797   4.368   1.390
    9CHTO   H53 3699   6.839   4.279   1.340
    9CHTO   O17 3700   6.660   4.339   1.429
    9CHTO   C32 3701   6.646   4.221   1.510
    9CHTO   H60 3702   6.683   4.135   1.455
    9CHTO   C36 3703   6.495   4.199   1.536
    9CHTO   O25 3704   6.433   4.309   1.605
    9CHTO   H40 3705   6.432   4.385   1.549
    9CHTO   O15 3706   6.794   4.489   1.286
    9CHTO   C19 3707   6.779   4.474   1.141
    9CHTO   H47 3708   6.772   4.577   1.105
    9CHTO   C20 3709   6.900   4.404   1.071
    9CHTO   H48 3710   6.918   4.303   1.111
    9CHTO   O19 3711   7.017   4.483   1.099
    9CHTO   H35 3712   7.010   4.569   1.060
    9CHTO   C21 3713   6.876   4.390   0.914
    9CHTO   H49 3714   6.873   4.490   0.871
    9CHTO    N4 3715   6.984   4.316   0.844
    9CHTO   H41 3716   7.078   4.367   0.859
    9CHTO   H42 3717   6.963   4.312   0.738
    9CHTO   C22 3718   6.737   4.326   0.890
    9CHTO   H50 3719   6.738   4.222   0.925
    9CHTO   O14 3720   6.634   4.399   0.958
    9CHTO   C23 3721   6.646   4.404   1.101
    9CHTO   H51 3722   6.641   4.300   1.137
    9CHTO   C34 3723   6.522   4.475   1.156
    9CHTO   O23 3724   6.508   4.609   1.107
    9CHTO   H38 3725   6.431   4.648   1.144
    9CHTO   O16 3726   6.698   4.333   0.751
    9CHTO   C24 3727   6.599   4.218   0.704
    9CHTO   H52 3728   6.570   4.152   0.786
    9CHTO   C26 3729   6.670   4.136   0.594
    9CHTO   H54 3730   6.707   4.206   0.516
    9CHTO   O20 3731   6.785   4.072   0.653
    9CHTO   H36 3732   6.835   4.029   0.587
    9CHTO   C30 3733   6.573   4.034   0.527
    9CHTO   H58 3734   6.548   3.954   0.598
    9CHTO    N6 3735   6.637   3.966   0.411
    9CHTO   H45 3736   6.725   3.913   0.443
    9CHTO   H46 3737   6.568   3.895   0.367
    9CHTO   C33 3738   6.438   4.102   0.488
    9CHTO   H61 3739   6.456   4.173   0.406
    9CHTO   O18 3740   6.385   4.174   0.600
    9CHTO   C28 3741   6.469   4.280   0.647
    9CHTO   H56 3742   6.494   4.348   0.566
    9CHTO   C35 3743   6.391   4.359   0.755
    9CHTO   O24 3744   6.273   4.422   0.703
    9CHTO   H39 3745   6.233   4.473   0.771
    9CHTO    O9 3746   6.343   4.006   0.438
    9CHTO   C13 3747   6.249   4.056   0.315
    9CHTO   H26 3748   6.314   4.070   0.227
    9CHTO   C11 3749   6.172   4.189   0.353
    9CHTO   H24 3750   6.247   4.270   0.361
    9CHTO    O8 3751   6.110   4.176   0.482
    9CHTO    H3 3752   6.072   4.258   0.508
    9CHTO    C9 3753   6.075   4.223   0.237
    9CHTO   H22 3754   6.136   4.222   0.146
    9CHTO    N2 3755   6.018   4.360   0.243
    9CHTO   H10 3756   6.098   4.433   0.247
    9CHTO   H11 3757   5.954   4.370   0.330
    9CHTO    C7 3758   5.967   4.110   0.227
    9CHTO   H20 3759   5.908   4.136   0.136
    9CHTO    O4 3760   6.028   3.981   0.205
    9CHTO   C14 3761   6.148   3.939   0.274
    9CHTO   H27 3762   6.201   3.874   0.202
    9CHTO   C18 3763   6.104   3.848   0.392
    9CHTO   O13 3764   6.209   3.764   0.440
    9CHTO    H7 3765   6.231   3.700   0.375
    9CHTO    O2 3766   5.867   4.103   0.362
    9CHTO    C1 3767   5.736   4.044   0.342
    9CHTO   H14 3768   5.745   3.954   0.277
    9CHTO    C2 3769   5.629   4.143   0.277
    9CHTO   H15 3770   5.633   4.235   0.337
    9CHTO    O6 3771   5.666   4.171   0.142
    9CHTO    H1 3772   5.609   4.236   0.105
    9CHTO    C3 3773   5.479   4.082   0.284
    9CHTO   H16 3774   5.474   3.995   0.216
    9CHTO    N1 3775   5.376   4.181   0.239
    9CHTO    H8 3776   5.321   4.142   0.155
    9CHTO    H9 3777   5.308   4.207   0.319
    9CHTO    C4 3778   5.450   4.025   0.428
    9CHTO   H17 3779   5.443   4.108   0.499
    9CHTO    O1 3780   5.554   3.934   0.467
    9CHTO    C5 3781   5.683   3.995   0.480
    9CHTO   H18 3782   5.677   4.082   0.547
    9CHTO   C16 3783   5.777   3.890   0.545
    9CHTO   O11 3784   5.729   3.850   0.674
    9CHTO    H5 3785   5.787   3.785   0.709
    9CHTO    O3 3786   5.332   3.942   0.432
    9CHTO    C6 3787   5.229   3.972   0.533
    9CHTO   H19 3788   5.235   4.074   0.571
    9CHTO    C8 3789   5.089   3.954   0.466
    9CHTO   H21 3790   5.088   3.858   0.413
    9CHTO    O7 3791   5.072   4.061   0.371
    9CHTO    H2 3792   5.069   4.144   0.415
    9CHTO   C12 3793   4.972   3.950   0.573
    9CHTO   H25 3794   4.968   4.051   0.620
    9CHTO    N3 3795   4.837   3.927   0.510
    9CHTO   H12 3796   4.792   3.836   0.546
    9CHTO   H13 3797   4.844   3.925   0.402
    9CHTO   C15 3798   5.008   3.845   0.684
    9CHTO   H28 3799   5.015   3.745   0.643
    9CHTO   O10 3800   4.911   3.844   0.803
    9CHTO    H4 3801   4.827   3.813   0.776
    9CHTO    O5 3802   5.132   3.883   0.746
    9CHTO   C10 3803   5.245   3.877   0.656
    9CHTO   H23 3804   5.255   3.774   0.621
    9CHTO   C17 3805   5.370   3.908   0.740
    9CHTO   O12 3806   5.365   4.037   0.801
    9CHTO    H6 3807   5.443   4.052   0.851
   10CHTO  H203 3808   3.984   6.743   0.514
   10CHTO   O82 3809   3.899   6.704   0.502
   10CHTO  C123 3810   3.797   6.805   0.502
   10CHTO  H227 3811   3.815   6.875   0.585
   10CHTO   O77 3812   3.819   6.874   0.374
   10CHTO  C118 3813   3.731   6.986   0.350
   10CHTO  H222 3814   3.743   7.059   0.431
   10CHTO  C125 3815   3.776   7.054   0.214
   10CHTO   O84 3816   3.769   6.963   0.104
   10CHTO  H205 3817   3.795   7.007   0.025
   10CHTO  C114 3818   3.585   6.936   0.345
   10CHTO  H218 3819   3.577   6.861   0.266
   10CHTO  C116 3820   3.548   6.862   0.478
   10CHTO  H220 3821   3.551   6.934   0.562
   10CHTO   O79 3822   3.412   6.815   0.467
   10CHTO  H201 3823   3.405   6.750   0.400
   10CHTO  C120 3824   3.651   6.746   0.507
   10CHTO  H224 3825   3.638   6.670   0.427
   10CHTO   N21 3826   3.622   6.679   0.637
   10CHTO  H211 3827   3.713   6.639   0.681
   10CHTO  H212 3828   3.550   6.600   0.622
   10CHTO   O75 3829   3.502   7.049   0.309
   10CHTO  C112 3830   3.474   7.164   0.426
   10CHTO  H216 3831   3.571   7.194   0.470
   10CHTO   O73 3832   3.386   7.107   0.525
   10CHTO  C113 3833   3.383   7.186   0.644
   10CHTO  H217 3834   3.487   7.205   0.678
   10CHTO  C124 3835   3.314   7.102   0.751
   10CHTO   O83 3836   3.338   7.150   0.884
   10CHTO  H204 3837   3.428   7.138   0.906
   10CHTO  C109 3838   3.313   7.322   0.615
   10CHTO  H213 3839   3.207   7.299   0.596
   10CHTO  C110 3840   3.377   7.392   0.490
   10CHTO  H214 3841   3.472   7.435   0.521
   10CHTO   O78 3842   3.294   7.502   0.449
   10CHTO  H200 3843   3.209   7.472   0.423
   10CHTO  C111 3844   3.402   7.292   0.371
   10CHTO  H215 3845   3.304   7.262   0.331
   10CHTO   N19 3846   3.478   7.352   0.259
   10CHTO  H207 3847   3.425   7.437   0.219
   10CHTO  H208 3848   3.490   7.279   0.180
   10CHTO   O74 3849   3.323   7.405   0.734
   10CHTO  C115 3850   3.209   7.512   0.754
   10CHTO  H219 3851   3.168   7.546   0.658
   10CHTO   O76 3852   3.085   7.452   0.833
   10CHTO  C122 3853   3.119   7.402   0.964
   10CHTO  H226 3854   3.159   7.302   0.951
   10CHTO  C126 3855   2.985   7.385   1.043
   10CHTO   O85 3856   3.003   7.322   1.170
   10CHTO  H206 3857   2.920   7.313   1.213
   10CHTO  C121 3858   3.221   7.494   1.042
   10CHTO  H225 3859   3.188   7.502   1.147
   10CHTO   O81 3860   3.351   7.433   1.045
   10CHTO  H202 3861   3.408   7.482   1.101
   10CHTO  C119 3862   3.225   7.637   0.980
   10CHTO  H223 3863   3.121   7.670   0.979
   10CHTO  C117 3864   3.275   7.634   0.831
   10CHTO  H221 3865   3.383   7.619   0.820
   10CHTO   N20 3866   3.248   7.765   0.763
   10CHTO  H209 3867   3.142   7.783   0.757
   10CHTO  H210 3868   3.291   7.765   0.663
   10CHTO   O80 3869   3.293   7.748   1.075
   10CHTO  C103 3870   3.201   7.838   1.177
   10CHTO  H190 3871   3.258   7.925   1.209
   10CHTO  C101 3872   3.063   7.889   1.120
   10CHTO  H188 3873   3.005   7.804   1.083
   10CHTO   O68 3874   3.092   7.985   1.001
   10CHTO  H168 3875   3.011   8.010   0.960
   10CHTO   C99 3876   2.977   7.960   1.235
   10CHTO  H186 3877   3.031   8.050   1.269
   10CHTO   N17 3878   2.842   8.005   1.189
   10CHTO  H174 3879   2.781   7.920   1.162
   10CHTO  H175 3880   2.794   8.064   1.266
   10CHTO   C97 3881   2.968   7.867   1.359
   10CHTO  H184 3882   2.906   7.779   1.333
   10CHTO   O64 3883   3.100   7.828   1.401
   10CHTO  C104 3884   3.174   7.750   1.306
   10CHTO  H191 3885   3.121   7.659   1.279
   10CHTO  C108 3886   3.303   7.706   1.378
   10CHTO   O71 3887   3.377   7.608   1.306
   10CHTO  H171 3888   3.412   7.646   1.228
   10CHTO   O62 3889   2.919   7.936   1.476
   10CHTO   C91 3890   2.815   7.872   1.552
   10CHTO  H178 3891   2.763   7.799   1.489
   10CHTO   C92 3892   2.708   7.980   1.589
   10CHTO  H179 3893   2.760   8.064   1.640
   10CHTO   O66 3894   2.655   8.035   1.467
   10CHTO  H166 3895   2.721   8.082   1.420
   10CHTO   C93 3896   2.592   7.923   1.679
   10CHTO  H180 3897   2.531   7.857   1.616
   10CHTO   N16 3898   2.499   8.028   1.728
   10CHTO  H172 3899   2.454   8.080   1.644
   10CHTO  H173 3900   2.422   7.984   1.789
   10CHTO   C94 3901   2.651   7.839   1.799
   10CHTO  H181 3902   2.702   7.902   1.872
   10CHTO   O61 3903   2.746   7.743   1.751
   10CHTO   C95 3904   2.860   7.801   1.686
   10CHTO  H182 3905   2.907   7.874   1.752
   10CHTO  C106 3906   2.965   7.686   1.662
   10CHTO   O69 3907   3.013   7.634   1.786
   10CHTO  H169 3908   3.074   7.565   1.770
   10CHTO   O63 3909   2.534   7.757   1.869
   10CHTO   C96 3910   2.578   7.679   1.996
   10CHTO  H183 3911   2.686   7.688   2.007
   10CHTO   C98 3912   2.541   7.528   1.989
   10CHTO  H185 3913   2.437   7.518   1.952
   10CHTO   O67 3914   2.623   7.467   1.888
   10CHTO  H167 3915   2.714   7.470   1.914
   10CHTO  C102 3916   2.556   7.451   2.130
   10CHTO  H189 3917   2.664   7.443   2.148
   10CHTO   N18 3918   2.504   7.312   2.132
   10CHTO  H176 3919   2.583   7.243   2.156
   10CHTO  H177 3920   2.460   7.286   2.037
   10CHTO  C105 3921   2.496   7.539   2.244
   10CHTO  H192 3922   2.387   7.541   2.234
   10CHTO   O65 3923   2.546   7.673   2.240
   10CHTO  C100 3924   2.511   7.746   2.121
   10CHTO  H187 3925   2.402   7.744   2.109
   10CHTO  C107 3926   2.555   7.893   2.140
   10CHTO   O70 3927   2.484   7.955   2.248
   10CHTO  H170 3928   2.510   8.045   2.255
   10CHTO   O57 3929   2.538   7.472   2.385
   10CHTO   C85 3930   2.474   7.519   2.504
   10CHTO  H157 3931   2.371   7.547   2.475
   10CHTO   C83 3932   2.542   7.651   2.553
   10CHTO  H155 3933   2.526   7.728   2.478
   10CHTO   O56 3934   2.685   7.633   2.563
   10CHTO  H135 3935   2.721   7.616   2.478
   10CHTO   C81 3936   2.474   7.697   2.686
   10CHTO  H153 3937   2.368   7.709   2.667
   10CHTO   N14 3938   2.519   7.832   2.730
   10CHTO  H141 3939   2.503   7.903   2.652
   10CHTO  H142 3940   2.463   7.862   2.817
   10CHTO   C79 3941   2.493   7.586   2.795
   10CHTO  H151 3942   2.439   7.619   0.007
   10CHTO   O52 3943   2.429   7.462   2.751
   10CHTO   C86 3944   2.475   7.413   2.621
   10CHTO  H158 3945   2.579   7.378   2.641
   10CHTO   C90 3946   2.395   7.286   2.582
   10CHTO   O60 3947   2.255   7.314   2.571
   10CHTO  H138 3948   2.209   7.236   2.549
   10CHTO   O50 3949   2.630   7.560   2.830
   10CHTO   C73 3950   2.691   7.509   0.071
   10CHTO  H145 3951   2.629   7.428   0.114
   10CHTO   C74 3952   2.705   7.622   0.177
   10CHTO  H146 3953   2.604   7.662   0.196
   10CHTO   O54 3954   2.749   7.563   0.301
   10CHTO  H133 3955   2.753   7.629   0.368
   10CHTO   C75 3956   2.803   7.734   0.122
   10CHTO  H147 3957   2.758   7.776   0.030
   10CHTO   N13 3958   2.822   7.850   0.212
   10CHTO  H139 3959   2.925   7.859   0.243
   10CHTO  H140 3960   2.761   7.840   0.301
   10CHTO   C76 3961   2.941   7.664   0.079
   10CHTO  H148 3962   2.987   7.625   0.169
   10CHTO   O49 3963   2.918   7.554   2.863
   10CHTO   C77 3964   2.832   7.451   0.037
   10CHTO  H149 3965   2.876   7.409   0.127
   10CHTO   C88 3966   2.823   7.336   2.813
   10CHTO   O58 3967   2.957   7.273   2.790
   10CHTO  H136 3968   2.985   7.228   2.868
   10CHTO   O51 3969   3.033   7.765   0.001
   10CHTO   C78 3970   3.184   7.729   0.017
   10CHTO  H150 3971   3.197   7.620   0.038
   10CHTO   C80 3972   3.245   7.811   0.133
   10CHTO  H152 3973   3.223   7.919   0.115
   10CHTO   O55 3974   3.178   7.770   0.254
   10CHTO  H134 3975   3.089   7.800   0.254
   10CHTO   C84 3976   3.401   7.790   0.143
   10CHTO  H156 3977   3.419   7.686   0.168
   10CHTO   N15 3978   3.462   7.873   0.253
   10CHTO  H143 3979   3.567   7.856   0.258
   10CHTO  H144 3980   3.418   7.846   0.347
   10CHTO   C87 3981   3.465   7.819   0.005
   10CHTO  H159 3982   3.451   7.924   2.856
   10CHTO   O53 3983   3.397   7.729   2.778
   10CHTO   C82 3984   3.257   7.758   2.762
   10CHTO  H154 3985   3.244   7.861   2.731
   10CHTO   C89 3986   3.206   7.669   2.646
   10CHTO   O59 3987   3.073   7.704   2.605
   10CHTO  H137 3988   3.045   7.645   2.538
   10CHTO   O45 3989   3.625   7.781   2.878
   10CHTO   C67 3990   3.710   7.894   0.021
   10CHTO  H124 3991   3.653   7.978   0.061
   10CHTO   C65 3992   3.821   7.855   0.123
   10CHTO  H122 3993   3.773   7.791   0.197
   10CHTO   O44 3994   3.869   7.973   0.189
   10CHTO  H102 3995   3.801   8.012   0.240
   10CHTO   C63 3996   3.930   7.765   0.054
   10CHTO  H120 3997   3.881   7.679   0.009
   10CHTO   N11 3998   4.029   7.701   0.147
   10CHTO  H108 3999   4.093   7.635   0.092
   10CHTO  H109 4000   3.978   7.646   0.223
   10CHTO   C61 4001   3.996   7.848   2.816
   10CHTO  H118 4002   4.068   7.782   2.765
   10CHTO   O40 4003   3.897   7.885   2.717
   10CHTO   C68 4004   3.768   7.944   2.759
   10CHTO  H125 4005   3.695   7.910   2.682
   10CHTO   C72 4006   3.772   8.099   2.749
   10CHTO   O48 4007   3.861   8.165   2.840
   10CHTO  H105 4008   3.832   8.151   0.050
   10CHTO   O38 4009   4.061   7.968   2.863
   10CHTO   C55 4010   4.194   8.003   2.821
   10CHTO  H112 4011   4.243   7.917   2.772
   10CHTO   C56 4012   4.273   8.051   0.073
   10CHTO  H113 4013   4.202   8.110   0.133
   10CHTO   O42 4014   4.306   7.936   0.153
   10CHTO  H100 4015   4.228   7.895   0.186
   10CHTO   C57 4016   4.401   8.138   0.040
   10CHTO  H114 4017   4.476   8.071   2.876
   10CHTO   N10 4018   4.460   8.201   0.161
   10CHTO  H106 4019   4.566   8.215   0.148
   10CHTO  H107 4020   4.414   8.296   0.182
   10CHTO   C58 4021   4.363   8.244   2.812
   10CHTO  H115 4022   4.283   8.311   2.854
   10CHTO   O37 4023   4.314   8.177   2.695
   10CHTO   C59 4024   4.186   8.116   2.713
   10CHTO  H116 4025   4.113   8.192   2.742
   10CHTO   C70 4026   4.142   8.062   2.576
   10CHTO   O46 4027   4.234   7.968   2.519
   10CHTO  H103 4028   4.202   7.939   2.436
   10CHTO   O39 4029   4.487   8.332   2.763
   10CHTO   C60 4030   4.447   8.450   2.691
   10CHTO  H117 4031   4.341   8.445   2.667
   10CHTO   C62 4032   4.469   8.579   2.776
   10CHTO  H119 4033   4.402   8.570   2.864
   10CHTO   O43 4034   4.606   8.585   2.822
   10CHTO  H101 4035   4.622   8.517   0.006
   10CHTO   C66 4036   4.426   8.708   2.690
   10CHTO  H123 4037   4.322   8.696   2.659
   10CHTO   N12 4038   4.430   8.834   2.768
   10CHTO  H110 4039   4.361   8.828   2.851
   10CHTO  H111 4040   4.531   8.853   2.803
   10CHTO   C69 4041   4.513   8.713   2.561
   10CHTO  H126 4042   4.620   8.723   2.587
   10CHTO   O41 4043   4.490   8.583   2.481
   10CHTO   C64 4044   4.523   8.457   2.556
   10CHTO  H121 4045   4.633   8.454   2.576
   10CHTO   C71 4046   4.489   8.337   2.464
   10CHTO   O47 4047   4.351   8.335   2.425
   10CHTO  H104 4048   4.297   8.316   2.499
   10CHTO   O34 4049   4.476   8.827   2.469
   10CHTO   C49 4050   4.414   8.927   2.382
   10CHTO   H91 4051   4.384   9.008   2.448
   10CHTO   C47 4052   4.288   8.868   2.314
   10CHTO   H89 4053   4.214   8.857   2.397
   10CHTO   O33 4054   4.316   8.738   2.259
   10CHTO   H70 4055   4.236   8.697   2.231
   10CHTO   C45 4056   4.235   8.964   2.194
   10CHTO   H87 4057   4.257   8.913   2.099
   10CHTO    N8 4058   4.087   8.979   2.203
   10CHTO   H75 4059   4.051   9.029   2.114
   10CHTO   H76 4060   4.061   9.036   2.291
   10CHTO   C43 4061   4.315   9.102   2.184
   10CHTO   H85 4062   4.279   9.150   2.093
   10CHTO   O29 4063   4.456   9.074   2.177
   10CHTO   C50 4064   4.510   8.982   2.274
   10CHTO   H92 4065   4.551   8.896   2.219
   10CHTO   C54 4066   4.635   9.045   2.340
   10CHTO   O36 4067   4.741   9.065   2.246
   10CHTO   H72 4068   4.775   8.982   2.219
   10CHTO   O27 4069   4.288   9.193   2.292
   10CHTO   C37 4070   4.340   9.326   2.306
   10CHTO   H79 4071   4.443   9.331   2.268
   10CHTO   C38 4072   4.256   9.429   2.224
   10CHTO   H80 4073   4.150   9.417   2.251
   10CHTO   O31 4074   4.270   9.397   2.084
   10CHTO   H68 4075   4.213   9.450   2.033
   10CHTO   C39 4076   4.302   9.578   2.250
   10CHTO   H81 4077   4.394   9.591   2.194
   10CHTO    N7 4078   4.206   9.680   2.194
   10CHTO   H73 4079   4.243   9.779   2.214
   10CHTO   H74 4080   4.194   9.665   2.088
   10CHTO   C40 4081   4.335   9.609   2.401
   10CHTO   H82 4082   4.247   9.642   2.458
   10CHTO   O26 4083   4.403   9.501   2.467
   10CHTO   C41 4084   4.340   9.370   2.455
   10CHTO   H83 4085   4.236   9.375   2.490
   10CHTO   C52 4086   4.415   9.272   2.547
   10CHTO   O35 4087   4.405   9.309   2.690
   10CHTO   H71 4088   4.451   9.389   2.706
   10CHTO   O28 4089   4.439   9.708   2.406
   10CHTO   C42 4090   4.436   9.832   2.482
   10CHTO   H84 4091   4.401   9.803   2.581
   10CHTO   C44 4092   4.335   9.942   2.430
   10CHTO   H86 4093   4.344   9.948   2.321
   10CHTO   O32 4094   4.202   9.896   2.460
   10CHTO   H69 4095   4.181   9.819   2.410
   10CHTO   C48 4096   4.361   0.087   2.488
   10CHTO   H90 4097   4.332   0.087   2.594
   10CHTO    N9 4098   4.275   0.191   2.422
   10CHTO   H77 4099   4.171   0.166   2.435
   10CHTO   H78 4100   4.296   0.288   2.465
   10CHTO   C51 4101   4.514   0.117   2.478
   10CHTO   H93 4102   4.543   0.107   2.373
   10CHTO   O30 4103   4.580   0.022   2.561
   10CHTO   C46 4104   4.581   9.886   2.499
   10CHTO   H88 4105   4.629   9.893   2.401
   10CHTO   C53 4106   4.664   9.793   2.591
   10CHTO   O72 4107   4.799   9.839   2.602
   10CHTO  H199 4108   4.846   9.782   2.660
   10CHTO   O22 4109   4.555   0.246   2.528
   10CHTO   C31 4110   4.681   0.308   2.481
   10CHTO   H59 4111   4.692   0.402   2.539
   10CHTO   C29 4112   4.808   0.223   2.508
   10CHTO   H57 4113   4.792   0.125   2.461
   10CHTO   O21 4114   4.817   0.201   2.650
   10CHTO   H37 4115   4.745   0.149   2.680
   10CHTO   C27 4116   4.939   0.288   2.448
   10CHTO   H55 4117   4.960   0.382   2.502
   10CHTO    N5 4118   5.058   0.199   2.462
   10CHTO   H43 4119   5.103   0.177   2.367
   10CHTO   H44 4120   5.131   0.244   2.528
   10CHTO   C25 4121   4.912   0.327   2.298
   10CHTO   H53 4122   4.892   0.234   2.241
   10CHTO   O17 4123   4.797   0.415   2.289
   10CHTO   C32 4124   4.674   0.352   2.331
   10CHTO   H60 4125   4.657   0.264   2.269
   10CHTO   C36 4126   4.559   0.453   2.308
   10CHTO   O25 4127   4.542   0.481   2.168
   10CHTO   H40 4128   4.471   0.541   2.157
   10CHTO   O15 4129   5.031   0.398   2.234
   10CHTO   C19 4130   5.075   0.447   2.104
   10CHTO   H47 4131   5.027   0.378   2.033
   10CHTO   C20 4132   5.028   0.593   2.072
   10CHTO   H48 4133   5.049   0.662   2.155
   10CHTO   O19 4134   4.885   0.586   2.057
   10CHTO   H35 4135   4.849   0.672   2.046
   10CHTO   C21 4136   5.095   0.652   1.941
   10CHTO   H49 4137   5.056   0.599   1.854
   10CHTO    N4 4138   5.064   0.796   1.921
   10CHTO   H41 4139   4.957   0.810   1.912
   10CHTO   H42 4140   5.111   0.832   1.830
   10CHTO   C22 4141   5.248   0.625   1.946
   10CHTO   H50 4142   5.289   0.677   2.033
   10CHTO   O14 4143   5.269   0.483   1.958
   10CHTO   C23 4144   5.228   0.431   2.085
   10CHTO   H51 4145   5.285   0.486   2.162
   10CHTO   C34 4146   5.273   0.285   2.095
   10CHTO   O23 4147   5.219   0.204   1.989
   10CHTO   H38 4148   5.248   0.115   2.000
   10CHTO   O16 4149   5.318   0.664   1.827
   10CHTO   C24 4150   5.479   0.653   1.844
   10CHTO   H52 4151   5.506   0.588   1.928
   10CHTO   C26 4152   5.539   0.793   1.867
   10CHTO   H54 4153   5.501   0.861   1.788
   10CHTO   O20 4154   5.491   0.841   1.995
   10CHTO   H36 4155   5.399   0.859   1.990
   10CHTO   C30 4156   5.695   0.791   1.862
   10CHTO   H58 4157   5.734   0.740   1.950
   10CHTO    N6 4158   5.752   0.929   1.867
   10CHTO   H45 4159   5.716   0.987   1.784
   10CHTO   H46 4160   5.724   0.977   1.959
   10CHTO   C33 4161   5.746   0.711   1.738
   10CHTO   H61 4162   5.724   0.766   1.645
   10CHTO   O18 4163   5.680   0.584   1.733
   10CHTO   C28 4164   5.538   0.588   1.717
   10CHTO   H56 4165   5.510   0.647   1.630
   10CHTO   C35 4166   5.486   0.443   1.701
   10CHTO   O24 4167   5.540   0.379   1.585
   10CHTO   H39 4168   5.505   0.418   1.507
   10CHTO    O9 4169   5.890   0.695   1.741
   10CHTO   C13 4170   5.962   0.630   1.606
   10CHTO   H26 4171   5.931   0.691   1.519
   10CHTO   C11 4172   5.919   0.478   1.590
   10CHTO   H24 4173   5.815   0.476   1.553
   10CHTO    O8 4174   5.921   0.412   1.718
   10CHTO    H3 4175   5.886   0.326   1.711
   10CHTO    C9 4176   6.009   0.411   1.482
   10CHTO   H22 4177   5.997   0.472   1.392
   10CHTO    N2 4178   5.963   0.275   1.441
   10CHTO   H10 4179   5.973   0.207   1.524
   10CHTO   H11 4180   6.022   0.241   1.357
   10CHTO    C7 4181   6.157   0.417   1.530
   10CHTO   H20 4182   6.216   0.367   1.449
   10CHTO    O4 4183   6.199   0.554   1.539
   10CHTO   C14 4184   6.121   0.649   1.616
   10CHTO   H27 4185   6.146   0.748   1.573
   10CHTO   C18 4186   6.176   0.648   1.761
   10CHTO   O13 4187   6.141   0.768   1.832
   10CHTO    H7 4188   6.188   0.841   1.795
   10CHTO    O2 4189   6.184   0.340   1.676
   10CHTO    C1 4190   6.307   0.268   1.692
   10CHTO   H14 4191   6.320   0.248   1.801
   10CHTO    C2 4192   6.438   0.342   1.640
   10CHTO   H15 4193   6.419   0.370   1.535
   10CHTO    O6 4194   6.457   0.461   1.719
   10CHTO    H1 4195   6.472   0.439   1.809
   10CHTO    C3 4196   6.565   0.245   1.648
   10CHTO   H16 4197   6.589   0.226   1.754
   10CHTO    N1 4198   6.688   0.308   1.586
   10CHTO    H8 4199   6.671   0.327   1.481
   10CHTO    H9 4200   6.772   0.242   1.598
   10CHTO    C4 4201   6.532   0.105   1.585
   10CHTO   H17 4202   6.519   0.116   1.477
   10CHTO    O1 4203   6.413   0.049   1.643
   10CHTO    C5 4204   6.294   0.128   1.625
   10CHTO   H18 4205   6.277   0.143   1.519
   10CHTO   C16 4206   6.175   0.046   1.682
   10CHTO   O11 4207   6.189   0.015   1.821
   10CHTO    H5 4208   6.181   0.094   1.872
   10CHTO    O3 4209   6.636   0.009   1.614
   10CHTO    C6 4210   6.636   9.886   1.535
   10CHTO   H19 4211   6.539   9.865   1.489
   10CHTO    C8 4212   6.743   9.898   1.421
   10CHTO   H21 4213   6.837   9.931   1.466
   10CHTO    O7 4214   6.695   9.999   1.330
   10CHTO    H2 4215   6.760   0.015   1.263
   10CHTO   C12 4216   6.766   9.759   1.350
   10CHTO   H25 4217   6.672   9.735   1.297
   10CHTO    N3 4218   6.873   9.767   1.245
   10CHTO   H12 4219   6.845   9.840   1.170
   10CHTO   H13 4220   6.888   9.670   1.200
   10CHTO   C15 4221   6.793   9.649   1.458
   10CHTO   H28 4222   6.888   9.663   1.509
   10CHTO   O10 4223   6.786   9.506   1.401
   10CHTO    H4 4224   6.857   9.492   1.341
   10CHTO    O5 4225   6.686   9.646   1.554
   10CHTO   C10 4226   6.670   9.767   1.629
   10CHTO   H23 4227   6.762   9.786   1.684
   10CHTO   C17 4228   6.559   9.738   1.732
   10CHTO   O12 4229   6.542   9.845   1.825
   10CHTO    H6 4230   6.474   9.823   1.886
   11CHTO  H203 4231   5.879   5.186   1.478
   11CHTO   O82 4232   5.911   5.273   1.491
   11CHTO  C123 4233   5.880   5.318   1.624
   11CHTO  H227 4234   5.927   5.249   1.697
   11CHTO   O77 4235   5.946   5.447   1.631
   11CHTO  C118 4236   5.935   5.513   1.758
   11CHTO  H222 4237   5.972   5.448   1.838
   11CHTO  C125 4238   6.023   5.644   1.754
   11CHTO   O84 4239   6.162   5.612   1.734
   11CHTO  H205 4240   6.212   5.691   1.730
   11CHTO  C114 4241   5.786   5.546   1.782
   11CHTO  H218 4242   5.751   5.605   1.698
   11CHTO  C116 4243   5.702   5.414   1.784
   11CHTO  H220 4244   5.734   5.352   1.872
   11CHTO   O79 4245   5.563   5.446   1.804
   11CHTO  H201 4246   5.550   5.482   1.890
   11CHTO  C120 4247   5.725   5.333   1.651
   11CHTO  H224 4248   5.679   5.393   1.569
   11CHTO   N21 4249   5.657   5.201   1.652
   11CHTO  H211 4250   5.566   5.205   1.711
   11CHTO  H212 4251   5.634   5.170   1.551
   11CHTO   O75 4252   5.782   5.622   1.904
   11CHTO  C112 4253   5.645   5.722   1.925
   11CHTO  H216 4254   5.580   5.676   2.000
   11CHTO   O73 4255   5.578   5.736   1.798
   11CHTO  C113 4256   5.459   5.815   1.802
   11CHTO  H217 4257   5.391   5.776   1.880
   11CHTO  C124 4258   5.387   5.800   1.667
   11CHTO   O83 4259   5.341   5.667   1.643
   11CHTO  H204 4260   5.271   5.646   1.702
   11CHTO  C109 4261   5.497   5.962   1.835
   11CHTO  H213 4262   5.563   5.997   1.754
   11CHTO  C110 4263   5.571   5.965   1.972
   11CHTO  H214 4264   5.499   5.940   2.050
   11CHTO   O78 4265   5.614   6.100   1.998
   11CHTO  H200 4266   5.652   6.107   2.083
   11CHTO  C111 4267   5.691   5.865   1.974
   11CHTO  H215 4268   5.768   5.901   1.905
   11CHTO   N19 4269   5.756   5.852   2.107
   11CHTO  H207 4270   5.797   5.947   2.137
   11CHTO  H208 4271   5.684   5.819   2.181
   11CHTO   O74 4272   5.379   6.047   1.842
   11CHTO  C115 4273   5.353   6.138   1.712
   11CHTO  H219 4274   5.426   6.118   1.633
   11CHTO   O76 4275   5.216   6.109   1.649
   11CHTO  C122 4276   5.110   6.118   1.746
   11CHTO  H226 4277   5.109   6.024   1.801
   11CHTO  C126 4278   4.974   6.121   1.668
   11CHTO   O85 4279   4.965   6.231   1.577
   11CHTO  H206 4280   4.882   6.228   1.533
   11CHTO  C121 4281   5.122   6.241   1.846
   11CHTO  H225 4282   5.021   6.287   1.858
   11CHTO   O81 4283   5.161   6.196   1.977
   11CHTO  H202 4284   5.246   6.157   1.974
   11CHTO  C119 4285   5.219   6.348   1.788
   11CHTO  H223 4286   5.174   6.373   1.692
   11CHTO  C117 4287   5.363   6.289   1.757
   11CHTO  H221 4288   5.431   6.287   1.843
   11CHTO   N20 4289   5.434   6.373   1.654
   11CHTO  H209 4290   5.379   6.371   1.561
   11CHTO  H210 4291   5.444   6.474   1.690
   11CHTO   O80 4292   5.212   6.487   1.861
   11CHTO  C103 4293   5.288   6.510   1.999
   11CHTO  H190 4294   5.307   6.416   2.050
   11CHTO  C101 4295   5.424   6.591   1.986
   11CHTO  H188 4296   5.412   6.664   1.907
   11CHTO   O68 4297   5.535   6.494   1.944
   11CHTO  H168 4298   5.613   6.542   1.923
   11CHTO   C99 4299   5.466   6.668   2.120
   11CHTO  H186 4300   5.504   6.593   2.194
   11CHTO   N17 4301   5.578   6.766   2.099
   11CHTO  H174 4302   5.663   6.716   2.055
   11CHTO  H175 4303   5.544   6.847   2.036
   11CHTO   C97 4304   5.343   6.735   2.188
   11CHTO  H184 4305   5.309   6.818   2.125
   11CHTO   O64 4306   5.240   6.636   2.208
   11CHTO  C104 4307   5.182   6.590   2.085
   11CHTO  H191 4308   5.144   6.673   2.026
   11CHTO  C108 4309   5.061   6.500   2.116
   11CHTO   O71 4310   4.960   6.570   2.190
   11CHTO  H171 4311   4.889   6.511   2.208
   11CHTO   O62 4312   5.379   6.784   2.320
   11CHTO   C91 4313   5.284   6.864   2.392
   11CHTO  H178 4314   5.184   6.824   2.370
   11CHTO   C92 4315   5.284   7.013   2.341
   11CHTO  H179 4316   5.270   7.015   2.232
   11CHTO   O66 4317   5.166   7.076   2.395
   11CHTO  H166 4318   5.155   7.162   2.357
   11CHTO   C93 4319   5.410   7.095   2.387
   11CHTO  H180 4320   5.379   7.200   2.400
   11CHTO   N16 4321   5.518   7.100   2.285
   11CHTO  H172 4322   5.600   7.159   2.321
   11CHTO  H173 4323   5.479   7.141   2.193
   11CHTO   C94 4324   5.465   7.042   2.526
   11CHTO  H181 4325   5.541   6.965   2.513
   11CHTO   O61 4326   5.359   6.984   2.603
   11CHTO   C95 4327   5.309   6.859   2.549
   11CHTO  H182 4328   5.382   6.781   2.571
   11CHTO  C106 4329   5.179   6.822   2.627
   11CHTO   O69 4330   5.132   6.692   2.591
   11CHTO  H169 4331   5.053   6.672   2.638
   11CHTO   O63 4332   5.524   7.163   2.607
   11CHTO   C96 4333   5.663   7.137   2.679
   11CHTO  H183 4334   5.729   7.087   2.608
   11CHTO   C98 4335   5.653   7.050   2.807
   11CHTO  H185 4336   5.570   7.086   2.869
   11CHTO   O67 4337   5.617   6.916   2.768
   11CHTO  H167 4338   5.684   6.878   2.715
   11CHTO  C102 4339   5.789   7.048   0.017
   11CHTO  H189 4340   5.860   6.987   2.838
   11CHTO   N18 4341   5.775   6.983   0.150
   11CHTO  H176 4342   5.846   6.902   0.159
   11CHTO  H177 4343   5.789   7.054   0.230
   11CHTO  C105 4344   5.848   7.192   0.027
   11CHTO  H192 4345   5.784   7.253   0.092
   11CHTO   O65 4346   5.856   7.256   2.776
   11CHTO  C100 4347   5.728   7.276   2.715
   11CHTO  H187 4348   5.663   7.329   2.786
   11CHTO  C107 4349   5.748   7.367   2.592
   11CHTO   O70 4350   5.624   7.419   2.543
   11CHTO  H170 4351   5.640   7.472   2.467
   11CHTO   O57 4352   6.000   7.178   0.093
   11CHTO   C85 4353   6.055   7.290   0.166
   11CHTO  H157 4354   5.973   7.365   0.176
   11CHTO   C83 4355   6.165   7.359   0.079
   11CHTO  H155 4356   6.116   7.397   2.867
   11CHTO   O56 4357   6.261   7.261   0.036
   11CHTO  H135 4358   6.221   7.198   2.856
   11CHTO   C81 4359   6.226   7.478   0.158
   11CHTO  H153 4360   6.144   7.546   0.184
   11CHTO   N14 4361   6.317   7.561   0.075
   11CHTO  H141 4362   6.413   7.572   0.122
   11CHTO  H142 4363   6.275   7.658   0.057
   11CHTO   C79 4364   6.291   7.426   0.292
   11CHTO  H151 4365   6.323   7.514   0.348
   11CHTO   O52 4366   6.191   7.358   0.374
   11CHTO   C86 4367   6.117   7.251   0.306
   11CHTO  H158 4368   6.193   7.170   0.295
   11CHTO   C90 4369   6.009   7.194   0.401
   11CHTO   O60 4370   5.914   7.294   0.440
   11CHTO  H138 4371   5.863   7.321   0.366
   11CHTO   O50 4372   6.406   7.342   0.272
   11CHTO   C73 4373   6.514   7.286   0.348
   11CHTO  H145 4374   6.475   7.228   0.433
   11CHTO   C74 4375   6.610   7.397   0.402
   11CHTO  H146 4376   6.549   7.464   0.465
   11CHTO   O54 4377   6.706   7.335   0.490
   11CHTO  H133 4378   6.663   7.303   0.568
   11CHTO   C75 4379   6.675   7.473   0.280
   11CHTO  H147 4380   6.596   7.527   0.226
   11CHTO   N13 4381   6.774   7.578   0.319
   11CHTO  H139 4382   6.783   7.584   0.427
   11CHTO  H140 4383   6.743   7.674   0.282
   11CHTO   C76 4384   6.740   7.370   0.175
   11CHTO  H148 4385   6.832   7.329   0.218
   11CHTO   O49 4386   6.648   7.260   0.142
   11CHTO   C77 4387   6.597   7.190   0.257
   11CHTO  H149 4388   6.679   7.148   0.315
   11CHTO   C88 4389   6.513   7.070   0.212
   11CHTO   O58 4390   6.596   6.970   0.145
   11CHTO  H136 4391   6.543   6.897   0.121
   11CHTO   O51 4392   6.765   7.446   0.034
   11CHTO   C78 4393   6.842   7.359   2.805
   11CHTO  H150 4394   6.839   7.250   2.832
   11CHTO   C80 4395   6.989   7.404   2.796
   11CHTO  H152 4396   6.991   7.514   2.781
   11CHTO   O55 4397   7.052   7.374   0.044
   11CHTO  H134 4398   7.020   7.431   0.111
   11CHTO   C84 4399   7.065   7.335   2.675
   11CHTO  H156 4400   7.073   7.228   2.698
   11CHTO   N15 4401   7.205   7.386   2.658
   11CHTO  H143 4402   7.263   7.367   2.746
   11CHTO  H144 4403   7.204   7.492   2.639
   11CHTO   C87 4404   6.983   7.350   2.545
   11CHTO  H159 4405   6.979   7.455   2.516
   11CHTO   O53 4406   6.841   7.297   2.570
   11CHTO   C82 4407   6.771   7.375   2.669
   11CHTO  H154 4408   6.768   7.480   2.639
   11CHTO   C89 4409   6.625   7.326   2.677
   11CHTO   O59 4410   6.558   7.344   2.552
   11CHTO  H137 4411   6.546   7.435   2.535
   11CHTO   O45 4412   7.048   7.263   2.421
   11CHTO   C67 4413   6.969   7.260   2.300
   11CHTO  H124 4414   6.871   7.219   2.325
   11CHTO   C65 4415   6.951   7.403   2.237
   11CHTO  H122 4416   7.028   7.466   2.282
   11CHTO   O44 4417   6.822   7.450   2.281
   11CHTO  H102 4418   6.812   7.541   2.259
   11CHTO   C63 4419   6.980   7.407   2.082
   11CHTO  H120 4420   7.088   7.396   2.067
   11CHTO   N11 4421   6.954   7.539   2.013
   11CHTO  H108 4422   7.046   7.587   1.988
   11CHTO  H109 4423   6.895   7.602   2.075
   11CHTO   C61 4424   6.915   7.283   2.011
   11CHTO  H118 4425   6.954   7.281   1.909
   11CHTO   O40 4426   6.952   7.156   2.072
   11CHTO   C68 4427   7.031   7.159   2.196
   11CHTO  H125 4428   7.135   7.190   2.171
   11CHTO   C72 4429   7.039   7.015   2.252
   11CHTO   O48 4430   7.107   6.925   2.164
   11CHTO  H105 4431   7.058   6.914   2.085
   11CHTO   O38 4432   6.771   7.291   2.010
   11CHTO   C55 4433   6.703   7.204   1.917
   11CHTO  H112 4434   6.764   7.114   1.898
   11CHTO   C56 4435   6.670   7.282   1.783
   11CHTO  H113 4436   6.618   7.374   1.811
   11CHTO   O42 4437   6.793   7.322   1.719
   11CHTO  H100 4438   6.775   7.375   1.644
   11CHTO   C57 4439   6.582   7.193   1.686
   11CHTO  H114 4440   6.645   7.112   1.651
   11CHTO   N10 4441   6.535   7.265   1.565
   11CHTO  H106 4442   6.609   7.339   1.535
   11CHTO  H107 4443   6.442   7.316   1.584
   11CHTO   C58 4444   6.462   7.132   1.764
   11CHTO  H115 4445   6.389   7.213   1.789
   11CHTO   O37 4446   6.505   7.066   1.884
   11CHTO   C59 4447   6.570   7.152   1.979
   11CHTO  H116 4448   6.504   7.235   2.005
   11CHTO   C70 4449   6.594   7.068   2.106
   11CHTO   O46 4450   6.636   7.146   2.218
   11CHTO  H103 4451   6.566   7.201   2.248
   11CHTO   O39 4452   6.391   7.017   1.675
   11CHTO   C60 4453   6.249   7.006   1.692
   11CHTO  H117 4454   6.220   7.043   1.791
   11CHTO   C62 4455   6.173   7.089   1.584
   11CHTO  H119 4456   6.201   7.196   1.602
   11CHTO   O43 4457   6.218   7.051   1.453
   11CHTO  H101 4458   6.308   7.077   1.440
   11CHTO   C66 4459   6.014   7.072   1.603
   11CHTO  H123 4460   5.988   7.103   1.704
   11CHTO   N12 4461   5.937   7.160   1.512
   11CHTO  H110 4462   5.831   7.149   1.530
   11CHTO  H111 4463   5.962   7.138   1.409
   11CHTO   C69 4464   5.977   6.922   1.589
   11CHTO  H126 4465   6.004   6.886   1.487
   11CHTO   O41 4466   6.057   6.840   1.696
   11CHTO   C64 4467   6.208   6.856   1.686
   11CHTO  H121 4468   6.244   6.813   1.590
   11CHTO   C71 4469   6.275   6.778   1.802
   11CHTO   O47 4470   6.259   6.637   1.785
   11CHTO  H104 4471   6.309   6.607   1.712
   11CHTO   O34 4472   5.822   6.895   1.611
   11CHTO   C49 4473   5.694   6.911   1.697
   11CHTO   H91 4474   5.724   6.897   1.801
   11CHTO   C47 4475   5.593   6.802   1.655
   11CHTO   H89 4476   5.507   6.811   1.725
   11CHTO   O33 4477   5.655   6.674   1.676
   11CHTO   H70 4478   5.594   6.605   1.656
   11CHTO   C45 4479   5.546   6.831   1.504
   11CHTO   H87 4480   5.636   6.837   1.441
   11CHTO    N8 4481   5.460   6.723   1.449
   11CHTO   H75 4482   5.511   6.628   1.455
   11CHTO   H76 4483   5.436   6.744   1.346
   11CHTO   C43 4484   5.478   6.977   1.496
   11CHTO   H85 4485   5.458   6.995   1.390
   11CHTO   O29 4486   5.568   7.076   1.551
   11CHTO   C50 4487   5.630   7.051   1.679
   11CHTO   H92 4488   5.710   7.124   1.691
   11CHTO   C54 4489   5.535   7.085   1.798
   11CHTO   O36 4490   5.504   7.225   1.799
   11CHTO   H72 4491   5.448   7.245   1.726
   11CHTO   O27 4492   5.350   6.986   1.563
   11CHTO   C37 4493   5.207   6.983   1.574
   11CHTO   H79 4494   5.175   7.059   1.647
   11CHTO   C38 4495   5.138   7.018   1.438
   11CHTO   H80 4496   5.182   6.955   1.360
   11CHTO   O31 4497   5.169   7.156   1.408
   11CHTO   H68 4498   5.132   7.213   1.473
   11CHTO   C39 4499   4.982   6.995   1.444
   11CHTO   H81 4500   4.941   7.071   1.510
   11CHTO    N7 4501   4.913   7.012   1.311
   11CHTO   H73 4502   4.840   7.091   1.317
   11CHTO   H74 4503   4.985   7.034   1.233
   11CHTO   C40 4504   4.948   6.855   1.507
   11CHTO   H82 4505   4.976   6.775   1.438
   11CHTO   O26 4506   5.014   6.842   1.634
   11CHTO   C41 4507   5.159   6.844   1.623
   11CHTO   H83 4508   5.191   6.767   1.551
   11CHTO   C52 4509   5.218   6.807   1.761
   11CHTO   O35 4510   5.185   6.900   1.867
   11CHTO   H71 4511   5.227   6.983   1.851
   11CHTO   O28 4512   4.809   6.841   1.545
   11CHTO   C42 4513   4.734   6.717   1.519
   11CHTO   H84 4514   4.796   6.658   1.452
   11CHTO   C44 4515   4.598   6.738   1.445
   11CHTO   H86 4516   4.535   6.802   1.507
   11CHTO   O32 4517   4.627   6.807   1.322
   11CHTO   H69 4518   4.654   6.895   1.339
   11CHTO   C48 4519   4.521   6.602   1.419
   11CHTO   H90 4520   4.577   6.544   1.347
   11CHTO    N9 4521   4.385   6.624   1.357
   11CHTO   H77 4522   4.337   6.529   1.341
   11CHTO   H78 4523   4.396   6.678   1.264
   11CHTO   C51 4524   4.511   6.519   1.553
   11CHTO   H93 4525   4.448   6.573   1.623
   11CHTO   O30 4526   4.643   6.499   1.605
   11CHTO   C46 4527   4.710   6.629   1.647
   11CHTO   H88 4528   4.643   6.683   1.714
   11CHTO   C53 4529   4.839   6.592   1.723
   11CHTO   O72 4530   4.933   6.523   1.640
   11CHTO  H199 4531   5.010   6.502   1.689
   11CHTO   O22 4532   4.458   6.387   1.529
   11CHTO   C31 4533   4.415   6.301   1.641
   11CHTO   H59 4534   4.468   6.338   1.732
   11CHTO   C29 4535   4.263   6.308   1.672
   11CHTO   H57 4536   4.210   6.280   1.580
   11CHTO   O21 4537   4.229   6.445   1.700
   11CHTO   H37 4538   4.136   6.454   1.707
   11CHTO   C27 4539   4.221   6.209   1.788
   11CHTO   H55 4540   4.269   6.244   1.882
   11CHTO    N5 4541   4.074   6.204   1.810
   11CHTO   H43 4542   4.037   6.302   1.835
   11CHTO   H44 4543   4.025   6.167   1.721
   11CHTO   C25 4544   4.279   6.067   1.758
   11CHTO   H53 4545   4.232   6.027   1.667
   11CHTO   O17 4546   4.423   6.075   1.737
   11CHTO   C32 4547   4.460   6.153   1.622
   11CHTO   H60 4548   4.412   6.112   1.533
   11CHTO   C36 4549   4.613   6.137   1.609
   11CHTO   O25 4550   4.664   6.198   1.490
   11CHTO   H40 4551   4.635   6.150   1.415
   11CHTO   O15 4552   4.257   5.970   1.872
   11CHTO   C19 4553   4.269   5.826   1.895
   11CHTO   H47 4554   4.189   5.783   1.833
   11CHTO   C20 4555   4.406   5.764   1.852
   11CHTO   H48 4556   4.491   5.813   1.902
   11CHTO   O19 4557   4.421   5.786   1.710
   11CHTO   H35 4558   4.433   5.877   1.692
   11CHTO   C21 4559   4.413   5.609   1.882
   11CHTO   H49 4560   4.348   5.557   1.812
   11CHTO    N4 4561   4.550   5.553   1.861
   11CHTO   H41 4562   4.550   5.447   1.879
   11CHTO   H42 4563   4.620   5.601   1.928
   11CHTO   C22 4564   4.359   5.576   2.024
   11CHTO   H50 4565   4.433   5.608   2.098
   11CHTO   O14 4566   4.235   5.644   2.051
   11CHTO   C23 4567   4.238   5.787   2.041
   11CHTO   H51 4568   4.316   5.823   2.111
   11CHTO   C34 4569   4.103   5.842   2.087
   11CHTO   O23 4570   4.080   5.814   2.226
   11CHTO   H38 4571   4.066   5.722   2.238
   11CHTO   O16 4572   4.332   5.435   2.042
   11CHTO   C24 4573   4.189   5.379   1.974
   11CHTO   H52 4574   4.146   5.451   1.905
   11CHTO   C26 4575   4.087   5.346   2.084
   11CHTO   H54 4576   4.129   5.266   2.149
   11CHTO   O20 4577   4.066   5.463   2.166
   11CHTO   H36 4578   4.143   5.483   2.215
   11CHTO   C30 4579   3.954   5.294   2.021
   11CHTO   H58 4580   3.909   5.374   1.961
   11CHTO    N6 4581   3.854   5.258   2.125
   11CHTO   H45 4582   3.764   5.317   2.113
   11CHTO   H46 4583   3.828   5.153   2.120
   11CHTO   C33 4584   3.983   5.176   1.922
   11CHTO   H61 4585   4.016   5.088   1.980
   11CHTO   O18 4586   4.090   5.212   1.832
   11CHTO   C28 4587   4.214   5.249   1.892
   11CHTO   H56 4588   4.250   5.171   1.959
   11CHTO   C35 4589   4.318   5.271   1.780
   11CHTO   O24 4590   4.341   5.152   1.704
   11CHTO   H39 4591   4.385   5.088   1.757
   11CHTO    O9 4592   3.866   5.132   1.850
   11CHTO   C13 4593   3.813   5.236   1.731
   11CHTO   H26 4594   3.846   5.338   1.758
   11CHTO   C11 4595   3.656   5.226   1.719
   11CHTO   H24 4596   3.612   5.251   1.817
   11CHTO    O8 4597   3.622   5.088   1.690
   11CHTO    H3 4598   3.529   5.078   1.689
   11CHTO    C9 4599   3.607   5.330   1.614
   11CHTO   H22 4600   3.620   5.428   1.662
   11CHTO    N2 4601   3.460   5.324   1.591
   11CHTO   H10 4602   3.428   5.409   1.532
   11CHTO   H11 4603   3.434   5.232   1.541
   11CHTO    C7 4604   3.698   5.328   1.484
   11CHTO   H20 4605   3.762   5.419   1.496
   11CHTO    O4 4606   3.783   5.211   1.481
   11CHTO   C14 4607   3.879   5.206   1.588
   11CHTO   H27 4608   3.957   5.283   1.568
   11CHTO   C18 4609   3.950   5.068   1.579
   11CHTO   O13 4610   4.021   5.052   1.456
   11CHTO    H7 4611   4.093   5.111   1.453
   11CHTO    O2 4612   3.620   5.339   1.335
   11CHTO    C1 4613   3.627   5.468   1.272
   11CHTO   H14 4614   3.662   5.544   1.345
   11CHTO    C2 4615   3.487   5.514   1.214
   11CHTO   H15 4616   3.450   5.431   1.152
   11CHTO    O6 4617   3.396   5.535   1.324
   11CHTO    H1 4618   3.376   5.453   1.365
   11CHTO    C3 4619   3.500   5.647   1.125
   11CHTO   H16 4620   3.524   5.731   1.193
   11CHTO    N1 4621   3.372   5.685   1.057
   11CHTO    H8 4622   3.385   5.776   1.001
   11CHTO    H9 4623   3.342   5.605   0.990
   11CHTO    C4 4624   3.621   5.636   1.026
   11CHTO   H17 4625   3.596   5.565   0.947
   11CHTO    O1 4626   3.740   5.595   1.094
   11CHTO    C5 4627   3.733   5.466   1.156
   11CHTO   H18 4628   3.703   5.390   1.083
   11CHTO   C16 4629   3.877   5.435   1.204
   11CHTO   O11 4630   3.896   5.296   1.230
   11CHTO    H5 4631   3.984   5.282   1.260
   11CHTO    O3 4632   3.655   5.765   0.970
   11CHTO    C6 4633   3.712   5.763   0.835
   11CHTO   H19 4634   3.745   5.663   0.805
   11CHTO    C8 4635   3.607   5.813   0.731
   11CHTO   H21 4636   3.570   5.911   0.764
   11CHTO    O7 4637   3.498   5.718   0.731
   11CHTO    H2 4638   3.527   5.635   0.700
   11CHTO   C12 4639   3.673   5.828   0.588
   11CHTO   H25 4640   3.700   5.725   0.555
   11CHTO    N3 4641   3.575   5.882   0.488
   11CHTO   H12 4642   3.490   5.815   0.480
   11CHTO   H13 4643   3.623   5.892   0.392
   11CHTO   C15 4644   3.804   5.913   0.599
   11CHTO   H28 4645   3.783   6.018   0.622
   11CHTO   O10 4646   3.891   5.906   0.470
   11CHTO    H4 4647   3.964   5.965   0.476
   11CHTO    O5 4648   3.893   5.859   0.698
   11CHTO   C10 4649   3.838   5.855   0.831
   11CHTO   H23 4650   3.811   5.956   0.861
   11CHTO   C17 4651   3.947   5.805   0.927
   11CHTO   O12 4652   4.056   5.898   0.934
   11CHTO    H6 4653   4.123   5.863   0.990
   12CHTO  H203 4654   5.138   1.789   2.858
   12CHTO   O82 4655   5.157   1.837   0.058
   12CHTO  C123 4656   5.183   1.747   0.168
   12CHTO  H227 4657   5.209   1.807   0.257
   12CHTO   O77 4658   5.054   1.682   0.189
   12CHTO  C118 4659   5.051   1.587   0.297
   12CHTO  H222 4660   5.080   1.636   0.390
   12CHTO  C125 4661   4.904   1.533   0.311
   12CHTO   O84 4662   4.814   1.636   0.352
   12CHTO  H205 4663   4.802   1.697   0.282
   12CHTO  C114 4664   5.149   1.472   0.266
   12CHTO  H218 4665   5.119   1.425   0.172
   12CHTO  C116 4666   5.293   1.527   0.245
   12CHTO  H220 4667   5.332   1.568   0.342
   12CHTO   O79 4668   5.380   1.417   0.210
   12CHTO  H201 4669   5.389   1.359   0.283
   12CHTO  C120 4670   5.295   1.641   0.135
   12CHTO  H224 4671   5.273   1.591   0.038
   12CHTO   N21 4672   5.430   1.704   0.122
   12CHTO  H211 4673   5.420   1.806   0.087
   12CHTO  H212 4674   5.482   1.702   0.216
   12CHTO   O75 4675   5.138   1.380   0.376
   12CHTO  C112 4676   5.125   1.224   0.326
   12CHTO  H216 4677   5.202   1.205   0.249
   12CHTO   O73 4678   4.992   1.207   0.274
   12CHTO  C113 4679   4.969   1.078   0.216
   12CHTO  H217 4680   5.045   1.058   0.138
   12CHTO  C124 4681   4.832   1.085   0.147
   12CHTO   O83 4682   4.806   0.973   0.061
   12CHTO  H204 4683   4.722   0.983   0.021
   12CHTO  C109 4684   4.976   0.970   0.329
   12CHTO  H213 4685   4.895   0.993   0.400
   12CHTO  C110 4686   5.114   0.979   0.401
   12CHTO  H214 4687   5.191   0.944   0.331
   12CHTO   O78 4688   5.113   0.888   0.513
   12CHTO  H200 4689   5.112   0.799   0.483
   12CHTO  C111 4690   5.147   1.124   0.446
   12CHTO  H215 4691   5.076   1.153   0.526
   12CHTO   N19 4692   5.284   1.140   0.503
   12CHTO  H207 4693   5.343   1.210   0.446
   12CHTO  H208 4694   5.336   1.045   0.508
   12CHTO   O74 4695   4.957   0.836   0.274
   12CHTO  C115 4696   4.824   0.759   0.326
   12CHTO  H219 4697   4.763   0.823   0.390
   12CHTO   O76 4698   4.729   0.721   0.205
   12CHTO  C122 4699   4.792   0.631   0.113
   12CHTO  H226 4700   4.874   0.685   0.065
   12CHTO  C126 4701   4.691   0.594   2.877
   12CHTO   O85 4702   4.653   0.709   2.800
   12CHTO  H206 4703   4.594   0.682   2.732
   12CHTO  C121 4704   4.848   0.500   0.184
   12CHTO  H225 4705   4.800   0.411   0.139
   12CHTO   O81 4706   4.989   0.488   0.161
   12CHTO  H202 4707   5.020   0.405   0.190
   12CHTO  C119 4708   4.816   0.500   0.337
   12CHTO  H223 4709   4.707   0.503   0.345
   12CHTO  C117 4710   4.872   0.631   0.406
   12CHTO  H221 4711   4.981   0.638   0.407
   12CHTO   N20 4712   4.832   0.640   0.550
   12CHTO  H209 4713   4.765   0.559   0.578
   12CHTO  H210 4714   4.919   0.638   0.614
   12CHTO   O80 4715   4.849   0.362   0.409
   12CHTO  C103 4716   4.733   0.256   0.432
   12CHTO  H190 4717   4.646   0.304   0.477
   12CHTO  C101 4718   4.686   0.175   0.304
   12CHTO  H188 4719   4.775   0.141   0.251
   12CHTO   O68 4720   4.606   0.271   0.212
   12CHTO  H168 4721   4.588   0.228   0.130
   12CHTO   C99 4722   4.598   0.047   0.343
   12CHTO  H186 4723   4.500   0.082   0.382
   12CHTO   N17 4724   4.566   9.958   0.226
   12CHTO  H174 4725   4.521   0.016   0.147
   12CHTO  H175 4726   4.501   9.878   0.257
   12CHTO   C97 4727   4.663   9.967   0.459
   12CHTO  H184 4728   4.754   9.918   0.420
   12CHTO   O64 4729   4.693   0.054   0.570
   12CHTO  C104 4730   4.790   0.156   0.539
   12CHTO  H191 4731   4.883   0.113   0.502
   12CHTO  C108 4732   4.827   0.230   0.669
   12CHTO   O71 4733   4.894   0.143   0.761
   12CHTO  H171 4734   4.916   0.190   0.838
   12CHTO   O62 4735   4.571   9.872   0.516
   12CHTO   C91 4736   4.623   9.740   0.540
   12CHTO  H178 4737   4.683   9.711   0.453
   12CHTO   C92 4738   4.503   9.639   0.543
   12CHTO  H179 4739   4.439   9.655   0.455
   12CHTO   O66 4740   4.556   9.507   0.528
   12CHTO  H166 4741   4.486   9.445   0.516
   12CHTO   C93 4742   4.420   9.645   0.678
   12CHTO  H180 4743   4.367   9.549   0.686
   12CHTO   N16 4744   4.314   9.748   0.678
   12CHTO  H172 4745   4.358   9.846   0.666
   12CHTO  H173 4746   4.257   9.743   0.770
   12CHTO   C94 4747   4.517   9.660   0.802
   12CHTO  H181 4748   4.516   9.762   0.843
   12CHTO   O61 4749   4.654   9.632   0.768
   12CHTO   C95 4750   4.709   9.726   0.674
   12CHTO  H182 4751   4.715   9.824   0.721
   12CHTO  C106 4752   4.858   9.685   0.642
   12CHTO   O69 4753   4.868   9.554   0.586
   12CHTO  H169 4754   4.830   9.553   0.500
   12CHTO   O63 4755   4.470   9.559   0.914
   12CHTO   C96 4756   4.550   9.576   1.046
   12CHTO  H183 4757   4.626   9.653   1.030
   12CHTO   C98 4758   4.622   9.444   1.092
   12CHTO  H185 4759   4.649   9.383   1.004
   12CHTO   O67 4760   4.747   9.481   1.152
   12CHTO  H167 4761   4.798   9.405   1.171
   12CHTO  C102 4762   4.537   9.359   1.198
   12CHTO  H189 4763   4.606   9.281   1.235
   12CHTO   N18 4764   4.421   9.285   1.143
   12CHTO  H176 4765   4.352   9.354   1.097
   12CHTO  H177 4766   4.455   9.213   1.069
   12CHTO  C105 4767   4.499   9.452   1.318
   12CHTO  H192 4768   4.400   9.424   1.357
   12CHTO   O65 4769   4.497   9.593   1.290
   12CHTO  C100 4770   4.451   9.628   1.158
   12CHTO  H187 4771   4.352   9.581   1.142
   12CHTO  C107 4772   4.430   9.781   1.149
   12CHTO   O70 4773   4.325   9.826   1.234
   12CHTO  H170 4774   4.242   9.796   1.201
   12CHTO   O57 4775   4.608   9.413   1.429
   12CHTO   C85 4776   4.655   9.507   1.527
   12CHTO  H157 4777   4.576   9.586   1.536
   12CHTO   C83 4778   4.781   9.580   1.472
   12CHTO  H155 4779   4.751   9.638   1.384
   12CHTO   O56 4780   4.877   9.482   1.425
   12CHTO  H135 4781   4.949   9.524   1.383
   12CHTO   C81 4782   4.838   9.676   1.579
   12CHTO  H153 4783   4.758   9.746   1.608
   12CHTO   N14 4784   4.946   9.763   1.528
   12CHTO  H141 4785   4.974   9.835   1.603
   12CHTO  H142 4786   5.032   9.704   1.503
   12CHTO   C79 4787   4.880   9.595   1.707
   12CHTO  H151 4788   4.910   9.668   1.783
   12CHTO   O52 4789   4.764   9.525   1.762
   12CHTO   C86 4790   4.688   9.441   1.668
   12CHTO  H158 4791   4.751   9.350   1.656
   12CHTO   C90 4792   4.560   9.395   1.741
   12CHTO   O60 4793   4.480   9.307   1.662
   12CHTO  H138 4794   4.404   9.281   1.711
   12CHTO   O50 4795   4.989   9.503   1.686
   12CHTO   C73 4796   5.085   9.441   1.773
   12CHTO  H145 4797   5.033   9.388   1.854
   12CHTO   C74 4798   5.179   9.548   1.837
   12CHTO  H146 4799   5.115   9.621   1.889
   12CHTO   O54 4800   5.259   9.486   1.939
   12CHTO  H133 4801   5.316   9.421   1.901
   12CHTO   C75 4802   5.263   9.617   1.723
   12CHTO  H147 4803   5.194   9.664   1.651
   12CHTO   N13 4804   5.351   9.727   1.770
   12CHTO  H139 4805   5.405   9.769   1.687
   12CHTO  H140 4806   5.292   9.804   1.815
   12CHTO   C76 4807   5.344   9.504   1.643
   12CHTO  H148 4808   5.413   9.457   1.713
   12CHTO   O49 4809   5.251   9.403   1.591
   12CHTO   C77 4810   5.171   9.339   1.693
   12CHTO  H149 4811   5.237   9.286   1.763
   12CHTO   C88 4812   5.084   9.231   1.627
   12CHTO   O58 4813   5.169   9.122   1.569
   12CHTO  H136 4814   5.218   9.155   1.496
   12CHTO   O51 4815   5.418   9.565   1.516
   12CHTO   C78 4816   5.517   9.465   1.447
   12CHTO  H150 4817   5.488   9.359   1.469
   12CHTO   C80 4818   5.661   9.488   1.496
   12CHTO  H152 4819   5.687   9.596   1.481
   12CHTO   O55 4820   5.663   9.461   1.637
   12CHTO  H134 4821   5.748   9.482   1.673
   12CHTO   C84 4822   5.764   9.398   1.416
   12CHTO  H156 4823   5.738   9.294   1.436
   12CHTO   N15 4824   5.906   9.416   1.460
   12CHTO  H143 4825   5.970   9.352   1.403
   12CHTO  H144 4826   5.916   9.393   1.564
   12CHTO   C87 4827   5.746   9.424   1.264
   12CHTO  H159 4828   5.772   9.528   1.242
   12CHTO   O53 4829   5.600   9.397   1.228
   12CHTO   C82 4830   5.507   9.484   1.294
   12CHTO  H154 4831   5.526   9.588   1.266
   12CHTO   C89 4832   5.367   9.447   1.239
   12CHTO   O59 4833   5.264   9.536   1.282
   12CHTO  H137 4834   5.182   9.509   1.246
   12CHTO   O45 4835   5.842   9.321   1.174
   12CHTO   C67 4836   5.865   9.347   1.034
   12CHTO  H124 4837   5.948   9.283   1.006
   12CHTO   C65 4838   5.741   9.310   0.945
   12CHTO  H122 4839   5.653   9.331   1.004
   12CHTO   O44 4840   5.750   9.169   0.926
   12CHTO  H102 4841   5.818   9.148   0.864
   12CHTO   C63 4842   5.725   9.401   0.817
   12CHTO  H120 4843   5.676   9.493   0.847
   12CHTO   N11 4844   5.627   9.350   0.715
   12CHTO  H108 4845   5.534   9.324   0.762
   12CHTO  H109 4846   5.609   9.425   0.640
   12CHTO   C61 4847   5.864   9.444   0.758
   12CHTO  H118 4848   5.841   9.520   0.682
   12CHTO   O40 4849   5.944   9.513   0.860
   12CHTO   C68 4850   5.914   9.495   1.002
   12CHTO  H125 4851   5.835   9.567   1.030
   12CHTO   C72 4852   6.040   9.533   1.081
   12CHTO   O48 4853   6.155   9.458   1.039
   12CHTO  H105 4854   6.230   9.486   1.088
   12CHTO   O38 4855   5.936   9.337   0.692
   12CHTO   C55 4856   6.066   9.290   0.734
   12CHTO  H112 4857   6.072   9.290   0.844
   12CHTO   C56 4858   6.184   9.374   0.668
   12CHTO  H113 4859   6.168   9.371   0.559
   12CHTO   O42 4860   6.175   9.513   0.704
   12CHTO  H100 4861   6.183   9.523   0.798
   12CHTO   C57 4862   6.325   9.313   0.707
   12CHTO  H114 4863   6.340   9.336   0.812
   12CHTO   N10 4864   6.438   9.375   0.632
   12CHTO  H106 4865   6.529   9.371   0.692
   12CHTO  H107 4866   6.455   9.324   0.538
   12CHTO   C58 4867   6.326   9.159   0.689
   12CHTO  H115 4868   6.332   9.134   0.580
   12CHTO   O37 4869   6.211   9.096   0.746
   12CHTO   C59 4870   6.086   9.142   0.692
   12CHTO  H116 4871   6.087   9.134   0.583
   12CHTO   C70 4872   5.975   9.050   0.745
   12CHTO   O46 4873   5.990   8.915   0.699
   12CHTO  H103 4874   5.922   8.862   0.735
   12CHTO   O39 4875   6.451   9.094   0.767
   12CHTO   C60 4876   6.495   8.969   0.712
   12CHTO  H117 4877   6.424   8.932   0.638
   12CHTO   C62 4878   6.633   8.988   0.641
   12CHTO  H119 4879   6.616   9.063   0.561
   12CHTO   O43 4880   6.729   9.042   0.734
   12CHTO  H101 4881   6.745   8.981   0.804
   12CHTO   C66 4882   6.679   8.849   0.575
   12CHTO  H123 4883   6.602   8.818   0.503
   12CHTO   N12 4884   6.804   8.863   0.496
   12CHTO  H110 4885   6.829   8.768   0.450
   12CHTO  H111 4886   6.884   8.898   0.559
   12CHTO   C69 4887   6.688   8.738   0.683
   12CHTO  H126 4888   6.770   8.762   0.755
   12CHTO   O41 4889   6.552   8.728   0.762
   12CHTO   C64 4890   6.506   8.860   0.822
   12CHTO  H121 4891   6.580   8.894   0.898
   12CHTO   C71 4892   6.371   8.838   0.893
   12CHTO   O47 4893   6.386   8.753   1.008
   12CHTO  H104 4894   6.432   8.799   1.075
   12CHTO   O34 4895   6.718   8.600   0.619
   12CHTO   C49 4896   6.794   8.479   0.672
   12CHTO   H91 4897   6.899   8.508   0.677
   12CHTO   C47 4898   6.776   8.364   0.570
   12CHTO   H89 4899   6.843   8.283   0.608
   12CHTO   O33 4900   6.822   8.403   0.440
   12CHTO   H70 4901   6.823   8.329   0.382
   12CHTO   C45 4902   6.621   8.314   0.564
   12CHTO   H87 4903   6.570   8.371   0.486
   12CHTO    N8 4904   6.617   8.170   0.526
   12CHTO   H75 4905   6.559   8.113   0.598
   12CHTO   H76 4906   6.716   8.128   0.518
   12CHTO   C43 4907   6.545   8.354   0.701
   12CHTO   H85 4908   6.516   8.458   0.688
   12CHTO   O29 4909   6.633   8.337   0.813
   12CHTO   C50 4910   6.745   8.428   0.812
   12CHTO   H92 4911   6.718   8.517   0.871
   12CHTO   C54 4912   6.862   8.365   0.892
   12CHTO   O36 4913   6.826   8.342   1.029
   12CHTO   H72 4914   6.762   8.274   1.034
   12CHTO   O27 4915   6.420   8.285   0.721
   12CHTO   C37 4916   6.305   8.313   0.803
   12CHTO   H79 4917   6.237   8.227   0.803
   12CHTO   C38 4918   6.346   8.339   0.950
   12CHTO   H80 4919   6.423   8.418   0.952
   12CHTO   O31 4920   6.403   8.217   1.001
   12CHTO   H68 4921   6.438   8.230   1.087
   12CHTO   C39 4922   6.223   8.385   1.038
   12CHTO   H81 4923   6.157   8.299   1.049
   12CHTO    N7 4924   6.263   8.428   1.177
   12CHTO   H73 4925   6.370   8.419   1.192
   12CHTO   H74 4926   6.210   8.370   1.251
   12CHTO   C40 4927   6.140   8.499   0.967
   12CHTO   H82 4928   6.192   8.594   0.973
   12CHTO   O26 4929   6.111   8.463   0.830
   12CHTO   C41 4930   6.228   8.437   0.747
   12CHTO   H83 4931   6.294   8.525   0.747
   12CHTO   C52 4932   6.176   8.414   0.604
   12CHTO   O35 4933   6.282   8.410   0.503
   12CHTO   H71 4934   6.245   8.395   0.418
   12CHTO   O28 4935   6.009   8.511   1.024
   12CHTO   C42 4936   5.934   8.637   1.018
   12CHTO   H84 4937   5.980   8.693   0.936
   12CHTO   C44 4938   5.945   8.728   1.144
   12CHTO   H86 4939   5.909   8.672   1.231
   12CHTO   O32 4940   6.085   8.758   1.164
   12CHTO   H69 4941   6.131   8.680   1.191
   12CHTO   C48 4942   5.859   8.861   1.131
   12CHTO   H90 4943   5.906   8.924   1.056
   12CHTO    N9 4944   5.859   8.943   1.258
   12CHTO   H77 4945   5.818   8.885   1.339
   12CHTO   H78 4946   5.960   8.974   1.282
   12CHTO   C51 4947   5.713   8.828   1.083
   12CHTO   H93 4948   5.659   8.777   1.164
   12CHTO   O30 4949   5.718   8.748   0.964
   12CHTO   C46 4950   5.785   8.615   0.981
   12CHTO   H88 4951   5.735   8.561   1.062
   12CHTO   C53 4952   5.767   8.537   0.848
   12CHTO   O72 4953   5.826   8.606   0.738
   12CHTO  H199 4954   5.814   8.555   0.659
   12CHTO   O22 4955   5.644   8.948   1.043
   12CHTO   C31 4956   5.497   8.952   1.026
   12CHTO   H59 4957   5.462   8.846   1.033
   12CHTO   C29 4958   5.424   9.033   1.134
   12CHTO   H57 4959   5.454   9.139   1.124
   12CHTO   O21 4960   5.469   8.991   1.264
   12CHTO   H37 4961   5.443   8.903   1.281
   12CHTO   C27 4962   5.267   9.022   1.116
   12CHTO   H55 4963   5.238   8.917   1.128
   12CHTO    N5 4964   5.189   9.103   1.213
   12CHTO   H43 4965   5.254   9.161   1.276
   12CHTO   H44 4966   5.126   9.040   1.273
   12CHTO   C25 4967   5.231   9.062   0.968
   12CHTO   H53 4968   5.253   9.169   0.954
   12CHTO   O17 4969   5.310   8.987   0.871
   12CHTO   C32 4970   5.452   9.004   0.886
   12CHTO   H60 4971   5.475   9.110   0.879
   12CHTO   C36 4972   5.523   8.934   0.767
   12CHTO   O25 4973   5.498   8.794   0.761
   12CHTO   H40 4974   5.540   8.751   0.833
   12CHTO   O15 4975   5.077   9.037   0.935
   12CHTO   C19 4976   4.986   9.111   0.848
   12CHTO   H47 4977   4.993   9.214   0.886
   12CHTO   C20 4978   5.026   9.111   0.697
   12CHTO   H48 4979   5.033   9.009   0.656
   12CHTO   O19 4980   5.157   9.171   0.687
   12CHTO   H35 4981   5.222   9.114   0.725
   12CHTO   C21 4982   4.922   9.192   0.609
   12CHTO   H49 4983   4.926   9.297   0.639
   12CHTO    N4 4984   4.954   9.188   0.464
   12CHTO   H41 4985   4.882   9.246   0.409
   12CHTO   H42 4986   4.952   9.086   0.428
   12CHTO   C22 4987   4.778   9.141   0.641
   12CHTO   H50 4988   4.770   9.037   0.609
   12CHTO   O14 4989   4.754   9.151   0.783
   12CHTO   C23 4990   4.838   9.067   0.864
   12CHTO   H51 4991   4.822   8.963   0.832
   12CHTO   C34 4992   4.793   9.079   1.010
   12CHTO   O23 4993   4.659   9.031   1.029
   12CHTO   H38 4994   4.598   9.089   0.987
   12CHTO   O16 4995   4.676   9.223   0.578
   12CHTO   C24 4996   4.517   9.161   0.563
   12CHTO   H52 4997   4.451   9.232   0.514
   12CHTO   C26 4998   4.458   9.133   0.703
   12CHTO   H54 4999   4.526   9.064   0.757
   12CHTO   O20 5000   4.453   9.259   0.772
   12CHTO   H36 5001   4.425   9.246   0.861
   12CHTO   C30 5002   4.318   9.063   0.692
   12CHTO   H58 5003   4.247   9.130   0.640
   12CHTO    N6 5004   4.260   9.035   0.826
   12CHTO   H45 5005   4.164   8.987   0.815
   12CHTO   H46 5006   4.247   9.128   0.880
   12CHTO   C33 5007   4.332   8.935   0.604
   12CHTO   H61 5008   4.404   8.866   0.651
   12CHTO   O18 5009   4.384   8.975   0.476
   12CHTO   C28 5010   4.516   9.032   0.475
   12CHTO   H56 5011   4.588   8.961   0.515
   12CHTO   C35 5012   4.547   9.063   0.327
   12CHTO   O24 5013   4.682   9.104   0.304
   12CHTO   H39 5014   4.694   9.121   0.212
   12CHTO    O9 5015   4.209   8.861   0.590
   12CHTO   C13 5016   4.228   8.716   0.518
   12CHTO   H26 5017   4.324   8.718   0.461
   12CHTO   C11 5018   4.104   8.689   0.422
   12CHTO   H24 5019   4.108   8.764   0.341
   12CHTO    O8 5020   3.981   8.710   0.494
   12CHTO    H3 5021   3.973   8.799   0.521
   12CHTO    C9 5022   4.119   8.548   0.361
   12CHTO   H22 5023   4.216   8.547   0.310
   12CHTO    N2 5024   4.020   8.517   0.254
   12CHTO   H10 5025   4.043   8.421   0.210
   12CHTO   H11 5026   4.022   8.595   0.179
   12CHTO    C7 5027   4.123   8.441   0.477
   12CHTO   H20 5028   4.144   8.344   0.425
   12CHTO    O4 5029   4.231   8.469   0.569
   12CHTO   C14 5030   4.245   8.601   0.626
   12CHTO   H27 5031   4.348   8.607   0.666
   12CHTO   C18 5032   4.149   8.620   0.747
   12CHTO   O13 5033   4.167   8.516   0.844
   12CHTO    H7 5034   4.107   8.529   0.915
   12CHTO    O2 5035   3.982   8.430   0.561
   12CHTO    C1 5036   3.908   8.307   0.552
   12CHTO   H14 5037   3.939   8.251   0.461
   12CHTO    C2 5038   3.752   8.335   0.543
   12CHTO   H15 5039   3.731   8.409   0.621
   12CHTO    O6 5040   3.723   8.392   0.415
   12CHTO    H1 5041   3.633   8.418   0.410
   12CHTO    C3 5042   3.664   8.202   0.569
   12CHTO   H16 5043   3.676   8.134   0.484
   12CHTO    N1 5044   3.518   8.234   0.581
   12CHTO    H8 5045   3.501   8.302   0.664
   12CHTO    H9 5046   3.482   8.279   0.490
   12CHTO    C4 5047   3.719   8.124   0.695
   12CHTO   H17 5048   3.704   8.186   0.783
   12CHTO    O1 5049   3.859   8.098   0.675
   12CHTO    C5 5050   3.941   8.217   0.676
   12CHTO   H18 5051   3.919   8.275   0.765
   12CHTO   C16 5052   4.089   8.170   0.681
   12CHTO   O11 5053   4.125   8.089   0.569
   12CHTO    H5 5054   4.122   8.140   0.490
   12CHTO    O3 5055   3.653   7.997   0.713
   12CHTO    C6 5056   3.703   7.907   0.818
   12CHTO   H19 5057   3.811   7.915   0.831
   12CHTO    C8 5058   3.636   7.935   0.957
   12CHTO   H21 5059   3.528   7.927   0.945
   12CHTO    O7 5060   3.671   8.069   0.997
   12CHTO    H2 5061   3.628   8.132   0.942
   12CHTO   C12 5062   3.685   7.827   1.062
   12CHTO   H25 5063   3.794   7.843   1.075
   12CHTO    N3 5064   3.623   7.848   1.197
   12CHTO   H12 5065   3.661   7.775   1.267
   12CHTO   H13 5066   3.515   7.839   1.190
   12CHTO   C15 5067   3.662   7.683   1.004
   12CHTO   H28 5068   3.556   7.659   0.998
   12CHTO   O10 5069   3.734   7.573   1.088
   12CHTO    H4 5070   3.825   7.593   1.097
   12CHTO    O5 5071   3.723   7.669   0.875
   12CHTO   C10 5072   3.673   7.761   0.776
   12CHTO   H23 5073   3.565   7.747   0.768
   12CHTO   C17 5074   3.734   7.726   0.640
   12CHTO   O12 5075   3.693   7.595   0.597
   12CHTO    H6 5076   3.732   7.576   0.514
   13CHTO  H203 5077   7.226   4.372   2.875
   13CHTO   O82 5078   7.138   4.343   2.862
   13CHTO  C123 5079   7.065   4.440   2.785
   13CHTO  H227 5080   7.115   4.452   2.687
   13CHTO   O77 5081   6.935   4.377   2.767
   13CHTO  C118 5082   6.842   4.452   2.687
   13CHTO  H222 5083   6.888   4.480   2.591
   13CHTO  C125 5084   6.719   4.359   2.660
   13CHTO   O84 5085   6.632   4.411   2.559
   13CHTO  H205 5086   6.675   4.408   2.476
   13CHTO  C114 5087   6.808   4.580   2.767
   13CHTO  H218 5088   6.771   4.551   2.865
   13CHTO  C116 5089   6.937   4.665   2.788
   13CHTO  H220 5090   6.974   4.700   2.688
   13CHTO   O79 5091   6.905   4.784   2.862
   13CHTO  H201 5092   6.874   4.762   0.070
   13CHTO  C120 5093   7.049   4.578   2.859
   13CHTO  H224 5094   7.014   4.562   0.085
   13CHTO   N21 5095   7.179   4.650   2.868
   13CHTO  H211 5096   7.234   4.617   0.077
   13CHTO  H212 5097   7.163   4.757   2.873
   13CHTO   O75 5098   6.706   4.650   2.693
   13CHTO  C112 5099   6.575   4.691   2.786
   13CHTO  H216 5100   6.606   4.700   0.013
   13CHTO   O73 5101   6.476   4.588   2.768
   13CHTO  C113 5102   6.358   4.605   2.848
   13CHTO  H217 5103   6.386   4.606   0.077
   13CHTO  C124 5104   6.266   4.484   2.825
   13CHTO   O83 5105   6.324   4.361   2.869
   13CHTO  H204 5106   6.397   4.339   2.814
   13CHTO  C109 5107   6.285   4.737   2.812
   13CHTO  H213 5108   6.248   4.726   2.708
   13CHTO  C110 5109   6.384   4.858   2.820
   13CHTO  H214 5110   6.408   4.875   0.048
   13CHTO   O78 5111   6.317   4.976   2.772
   13CHTO  H200 5112   6.247   5.000   2.830
   13CHTO  C111 5113   6.514   4.830   2.740
   13CHTO  H215 5114   6.488   4.821   2.633
   13CHTO   N19 5115   6.616   4.939   2.750
   13CHTO  H207 5116   6.707   4.904   2.796
   13CHTO  H208 5117   6.577   5.024   2.803
   13CHTO   O74 5118   6.170   4.756   0.023
   13CHTO  C115 5119   6.043   4.845   2.838
   13CHTO  H219 5120   6.061   4.952   2.846
   13CHTO   O76 5121   6.023   4.816   2.685
   13CHTO  C122 5122   5.914   4.885   2.621
   13CHTO  H226 5123   5.903   4.840   2.523
   13CHTO  C126 5124   5.954   5.035   2.596
   13CHTO   O85 5125   5.859   5.101   2.511
   13CHTO  H206 5126   5.885   5.191   2.499
   13CHTO  C121 5127   5.778   4.870   2.700
   13CHTO  H225 5128   5.706   4.944   2.659
   13CHTO   O81 5129   5.725   4.739   2.674
   13CHTO  H202 5130   5.703   4.730   2.583
   13CHTO  C119 5131   5.791   4.894   2.854
   13CHTO  H223 5132   5.812   5.000   2.866
   13CHTO  C117 5133   5.910   4.812   0.038
   13CHTO  H221 5134   5.901   4.703   0.033
   13CHTO   N20 5135   5.927   4.844   0.183
   13CHTO  H209 5136   5.837   4.821   0.237
   13CHTO  H210 5137   6.010   4.787   0.224
   13CHTO   O80 5138   5.645   4.878   0.054
   13CHTO  C103 5139   5.565   5.010   0.113
   13CHTO  H190 5140   5.492   4.976   0.186
   13CHTO  C101 5141   5.651   5.122   0.184
   13CHTO  H188 5142   5.727   5.159   0.115
   13CHTO   O68 5143   5.721   5.062   0.309
   13CHTO  H168 5144   5.783   4.996   0.282
   13CHTO   C99 5145   5.558   5.245   0.227
   13CHTO  H186 5146   5.490   5.210   0.309
   13CHTO   N17 5147   5.634   5.362   0.284
   13CHTO  H174 5148   5.699   5.329   0.363
   13CHTO  H175 5149   5.565   5.437   0.319
   13CHTO   C97 5150   5.465   5.290   0.111
   13CHTO  H184 5151   5.523   5.349   0.039
   13CHTO   O64 5152   5.399   5.178   0.049
   13CHTO  C104 5153   5.485   5.076   2.872
   13CHTO  H191 5154   5.555   5.115   2.798
   13CHTO  C108 5155   5.392   4.979   2.797
   13CHTO   O71 5156   5.460   4.880   2.720
   13CHTO  H171 5157   5.505   4.820   2.778
   13CHTO   O62 5158   5.356   5.369   0.165
   13CHTO   C91 5159   5.279   5.451   0.075
   13CHTO  H178 5160   5.295   5.416   2.851
   13CHTO   C92 5161   5.330   5.599   0.081
   13CHTO  H179 5162   5.333   5.631   0.186
   13CHTO   O66 5163   5.467   5.600   0.036
   13CHTO  H166 5164   5.504   5.686   0.048
   13CHTO   C93 5165   5.240   5.696   2.873
   13CHTO  H180 5166   5.256   5.670   2.767
   13CHTO   N16 5167   5.279   5.839   0.007
   13CHTO  H172 5168   5.381   5.852   2.851
   13CHTO  H173 5169   5.270   5.871   0.110
   13CHTO   C94 5170   5.088   5.676   0.030
   13CHTO  H181 5171   5.066   5.704   0.133
   13CHTO   O61 5172   5.054   5.537   0.015
   13CHTO   C95 5173   5.124   5.449   0.104
   13CHTO  H182 5174   5.107   5.481   0.207
   13CHTO  C106 5175   5.065   5.304   0.090
   13CHTO   O69 5176   4.928   5.300   0.132
   13CHTO  H169 5177   4.923   5.312   0.225
   13CHTO   O63 5178   4.993   5.763   2.804
   13CHTO   C96 5179   4.834   5.741   2.815
   13CHTO  H183 5180   4.787   5.827   2.767
   13CHTO   C98 5181   4.776   5.732   0.081
   13CHTO  H185 5182   4.827   5.653   0.138
   13CHTO   O67 5183   4.807   5.855   0.149
   13CHTO  H167 5184   4.762   5.927   0.109
   13CHTO  C102 5185   4.617   5.703   0.078
   13CHTO  H189 5186   4.572   5.788   0.025
   13CHTO   N18 5187   4.549   5.698   0.210
   13CHTO  H176 5188   4.560   5.794   0.260
   13CHTO  H177 5189   4.593   5.621   0.271
   13CHTO  C105 5190   4.596   5.575   2.871
   13CHTO  H192 5191   4.651   5.493   0.038
   13CHTO   O65 5192   4.648   5.595   2.738
   13CHTO  C100 5193   4.791   5.612   2.733
   13CHTO  H187 5194   4.837   5.523   2.776
   13CHTO  C107 5195   4.830   5.620   2.583
   13CHTO   O70 5196   4.972   5.614   2.564
   13CHTO  H170 5197   5.004   5.529   2.589
   13CHTO   O57 5198   4.433   5.532   2.863
   13CHTO   C85 5199   4.333   5.615   2.801
   13CHTO  H157 5200   4.379   5.714   2.781
   13CHTO   C83 5201   4.220   5.640   0.029
   13CHTO  H155 5202   4.264   5.691   0.115
   13CHTO   O56 5203   4.172   5.513   0.077
   13CHTO  H135 5204   4.239   5.468   0.125
   13CHTO   C81 5205   4.109   5.730   2.846
   13CHTO  H153 5206   4.156   5.824   2.814
   13CHTO   N14 5207   4.007   5.772   0.067
   13CHTO  H141 5208   3.938   5.840   0.022
   13CHTO  H142 5209   4.053   5.820   0.150
   13CHTO   C79 5210   4.048   5.661   2.719
   13CHTO  H151 5211   3.980   5.733   2.673
   13CHTO   O52 5212   4.153   5.634   2.620
   13CHTO   C86 5213   4.265   5.554   2.671
   13CHTO  H158 5214   4.220   5.454   2.692
   13CHTO   C90 5215   4.365   5.532   2.555
   13CHTO   O60 5216   4.460   5.429   2.585
   13CHTO  H138 5217   4.516   5.457   2.655
   13CHTO   O50 5218   3.975   5.540   2.747
   13CHTO   C73 5219   3.868   5.480   2.674
   13CHTO  H145 5220   3.885   5.490   2.566
   13CHTO   C74 5221   3.732   5.548   2.710
   13CHTO  H146 5222   3.743   5.656   2.688
   13CHTO   O54 5223   3.630   5.499   2.620
   13CHTO  H133 5224   3.648   5.526   2.532
   13CHTO   C75 5225   3.700   5.522   2.863
   13CHTO  H147 5226   3.780   5.567   0.045
   13CHTO   N13 5227   3.574   5.586   0.031
   13CHTO  H139 5228   3.580   5.693   0.017
   13CHTO  H140 5229   3.560   5.567   0.137
   13CHTO   C76 5230   3.701   5.364   0.011
   13CHTO  H148 5231   3.622   5.321   2.827
   13CHTO   O49 5232   3.829   5.308   2.848
   13CHTO   C77 5233   3.860   5.328   2.709
   13CHTO  H149 5234   3.785   5.280   2.646
   13CHTO   C88 5235   3.992   5.254   2.680
   13CHTO   O58 5236   4.024   5.256   2.536
   13CHTO  H136 5237   4.104   5.208   2.521
   13CHTO   O51 5238   3.676   5.325   0.174
   13CHTO   C78 5239   3.803   5.319   0.283
   13CHTO  H150 5240   3.762   5.299   0.384
   13CHTO   C80 5241   3.883   5.450   0.288
   13CHTO  H152 5242   3.924   5.471   0.186
   13CHTO   O55 5243   3.790   5.553   0.324
   13CHTO  H134 5244   3.831   5.637   0.321
   13CHTO   C84 5245   4.002   5.438   0.392
   13CHTO  H156 5246   3.958   5.417   0.489
   13CHTO   N15 5247   4.081   5.565   0.409
   13CHTO  H143 5248   4.042   5.643   0.346
   13CHTO  H144 5249   4.184   5.550   0.386
   13CHTO   C87 5250   4.090   5.317   0.351
   13CHTO  H159 5251   4.135   5.334   0.253
   13CHTO   O53 5252   4.001   5.192   0.348
   13CHTO   C82 5253   3.896   5.200   0.251
   13CHTO  H154 5254   3.939   5.208   0.152
   13CHTO   C89 5255   3.814   5.068   0.254
   13CHTO   O59 5256   3.895   4.955   0.218
   13CHTO  H137 5257   3.917   4.959   0.127
   13CHTO   O45 5258   4.207   5.283   0.460
   13CHTO   C67 5259   4.340   5.273   0.405
   13CHTO  H124 5260   4.336   5.252   0.298
   13CHTO   C65 5261   4.417   5.406   0.430
   13CHTO  H122 5262   4.354   5.485   0.390
   13CHTO   O44 5263   4.542   5.405   0.358
   13CHTO  H102 5264   4.583   5.489   0.365
   13CHTO   C63 5265   4.426   5.429   0.584
   13CHTO  H120 5266   4.326   5.419   0.627
   13CHTO   N11 5267   4.464   5.567   0.627
   13CHTO  H108 5268   4.399   5.639   0.580
   13CHTO  H109 5269   4.456   5.576   0.733
   13CHTO   C61 5270   4.512   5.313   0.648
   13CHTO  H118 5271   4.491   5.318   0.755
   13CHTO   O40 5272   4.472   5.179   0.605
   13CHTO   C68 5273   4.417   5.151   0.472
   13CHTO  H125 5274   4.342   5.070   0.486
   13CHTO   C72 5275   4.529   5.092   0.383
   13CHTO   O48 5276   4.483   5.047   0.255
   13CHTO  H105 5277   4.454   5.120   0.204
   13CHTO   O38 5278   4.654   5.330   0.624
   13CHTO   C55 5279   4.748   5.308   0.733
   13CHTO  H112 5280   4.730   5.208   0.774
   13CHTO   C56 5281   4.739   5.422   0.846
   13CHTO  H113 5282   4.731   5.518   0.792
   13CHTO   O42 5283   4.617   5.410   0.922
   13CHTO  H100 5284   4.613   5.326   0.964
   13CHTO   C57 5285   4.863   5.423   0.944
   13CHTO  H114 5286   4.851   5.337   1.010
   13CHTO   N10 5287   4.867   5.544   1.031
   13CHTO  H106 5288   4.916   5.520   1.125
   13CHTO  H107 5289   4.767   5.579   1.051
   13CHTO   C58 5290   4.995   5.407   0.866
   13CHTO  H115 5291   5.015   5.499   0.806
   13CHTO   O37 5292   4.988   5.293   0.779
   13CHTO   C59 5293   4.892   5.305   0.673
   13CHTO  H116 5294   4.912   5.396   0.616
   13CHTO   C70 5295   4.914   5.185   0.581
   13CHTO   O46 5296   4.847   5.198   0.455
   13CHTO  H103 5297   4.863   5.122   0.402
   13CHTO   O39 5298   5.119   5.375   0.967
   13CHTO   C60 5299   5.234   5.460   0.955
   13CHTO  H117 5300   5.241   5.499   0.853
   13CHTO   C62 5301   5.227   5.582   1.051
   13CHTO  H119 5302   5.143   5.645   1.014
   13CHTO   O43 5303   5.196   5.536   1.184
   13CHTO  H101 5304   5.185   5.609   1.242
   13CHTO   C66 5305   5.363   5.668   1.044
   13CHTO  H123 5306   5.377   5.701   0.941
   13CHTO   N12 5307   5.358   5.792   1.126
   13CHTO  H110 5308   5.278   5.856   1.091
   13CHTO  H111 5309   5.344   5.767   1.230
   13CHTO   C69 5310   5.482   5.577   1.081
   13CHTO  H126 5311   5.471   5.539   1.185
   13CHTO   O41 5312   5.487   5.459   0.984
   13CHTO   C64 5313   5.362   5.375   0.978
   13CHTO  H121 5314   5.351   5.319   1.074
   13CHTO   C71 5315   5.379   5.272   0.864
   13CHTO   O47 5316   5.487   5.181   0.891
   13CHTO  H104 5317   5.569   5.226   0.885
   13CHTO   O34 5318   5.617   5.651   1.070
   13CHTO   C49 5319   5.760   5.622   1.100
   13CHTO   H91 5320   5.781   5.523   1.058
   13CHTO   C47 5321   5.780   5.621   1.253
   13CHTO   H89 5322   5.888   5.593   1.267
   13CHTO   O33 5323   5.700   5.519   1.315
   13CHTO   H70 5324   5.609   5.538   1.305
   13CHTO   C45 5325   5.750   5.767   1.315
   13CHTO   H87 5326   5.642   5.775   1.334
   13CHTO    N8 5327   5.820   5.779   1.445
   13CHTO   H75 5328   5.791   5.871   1.494
   13CHTO   H76 5329   5.927   5.778   1.430
   13CHTO   C43 5330   5.782   5.883   1.206
   13CHTO   H85 5331   5.690   5.895   1.149
   13CHTO   O29 5332   5.891   5.840   1.122
   13CHTO   C50 5333   5.856   5.728   1.038
   13CHTO   H92 5334   5.808   5.768   0.947
   13CHTO   C54 5335   5.985   5.664   0.985
   13CHTO   O36 5336   6.057   5.753   0.899
   13CHTO   H72 5337   6.136   5.712   0.870
   13CHTO   O27 5338   5.809   6.013   1.261
   13CHTO   C37 5339   5.780   6.150   1.229
   13CHTO   H79 5340   5.679   6.159   1.187
   13CHTO   C38 5341   5.783   6.235   1.359
   13CHTO   H80 5342   5.880   6.216   1.410
   13CHTO   O31 5343   5.677   6.188   1.444
   13CHTO   H68 5344   5.696   6.101   1.476
   13CHTO   C39 5345   5.767   6.388   1.331
   13CHTO   H81 5346   5.664   6.404   1.300
   13CHTO    N7 5347   5.789   6.474   1.452
   13CHTO   H73 5348   5.874   6.540   1.440
   13CHTO   H74 5349   5.701   6.532   1.474
   13CHTO   C40 5350   5.857   6.437   1.211
   13CHTO   H82 5351   5.961   6.454   1.242
   13CHTO   O26 5352   5.850   6.347   1.098
   13CHTO   C41 5353   5.883   6.208   1.127
   13CHTO   H83 5354   5.984   6.203   1.170
   13CHTO   C52 5355   5.884   6.134   0.991
   13CHTO   O35 5356   5.751   6.133   0.924
   13CHTO   H71 5357   5.758   6.087   0.843
   13CHTO   O28 5358   5.802   6.558   1.156
   13CHTO   C42 5359   5.876   6.653   1.075
   13CHTO   H84 5360   5.966   6.600   1.043
   13CHTO   C44 5361   5.926   6.780   1.153
   13CHTO   H86 5362   5.842   6.819   1.212
   13CHTO   O32 5363   6.026   6.737   1.247
   13CHTO   H69 5364   6.102   6.705   1.201
   13CHTO   C48 5365   5.976   6.896   1.058
   13CHTO   H90 5366   6.069   6.865   1.011
   13CHTO    N9 5367   6.009   7.022   1.134
   13CHTO   H77 5368   6.087   7.001   1.207
   13CHTO   H78 5369   6.042   7.099   1.066
   13CHTO   C51 5370   5.868   6.919   0.947
   13CHTO   H93 5371   5.773   6.941   0.996
   13CHTO   O30 5372   5.862   6.798   0.871
   13CHTO   C46 5373   5.795   6.689   0.946
   13CHTO   H88 5374   5.696   6.724   0.976
   13CHTO   C53 5375   5.778   6.568   0.851
   13CHTO   O72 5376   5.903   6.522   0.798
   13CHTO  H199 5377   5.888   6.448   0.742
   13CHTO   O22 5378   5.900   7.023   0.851
   13CHTO   C31 5379   5.795   7.082   0.764
   13CHTO   H59 5380   5.847   7.154   0.698
   13CHTO   C29 5381   5.722   6.981   0.672
   13CHTO   H57 5382   5.675   6.905   0.737
   13CHTO   O21 5383   5.823   6.912   0.595
   13CHTO   H37 5384   5.784   6.840   0.549
   13CHTO   C27 5385   5.611   7.048   0.582
   13CHTO   H55 5386   5.661   7.116   0.511
   13CHTO    N5 5387   5.533   6.947   0.505
   13CHTO   H43 5388   5.428   6.954   0.527
   13CHTO   H44 5389   5.550   6.960   0.399
   13CHTO   C25 5390   5.519   7.138   0.672
   13CHTO   H53 5391   5.461   7.074   0.740
   13CHTO   O17 5392   5.598   7.231   0.752
   13CHTO   C32 5393   5.689   7.166   0.843
   13CHTO   H60 5394   5.633   7.100   0.909
   13CHTO   C36 5395   5.758   7.276   0.928
   13CHTO   O25 5396   5.663   7.347   1.010
   13CHTO   H40 5397   5.632   7.290   1.078
   13CHTO   O15 5398   5.420   7.222   0.584
   13CHTO   C19 5399   5.296   7.287   0.623
   13CHTO   H47 5400   5.282   7.258   0.728
   13CHTO   C20 5401   5.299   7.442   0.613
   13CHTO   H48 5402   5.323   7.476   0.511
   13CHTO   O19 5403   5.405   7.488   0.699
   13CHTO   H35 5404   5.386   7.468   0.789
   13CHTO   C21 5405   5.161   7.508   0.654
   13CHTO   H49 5406   5.150   7.499   0.763
   13CHTO    N4 5407   5.155   7.654   0.625
   13CHTO   H41 5408   5.166   7.671   0.519
   13CHTO   H42 5409   5.061   7.695   0.658
   13CHTO   C22 5410   5.040   7.432   0.591
   13CHTO   H50 5411   5.029   7.461   0.486
   13CHTO   O14 5412   5.053   7.290   0.603
   13CHTO   C23 5413   5.172   7.233   0.546
   13CHTO   H51 5414   5.174   7.261   0.440
   13CHTO   C34 5415   5.159   7.080   0.552
   13CHTO   O23 5416   5.138   7.031   0.685
   13CHTO   H38 5417   5.215   7.046   0.737
   13CHTO   O16 5418   4.920   7.460   0.666
   13CHTO   C24 5419   4.780   7.447   0.590
   13CHTO   H52 5420   4.793   7.419   0.485
   13CHTO   C26 5421   4.710   7.584   0.600
   13CHTO   H54 5422   4.712   7.617   0.707
   13CHTO   O20 5423   4.786   7.680   0.524
   13CHTO   H36 5424   4.784   7.659   0.433
   13CHTO   C30 5425   4.560   7.578   0.555
   13CHTO   H58 5426   4.554   7.560   0.447
   13CHTO    N6 5427   4.491   7.708   0.580
   13CHTO   H45 5428   4.450   7.747   0.489
   13CHTO   H46 5429   4.411   7.697   0.652
   13CHTO   C33 5430   4.488   7.457   0.623
   13CHTO   H61 5431   4.485   7.474   0.732
   13CHTO   O18 5432   4.564   7.337   0.598
   13CHTO   C28 5433   4.694   7.336   0.657
   13CHTO   H56 5434   4.687   7.356   0.764
   13CHTO   C35 5435   4.753   7.194   0.639
   13CHTO   O24 5436   4.768   7.156   0.501
   13CHTO   H39 5437   4.805   7.070   0.496
   13CHTO    O9 5438   4.351   7.443   0.582
   13CHTO   C13 5439   4.273   7.331   0.669
   13CHTO   H26 5440   4.340   7.296   0.750
   13CHTO   C11 5441   4.229   7.212   0.575
   13CHTO   H24 5442   4.320   7.168   0.530
   13CHTO    O8 5443   4.147   7.263   0.467
   13CHTO    H3 5444   4.198   7.320   0.412
   13CHTO    C9 5445   4.159   7.104   0.663
   13CHTO   H22 5446   4.237   7.069   0.732
   13CHTO    N2 5447   4.122   6.982   0.588
   13CHTO   H10 5448   4.043   7.004   0.518
   13CHTO   H11 5449   4.208   6.943   0.536
   13CHTO    C7 5450   4.044   7.170   0.752
   13CHTO   H20 5451   4.083   7.158   0.855
   13CHTO    O4 5452   4.027   7.311   0.725
   13CHTO   C14 5453   4.145   7.391   0.744
   13CHTO   H27 5454   4.166   7.392   0.852
   13CHTO   C18 5455   4.112   7.536   0.702
   13CHTO   O13 5456   4.019   7.596   0.793
   13CHTO    H7 5457   3.935   7.556   0.784
   13CHTO    O2 5458   3.893   7.097   0.743
   13CHTO    C1 5459   3.832   7.077   0.871
   13CHTO   H14 5460   3.900   7.112   0.952
   13CHTO    C2 5461   3.793   6.927   0.900
   13CHTO   H15 5462   3.722   6.898   0.821
   13CHTO    O6 5463   3.911   6.844   0.890
   13CHTO    H1 5464   3.943   6.843   0.802
   13CHTO    C3 5465   3.724   6.915   1.044
   13CHTO   H16 5466   3.799   6.939   1.121
   13CHTO    N1 5467   3.675   6.776   1.074
   13CHTO    H8 5468   3.632   6.772   1.173
   13CHTO    H9 5469   3.600   6.747   1.001
   13CHTO    C4 5470   3.610   7.023   1.060
   13CHTO   H17 5471   3.523   6.992   1.002
   13CHTO    O1 5472   3.653   7.154   1.019
   13CHTO    C5 5473   3.703   7.162   0.884
   13CHTO   H18 5474   3.629   7.121   0.815
   13CHTO   C16 5475   3.724   7.312   0.851
   13CHTO   O11 5476   3.601   7.384   0.852
   13CHTO    H5 5477   3.568   7.390   0.939
   13CHTO    O3 5478   3.574   7.039   1.199
   13CHTO    C6 5479   3.449   7.110   1.224
   13CHTO   H19 5480   3.411   7.162   1.136
   13CHTO    C8 5481   3.340   7.008   1.272
   13CHTO   H21 5482   3.384   6.946   1.351
   13CHTO    O7 5483   3.309   6.923   1.159
   13CHTO    H2 5484   3.269   6.973   1.090
   13CHTO   C12 5485   3.211   7.080   1.328
   13CHTO   H25 5486   3.159   7.123   1.239
   13CHTO    N3 5487   3.118   6.981   1.391
   13CHTO   H12 5488   3.102   7.002   1.495
   13CHTO   H13 5489   3.023   6.980   1.338
   13CHTO   C15 5490   3.251   7.198   1.424
   13CHTO   H28 5491   3.290   7.161   1.519
   13CHTO   O10 5492   3.132   7.295   1.453
   13CHTO    H4 5493   3.094   7.324   1.372
   13CHTO    O5 5494   3.347   7.285   1.361
   13CHTO   C10 5495   3.471   7.219   1.334
   13CHTO   H23 5496   3.508   7.172   1.425
   13CHTO   C17 5497   3.572   7.327   1.294
   13CHTO   O12 5498   3.706   7.277   1.291
   13CHTO    H6 5499   3.717   7.217   1.219
   14CHTO  H203 5500   5.722   4.326   0.476
   14CHTO   O82 5501   5.780   4.400   0.469
   14CHTO  C123 5502   5.708   4.516   0.423
   14CHTO  H227 5503   5.778   4.601   0.418
   14CHTO   O77 5504   5.665   4.480   0.288
   14CHTO  C118 5505   5.596   4.584   0.217
   14CHTO  H222 5506   5.660   4.673   0.210
   14CHTO  C125 5507   5.567   4.532   0.071
   14CHTO   O84 5508   5.688   4.505   0.000
   14CHTO  H205 5509   5.668   4.473   2.792
   14CHTO  C114 5510   5.466   4.618   0.291
   14CHTO  H218 5511   5.403   4.529   0.294
   14CHTO  C116 5512   5.495   4.660   0.439
   14CHTO  H220 5513   5.549   4.758   0.439
   14CHTO   O79 5514   5.370   4.682   0.506
   14CHTO  H201 5515   5.326   4.757   0.471
   14CHTO  C120 5516   5.582   4.550   0.512
   14CHTO  H224 5517   5.518   4.460   0.522
   14CHTO   N21 5518   5.621   4.592   0.650
   14CHTO  H211 5519   5.634   4.699   0.655
   14CHTO  H212 5520   5.711   4.541   0.681
   14CHTO   O75 5521   5.403   4.722   0.214
   14CHTO  C112 5522   5.239   4.709   0.212
   14CHTO  H216 5523   5.206   4.658   0.304
   14CHTO   O73 5524   5.205   4.633   0.095
   14CHTO  C113 5525   5.065   4.606   0.082
   14CHTO  H217 5526   5.030   4.553   0.174
   14CHTO  C124 5527   5.043   4.510   2.842
   14CHTO   O83 5528   5.088   4.562   2.717
   14CHTO  H204 5529   5.073   4.499   2.649
   14CHTO  C109 5530   4.985   4.739   0.066
   14CHTO  H213 5531   5.018   4.784   2.850
   14CHTO  C110 5532   5.017   4.834   0.186
   14CHTO  H214 5533   4.972   4.792   0.276
   14CHTO   O78 5534   4.952   4.961   0.161
   14CHTO  H200 5535   4.963   5.018   0.234
   14CHTO  C111 5536   5.170   4.851   0.205
   14CHTO  H215 5537   5.211   4.903   0.117
   14CHTO   N19 5538   5.207   4.933   0.323
   14CHTO  H207 5539   5.314   4.944   0.329
   14CHTO  H208 5540   5.170   4.886   0.414
   14CHTO   O74 5541   4.842   4.710   0.058
   14CHTO  C115 5542   4.748   4.814   2.845
   14CHTO  H219 5543   4.699   4.889   0.029
   14CHTO   O76 5544   4.836   4.898   2.741
   14CHTO  C122 5545   4.763   4.982   2.651
   14CHTO  H226 5546   4.835   5.020   2.578
   14CHTO  C126 5547   4.710   5.109   2.728
   14CHTO   O85 5548   4.650   5.205   2.641
   14CHTO  H206 5549   4.715   5.242   2.585
   14CHTO  C121 5550   4.650   4.903   2.574
   14CHTO  H225 5551   4.589   4.977   2.519
   14CHTO   O81 5552   4.709   4.816   2.477
   14CHTO  H202 5553   4.760   4.749   2.519
   14CHTO  C119 5554   4.556   4.824   2.672
   14CHTO  H223 5555   4.505   4.899   2.731
   14CHTO  C117 5556   4.638   4.731   2.770
   14CHTO  H221 5557   4.691   4.648   2.724
   14CHTO   N20 5558   4.546   4.667   2.871
   14CHTO  H209 5559   4.472   4.607   2.820
   14CHTO  H210 5560   4.498   4.743   0.053
   14CHTO   O80 5561   4.431   4.750   2.597
   14CHTO  C103 5562   4.344   4.828   2.494
   14CHTO  H190 5563   4.378   4.931   2.483
   14CHTO  C101 5564   4.337   4.761   2.351
   14CHTO  H188 5565   4.313   4.655   2.363
   14CHTO   O68 5566   4.477   4.771   2.283
   14CHTO  H168 5567   4.540   4.724   2.334
   14CHTO   C99 5568   4.222   4.828   2.260
   14CHTO  H186 5569   4.248   4.934   2.242
   14CHTO   N17 5570   4.205   4.763   2.126
   14CHTO  H174 5571   4.132   4.817   2.068
   14CHTO  H175 5572   4.175   4.660   2.138
   14CHTO   C97 5573   4.089   4.831   2.341
   14CHTO  H184 5574   4.055   4.727   2.357
   14CHTO   O64 5575   4.109   4.901   2.465
   14CHTO  C104 5576   4.198   4.834   2.556
   14CHTO  H191 5577   4.164   4.733   2.579
   14CHTO  C108 5578   4.192   4.913   2.688
   14CHTO   O71 5579   4.248   4.841   2.798
   14CHTO  H171 5580   4.341   4.834   2.787
   14CHTO   O62 5581   3.986   4.908   2.274
   14CHTO   C91 5582   3.848   4.872   2.297
   14CHTO  H178 5583   3.844   4.770   2.336
   14CHTO   C92 5584   3.780   4.869   2.155
   14CHTO  H179 5585   3.826   4.947   2.093
   14CHTO   O66 5586   3.818   4.745   2.091
   14CHTO  H166 5587   3.785   4.672   2.139
   14CHTO   C93 5588   3.623   4.887   2.157
   14CHTO  H180 5589   3.579   4.798   2.204
   14CHTO   N16 5590   3.561   4.898   2.023
   14CHTO  H172 5591   3.605   4.981   1.968
   14CHTO  H173 5592   3.575   4.806   1.969
   14CHTO   C94 5593   3.593   5.011   2.248
   14CHTO  H181 5594   3.653   5.097   2.220
   14CHTO   O61 5595   3.631   4.973   2.381
   14CHTO   C95 5596   3.773   4.966   2.401
   14CHTO  H182 5597   3.814   5.067   2.395
   14CHTO  C106 5598   3.795   4.918   2.549
   14CHTO   O69 5599   3.739   5.009   2.644
   14CHTO  H169 5600   3.646   5.009   2.638
   14CHTO   O63 5601   3.439   5.057   2.253
   14CHTO   C96 5602   3.426   5.190   2.345
   14CHTO  H183 5603   3.526   5.219   2.378
   14CHTO   C98 5604   3.339   5.171   2.472
   14CHTO  H185 5605   3.239   5.134   2.443
   14CHTO   O67 5606   3.399   5.066   2.549
   14CHTO  H167 5607   3.344   5.045   2.623
   14CHTO  C102 5608   3.328   5.307   2.557
   14CHTO  H189 5609   3.428   5.324   2.599
   14CHTO   N18 5610   3.237   5.299   2.674
   14CHTO  H176 5611   3.269   5.220   2.740
   14CHTO  H177 5612   3.236   5.393   2.727
   14CHTO  C105 5613   3.293   5.426   2.463
   14CHTO  H192 5614   3.188   5.421   2.435
   14CHTO   O65 5615   3.371   5.430   2.342
   14CHTO  C100 5616   3.367   5.310   2.263
   14CHTO  H187 5617   3.263   5.288   2.236
   14CHTO  C107 5618   3.446   5.333   2.131
   14CHTO   O70 5619   3.385   5.434   2.050
   14CHTO  H170 5620   3.305   5.401   2.014
   14CHTO   O57 5621   3.323   5.564   2.552
   14CHTO   C85 5622   3.245   5.682   2.524
   14CHTO  H157 5623   3.146   5.647   2.490
   14CHTO   C83 5624   3.307   5.759   2.403
   14CHTO  H155 5625   3.305   5.693   2.316
   14CHTO   O56 5626   3.446   5.786   2.430
   14CHTO  H135 5627   3.487   5.824   2.354
   14CHTO   C81 5628   3.221   5.885   2.373
   14CHTO  H153 5629   3.119   5.852   2.353
   14CHTO   N14 5630   3.262   5.955   2.249
   14CHTO  H141 5631   3.194   6.035   2.228
   14CHTO  H142 5632   3.261   5.886   2.166
   14CHTO   C79 5633   3.217   5.980   2.499
   14CHTO  H151 5634   3.146   6.060   2.477
   14CHTO   O52 5635   3.164   5.908   2.615
   14CHTO   C86 5636   3.233   5.783   2.647
   14CHTO  H158 5637   3.333   5.815   2.683
   14CHTO   C90 5638   3.162   5.720   2.769
   14CHTO   O60 5639   3.235   5.610   2.825
   14CHTO  H138 5640   3.316   5.641   2.861
   14CHTO   O50 5641   3.344   6.040   2.532
   14CHTO   C73 5642   3.373   6.149   2.620
   14CHTO  H145 5643   3.309   6.143   2.710
   14CHTO   C74 5644   3.347   6.286   2.551
   14CHTO  H146 5645   3.242   6.288   2.519
   14CHTO   O54 5646   3.361   6.390   2.650
   14CHTO  H133 5647   3.339   6.473   2.613
   14CHTO   C75 5648   3.446   6.302   2.428
   14CHTO  H147 5649   3.419   6.226   2.353
   14CHTO   N13 5650   3.433   6.432   2.357
   14CHTO  H139 5651   3.456   6.513   2.424
   14CHTO  H140 5652   3.501   6.436   2.273
   14CHTO   C76 5653   3.598   6.273   2.472
   14CHTO  H148 5654   3.633   6.357   2.531
   14CHTO   O49 5655   3.609   6.150   2.550
   14CHTO   C77 5656   3.522   6.142   2.664
   14CHTO  H149 5657   3.543   6.224   2.733
   14CHTO   C88 5658   3.552   6.013   2.743
   14CHTO   O58 5659   3.690   6.014   2.799
   14CHTO  H136 5660   3.752   6.013   2.729
   14CHTO   O51 5661   3.690   6.245   2.339
   14CHTO   C78 5662   3.848   6.260   2.366
   14CHTO  H150 5663   3.869   6.284   2.473
   14CHTO   C80 5664   3.906   6.371   2.277
   14CHTO  H152 5665   3.884   6.347   2.170
   14CHTO   O55 5666   3.838   6.494   2.308
   14CHTO  H134 5667   3.857   6.521   2.396
   14CHTO   C84 5668   4.063   6.383   2.295
   14CHTO  H156 5669   4.083   6.412   2.399
   14CHTO   N15 5670   4.125   6.489   2.208
   14CHTO  H143 5671   4.082   6.584   2.230
   14CHTO  H144 5672   4.231   6.494   2.225
   14CHTO   C87 5673   4.128   6.244   2.270
   14CHTO  H159 5674   4.116   6.217   2.165
   14CHTO   O53 5675   4.059   6.139   2.361
   14CHTO   C82 5676   3.919   6.127   2.334
   14CHTO  H154 5677   3.904   6.101   2.229
   14CHTO   C89 5678   3.864   6.008   2.417
   14CHTO   O59 5679   3.887   6.022   2.557
   14CHTO  H137 5680   3.835   6.093   2.591
   14CHTO   O45 5681   4.287   6.243   2.307
   14CHTO   C67 5682   4.351   6.122   2.262
   14CHTO  H124 5683   4.277   6.046   2.236
   14CHTO   C65 5684   4.439   6.153   2.136
   14CHTO  H122 5685   4.378   6.219   2.073
   14CHTO   O44 5686   4.467   6.031   2.066
   14CHTO  H102 5687   4.387   5.994   2.032
   14CHTO   C63 5688   4.565   6.238   2.177
   14CHTO  H120 5689   4.531   6.328   2.227
   14CHTO   N11 5690   4.646   6.293   2.063
   14CHTO  H108 5691   4.690   6.212   2.008
   14CHTO  H109 5692   4.583   6.350   1.998
   14CHTO   C61 5693   4.648   6.155   2.282
   14CHTO  H118 5694   4.732   6.219   2.315
   14CHTO   O40 5695   4.567   6.127   2.400
   14CHTO   C68 5696   4.437   6.061   2.381
   14CHTO  H125 5697   4.379   6.081   2.473
   14CHTO   C72 5698   4.452   5.907   2.371
   14CHTO   O48 5699   4.512   5.851   2.488
   14CHTO  H105 5700   4.521   5.759   2.478
   14CHTO   O38 5701   4.696   6.028   2.233
   14CHTO   C55 5702   4.835   6.008   2.199
   14CHTO  H112 5703   4.885   6.104   2.183
   14CHTO   C56 5704   4.839   5.917   2.069
   14CHTO  H113 5705   4.773   5.831   2.088
   14CHTO   O42 5706   4.781   5.987   1.958
   14CHTO  H100 5707   4.831   6.064   1.938
   14CHTO   C57 5708   4.986   5.866   2.036
   14CHTO  H114 5709   5.041   5.953   2.002
   14CHTO   N10 5710   4.991   5.764   1.929
   14CHTO  H106 5711   5.086   5.771   1.876
   14CHTO  H107 5712   4.911   5.779   1.858
   14CHTO   C58 5713   5.054   5.813   2.165
   14CHTO  H115 5714   5.006   5.716   2.195
   14CHTO   O37 5715   5.045   5.907   2.273
   14CHTO   C59 5716   4.911   5.936   2.315
   14CHTO  H116 5717   4.860   5.843   2.342
   14CHTO   C70 5718   4.919   6.021   2.442
   14CHTO   O46 5719   4.991   6.144   2.426
   14CHTO  H103 5720   5.082   6.126   2.409
   14CHTO   O39 5721   5.210   5.793   2.140
   14CHTO   C60 5722   5.276   5.710   2.238
   14CHTO  H117 5723   5.214   5.701   2.327
   14CHTO   C62 5724   5.300   5.566   2.181
   14CHTO  H119 5725   5.199   5.520   2.170
   14CHTO   O43 5726   5.360   5.577   2.051
   14CHTO  H101 5727   5.369   5.491   2.012
   14CHTO   C66 5728   5.387   5.479   2.285
   14CHTO  H123 5729   5.331   5.470   2.378
   14CHTO   N12 5730   5.411   5.341   2.238
   14CHTO  H110 5731   5.317   5.290   2.224
   14CHTO  H111 5732   5.473   5.288   2.309
   14CHTO   C69 5733   5.519   5.556   2.317
   14CHTO  H126 5734   5.577   5.570   2.223
   14CHTO   O41 5735   5.481   5.692   2.376
   14CHTO   C64 5736   5.409   5.778   2.282
   14CHTO  H121 5737   5.472   5.795   2.193
   14CHTO   C71 5738   5.386   5.913   2.353
   14CHTO   O47 5739   5.340   6.015   2.263
   14CHTO  H104 5740   5.327   6.095   2.310
   14CHTO   O34 5741   5.608   5.482   2.421
   14CHTO   C49 5742   5.755   5.438   2.416
   14CHTO   H91 5743   5.757   5.341   2.366
   14CHTO   C47 5744   5.806   5.424   2.561
   14CHTO   H89 5745   5.907   5.375   2.550
   14CHTO   O33 5746   5.722   5.335   2.636
   14CHTO   H70 5747   5.761   5.315   2.719
   14CHTO   C45 5748   5.818   5.567   2.636
   14CHTO   H87 5749   5.725   5.583   2.694
   14CHTO    N8 5750   5.932   5.565   2.730
   14CHTO   H75 5751   5.897   5.567   2.832
   14CHTO   H76 5752   5.995   5.478   2.715
   14CHTO   C43 5753   5.818   5.688   2.528
   14CHTO   H85 5754   5.714   5.702   2.500
   14CHTO   O29 5755   5.899   5.652   2.415
   14CHTO   C50 5756   5.849   5.538   2.341
   14CHTO   H92 5757   5.794   5.577   2.253
   14CHTO   C54 5758   5.970   5.464   2.276
   14CHTO   O36 5759   6.038   5.546   2.181
   14CHTO   H72 5760   6.084   5.615   2.225
   14CHTO   O27 5761   5.857   5.814   2.584
   14CHTO   C37 5762   5.808   5.948   2.600
   14CHTO   H79 5763   5.884   6.010   2.649
   14CHTO   C38 5764   5.774   6.014   2.463
   14CHTO   H80 5765   5.700   5.950   2.412
   14CHTO   O31 5766   5.894   6.016   2.385
   14CHTO   H68 5767   5.876   6.048   2.299
   14CHTO   C39 5768   5.714   6.158   2.485
   14CHTO   H81 5769   5.793   6.220   2.528
   14CHTO    N7 5770   5.672   6.224   2.356
   14CHTO   H73 5771   5.595   6.166   2.308
   14CHTO   H74 5772   5.637   6.325   2.375
   14CHTO   C40 5773   5.596   6.154   2.589
   14CHTO   H82 5774   5.508   6.107   2.544
   14CHTO   O26 5775   5.637   6.087   2.709
   14CHTO   C41 5776   5.679   5.949   2.688
   14CHTO   H83 5777   5.599   5.894   2.636
   14CHTO   C52 5778   5.699   5.881   2.826
   14CHTO   O35 5779   5.802   5.944   0.030
   14CHTO   H71 5780   5.886   5.930   2.869
   14CHTO   O28 5781   5.559   6.287   2.634
   14CHTO   C42 5782   5.426   6.316   2.690
   14CHTO   H84 5783   5.434   6.420   2.720
   14CHTO   C44 5784   5.386   6.237   2.819
   14CHTO   H86 5785   5.382   6.130   2.795
   14CHTO   O32 5786   5.490   6.259   0.038
   14CHTO   H69 5787   5.476   6.205   0.114
   14CHTO   C48 5788   5.244   6.281   2.874
   14CHTO   H90 5789   5.253   6.383   0.031
   14CHTO    N9 5790   5.201   6.200   0.115
   14CHTO   H77 5791   5.271   6.214   0.196
   14CHTO   H78 5792   5.193   6.096   0.089
   14CHTO   C51 5793   5.137   6.277   2.758
   14CHTO   H93 5794   5.121   6.172   2.730
   14CHTO   O30 5795   5.183   6.356   2.647
   14CHTO   C46 5796   5.311   6.306   2.586
   14CHTO   H88 5797   5.298   6.202   2.556
   14CHTO   C53 5798   5.340   6.393   2.461
   14CHTO   O72 5799   5.244   6.367   2.359
   14CHTO  H199 5800   5.257   6.281   2.323
   14CHTO   O22 5801   5.013   6.340   2.796
   14CHTO   C31 5802   4.884   6.287   2.750
   14CHTO   H59 5803   4.907   6.209   2.674
   14CHTO   C29 5804   4.803   6.218   2.862
   14CHTO   H57 5805   4.788   6.293   0.064
   14CHTO   O21 5806   4.884   6.113   0.039
   14CHTO   H37 5807   4.844   6.078   0.116
   14CHTO   C27 5808   4.661   6.166   2.813
   14CHTO   H55 5809   4.677   6.085   2.741
   14CHTO    N5 5810   4.577   6.114   0.047
   14CHTO   H43 5811   4.625   6.130   0.143
   14CHTO   H44 5812   4.479   6.159   0.047
   14CHTO   C25 5813   4.589   6.281   2.734
   14CHTO   H53 5814   4.565   6.364   2.804
   14CHTO   O17 5815   4.675   6.332   2.629
   14CHTO   C32 5816   4.796   6.393   2.676
   14CHTO   H60 5817   4.773   6.474   2.746
   14CHTO   C36 5818   4.871   6.453   2.554
   14CHTO   O25 5819   4.794   6.555   2.489
   14CHTO   H40 5820   4.719   6.517   2.448
   14CHTO   O15 5821   4.456   6.232   2.666
   14CHTO   C19 5822   4.313   6.263   2.675
   14CHTO   H47 5823   4.274   6.236   2.576
   14CHTO   C20 5824   4.236   6.180   2.783
   14CHTO   H48 5825   4.281   6.192   0.005
   14CHTO   O19 5826   4.251   6.042   2.744
   14CHTO   H35 5827   4.213   5.986   2.809
   14CHTO   C21 5828   4.083   6.220   2.792
   14CHTO   H49 5829   4.034   6.190   2.700
   14CHTO    N4 5830   4.012   6.152   0.026
   14CHTO   H41 5831   4.017   6.045   0.013
   14CHTO   H42 5832   3.908   6.183   0.027
   14CHTO   C22 5833   4.072   6.375   2.801
   14CHTO   H50 5834   4.118   6.407   0.017
   14CHTO   O14 5835   4.142   6.433   2.690
   14CHTO   C23 5836   4.284   6.414   2.694
   14CHTO   H51 5837   4.321   6.451   2.790
   14CHTO   C34 5838   4.347   6.498   2.582
   14CHTO   O23 5839   4.323   6.638   2.604
   14CHTO   H38 5840   4.374   6.667   2.677
   14CHTO   O16 5841   3.936   6.421   2.793
   14CHTO   C24 5842   3.907   6.588   2.783
   14CHTO   H52 5843   3.811   6.615   2.829
   14CHTO   C26 5844   3.897   6.622   2.632
   14CHTO   H54 5845   3.981   6.571   2.579
   14CHTO   O20 5846   3.774   6.567   2.582
   14CHTO   H36 5847   3.779   6.473   2.581
   14CHTO   C30 5848   3.907   6.775   2.602
   14CHTO   H58 5849   3.814   6.825   2.631
   14CHTO    N6 5850   3.924   6.799   2.455
   14CHTO   H45 5851   3.844   6.861   2.418
   14CHTO   H46 5852   4.018   6.846   2.433
   14CHTO   C33 5853   4.020   6.840   2.687
   14CHTO   H61 5854   4.118   6.798   2.656
   14CHTO   O18 5855   3.998   6.809   2.825
   14CHTO   C28 5856   4.016   6.671   2.856
   14CHTO   H56 5857   4.115   6.637   2.824
   14CHTO   C35 5858   4.005   6.652   0.132
   14CHTO   O24 5859   4.110   6.719   0.203
   14CHTO   H39 5860   4.102   6.812   0.192
   14CHTO    O9 5861   4.031   6.982   2.666
   14CHTO   C13 5862   4.181   7.039   2.677
   14CHTO   H26 5863   4.247   6.976   2.613
   14CHTO   C11 5864   4.227   7.036   2.829
   14CHTO   H24 5865   4.230   6.931   2.862
   14CHTO    O8 5866   4.130   7.106   0.032
   14CHTO    H3 5867   4.048   7.060   0.031
   14CHTO    C9 5868   4.371   7.094   2.837
   14CHTO   H22 5869   4.433   7.026   2.777
   14CHTO    N2 5870   4.430   7.083   0.095
   14CHTO   H10 5871   4.377   7.148   0.163
   14CHTO   H11 5872   4.425   6.980   0.129
   14CHTO    C7 5873   4.377   7.238   2.768
   14CHTO   H20 5874   4.452   7.223   2.687
   14CHTO    O4 5875   4.252   7.279   2.711
   14CHTO   C14 5876   4.192   7.187   2.617
   14CHTO   H27 5877   4.254   7.185   2.526
   14CHTO   C18 5878   4.056   7.250   2.578
   14CHTO   O13 5879   3.996   7.184   2.467
   14CHTO    H7 5880   3.915   7.226   2.446
   14CHTO    O2 5881   4.428   7.358   2.866
   14CHTO    C1 5882   4.525   7.445   2.806
   14CHTO   H14 5883   4.531   7.428   2.696
   14CHTO    C2 5884   4.670   7.424   2.867
   14CHTO   H15 5885   4.658   7.428   0.098
   14CHTO    O6 5886   4.718   7.294   2.829
   14CHTO    H1 5887   4.667   7.227   2.871
   14CHTO    C3 5888   4.771   7.539   2.819
   14CHTO   H16 5889   4.791   7.525   2.712
   14CHTO    N1 5890   4.902   7.534   0.013
   14CHTO    H8 5891   4.887   7.544   0.119
   14CHTO    H9 5892   4.952   7.440   2.870
   14CHTO    C4 5893   4.703   7.681   2.830
   14CHTO   H17 5894   4.692   7.706   0.058
   14CHTO    O1 5895   4.575   7.683   2.766
   14CHTO    C5 5896   4.480   7.593   2.824
   14CHTO   H18 5897   4.473   7.612   0.053
   14CHTO   C16 5898   4.341   7.621   2.760
   14CHTO   O11 5899   4.342   7.600   2.618
   14CHTO    H5 5900   4.257   7.616   2.584
   14CHTO    O3 5901   4.781   7.782   2.762
   14CHTO    C6 5902   4.755   7.919   2.809
   14CHTO   H19 5903   4.662   7.928   2.864
   14CHTO    C8 5904   4.871   7.966   0.025
   14CHTO   H21 5905   4.966   7.954   2.849
   14CHTO    O7 5906   4.869   7.880   0.140
   14CHTO    H2 5907   4.943   7.898   0.195
   14CHTO   C12 5908   4.851   8.118   0.063
   14CHTO   H25 5909   4.758   8.123   0.124
   14CHTO    N3 5910   4.962   8.169   0.151
   14CHTO   H12 5911   4.966   8.112   0.243
   14CHTO   H13 5912   5.057   8.161   0.099
   14CHTO   C15 5913   4.831   8.203   2.811
   14CHTO   H28 5914   4.923   8.209   2.752
   14CHTO   O10 5915   4.781   8.344   2.839
   14CHTO    H4 5916   4.845   8.391   0.011
   14CHTO    O5 5917   4.724   8.149   2.731
   14CHTO   C10 5918   4.745   8.014   2.686
   14CHTO   H23 5919   4.836   8.011   2.626
   14CHTO   C17 5920   4.627   7.981   2.594
   14CHTO   O12 5921   4.647   7.858   2.522
   14CHTO    H6 5922   4.574   7.842   2.467
   15CHTO  H203 5923   5.321   5.041   2.508
   15CHTO   O82 5924   5.283   5.087   2.436
   15CHTO  C123 5925   5.261   4.999   2.324
   15CHTO  H227 5926   5.211   5.056   2.244
   15CHTO   O77 5927   5.396   4.962   2.282
   15CHTO  C118 5928   5.399   4.881   2.163
   15CHTO  H222 5929   5.347   4.933   2.081
   15CHTO  C125 5930   5.550   4.862   2.123
   15CHTO   O84 5931   5.611   4.987   2.087
   15CHTO  H205 5932   5.575   5.018   2.006
   15CHTO  C114 5933   5.332   4.746   2.191
   15CHTO  H218 5934   5.388   4.694   2.269
   15CHTO  C116 5935   5.186   4.765   2.244
   15CHTO  H220 5936   5.122   4.799   2.159
   15CHTO   O79 5937   5.135   4.637   2.284
   15CHTO  H201 5938   5.044   4.644   2.307
   15CHTO  C120 5939   5.180   4.870   2.362
   15CHTO  H224 5940   5.227   4.821   2.450
   15CHTO   N21 5941   5.039   4.901   2.400
   15CHTO  H211 5942   4.974   4.895   2.315
   15CHTO  H212 5943   5.033   4.998   2.447
   15CHTO   O75 5944   5.338   4.673   2.067
   15CHTO  C112 5945   5.366   4.513   2.087
   15CHTO  H216 5946   5.341   4.484   2.190
   15CHTO   O73 5947   5.505   4.491   2.058
   15CHTO  C113 5948   5.549   4.356   2.084
   15CHTO  H217 5949   5.532   4.333   2.191
   15CHTO  C124 5950   5.700   4.347   2.057
   15CHTO   O83 5951   5.776   4.436   2.138
   15CHTO  H204 5952   5.867   4.428   2.116
   15CHTO  C109 5953   5.472   4.255   1.995
   15CHTO  H213 5954   5.505   4.272   1.891
   15CHTO  C110 5955   5.317   4.276   2.005
   15CHTO  H214 5956   5.284   4.241   2.103
   15CHTO   O78 5957   5.254   4.193   1.906
   15CHTO  H200 5958   5.161   4.198   1.915
   15CHTO  C111 5959   5.280   4.427   1.987
   15CHTO  H215 5960   5.306   4.457   1.885
   15CHTO   N19 5961   5.135   4.453   2.004
   15CHTO  H207 5962   5.103   4.423   2.103
   15CHTO  H208 5963   5.078   4.400   1.929
   15CHTO   O74 5964   5.508   4.119   2.035
   15CHTO  C115 5965   5.523   4.020   1.914
   15CHTO  H219 5966   5.448   4.039   1.837
   15CHTO   O76 5967   5.662   4.038   1.840
   15CHTO  C122 5968   5.769   3.978   1.914
   15CHTO  H226 5969   5.769   4.021   2.014
   15CHTO  C126 5970   5.905   4.020   1.848
   15CHTO   O85 5971   6.018   3.973   1.923
   15CHTO  H206 5972   6.097   4.001   1.880
   15CHTO  C121 5973   5.752   3.820   1.921
   15CHTO  H225 5974   5.815   3.774   1.842
   15CHTO   O81 5975   5.798   3.777   2.049
   15CHTO  H202 5976   5.802   3.683   2.052
   15CHTO  C119 5977   5.603   3.776   1.898
   15CHTO  H223 5978   5.585   3.785   1.791
   15CHTO  C117 5979   5.503   3.873   1.971
   15CHTO  H221 5980   5.519   3.881   2.079
   15CHTO   N20 5981   5.360   3.830   1.955
   15CHTO  H209 5982   5.352   3.742   1.893
   15CHTO  H210 5983   5.316   3.811   2.052
   15CHTO   O80 5984   5.581   3.617   1.922
   15CHTO  C103 5985   5.572   3.514   1.796
   15CHTO  H190 5986   5.540   3.417   1.832
   15CHTO  C101 5987   5.479   3.553   1.675
   15CHTO  H188 5988   5.511   3.649   1.634
   15CHTO   O68 5989   5.333   3.567   1.727
   15CHTO  H168 5990   5.327   3.639   1.787
   15CHTO   C99 5991   5.489   3.442   1.559
   15CHTO  H186 5992   5.445   3.348   1.598
   15CHTO   N17 5993   5.410   3.476   1.436
   15CHTO  H174 5994   5.375   3.578   1.439
   15CHTO  H175 5995   5.468   3.458   1.346
   15CHTO   C97 5996   5.638   3.408   1.526
   15CHTO  H184 5997   5.679   3.489   1.463
   15CHTO   O64 5998   5.717   3.388   1.645
   15CHTO  C104 5999   5.717   3.496   1.738
   15CHTO  H191 6000   5.749   3.590   1.692
   15CHTO  C108 6001   5.820   3.466   1.848
   15CHTO   O71 6002   5.953   3.470   1.795
   15CHTO  H171 6003   5.977   3.558   1.775
   15CHTO   O62 6004   5.645   3.282   1.454
   15CHTO   C91 6005   5.770   3.246   1.393
   15CHTO  H178 6006   5.819   3.338   1.362
   15CHTO   C92 6007   5.741   3.165   1.262
   15CHTO  H179 6008   5.666   3.219   1.201
   15CHTO   O66 6009   5.861   3.163   1.184
   15CHTO  H166 6010   5.844   3.128   1.098
   15CHTO   C93 6011   5.699   3.016   1.289
   15CHTO  H180 6012   5.713   2.961   1.194
   15CHTO   N16 6013   5.554   2.999   1.319
   15CHTO  H172 6014   5.495   3.033   1.236
   15CHTO  H173 6015   5.529   3.054   1.409
   15CHTO   C94 6016   5.791   2.950   1.400
   15CHTO  H181 6017   5.737   2.933   1.494
   15CHTO   O61 6018   5.904   3.033   1.434
   15CHTO   C95 6019   5.869   3.162   1.488
   15CHTO  H182 6020   5.820   3.147   1.584
   15CHTO  C106 6021   6.002   3.240   1.517
   15CHTO   O69 6022   6.080   3.259   1.399
   15CHTO  H169 6023   6.158   3.306   1.420
   15CHTO   O63 6024   5.844   2.814   1.345
   15CHTO   C96 6025   5.931   2.731   1.448
   15CHTO  H183 6026   5.941   2.789   1.540
   15CHTO   C98 6027   6.074   2.700   1.396
   15CHTO  H185 6028   6.067   2.667   1.291
   15CHTO   O67 6029   6.147   2.824   1.392
   15CHTO  H167 6030   6.159   2.858   1.478
   15CHTO  C102 6031   6.151   2.588   1.482
   15CHTO  H189 6032   6.168   2.633   1.581
   15CHTO   N18 6033   6.285   2.549   1.431
   15CHTO  H176 6034   6.348   2.636   1.426
   15CHTO  H177 6035   6.329   2.476   1.496
   15CHTO  C105 6036   6.055   2.467   1.499
   15CHTO  H192 6037   6.030   2.428   1.400
   15CHTO   O65 6038   5.933   2.509   1.562
   15CHTO  C100 6039   5.853   2.599   1.483
   15CHTO  H187 6040   5.826   2.548   1.390
   15CHTO  C107 6041   5.723   2.630   1.561
   15CHTO   O70 6042   5.643   2.513   1.581
   15CHTO  H170 6043   5.687   2.455   1.641
   15CHTO   O57 6044   6.129   2.347   1.590
   15CHTO   C85 6045   6.052   2.233   1.631
   15CHTO  H157 6046   5.949   2.269   1.650
   15CHTO   C83 6047   6.105   2.183   1.769
   15CHTO  H155 6048   6.098   2.266   1.840
   15CHTO   O56 6049   6.246   2.152   1.758
   15CHTO  H135 6050   6.282   2.133   1.843
   15CHTO   C81 6051   6.017   2.065   1.820
   15CHTO  H153 6052   5.914   2.102   1.827
   15CHTO   N14 6053   6.050   2.023   1.958
   15CHTO  H141 6054   6.048   2.107   2.024
   15CHTO  H142 6055   5.980   1.950   1.992
   15CHTO   C79 6056   6.018   1.946   1.716
   15CHTO  H151 6057   5.942   1.875   1.748
   15CHTO   O52 6058   5.977   1.994   1.583
   15CHTO   C86 6059   6.054   2.108   1.533
   15CHTO  H158 6060   6.157   2.069   1.522
   15CHTO   C90 6061   6.007   2.143   1.390
   15CHTO   O60 6062   5.871   2.186   1.385
   15CHTO  H138 6063   5.814   2.114   1.405
   15CHTO   O50 6064   6.144   1.876   1.706
   15CHTO   C73 6065   6.156   1.744   1.649
   15CHTO  H145 6066   6.079   1.729   1.571
   15CHTO   C74 6067   6.135   1.634   1.758
   15CHTO  H146 6068   6.036   1.652   1.803
   15CHTO   O54 6069   6.127   1.506   1.693
   15CHTO  H133 6070   6.109   1.439   1.755
   15CHTO   C75 6071   6.251   1.644   1.865
   15CHTO  H147 6072   6.245   1.743   1.913
   15CHTO   N13 6073   6.240   1.546   1.976
   15CHTO  H139 6074   6.244   1.445   1.936
   15CHTO  H140 6075   6.321   1.559   2.045
   15CHTO   C76 6076   6.392   1.636   1.790
   15CHTO  H148 6077   6.403   1.535   1.749
   15CHTO   O49 6078   6.401   1.735   1.683
   15CHTO   C77 6079   6.297   1.726   1.585
   15CHTO  H149 6080   6.301   1.628   1.536
   15CHTO   C88 6081   6.324   1.829   1.475
   15CHTO   O58 6082   6.227   1.817   1.363
   15CHTO  H136 6083   6.247   1.881   1.298
   15CHTO   O51 6084   6.509   1.673   1.890
   15CHTO   C78 6085   6.647   1.610   1.849
   15CHTO  H150 6086   6.645   1.574   1.743
   15CHTO   C80 6087   6.682   1.492   1.942
   15CHTO  H152 6088   6.674   1.527   2.048
   15CHTO   O55 6089   6.583   1.390   1.921
   15CHTO  H134 6090   6.499   1.417   1.954
   15CHTO   C84 6091   6.828   1.438   1.916
   15CHTO  H156 6092   6.831   1.397   1.815
   15CHTO   N15 6093   6.867   1.326   2.010
   15CHTO  H143 6094   6.801   1.243   1.996
   15CHTO  H144 6095   6.861   1.360   2.111
   15CHTO   C87 6096   6.928   1.556   1.924
   15CHTO  H159 6097   6.930   1.597   2.025
   15CHTO   O53 6098   6.882   1.666   1.822
   15CHTO   C82 6099   6.754   1.720   1.857
   15CHTO  H154 6100   6.757   1.763   1.957
   15CHTO   C89 6101   6.719   1.836   1.760
   15CHTO   O59 6102   6.805   1.948   1.776
   15CHTO  H137 6103   6.892   1.926   1.748
   15CHTO   O45 6104   7.078   1.512   1.883
   15CHTO   C67 6105   7.173   1.619   1.897
   15CHTO  H124 6106   7.121   1.714   1.900
   15CHTO   C65 6107   7.258   1.603   2.029
   15CHTO  H122 6108   7.262   1.496   2.050
   15CHTO   O44 6109   7.182   1.668   2.132
   15CHTO  H102 6110   7.222   1.652   2.216
   15CHTO   C63 6111   7.409   1.647   2.010
   15CHTO  H120 6112   7.461   1.568   1.956
   15CHTO   N11 6113   7.492   1.658   2.134
   15CHTO  H108 6114   7.562   1.578   2.141
   15CHTO  H109 6115   7.429   1.658   2.221
   15CHTO   C61 6116   7.415   1.773   1.915
   15CHTO  H118 6117   7.521   1.796   1.899
   15CHTO   O40 6118   7.357   1.745   1.783
   15CHTO   C68 6119   7.269   1.628   1.772
   15CHTO  H125 6120   7.331   1.537   1.767
   15CHTO   C72 6121   7.188   1.635   1.640
   15CHTO   O48 6122   7.271   1.611   1.526
   15CHTO  H105 6123   7.220   1.616   1.448
   15CHTO   O38 6124   7.348   1.886   1.976
   15CHTO   C55 6125   7.365   2.014   1.911
   15CHTO  H112 6126   7.395   2.000   1.807
   15CHTO   C56 6127   7.469   2.104   1.991
   15CHTO  H113 6128   7.438   2.102   2.097
   15CHTO   O42 6129   7.598   2.041   1.985
   15CHTO  H100 6130   7.629   2.037   1.897
   15CHTO   C57 6131   7.472   2.252   1.935
   15CHTO  H114 6132   7.518   2.248   1.836
   15CHTO   N10 6133   7.554   2.345   2.017
   15CHTO  H106 6134   7.553   2.315   2.121
   15CHTO  H107 6135   7.656   2.344   1.982
   15CHTO   C58 6136   7.328   2.307   1.920
   15CHTO  H115 6137   7.282   2.318   2.021
   15CHTO   O37 6138   7.246   2.217   1.843
   15CHTO   C59 6139   7.228   2.089   1.906
   15CHTO  H116 6140   7.189   2.103   2.007
   15CHTO   C70 6141   7.124   2.009   1.828
   15CHTO   O46 6142   7.165   1.973   1.696
   15CHTO  H103 6143   7.235   1.911   1.700
   15CHTO   O39 6144   7.330   2.462   1.844
   15CHTO   C60 6145   7.263   2.477   1.717
   15CHTO  H117 6146   7.275   2.386   1.659
   15CHTO   C62 6147   7.110   2.504   1.736
   15CHTO  H119 6148   7.069   2.417   1.790
   15CHTO   O43 6149   7.091   2.621   1.817
   15CHTO  H101 6150   7.125   2.697   1.774
   15CHTO   C66 6151   7.039   2.516   1.592
   15CHTO  H123 6152   7.059   2.425   1.536
   15CHTO   N12 6153   6.890   2.524   1.601
   15CHTO  H110 6154   6.853   2.616   1.560
   15CHTO  H111 6155   6.857   2.511   1.703
   15CHTO   C69 6156   7.101   2.634   1.513
   15CHTO  H126 6157   7.083   2.730   1.567
   15CHTO   O41 6158   7.256   2.611   1.500
   15CHTO   C64 6159   7.328   2.592   1.636
   15CHTO  H121 6160   7.321   2.686   1.695
   15CHTO   C71 6161   7.478   2.563   1.610
   15CHTO   O47 6162   7.541   2.671   1.541
   15CHTO  H104 6163   7.511   2.674   1.452
   15CHTO   O34 6164   7.040   2.646   1.370
   15CHTO   C49 6165   7.024   2.698   1.229
   15CHTO   H91 6166   7.084   2.633   1.165
   15CHTO   C47 6167   7.077   2.843   1.222
   15CHTO   H89 6168   7.074   2.873   1.115
   15CHTO   O33 6169   7.214   2.843   1.266
   15CHTO   H70 6170   7.251   2.929   1.255
   15CHTO   C45 6171   6.981   2.939   1.308
   15CHTO   H87 6172   6.978   2.902   1.411
   15CHTO    N8 6173   7.030   3.080   1.311
   15CHTO   H75 6174   6.969   3.139   1.378
   15CHTO   H76 6175   7.027   3.122   1.212
   15CHTO   C43 6176   6.829   2.927   1.254
   15CHTO   H85 6177   6.767   2.985   1.323
   15CHTO   O29 6178   6.788   2.789   1.248
   15CHTO   C50 6179   6.875   2.693   1.184
   15CHTO   H92 6180   6.837   2.593   1.210
   15CHTO   C54 6181   6.857   2.698   1.030
   15CHTO   O36 6182   6.931   2.596   0.962
   15CHTO   H72 6183   7.023   2.614   0.969
   15CHTO   O27 6184   6.812   2.990   1.126
   15CHTO   C37 6185   6.722   3.039   1.025
   15CHTO   H79 6186   6.708   2.963   0.947
   15CHTO   C38 6187   6.581   3.071   1.085
   15CHTO   H80 6188   6.595   3.134   1.174
   15CHTO   O31 6189   6.521   2.946   1.124
   15CHTO   H68 6190   6.566   2.911   1.199
   15CHTO   C39 6191   6.489   3.148   0.981
   15CHTO   H81 6192   6.466   3.078   0.900
   15CHTO    N7 6193   6.358   3.193   1.041
   15CHTO   H73 6194   6.276   3.153   0.984
   15CHTO   H74 6195   6.352   3.301   1.045
   15CHTO   C40 6196   6.569   3.268   0.917
   15CHTO   H82 6197   6.585   3.345   0.993
   15CHTO   O26 6198   6.693   3.221   0.862
   15CHTO   C41 6199   6.784   3.166   0.961
   15CHTO   H83 6200   6.804   3.241   1.039
   15CHTO   C52 6201   6.918   3.133   0.892
   15CHTO   O35 6202   6.984   3.254   0.834
   15CHTO   H71 6203   7.010   3.312   0.903
   15CHTO   O28 6204   6.504   3.324   0.801
   15CHTO   C42 6205   6.506   3.468   0.772
   15CHTO   H84 6206   6.507   3.470   0.662
   15CHTO   C44 6207   6.631   3.551   0.818
   15CHTO   H86 6208   6.645   3.537   0.925
   15CHTO   O32 6209   6.745   3.496   0.750
   15CHTO   H69 6210   6.824   3.536   0.781
   15CHTO   C48 6211   6.616   3.707   0.792
   15CHTO   H90 6212   6.619   3.724   0.684
   15CHTO    N9 6213   6.731   3.786   0.849
   15CHTO   H77 6214   6.823   3.755   0.803
   15CHTO   H78 6215   6.735   3.771   0.956
   15CHTO   C51 6216   6.477   3.755   0.846
   15CHTO   H93 6217   6.474   3.736   0.954
   15CHTO   O30 6218   6.376   3.681   0.776
   15CHTO   C46 6219   6.373   3.537   0.816
   15CHTO   H88 6220   6.362   3.529   0.924
   15CHTO   C53 6221   6.252   3.473   0.745
   15CHTO   O72 6222   6.130   3.537   0.784
   15CHTO  H199 6223   6.058   3.496   0.739
   15CHTO   O22 6224   6.449   3.894   0.819
   15CHTO   C31 6225   6.342   3.967   0.889
   15CHTO   H59 6226   6.345   4.071   0.849
   15CHTO   C29 6227   6.199   3.914   0.862
   15CHTO   H57 6228   6.195   3.809   0.896
   15CHTO   O21 6229   6.178   3.914   0.720
   15CHTO   H37 6230   6.234   3.852   0.678
   15CHTO   C27 6231   6.088   3.996   0.939
   15CHTO   H55 6232   6.084   4.098   0.896
   15CHTO    N5 6233   5.953   3.935   0.926
   15CHTO   H43 6234   5.952   3.838   0.973
   15CHTO   H44 6235   5.879   4.000   0.971
   15CHTO   C25 6236   6.129   4.012   1.090
   15CHTO   H53 6237   6.125   3.914   1.139
   15CHTO   O17 6238   6.265   4.064   1.102
   15CHTO   C32 6239   6.366   3.980   1.043
   15CHTO   H60 6240   6.362   3.881   1.087
   15CHTO   C36 6241   6.504   4.042   1.073
   15CHTO   O25 6242   6.533   4.043   1.213
   15CHTO   H40 6243   6.478   4.106   1.256
   15CHTO   O15 6244   6.031   4.110   1.164
   15CHTO   C19 6245   6.052   4.234   1.236
   15CHTO   H47 6246   6.147   4.219   1.290
   15CHTO   C20 6247   6.066   4.361   1.147
   15CHTO   H48 6248   5.973   4.381   1.090
   15CHTO   O19 6249   6.172   4.337   1.053
   15CHTO   H35 6250   6.146   4.273   0.990
   15CHTO   C21 6251   6.097   4.489   1.235
   15CHTO   H49 6252   6.196   4.477   1.279
   15CHTO    N4 6253   6.102   4.615   1.155
   15CHTO   H41 6254   6.006   4.633   1.109
   15CHTO   H42 6255   6.127   4.699   1.219
   15CHTO   C22 6256   5.996   4.499   1.353
   15CHTO   H50 6257   5.899   4.527   1.314
   15CHTO   O14 6258   5.982   4.374   1.423
   15CHTO   C23 6259   5.944   4.260   1.345
   15CHTO   H51 6260   5.845   4.281   1.301
   15CHTO   C34 6261   5.931   4.140   1.440
   15CHTO   O23 6262   5.827   4.162   1.536
   15CHTO   H38 6263   5.821   4.088   1.593
   15CHTO   O16 6264   6.038   4.596   1.452
   15CHTO   C24 6265   6.142   4.544   1.574
   15CHTO   H52 6266   6.184   4.446   1.553
   15CHTO   C26 6267   6.066   4.540   1.708
   15CHTO   H54 6268   6.018   4.640   1.724
   15CHTO   O20 6269   5.961   4.442   1.697
   15CHTO   H36 6270   5.907   4.444   1.774
   15CHTO   C30 6271   6.161   4.512   1.828
   15CHTO   H58 6272   6.201   4.409   1.821
   15CHTO    N6 6273   6.089   4.518   1.959
   15CHTO   H45 6274   6.050   4.618   1.975
   15CHTO   H46 6275   6.157   4.494   2.040
   15CHTO   C33 6276   6.284   4.608   1.823
   15CHTO   H61 6277   6.250   4.712   1.839
   15CHTO   O18 6278   6.344   4.599   1.694
   15CHTO   C28 6279   6.262   4.642   1.585
   15CHTO   H56 6280   6.224   4.743   1.602
   15CHTO   C35 6281   6.348   4.642   1.457
   15CHTO   O24 6282   6.461   4.730   1.465
   15CHTO   H39 6283   6.522   4.698   1.528
   15CHTO    O9 6284   6.379   4.582   1.928
   15CHTO   C13 6285   6.495   4.697   1.938
   15CHTO   H26 6286   6.446   4.795   1.929
   15CHTO   C11 6287   6.604   4.675   1.823
   15CHTO   H24 6288   6.564   4.718   1.730
   15CHTO    O8 6289   6.625   4.534   1.801
   15CHTO    H3 6290   6.681   4.521   1.727
   15CHTO    C9 6291   6.734   4.749   1.863
   15CHTO   H22 6292   6.703   4.851   1.888
   15CHTO    N2 6293   6.830   4.765   1.750
   15CHTO   H10 6294   6.928   4.728   1.777
   15CHTO   H11 6295   6.837   4.869   1.721
   15CHTO    C7 6296   6.793   4.680   1.993
   15CHTO   H20 6297   6.849   4.762   2.044
   15CHTO    O4 6298   6.690   4.631   2.082
   15CHTO   C14 6299   6.564   4.699   2.082
   15CHTO   H27 6300   6.582   4.804   2.111
   15CHTO   C18 6301   6.476   4.636   2.193
   15CHTO   O13 6302   6.351   4.704   2.206
   15CHTO    H7 6303   6.365   4.790   2.243
   15CHTO    O2 6304   6.893   4.557   1.960
   15CHTO    C1 6305   6.965   4.508   2.074
   15CHTO   H14 6306   6.914   4.539   2.168
   15CHTO    C2 6307   7.115   4.560   2.079
   15CHTO   H15 6308   7.159   4.537   1.980
   15CHTO    O6 6309   7.113   4.703   2.098
   15CHTO    H1 6310   7.200   4.738   2.093
   15CHTO    C3 6311   7.197   4.486   2.195
   15CHTO   H16 6312   7.158   4.517   2.293
   15CHTO    N1 6313   7.343   4.522   2.192
   15CHTO    H8 6314   7.355   4.629   2.205
   15CHTO    H9 6315   7.395   4.471   2.272
   15CHTO    C4 6316   7.173   4.330   2.187
   15CHTO   H17 6317   7.219   4.292   2.096
   15CHTO    O1 6318   7.032   4.301   2.187
   15CHTO    C5 6319   6.963   4.353   2.073
   15CHTO   H18 6320   7.013   4.319   1.982
   15CHTO   C16 6321   6.818   4.297   2.074
   15CHTO   O11 6322   6.817   4.155   2.054
   15CHTO    H5 6323   6.855   4.112   2.128
   15CHTO    O3 6324   7.227   4.261   2.302
   15CHTO    C6 6325   7.235   4.116   2.287
   15CHTO   H19 6326   7.170   4.077   2.208
   15CHTO    C8 6327   7.382   4.072   2.255
   15CHTO   H21 6328   7.448   4.112   2.332
   15CHTO    O7 6329   7.418   4.129   2.127
   15CHTO    H2 6330   7.364   4.094   2.059
   15CHTO   C12 6331   7.393   3.914   2.254
   15CHTO   H25 6332   7.334   3.879   2.167
   15CHTO    N3 6333   7.534   3.869   2.231
   15CHTO   H12 6334   7.539   3.761   2.227
   15CHTO   H13 6335   7.599   3.906   2.309
   15CHTO   C15 6336   7.329   3.855   2.385
   15CHTO   H28 6337   7.391   3.874   2.473
   15CHTO   O10 6338   7.304   3.701   2.374
   15CHTO    H4 6339   7.277   3.667   2.457
   15CHTO    O5 6340   7.197   3.905   2.406
   15CHTO   C10 6341   7.189   4.048   2.419
   15CHTO   H23 6342   7.254   4.079   2.501
   15CHTO   C17 6343   7.046   4.087   2.457
   15CHTO   O12 6344   7.007   4.033   2.584
   15CHTO    H6 6345   7.056   4.074   2.652
   16CHTO  H203 6346   4.928   4.264   0.861
   16CHTO   O82 6347   4.958   4.175   0.871
   16CHTO  C123 6348   5.009   4.155   1.004
   16CHTO  H227 6349   4.930   4.180   1.077
   16CHTO   O77 6350   5.036   4.012   1.006
   16CHTO  C118 6351   5.084   3.963   1.132
   16CHTO  H222 6352   5.014   3.990   1.212
   16CHTO  C125 6353   5.093   3.806   1.123
   16CHTO   O84 6354   4.963   3.748   1.108
   16CHTO  H205 6355   4.930   3.768   1.022
   16CHTO  C114 6356   5.222   4.025   1.160
   16CHTO  H218 6357   5.290   3.999   1.079
   16CHTO  C116 6358   5.212   4.181   1.163
   16CHTO  H220 6359   5.153   4.212   1.252
   16CHTO   O79 6360   5.343   4.238   1.181
   16CHTO  H201 6361   5.398   4.216   1.108
   16CHTO  C120 6362   5.142   4.236   1.031
   16CHTO  H224 6363   5.214   4.218   0.948
   16CHTO   N21 6364   5.118   4.382   1.038
   16CHTO  H211 6365   5.119   4.425   0.939
   16CHTO  H212 6366   5.024   4.403   1.087
   16CHTO   O75 6367   5.266   3.967   1.284
   16CHTO  C112 6368   5.428   3.947   1.292
   16CHTO  H216 6369   5.476   4.042   1.263
   16CHTO   O73 6370   5.464   3.840   1.204
   16CHTO  C113 6371   5.606   3.827   1.187
   16CHTO  H217 6372   5.647   3.921   1.145
   16CHTO  C124 6373   5.632   3.716   1.084
   16CHTO   O83 6374   5.580   3.746   0.954
   16CHTO  H204 6375   5.596   3.674   0.896
   16CHTO  C109 6376   5.676   3.794   1.322
   16CHTO  H213 6377   5.647   3.692   1.349
   16CHTO  C110 6378   5.631   3.894   1.434
   16CHTO  H214 6379   5.677   3.991   1.413
   16CHTO   O78 6380   5.684   3.847   1.560
   16CHTO  H200 6381   5.777   3.854   1.561
   16CHTO  C111 6382   5.476   3.909   1.437
   16CHTO  H215 6383   5.432   3.812   1.464
   16CHTO   N19 6384   5.428   4.008   1.538
   16CHTO  H207 6385   5.510   4.051   1.593
   16CHTO  H208 6386   5.369   4.086   1.493
   16CHTO   O74 6387   5.821   3.800   1.304
   16CHTO  C115 6388   5.898   3.679   1.369
   16CHTO  H219 6389   5.849   3.644   1.460
   16CHTO   O76 6390   5.898   3.554   1.275
   16CHTO  C122 6391   5.990   3.568   1.166
   16CHTO  H226 6392   5.963   3.658   1.110
   16CHTO  C126 6393   5.970   3.449   1.066
   16CHTO   O85 6394   5.838   3.445   1.010
   16CHTO  H206 6395   5.825   3.519   0.953
   16CHTO  C121 6396   6.140   3.576   1.216
   16CHTO  H225 6397   6.188   3.477   1.202
   16CHTO   O81 6398   6.211   3.672   1.137
   16CHTO  H202 6399   6.216   3.643   1.048
   16CHTO  C119 6400   6.148   3.613   1.368
   16CHTO  H223 6401   6.115   3.524   1.422
   16CHTO  C117 6402   6.045   3.728   1.403
   16CHTO  H221 6403   6.059   3.821   1.347
   16CHTO   N20 6404   6.055   3.768   1.547
   16CHTO  H209 6405   5.987   3.849   1.568
   16CHTO  H210 6406   6.032   3.683   1.611
   16CHTO   O80 6407   6.301   3.629   1.422
   16CHTO  C103 6408   6.401   3.509   1.404
   16CHTO  H190 6409   6.351   3.424   1.357
   16CHTO  C101 6410   6.532   3.542   1.322
   16CHTO  H188 6411   6.579   3.630   1.366
   16CHTO   O68 6412   6.492   3.575   1.175
   16CHTO  H168 6413   6.455   3.499   1.134
   16CHTO   C99 6414   6.636   3.420   1.329
   16CHTO  H186 6415   6.592   3.333   1.275
   16CHTO   N17 6416   6.768   3.449   1.263
   16CHTO  H174 6417   6.780   3.388   1.175
   16CHTO  H175 6418   6.777   3.554   1.240
   16CHTO   C97 6419   6.656   3.372   1.476
   16CHTO  H184 6420   6.712   3.449   1.531
   16CHTO   O64 6421   6.527   3.347   1.535
   16CHTO  C104 6422   6.443   3.463   1.549
   16CHTO  H191 6423   6.493   3.545   1.600
   16CHTO  C108 6424   6.326   3.421   1.639
   16CHTO   O71 6425   6.253   3.533   1.689
   16CHTO  H171 6426   6.182   3.503   1.742
   16CHTO   O62 6427   6.727   3.246   1.482
   16CHTO   C91 6428   6.740   3.180   1.610
   16CHTO  H178 6429   6.679   3.232   1.684
   16CHTO   C92 6430   6.887   3.188   1.662
   16CHTO  H179 6431   6.954   3.152   1.583
   16CHTO   O66 6432   6.919   3.327   1.681
   16CHTO  H166 6433   7.010   3.337   1.704
   16CHTO   C93 6434   6.908   3.106   1.797
   16CHTO  H180 6435   6.860   3.163   1.878
   16CHTO   N16 6436   7.051   3.095   1.834
   16CHTO  H172 6437   7.094   3.193   1.846
   16CHTO  H173 6438   7.061   3.039   1.926
   16CHTO   C94 6439   6.842   2.963   1.788
   16CHTO  H181 6440   6.894   2.898   1.718
   16CHTO   O61 6441   6.707   2.976   1.741
   16CHTO   C95 6442   6.696   3.029   1.608
   16CHTO  H182 6443   6.761   2.973   1.542
   16CHTO  C106 6444   6.549   3.011   1.557
   16CHTO   O69 6445   6.515   2.872   1.547
   16CHTO  H169 6446   6.511   2.833   1.632
   16CHTO   O63 6447   6.840   2.889   1.943
   16CHTO   C96 6448   6.698   2.823   1.994
   16CHTO  H183 6449   6.721   2.769   2.086
   16CHTO   C98 6450   6.632   2.720   1.896
   16CHTO  H185 6451   6.637   2.758   1.793
   16CHTO   O67 6452   6.712   2.601   1.897
   16CHTO  H167 6453   6.797   2.618   1.860
   16CHTO  C102 6454   6.479   2.686   1.932
   16CHTO  H189 6455   6.482   2.629   2.026
   16CHTO   N18 6456   6.410   2.598   1.834
   16CHTO  H176 6457   6.327   2.649   1.787
   16CHTO  H177 6458   6.374   2.508   1.882
   16CHTO  C105 6459   6.405   2.820   1.958
   16CHTO  H192 6460   6.412   2.881   1.868
   16CHTO   O65 6461   6.468   2.890   2.066
   16CHTO  C100 6462   6.599   2.940   2.034
   16CHTO  H187 6463   6.589   3.010   1.950
   16CHTO  C107 6464   6.654   3.020   2.155
   16CHTO   O70 6465   6.575   3.136   2.180
   16CHTO  H170 6466   6.609   3.182   2.254
   16CHTO   O57 6467   6.248   2.791   1.995
   16CHTO   C85 6468   6.154   2.888   1.945
   16CHTO  H157 6469   6.191   2.916   1.843
   16CHTO   C83 6470   6.161   3.018   2.030
   16CHTO  H155 6471   6.264   3.054   2.029
   16CHTO   O56 6472   6.131   2.987   2.168
   16CHTO  H135 6473   6.195   2.929   2.204
   16CHTO   C81 6474   6.070   3.126   1.966
   16CHTO  H153 6475   6.105   3.144   1.865
   16CHTO   N14 6476   6.083   3.259   2.032
   16CHTO  H141 6477   5.987   3.299   2.057
   16CHTO  H142 6478   6.143   3.253   2.120
   16CHTO   C79 6479   5.921   3.073   1.956
   16CHTO  H151 6480   5.866   3.144   1.893
   16CHTO   O52 6481   5.914   2.943   1.888
   16CHTO   C86 6482   6.004   2.841   1.942
   16CHTO  H158 6483   5.966   2.821   2.044
   16CHTO   C90 6484   5.989   2.709   1.863
   16CHTO   O60 6485   5.859   2.652   1.881
   16CHTO  H138 6486   5.795   2.705   1.836
   16CHTO   O50 6487   5.853   3.066   2.083
   16CHTO   C73 6488   5.744   3.002   2.151
   16CHTO  H145 6489   5.774   2.902   2.185
   16CHTO   C74 6490   5.620   2.988   2.059
   16CHTO  H146 6491   5.650   2.930   1.971
   16CHTO   O54 6492   5.522   2.908   2.129
   16CHTO  H133 6493   5.448   2.892   2.074
   16CHTO   C75 6494   5.566   3.132   2.020
   16CHTO  H147 6495   5.646   3.185   1.965
   16CHTO   N13 6496   5.450   3.129   1.928
   16CHTO  H139 6497   5.420   3.230   1.903
   16CHTO  H140 6498   5.367   3.079   1.975
   16CHTO   C76 6499   5.537   3.214   2.154
   16CHTO  H148 6500   5.455   3.165   2.206
   16CHTO   O49 6501   5.656   3.217   2.240
   16CHTO   C77 6502   5.706   3.087   2.277
   16CHTO  H149 6503   5.631   3.034   2.335
   16CHTO   C88 6504   5.825   3.110   2.372
   16CHTO   O58 6505   5.882   2.984   2.417
   16CHTO  H136 6506   5.924   2.940   2.346
   16CHTO   O51 6507   5.506   3.366   2.122
   16CHTO   C78 6508   5.446   3.442   2.247
   16CHTO  H150 6509   5.461   3.383   2.340
   16CHTO   C80 6510   5.295   3.464   2.225
   16CHTO  H152 6511   5.280   3.513   2.126
   16CHTO   O55 6512   5.232   3.335   2.222
   16CHTO  H134 6513   5.256   3.289   2.144
   16CHTO   C84 6514   5.232   3.556   2.338
   16CHTO  H156 6515   5.240   3.502   2.432
   16CHTO   N15 6516   5.087   3.587   2.316
   16CHTO  H143 6517   5.029   3.553   2.400
   16CHTO  H144 6518   5.050   3.540   2.227
   16CHTO   C87 6519   5.316   3.686   2.350
   16CHTO  H159 6520   5.308   3.745   2.259
   16CHTO   O53 6521   5.463   3.646   2.376
   16CHTO   C82 6522   5.521   3.575   2.265
   16CHTO  H154 6523   5.517   3.636   2.175
   16CHTO   C89 6524   5.670   3.554   2.299
   16CHTO   O59 6525   5.745   3.505   2.187
   16CHTO  H137 6526   5.835   3.495   2.212
   16CHTO   O45 6527   5.269   3.777   2.477
   16CHTO   C67 6528   5.346   3.898   2.491
   16CHTO  H124 6529   5.443   3.885   2.442
   16CHTO   C65 6530   5.272   4.020   2.424
   16CHTO  H122 6531   5.165   3.998   2.430
   16CHTO   O44 6532   5.312   4.019   2.285
   16CHTO  H102 6533   5.400   4.049   2.277
   16CHTO   C63 6534   5.290   4.155   2.505
   16CHTO  H120 6535   5.223   4.152   2.591
   16CHTO   N11 6536   5.244   4.280   2.436
   16CHTO  H108 6537   5.307   4.301   2.352
   16CHTO  H109 6538   5.143   4.269   2.403
   16CHTO   C61 6539   5.436   4.161   2.563
   16CHTO  H118 6540   5.442   4.252   2.625
   16CHTO   O40 6541   5.464   4.049   2.653
   16CHTO   C68 6542   5.379   3.929   2.643
   16CHTO  H125 6543   5.286   3.946   2.700
   16CHTO   C72 6544   5.456   3.814   2.713
   16CHTO   O48 6545   5.378   3.695   2.727
   16CHTO  H105 6546   5.428   3.629   2.770
   16CHTO   O38 6547   5.534   4.165   2.458
   16CHTO   C55 6548   5.671   4.188   2.498
   16CHTO  H112 6549   5.686   4.157   2.603
   16CHTO   C56 6550   5.712   4.339   2.475
   16CHTO  H113 6551   5.683   4.364   2.371
   16CHTO   O42 6552   5.632   4.425   2.559
   16CHTO  H100 6553   5.648   4.406   2.649
   16CHTO   C57 6554   5.867   4.362   2.497
   16CHTO  H114 6555   5.886   4.349   2.604
   16CHTO   N10 6556   5.914   4.498   2.459
   16CHTO  H106 6557   5.999   4.525   2.520
   16CHTO  H107 6558   5.836   4.570   2.474
   16CHTO   C58 6559   5.947   4.254   2.420
   16CHTO  H115 6560   5.935   4.270   2.310
   16CHTO   O37 6561   5.901   4.122   2.455
   16CHTO   C59 6562   5.765   4.096   2.415
   16CHTO  H116 6563   5.753   4.115   2.308
   16CHTO   C70 6564   5.736   3.948   2.441
   16CHTO   O46 6565   5.818   3.861   2.362
   16CHTO  H103 6566   5.800   3.772   2.384
   16CHTO   O39 6567   6.106   4.256   2.459
   16CHTO   C60 6568   6.184   4.166   2.379
   16CHTO  H117 6569   6.122   4.083   2.345
   16CHTO   C62 6570   6.241   4.237   2.252
   16CHTO  H119 6571   6.152   4.277   2.197
   16CHTO   O43 6572   6.324   4.348   2.291
   16CHTO  H101 6573   6.272   4.415   2.332
   16CHTO   C66 6574   6.316   4.129   2.160
   16CHTO  H123 6575   6.246   4.049   2.137
   16CHTO   N12 6576   6.358   4.186   2.029
   16CHTO  H110 6577   6.316   4.129   1.948
   16CHTO  H111 6578   6.466   4.191   2.022
   16CHTO   C69 6579   6.433   4.064   2.240
   16CHTO  H126 6580   6.513   4.139   2.259
   16CHTO   O41 6581   6.380   4.005   2.378
   16CHTO   C64 6582   6.300   4.104   2.463
   16CHTO  H121 6583   6.367   4.186   2.497
   16CHTO   C71 6584   6.246   4.032   2.589
   16CHTO   O47 6585   6.161   3.921   2.556
   16CHTO  H104 6586   6.212   3.853   2.516
   16CHTO   O34 6587   6.493   3.948   2.160
   16CHTO   C49 6588   6.609   3.869   2.116
   16CHTO   H91 6589   6.658   3.926   2.037
   16CHTO   C47 6590   6.558   3.734   2.060
   16CHTO   H89 6591   6.646   3.683   2.015
   16CHTO   O33 6592   6.463   3.762   1.956
   16CHTO   H70 6593   6.435   3.681   1.916
   16CHTO   C45 6594   6.498   3.646   2.180
   16CHTO   H87 6595   6.418   3.705   2.228
   16CHTO    N8 6596   6.440   3.518   2.133
   16CHTO   H75 6597   6.365   3.537   2.057
   16CHTO   H76 6598   6.394   3.465   2.216
   16CHTO   C43 6599   6.609   3.626   2.295
   16CHTO   H85 6600   6.556   3.579   2.378
   16CHTO   O29 6601   6.667   3.752   2.333
   16CHTO   C50 6602   6.710   3.844   2.231
   16CHTO   H92 6603   6.727   3.942   2.280
   16CHTO   C54 6604   6.851   3.809   2.174
   16CHTO   O36 6605   6.950   3.803   2.278
   16CHTO   H72 6606   6.967   3.889   2.310
   16CHTO   O27 6607   6.713   3.533   2.258
   16CHTO   C37 6608   6.814   3.457   2.327
   16CHTO   H79 6609   6.884   3.524   2.378
   16CHTO   C38 6610   6.751   3.364   2.436
   16CHTO   H80 6611   6.669   3.307   2.390
   16CHTO   O31 6612   6.696   3.449   2.539
   16CHTO   H68 6613   6.646   3.398   2.599
   16CHTO   C39 6614   6.856   3.264   2.498
   16CHTO   H81 6615   6.923   3.324   2.561
   16CHTO    N7 6616   6.793   3.162   2.588
   16CHTO   H73 6617   6.722   3.102   2.532
   16CHTO   H74 6618   6.869   3.098   2.632
   16CHTO   C40 6619   6.945   3.196   2.387
   16CHTO   H82 6620   6.889   3.117   2.337
   16CHTO   O26 6621   6.996   3.293   2.295
   16CHTO   C41 6622   6.893   3.370   2.225
   16CHTO   H83 6623   6.824   3.301   2.174
   16CHTO   C52 6624   6.962   3.457   2.118
   16CHTO   O35 6625   7.029   3.380   2.015
   16CHTO   H71 6626   7.103   3.336   2.052
   16CHTO   O28 6627   7.066   3.141   2.445
   16CHTO   C42 6628   7.124   3.015   2.399
   16CHTO   H84 6629   7.224   3.017   2.442
   16CHTO   C44 6630   7.144   2.998   2.245
   16CHTO   H86 6631   7.047   3.007   2.195
   16CHTO   O32 6632   7.228   3.106   2.201
   16CHTO   H69 6633   7.182   3.187   2.205
   16CHTO   C48 6634   7.203   2.856   2.208
   16CHTO   H90 6635   7.303   2.847   2.253
   16CHTO    N9 6636   7.223   2.836   2.060
   16CHTO   H77 6637   7.128   2.843   2.009
   16CHTO   H78 6638   7.269   2.740   2.041
   16CHTO   C51 6639   7.110   2.746   2.272
   16CHTO   H93 6640   7.009   2.760   2.231
   16CHTO   O30 6641   7.113   2.762   2.414
   16CHTO   C46 6642   7.050   2.891   2.461
   16CHTO   H88 6643   6.945   2.893   2.431
   16CHTO   C53 6644   7.061   2.893   2.616
   16CHTO   O72 6645   6.986   2.786   2.675
   16CHTO  H199 6646   6.894   2.801   2.662
   16CHTO   O22 6647   7.156   2.612   2.250
   16CHTO   C31 6648   7.058   2.502   2.257
   16CHTO   H59 6649   6.973   2.540   2.318
   16CHTO   C29 6650   7.001   2.459   2.121
   16CHTO   H57 6651   7.085   2.428   2.057
   16CHTO   O21 6652   6.943   2.575   2.060
   16CHTO   H37 6653   6.919   2.557   1.971
   16CHTO   C27 6654   6.898   2.340   2.134
   16CHTO   H55 6655   6.809   2.376   2.187
   16CHTO    N5 6656   6.854   2.287   2.002
   16CHTO   H43 6657   6.939   2.247   1.948
   16CHTO   H44 6658   6.807   2.365   1.944
   16CHTO   C25 6659   6.960   2.226   2.222
   16CHTO   H53 6660   7.043   2.178   2.167
   16CHTO   O17 6661   7.013   2.278   2.347
   16CHTO   C32 6662   7.114   2.379   2.334
   16CHTO   H60 6663   7.199   2.338   2.279
   16CHTO   C36 6664   7.161   2.416   2.477
   16CHTO   O25 6665   7.055   2.467   2.559
   16CHTO   H40 6666   7.027   2.551   2.526
   16CHTO   O15 6667   6.853   2.116   2.259
   16CHTO   C19 6668   6.740   2.090   2.347
   16CHTO   H47 6669   6.763   1.991   2.388
   16CHTO   C20 6670   6.724   2.190   2.467
   16CHTO   H48 6671   6.712   2.294   2.432
   16CHTO   O19 6672   6.844   2.182   2.545
   16CHTO   H35 6673   6.917   2.219   2.498
   16CHTO   C21 6674   6.600   2.154   2.558
   16CHTO   H49 6675   6.619   2.058   2.606
   16CHTO    N4 6676   6.576   2.251   2.669
   16CHTO   H41 6677   6.650   2.330   2.668
   16CHTO   H42 6678   6.478   2.295   2.662
   16CHTO   C22 6679   6.475   2.133   2.468
   16CHTO   H50 6680   6.445   2.229   2.426
   16CHTO   O14 6681   6.501   2.039   2.362
   16CHTO   C23 6682   6.605   2.076   2.271
   16CHTO   H51 6683   6.576   2.171   2.222
   16CHTO   C34 6684   6.616   1.968   2.162
   16CHTO   O23 6685   6.496   1.959   2.085
   16CHTO   H38 6686   6.504   1.890   2.021
   16CHTO   O16 6687   6.367   2.073   2.542
   16CHTO   C24 6688   6.221   2.121   2.501
   16CHTO   H52 6689   6.223   2.181   2.410
   16CHTO   C26 6690   6.162   2.203   2.617
   16CHTO   H54 6691   6.174   2.144   2.712
   16CHTO   O20 6692   6.238   2.324   2.630
   16CHTO   H36 6693   6.211   2.371   2.707
   16CHTO   C30 6694   6.009   2.231   2.596
   16CHTO   H58 6695   5.995   2.299   2.511
   16CHTO    N6 6696   5.950   2.299   2.714
   16CHTO   H45 6697   5.845   2.318   2.697
   16CHTO   H46 6698   6.000   2.394   2.731
   16CHTO   C33 6699   5.937   2.098   2.561
   16CHTO   H61 6700   5.946   2.028   2.646
   16CHTO   O18 6701   6.000   2.039   2.446
   16CHTO   C28 6702   6.135   1.996   2.471
   16CHTO   H56 6703   6.139   1.928   2.556
   16CHTO   C35 6704   6.187   1.921   2.345
   16CHTO   O24 6705   6.112   1.803   2.316
   16CHTO   H39 6706   6.026   1.825   2.287
   16CHTO    O9 6707   5.795   2.114   2.539
   16CHTO   C13 6708   5.707   1.987   2.592
   16CHTO   H26 6709   5.732   1.972   2.700
   16CHTO   C11 6710   5.740   1.858   2.505
   16CHTO   H24 6711   5.841   1.823   2.534
   16CHTO    O8 6712   5.743   1.892   2.365
   16CHTO    H3 6713   5.771   1.818   2.315
   16CHTO    C9 6714   5.636   1.748   2.540
   16CHTO   H22 6715   5.643   1.734   2.649
   16CHTO    N2 6716   5.672   1.615   2.485
   16CHTO   H10 6717   5.605   1.540   2.523
   16CHTO   H11 6718   5.668   1.618   2.377
   16CHTO    C7 6719   5.489   1.800   2.506
   16CHTO   H20 6720   5.432   1.773   2.598
   16CHTO    O4 6721   5.482   1.943   2.488
   16CHTO   C14 6722   5.550   2.018   2.591
   16CHTO   H27 6723   5.507   1.989   2.689
   16CHTO   C18 6724   5.517   2.169   2.571
   16CHTO   O13 6725   5.568   2.249   2.678
   16CHTO    H7 6726   5.661   2.252   2.674
   16CHTO    O2 6727   5.419   1.726   2.372
   16CHTO    C1 6728   5.276   1.709   2.370
   16CHTO   H14 6729   5.252   1.644   2.284
   16CHTO    C2 6730   5.192   1.843   2.355
   16CHTO   H15 6731   5.218   1.907   2.441
   16CHTO    O6 6732   5.231   1.908   2.232
   16CHTO    H1 6733   5.319   1.938   2.238
   16CHTO    C3 6734   5.034   1.810   2.356
   16CHTO   H16 6735   5.010   1.754   2.264
   16CHTO    N1 6736   4.950   1.935   2.355
   16CHTO    H8 6737   4.969   1.993   2.444
   16CHTO    H9 6738   4.845   1.908   2.351
   16CHTO    C4 6739   4.998   1.714   2.476
   16CHTO   H17 6740   5.004   1.770   2.569
   16CHTO    O1 6741   5.085   1.600   2.480
   16CHTO    C5 6742   5.224   1.632   2.496
   16CHTO   H18 6743   5.235   1.696   2.583
   16CHTO   C16 6744   5.300   1.499   2.522
   16CHTO   O11 6745   5.287   1.405   2.415
   16CHTO    H5 6746   5.198   1.375   2.409
   16CHTO    O3 6747   4.866   1.658   2.460
   16CHTO    C6 6748   4.802   1.612   2.584
   16CHTO   H19 6749   4.870   1.614   2.670
   16CHTO    C8 6750   4.680   1.704   2.618
   16CHTO   H21 6751   4.614   1.706   2.531
   16CHTO    O7 6752   4.730   1.836   2.645
   16CHTO    H2 6753   4.762   1.875   2.566
   16CHTO   C12 6754   4.598   1.646   2.741
   16CHTO   H25 6755   4.666   1.654   2.829
   16CHTO    N3 6756   4.475   1.726   2.772
   16CHTO   H12 6757   4.481   1.767   2.872
   16CHTO   H13 6758   4.461   1.805   2.700
   16CHTO   C15 6759   4.567   1.493   2.717
   16CHTO   H28 6760   4.494   1.479   2.637
   16CHTO   O10 6761   4.518   1.421   2.845
   16CHTO    H4 6762   4.436   1.458   2.873
   16CHTO    O5 6763   4.687   1.420   2.688
   16CHTO   C10 6764   4.754   1.465   2.569
   16CHTO   H23 6765   4.684   1.459   2.485
   16CHTO   C17 6766   4.868   1.366   2.538
   16CHTO   O12 6767   4.965   1.361   2.643
   16CHTO    H6 6768   5.033   1.302   2.620
   17CHTO  H203 6769   4.085   5.149   0.560
   17CHTO   O82 6770   4.039   5.098   0.623
   17CHTO  C123 6771   4.070   5.143   0.756
   17CHTO  H227 6772   4.010   5.084   0.828
   17CHTO   O77 6773   4.211   5.111   0.772
   17CHTO  C118 6774   4.259   5.131   0.906
   17CHTO  H222 6775   4.196   5.075   0.977
   17CHTO  C125 6776   4.405   5.076   0.915
   17CHTO   O84 6777   4.410   4.934   0.895
   17CHTO  H205 6778   4.370   4.890   0.967
   17CHTO  C114 6779   4.252   5.281   0.942
   17CHTO  H218 6780   4.319   5.336   0.875
   17CHTO  C116 6781   4.108   5.338   0.921
   17CHTO  H220 6782   4.042   5.298   1.002
   17CHTO   O79 6783   4.111   5.481   0.937
   17CHTO  H201 6784   4.024   5.516   0.933
   17CHTO  C120 6785   4.049   5.297   0.779
   17CHTO  H224 6786   4.107   5.355   0.703
   17CHTO   N21 6787   3.906   5.337   0.765
   17CHTO  H211 6788   3.884   5.356   0.662
   17CHTO  H212 6789   3.886   5.425   0.824
   17CHTO   O75 6790   4.303   5.286   1.077
   17CHTO  C112 6791   4.318   5.434   1.147
   17CHTO  H216 6792   4.218   5.470   1.176
   17CHTO   O73 6793   4.382   5.522   1.053
   17CHTO  C113 6794   4.394   5.656   1.103
   17CHTO  H217 6795   4.294   5.691   1.135
   17CHTO  C124 6796   4.438   5.750   0.989
   17CHTO   O83 6797   4.567   5.720   0.934
   17CHTO  H204 6798   4.564   5.637   0.889
   17CHTO  C109 6799   4.492   5.658   1.223
   17CHTO  H213 6800   4.590   5.623   1.186
   17CHTO  C110 6801   4.439   5.563   1.335
   17CHTO  H214 6802   4.348   5.607   1.377
   17CHTO   O78 6803   4.537   5.556   1.441
   17CHTO  H200 6804   4.544   5.639   1.484
   17CHTO  C111 6805   4.408   5.421   1.277
   17CHTO  H215 6806   4.503   5.374   1.248
   17CHTO   N19 6807   4.343   5.331   1.376
   17CHTO  H207 6808   4.250   5.373   1.411
   17CHTO  H208 6809   4.409   5.314   1.459
   17CHTO   O74 6810   4.507   5.794   1.275
   17CHTO  C115 6811   4.664   5.844   1.313
   17CHTO  H219 6812   4.668   5.894   1.410
   17CHTO   O76 6813   4.762   5.722   1.325
   17CHTO  C122 6814   4.900   5.752   1.353
   17CHTO  H226 6815   4.956   5.666   1.317
   17CHTO  C126 6816   4.924   5.753   1.509
   17CHTO   O85 6817   4.835   5.838   1.582
   17CHTO  H206 6818   4.852   5.830   1.674
   17CHTO  C121 6819   4.960   5.881   1.281
   17CHTO  H225 6820   5.042   5.921   1.344
   17CHTO   O81 6821   5.020   5.838   1.157
   17CHTO  H202 6822   4.954   5.805   1.099
   17CHTO  C119 6823   4.859   5.996   1.252
   17CHTO  H223 6824   4.846   6.050   1.346
   17CHTO  C117 6825   4.718   5.943   1.206
   17CHTO  H221 6826   4.716   5.888   1.112
   17CHTO   N20 6827   4.621   6.057   1.187
   17CHTO  H209 6828   4.526   6.018   1.154
   17CHTO  H210 6829   4.660   6.126   1.113
   17CHTO   O80 6830   4.921   6.113   1.156
   17CHTO  C103 6831   5.014   6.223   1.215
   17CHTO  H190 6832   5.001   6.233   1.322
   17CHTO  C101 6833   5.168   6.206   1.181
   17CHTO  H188 6834   5.176   6.162   1.082
   17CHTO   O68 6835   5.229   6.104   1.282
   17CHTO  H168 6836   5.229   6.141   1.369
   17CHTO   C99 6837   5.248   6.345   1.181
   17CHTO  H186 6838   5.251   6.387   1.284
   17CHTO   N17 6839   5.390   6.334   1.134
   17CHTO  H174 6840   5.393   6.299   1.032
   17CHTO  H175 6841   5.445   6.268   1.200
   17CHTO   C97 6842   5.168   6.448   1.096
   17CHTO  H184 6843   5.156   6.405   0.995
   17CHTO   O64 6844   5.041   6.467   1.161
   17CHTO  C104 6845   4.954   6.354   1.147
   17CHTO  H191 6846   4.935   6.334   1.041
   17CHTO  C108 6847   4.817   6.391   1.208
   17CHTO   O71 6848   4.825   6.423   1.347
   17CHTO  H171 6849   4.873   6.503   1.359
   17CHTO   O62 6850   5.225   6.580   1.087
   17CHTO   C91 6851   5.173   6.661   0.979
   17CHTO  H178 6852   5.123   6.595   0.907
   17CHTO   C92 6853   5.292   6.726   0.900
   17CHTO  H179 6854   5.371   6.650   0.884
   17CHTO   O66 6855   5.246   6.760   0.769
   17CHTO  H166 6856   5.175   6.822   0.773
   17CHTO   C93 6857   5.350   6.857   0.967
   17CHTO  H180 6858   5.407   6.909   0.890
   17CHTO   N16 6859   5.448   6.830   1.075
   17CHTO  H172 6860   5.403   6.770   1.153
   17CHTO  H173 6861   5.534   6.779   1.034
   17CHTO   C94 6862   5.233   6.952   1.017
   17CHTO  H181 6863   5.230   6.960   1.126
   17CHTO   O61 6864   5.103   6.905   0.977
   17CHTO   C95 6865   5.069   6.774   1.025
   17CHTO  H182 6866   5.066   6.775   1.134
   17CHTO  C106 6867   4.924   6.738   0.975
   17CHTO   O69 6868   4.827   6.825   1.034
   17CHTO  H169 6869   4.741   6.801   1.004
   17CHTO   O63 6870   5.257   7.093   0.954
   17CHTO   C96 6871   5.189   7.210   1.034
   17CHTO  H183 6872   5.157   7.173   1.131
   17CHTO   C98 6873   5.066   7.273   0.964
   17CHTO  H185 6874   5.093   7.307   0.863
   17CHTO   O67 6875   4.969   7.168   0.944
   17CHTO  H167 6876   4.895   7.201   0.896
   17CHTO  C102 6877   5.005   7.392   1.051
   17CHTO  H189 6878   4.959   7.344   1.139
   17CHTO   N18 6879   4.894   7.468   0.987
   17CHTO  H176 6880   4.811   7.402   0.967
   17CHTO  H177 6881   4.928   7.513   0.895
   17CHTO  C105 6882   5.118   7.487   1.102
   17CHTO  H192 6883   5.099   7.590   1.070
   17CHTO   O65 6884   5.250   7.457   1.052
   17CHTO  C100 6885   5.299   7.322   1.058
   17CHTO  H187 6886   5.374   7.313   0.978
   17CHTO  C107 6887   5.375   7.302   1.192
   17CHTO   O70 6888   5.441   7.175   1.198
   17CHTO  H170 6889   5.512   7.173   1.136
   17CHTO   O57 6890   5.105   7.480   1.265
   17CHTO   C85 6891   5.027   7.582   1.330
   17CHTO  H157 6892   4.971   7.635   1.249
   17CHTO   C83 6893   5.122   7.690   1.390
   17CHTO  H155 6894   5.183   7.731   1.309
   17CHTO   O56 6895   5.214   7.627   1.482
   17CHTO  H135 6896   5.277   7.689   1.513
   17CHTO   C81 6897   5.036   7.804   1.452
   17CHTO  H153 6898   4.973   7.844   1.373
   17CHTO   N14 6899   5.119   7.919   1.496
   17CHTO  H141 6900   5.098   7.944   1.598
   17CHTO  H142 6901   5.100   8.005   1.434
   17CHTO   C79 6902   4.941   7.746   1.565
   17CHTO  H151 6903   4.873   7.827   1.593
   17CHTO   O52 6904   4.858   7.637   1.513
   17CHTO   C86 6905   4.932   7.531   1.444
   17CHTO  H158 6906   4.989   7.481   1.526
   17CHTO   C90 6907   4.831   7.425   1.392
   17CHTO   O60 6908   4.735   7.483   1.303
   17CHTO  H138 6909   4.677   7.539   1.351
   17CHTO   O50 6910   5.008   7.702   1.684
   17CHTO   C73 6911   4.996   7.701   1.827
   17CHTO  H145 6912   4.981   7.804   1.864
   17CHTO   C74 6913   5.127   7.644   1.888
   17CHTO  H146 6914   5.211   7.703   1.847
   17CHTO   O54 6915   5.126   7.668   2.030
   17CHTO  H133 6916   5.206   7.638   2.069
   17CHTO   C75 6917   5.141   7.491   1.850
   17CHTO  H147 6918   5.149   7.483   1.740
   17CHTO   N13 6919   5.263   7.427   1.904
   17CHTO  H139 6920   5.351   7.477   1.866
   17CHTO  H140 6921   5.267   7.323   1.873
   17CHTO   C76 6922   5.007   7.414   1.894
   17CHTO  H148 6923   4.999   7.420   2.002
   17CHTO   O49 6924   4.891   7.478   1.832
   17CHTO   C77 6925   4.875   7.613   1.875
   17CHTO  H149 6926   4.870   7.615   1.983
   17CHTO   C88 6927   4.737   7.661   1.826
   17CHTO   O58 6928   4.702   7.787   1.885
   17CHTO  H136 6929   4.757   7.855   1.851
   17CHTO   O51 6930   5.004   7.268   1.842
   17CHTO   C78 6931   4.884   7.187   1.903
   17CHTO  H150 6932   4.805   7.255   1.942
   17CHTO   C80 6933   4.933   7.096   2.018
   17CHTO  H152 6934   5.025   7.043   1.984
   17CHTO   O55 6935   4.972   7.182   2.127
   17CHTO  H134 6936   4.898   7.227   2.161
   17CHTO   C84 6937   4.824   6.990   2.060
   17CHTO  H156 6938   4.740   7.045   2.104
   17CHTO   N15 6939   4.874   6.895   2.165
   17CHTO  H143 6940   4.958   6.840   2.127
   17CHTO  H144 6941   4.797   6.827   2.193
   17CHTO   C87 6942   4.774   6.916   1.934
   17CHTO  H159 6943   4.856   6.860   1.889
   17CHTO   O53 6944   4.721   7.017   1.836
   17CHTO   C82 6945   4.822   7.107   1.787
   17CHTO  H154 6946   4.898   7.050   1.734
   17CHTO   C89 6947   4.756   7.201   1.683
   17CHTO   O59 6948   4.651   7.280   1.740
   17CHTO  H137 6949   4.612   7.333   1.673
   17CHTO   O45 6950   4.651   6.808   1.965
   17CHTO   C67 6951   4.522   6.866   1.989
   17CHTO  H124 6952   4.533   6.959   2.044
   17CHTO   C65 6953   4.443   6.895   1.856
   17CHTO  H122 6954   4.515   6.888   1.774
   17CHTO   O44 6955   4.391   7.029   1.862
   17CHTO  H102 6956   4.462   7.091   1.864
   17CHTO   C63 6957   4.335   6.785   1.826
   17CHTO  H120 6958   4.385   6.688   1.822
   17CHTO   N11 6959   4.270   6.791   1.691
   17CHTO  H108 6960   4.163   6.787   1.699
   17CHTO  H109 6961   4.299   6.880   1.639
   17CHTO   C61 6962   4.234   6.777   1.948
   17CHTO  H118 6963   4.190   6.676   1.947
   17CHTO   O40 6964   4.298   6.794   2.078
   17CHTO   C68 6965   4.441   6.769   2.084
   17CHTO  H125 6966   4.460   6.663   2.055
   17CHTO   C72 6967   4.489   6.783   2.230
   17CHTO   O48 6968   4.427   6.689   2.318
   17CHTO  H105 6969   4.457   6.602   2.298
   17CHTO   O38 6970   4.131   6.878   1.940
   17CHTO   C55 6971   4.018   6.862   2.029
   17CHTO  H112 6972   4.047   6.803   2.117
   17CHTO   C56 6973   3.896   6.798   1.951
   17CHTO  H113 6974   3.880   6.858   1.860
   17CHTO   O42 6975   3.931   6.666   1.908
   17CHTO  H100 6976   3.862   6.629   1.856
   17CHTO   C57 6977   3.766   6.799   2.042
   17CHTO  H114 6978   3.785   6.733   2.127
   17CHTO   N10 6979   3.644   6.751   1.973
   17CHTO  H106 6980   3.576   6.706   2.045
   17CHTO  H107 6981   3.670   6.677   1.899
   17CHTO   C58 6982   3.745   6.943   2.097
   17CHTO  H115 6983   3.725   7.012   2.011
   17CHTO   O37 6984   3.862   6.988   2.167
   17CHTO   C59 6985   3.979   7.002   2.085
   17CHTO  H116 6986   3.959   7.072   2.003
   17CHTO   C70 6987   4.091   7.060   2.173
   17CHTO   O46 6988   4.204   7.106   2.099
   17CHTO  H103 6989   4.181   7.181   2.047
   17CHTO   O39 6990   3.620   6.951   2.206
   17CHTO   C60 6991   3.553   7.078   2.203
   17CHTO  H117 6992   3.627   7.156   2.186
   17CHTO   C62 6993   3.449   7.086   2.088
   17CHTO  H119 6994   3.505   7.069   1.994
   17CHTO   O43 6995   3.352   6.979   2.101
   17CHTO  H101 6996   3.303   6.989   2.180
   17CHTO   C66 6997   3.383   7.232   2.084
   17CHTO  H123 6998   3.463   7.306   2.077
   17CHTO   N12 6999   3.297   7.253   1.965
   17CHTO  H110 7000   3.256   7.353   1.966
   17CHTO  H111 7001   3.354   7.236   1.875
   17CHTO   C69 7002   3.308   7.256   2.218
   17CHTO  H126 7003   3.229   7.179   2.231
   17CHTO   O41 7004   3.411   7.246   2.334
   17CHTO   C64 7005   3.486   7.110   2.341
   17CHTO  H121 7006   3.416   7.028   2.367
   17CHTO   C71 7007   3.591   7.123   2.454
   17CHTO   O47 7008   3.650   6.998   2.487
   17CHTO  H104 7009   3.717   7.011   2.552
   17CHTO   O34 7010   3.240   7.399   2.223
   17CHTO   C49 7011   3.125   7.484   2.279
   17CHTO   H91 7012   3.170   7.575   2.319
   17CHTO   C47 7013   3.052   7.407   2.392
   17CHTO   H89 7014   2.986   7.485   2.438
   17CHTO   O33 7015   3.145   7.363   2.492
   17CHTO   H70 7016   3.203   7.298   2.456
   17CHTO   C45 7017   2.965   7.282   2.336
   17CHTO   H87 7018   3.024   7.191   2.349
   17CHTO    N8 7019   2.840   7.269   2.417
   17CHTO   H75 7020   2.829   7.351   2.487
   17CHTO   H76 7021   2.841   7.175   2.471
   17CHTO   C43 7022   2.943   7.294   2.177
   17CHTO   H85 7023   3.037   7.261   2.133
   17CHTO   O29 7024   2.913   7.430   2.142
   17CHTO   C50 7025   3.020   7.523   2.169
   17CHTO   H92 7026   3.075   7.536   2.074
   17CHTO   C54 7027   2.960   7.664   2.192
   17CHTO   O36 7028   2.864   7.666   2.299
   17CHTO   H72 7029   2.830   7.752   2.309
   17CHTO   O27 7030   2.844   7.203   2.124
   17CHTO   C37 7031   2.834   7.085   2.043
   17CHTO   H79 7032   2.742   7.088   1.984
   17CHTO   C38 7033   2.953   7.076   1.942
   17CHTO   H80 7034   3.047   7.083   1.999
   17CHTO   O31 7035   2.943   7.188   1.853
   17CHTO   H68 7036   2.961   7.268   1.898
   17CHTO   C39 7037   2.952   6.940   1.862
   17CHTO   H81 7038   2.867   6.943   1.794
   17CHTO    N7 7039   3.075   6.921   1.777
   17CHTO   H73 7040   3.081   7.000   1.704
   17CHTO   H74 7041   3.163   6.920   1.840
   17CHTO   C40 7042   2.931   6.816   1.958
   17CHTO   H82 7043   3.022   6.793   2.012
   17CHTO   O26 7044   2.820   6.839   2.047
   17CHTO   C41 7045   2.832   6.957   2.132
   17CHTO   H83 7046   2.925   6.952   2.191
   17CHTO   C52 7047   2.713   6.957   2.230
   17CHTO   O35 7048   2.716   6.842   2.322
   17CHTO   H71 7049   2.640   6.843   2.376
   17CHTO   O28 7050   2.885   6.701   1.885
   17CHTO   C42 7051   2.927   6.564   1.918
   17CHTO   H84 7052   2.850   6.503   1.871
   17CHTO   C44 7053   2.928   6.524   2.069
   17CHTO   H86 7054   2.995   6.591   2.123
   17CHTO   O32 7055   2.795   6.543   2.120
   17CHTO   H69 7056   2.773   6.634   2.121
   17CHTO   C48 7057   2.979   6.375   2.092
   17CHTO   H90 7058   2.903   6.307   2.053
   17CHTO    N9 7059   2.993   6.341   2.238
   17CHTO   H77 7060   2.897   6.348   2.287
   17CHTO   H78 7061   3.064   6.407   2.285
   17CHTO   C51 7062   3.112   6.351   2.012
   17CHTO   H93 7063   3.190   6.414   2.056
   17CHTO   O30 7064   3.088   6.384   1.875
   17CHTO   C46 7065   3.062   6.526   1.851
   17CHTO   H88 7066   3.142   6.586   1.895
   17CHTO   C53 7067   3.058   6.548   1.698
   17CHTO   O72 7068   3.188   6.525   1.641
   17CHTO  H199 7069   3.184   6.539   1.548
   17CHTO   O22 7070   3.155   6.212   2.015
   17CHTO   C31 7071   3.254   6.154   1.920
   17CHTO   H59 7072   3.297   6.066   1.972
   17CHTO   C29 7073   3.188   6.102   1.789
   17CHTO   H57 7074   3.119   6.180   1.754
   17CHTO   O21 7075   3.106   5.989   1.825
   17CHTO   H37 7076   3.053   5.964   1.752
   17CHTO   C27 7077   3.291   6.069   1.673
   17CHTO   H55 7078   3.351   5.981   1.703
   17CHTO    N5 7079   3.225   6.040   1.543
   17CHTO   H43 7080   3.249   5.939   1.511
   17CHTO   H44 7081   3.118   6.052   1.550
   17CHTO   C25 7082   3.388   6.191   1.662
   17CHTO   H53 7083   3.326   6.282   1.648
   17CHTO   O17 7084   3.460   6.202   1.787
   17CHTO   C32 7085   3.376   6.250   1.893
   17CHTO   H60 7086   3.338   6.348   1.864
   17CHTO   C36 7087   3.465   6.270   2.018
   17CHTO   O25 7088   3.527   6.149   2.062
   17CHTO   H40 7089   3.578   6.166   2.139
   17CHTO   O15 7090   3.495   6.183   1.544
   17CHTO   C19 7091   3.542   6.308   1.486
   17CHTO   H47 7092   3.617   6.276   1.412
   17CHTO   C20 7093   3.431   6.390   1.412
   17CHTO   H48 7094   3.342   6.404   1.475
   17CHTO   O19 7095   3.390   6.310   1.300
   17CHTO   H35 7096   3.317   6.349   1.257
   17CHTO   C21 7097   3.478   6.533   1.364
   17CHTO   H49 7098   3.548   6.521   1.281
   17CHTO    N4 7099   3.367   6.618   1.315
   17CHTO   H41 7100   3.384   6.646   1.212
   17CHTO   H42 7101   3.272   6.567   1.322
   17CHTO   C22 7102   3.558   6.602   1.478
   17CHTO   H50 7103   3.490   6.624   1.561
   17CHTO   O14 7104   3.665   6.517   1.523
   17CHTO   C23 7105   3.618   6.398   1.588
   17CHTO   H51 7106   3.554   6.429   1.672
   17CHTO   C34 7107   3.740   6.326   1.647
   17CHTO   O23 7108   3.797   6.403   1.753
   17CHTO   H38 7109   3.868   6.356   1.792
   17CHTO   O16 7110   3.623   6.723   1.433
   17CHTO   C24 7111   3.690   6.810   1.548
   17CHTO   H52 7112   3.715   6.750   1.635
   17CHTO   C26 7113   3.592   6.922   1.588
   17CHTO   H54 7114   3.553   6.969   1.496
   17CHTO   O20 7115   3.481   6.862   1.657
   17CHTO   H36 7116   3.416   6.926   1.676
   17CHTO   C30 7117   3.663   7.033   1.673
   17CHTO   H58 7118   3.695   6.992   1.770
   17CHTO    N6 7119   3.571   7.146   1.704
   17CHTO   H45 7120   3.534   7.190   1.612
   17CHTO   H46 7121   3.487   7.111   1.762
   17CHTO   C33 7122   3.791   7.078   1.598
   17CHTO   H61 7123   3.763   7.115   1.498
   17CHTO   O18 7124   3.876   6.963   1.583
   17CHTO   C28 7125   3.824   6.866   1.492
   17CHTO   H56 7126   3.806   6.911   1.394
   17CHTO   C35 7127   3.931   6.755   1.479
   17CHTO   O24 7128   3.903   6.662   1.374
   17CHTO   H39 7129   3.970   6.596   1.372
   17CHTO    O9 7130   3.862   7.187   1.661
   17CHTO   C13 7131   3.977   7.247   1.562
   17CHTO   H26 7132   3.963   7.203   1.461
   17CHTO   C11 7133   4.119   7.213   1.622
   17CHTO   H24 7134   4.134   7.104   1.613
   17CHTO    O8 7135   4.125   7.245   1.763
   17CHTO    H3 7136   4.112   7.336   1.776
   17CHTO    C9 7137   4.225   7.287   1.536
   17CHTO   H22 7138   4.203   7.258   1.432
   17CHTO    N2 7139   4.363   7.239   1.558
   17CHTO   H10 7140   4.396   7.264   1.658
   17CHTO   H11 7141   4.369   7.133   1.541
   17CHTO    C7 7142   4.203   7.444   1.549
   17CHTO   H20 7143   4.215   7.481   1.445
   17CHTO    O4 7144   4.071   7.480   1.597
   17CHTO   C14 7145   3.962   7.405   1.540
   17CHTO   H27 7146   3.963   7.424   1.430
   17CHTO   C18 7147   3.829   7.461   1.594
   17CHTO   O13 7148   3.805   7.593   1.543
   17CHTO    H7 7149   3.722   7.624   1.574
   17CHTO    O2 7150   4.314   7.522   1.645
   17CHTO    C1 7151   4.335   7.658   1.605
   17CHTO   H14 7152   4.248   7.693   1.545
   17CHTO    C2 7153   4.466   7.679   1.518
   17CHTO   H15 7154   4.549   7.638   1.577
   17CHTO    O6 7155   4.451   7.603   1.397
   17CHTO    H1 7156   4.530   7.606   1.347
   17CHTO    C3 7157   4.489   7.835   1.489
   17CHTO   H16 7158   4.405   7.872   1.428
   17CHTO    N1 7159   4.615   7.860   1.411
   17CHTO    H8 7160   4.684   7.922   1.467
   17CHTO    H9 7161   4.592   7.908   1.317
   17CHTO    C4 7162   4.481   7.915   1.625
   17CHTO   H17 7163   4.564   7.884   1.688
   17CHTO    O1 7164   4.356   7.887   1.690
   17CHTO    C5 7165   4.340   7.749   1.730
   17CHTO   H18 7166   4.425   7.718   1.792
   17CHTO   C16 7167   4.210   7.738   1.815
   17CHTO   O11 7168   4.221   7.814   1.936
   17CHTO    H5 7169   4.221   7.906   1.916
   17CHTO    O3 7170   4.485   8.058   1.604
   17CHTO    C6 7171   4.522   8.150   1.714
   17CHTO   H19 7172   4.524   8.253   1.677
   17CHTO    C8 7173   4.416   8.150   1.830
   17CHTO   H21 7174   4.405   8.048   1.866
   17CHTO    O7 7175   4.292   8.195   1.774
   17CHTO    H2 7176   4.298   8.285   1.746
   17CHTO   C12 7177   4.464   8.240   1.951
   17CHTO   H25 7178   4.466   8.345   1.915
   17CHTO    N3 7179   4.368   8.234   2.066
   17CHTO   H12 7180   4.357   8.133   2.101
   17CHTO   H13 7181   4.272   8.274   2.036
   17CHTO   C15 7182   4.610   8.198   1.991
   17CHTO   H28 7183   4.614   8.096   2.029
   17CHTO   O10 7184   4.676   8.293   2.094
   17CHTO    H4 7185   4.672   8.382   2.064
   17CHTO    O5 7186   4.697   8.211   1.877
   17CHTO   C10 7187   4.664   8.120   1.770
   17CHTO   H23 7188   4.669   8.019   1.810
   17CHTO   C17 7189   4.772   8.133   1.662
   17CHTO   O12 7190   4.900   8.090   1.711
   17CHTO    H6 7191   4.933   8.153   1.773
   18CHTO  H203 7192   5.961   8.034   2.464
   18CHTO   O82 7193   5.977   7.942   2.455
   18CHTO  C123 7194   5.948   7.899   2.321
   18CHTO  H227 7195   5.850   7.940   2.291
   18CHTO   O77 7196   6.054   7.958   2.241
   18CHTO  C118 7197   6.041   7.935   2.100
   18CHTO  H222 7198   5.942   7.968   2.067
   18CHTO  C125 7199   6.150   8.021   2.027
   18CHTO   O84 7200   6.283   7.985   2.067
   18CHTO  H205 7201   6.304   7.899   2.035
   18CHTO  C114 7202   6.056   7.784   2.072
   18CHTO  H218 7203   6.155   7.752   2.105
   18CHTO  C116 7204   5.950   7.703   2.152
   18CHTO  H220 7205   5.849   7.723   2.109
   18CHTO   O79 7206   5.975   7.562   2.132
   18CHTO  H201 7207   5.959   7.539   2.043
   18CHTO  C120 7208   5.951   7.742   2.306
   18CHTO  H224 7209   6.046   7.702   2.348
   18CHTO   N21 7210   5.839   7.676   2.379
   18CHTO  H211 7211   5.808   7.736   2.463
   18CHTO  H212 7212   5.869   7.578   2.411
   18CHTO   O75 7213   6.041   7.769   1.930
   18CHTO  C112 7214   6.165   7.690   1.857
   18CHTO  H216 7215   6.204   7.613   1.926
   18CHTO   O73 7216   6.265   7.788   1.824
   18CHTO  C113 7217   6.380   7.737   1.757
   18CHTO  H217 7218   6.426   7.657   1.819
   18CHTO  C124 7219   6.483   7.850   1.744
   18CHTO   O83 7220   6.529   7.897   1.872
   18CHTO  H204 7221   6.591   7.966   1.859
   18CHTO  C109 7222   6.339   7.680   1.619
   18CHTO  H213 7223   6.295   7.763   1.562
   18CHTO  C110 7224   6.232   7.568   1.640
   18CHTO  H214 7225   6.280   7.483   1.691
   18CHTO   O78 7226   6.188   7.522   1.511
   18CHTO  H200 7227   6.132   7.447   1.520
   18CHTO  C111 7228   6.112   7.620   1.725
   18CHTO  H215 7229   6.059   7.697   1.667
   18CHTO   N19 7230   6.013   7.514   1.758
   18CHTO  H207 7231   5.915   7.541   1.720
   18CHTO  H208 7232   6.008   7.495   1.864
   18CHTO   O74 7233   6.455   7.628   1.547
   18CHTO  C115 7234   6.482   7.702   1.400
   18CHTO  H219 7235   6.392   7.751   1.363
   18CHTO   O76 7236   6.589   7.815   1.413
   18CHTO  C122 7237   6.621   7.886   1.292
   18CHTO  H226 7238   6.712   7.941   1.312
   18CHTO  C126 7239   6.512   7.994   1.260
   18CHTO   O85 7240   6.503   8.094   1.363
   18CHTO  H206 7241   6.437   8.157   1.339
   18CHTO  C121 7242   6.647   7.793   1.167
   18CHTO  H225 7243   6.641   7.854   1.075
   18CHTO   O81 7244   6.781   7.742   1.176
   18CHTO  H202 7245   6.843   7.812   1.169
   18CHTO  C119 7246   6.548   7.673   1.155
   18CHTO  H223 7247   6.452   7.716   1.126
   18CHTO  C117 7248   6.528   7.598   1.292
   18CHTO  H221 7249   6.616   7.551   1.334
   18CHTO   N20 7250   6.428   7.488   1.278
   18CHTO  H209 7251   6.462   7.416   1.206
   18CHTO  H210 7252   6.332   7.528   1.247
   18CHTO   O80 7253   6.585   7.580   1.020
   18CHTO  C103 7254   6.477   7.558   0.898
   18CHTO  H190 7255   6.528   7.511   0.814
   18CHTO  C101 7256   6.352   7.469   0.932
   18CHTO  H188 7257   6.304   7.509   1.022
   18CHTO   O68 7258   6.402   7.324   0.962
   18CHTO  H168 7259   6.458   7.324   1.038
   18CHTO   C99 7260   6.245   7.473   0.813
   18CHTO  H186 7261   6.292   7.432   0.721
   18CHTO   N17 7262   6.122   7.392   0.839
   18CHTO  H174 7263   6.123   7.351   0.940
   18CHTO  H175 7264   6.032   7.449   0.822
   18CHTO   C97 7265   6.213   7.622   0.782
   18CHTO  H184 7266   6.169   7.667   0.872
   18CHTO   O64 7267   6.335   7.689   0.743
   18CHTO  C104 7268   6.431   7.701   0.849
   18CHTO  H191 7269   6.389   7.756   0.933
   18CHTO  C108 7270   6.550   7.784   0.799
   18CHTO   O71 7271   6.513   7.920   0.772
   18CHTO  H171 7272   6.494   7.965   0.852
   18CHTO   O62 7273   6.127   7.640   0.667
   18CHTO   C91 7274   6.020   7.736   0.680
   18CHTO  H178 7275   6.001   7.755   0.786
   18CHTO   C92 7276   5.889   7.673   0.624
   18CHTO  H179 7277   5.908   7.638   0.521
   18CHTO   O66 7278   5.859   7.553   0.699
   18CHTO  H166 7279   5.843   7.574   0.789
   18CHTO   C93 7280   5.766   7.772   0.628
   18CHTO  H180 7281   5.737   7.784   0.734
   18CHTO   N16 7282   5.644   7.721   0.558
   18CHTO  H172 7283   5.662   7.623   0.517
   18CHTO  H173 7284   5.560   7.719   0.626
   18CHTO   C94 7285   5.807   7.913   0.571
   18CHTO  H181 7286   5.824   7.911   0.463
   18CHTO   O61 7287   5.929   7.959   0.632
   18CHTO   C95 7288   6.042   7.874   0.608
   18CHTO  H182 7289   6.053   7.859   0.501
   18CHTO  C106 7290   6.170   7.950   0.658
   18CHTO   O69 7291   6.195   8.066   0.579
   18CHTO  H169 7292   6.272   8.110   0.611
   18CHTO   O63 7293   5.697   8.023   0.608
   18CHTO   C96 7294   5.681   8.134   0.497
   18CHTO  H183 7295   5.692   8.087   0.399
   18CHTO   C98 7296   5.784   8.251   0.506
   18CHTO  H185 7297   5.789   8.288   0.609
   18CHTO   O67 7298   5.914   8.197   0.478
   18CHTO  H167 7299   5.980   8.262   0.491
   18CHTO  C102 7300   5.750   8.371   0.405
   18CHTO  H189 7301   5.763   8.330   0.303
   18CHTO   N18 7302   5.840   8.489   0.413
   18CHTO  H176 7303   5.942   8.458   0.394
   18CHTO  H177 7304   5.810   8.563   0.340
   18CHTO  C105 7305   5.600   8.410   0.422
   18CHTO  H192 7306   5.585   8.451   0.521
   18CHTO   O65 7307   5.515   8.295   0.406
   18CHTO  C100 7308   5.534   8.192   0.505
   18CHTO  H187 7309   5.516   8.234   0.605
   18CHTO  C107 7310   5.427   8.083   0.477
   18CHTO   O70 7311   5.415   7.990   0.585
   18CHTO  H170 7312   5.378   8.033   0.660
   18CHTO   O57 7313   5.565   8.525   0.303
   18CHTO   C85 7314   5.435   8.583   0.280
   18CHTO  H157 7315   5.453   8.655   0.197
   18CHTO   C83 7316   5.388   8.673   0.400
   18CHTO  H155 7317   5.462   8.752   0.414
   18CHTO   O56 7318   5.386   8.598   0.523
   18CHTO  H135 7319   5.473   8.569   0.545
   18CHTO   C81 7320   5.251   8.737   0.364
   18CHTO  H153 7321   5.264   8.794   0.272
   18CHTO   N14 7322   5.206   8.839   0.463
   18CHTO  H141 7323   5.206   8.937   0.420
   18CHTO  H142 7324   5.267   8.839   0.550
   18CHTO   C79 7325   5.144   8.625   0.337
   18CHTO  H151 7326   5.053   8.675   0.302
   18CHTO   O52 7327   5.188   8.539   0.227
   18CHTO   C86 7328   5.321   8.480   0.244
   18CHTO  H158 7329   5.307   8.404   0.325
   18CHTO   C90 7330   5.361   8.401   0.117
   18CHTO   O60 7331   5.276   8.287   0.096
   18CHTO  H138 7332   5.190   8.316   0.073
   18CHTO   O50 7333   5.110   8.545   0.453
   18CHTO   C73 7334   4.998   8.457   0.475
   18CHTO  H145 7335   4.994   8.380   0.397
   18CHTO   C74 7336   4.863   8.536   0.474
   18CHTO  H146 7337   4.855   8.585   0.376
   18CHTO   O54 7338   4.755   8.441   0.481
   18CHTO  H133 7339   4.673   8.485   0.475
   18CHTO   C75 7340   4.864   8.641   0.592
   18CHTO  H147 7341   4.944   8.714   0.573
   18CHTO   N13 7342   4.739   8.722   0.601
   18CHTO  H139 7343   4.689   8.705   0.695
   18CHTO  H140 7344   4.762   8.827   0.592
   18CHTO   C76 7345   4.900   8.569   0.731
   18CHTO  H148 7346   4.814   8.510   0.763
   18CHTO   O49 7347   5.018   8.483   0.721
   18CHTO   C77 7348   5.012   8.387   0.614
   18CHTO  H149 7349   4.925   8.323   0.630
   18CHTO   C88 7350   5.132   8.292   0.622
   18CHTO   O58 7351   5.262   8.362   0.626
   18CHTO  H136 7352   5.269   8.411   0.706
   18CHTO   O51 7353   4.941   8.679   0.835
   18CHTO   C78 7354   4.964   8.627   0.978
   18CHTO  H150 7355   4.977   8.517   0.980
   18CHTO   C80 7356   4.842   8.664   1.066
   18CHTO  H152 7357   4.816   8.771   1.046
   18CHTO   O55 7358   4.732   8.584   1.020
   18CHTO  H134 7359   4.748   8.493   1.037
   18CHTO   C84 7360   4.868   8.645   1.221
   18CHTO  H156 7361   4.877   8.538   1.240
   18CHTO   N15 7362   4.753   8.694   1.304
   18CHTO  H143 7363   4.739   8.799   1.289
   18CHTO  H144 7364   4.773   8.677   1.408
   18CHTO   C87 7365   5.002   8.713   1.259
   18CHTO  H159 7366   4.994   8.821   1.244
   18CHTO   O53 7367   5.112   8.653   1.168
   18CHTO   C82 7368   5.094   8.690   1.031
   18CHTO  H154 7369   5.092   8.798   1.021
   18CHTO   C89 7370   5.219   8.639   0.955
   18CHTO   O59 7371   5.224   8.688   0.820
   18CHTO  H137 7372   5.301   8.656   0.778
   18CHTO   O45 7373   5.038   8.687   1.422
   18CHTO   C67 7374   5.166   8.629   1.452
   18CHTO  H124 7375   5.190   8.554   1.377
   18CHTO   C65 7376   5.280   8.738   1.452
   18CHTO  H122 7377   5.232   8.833   1.478
   18CHTO   O44 7378   5.329   8.745   1.317
   18CHTO  H102 7379   5.388   8.818   1.308
   18CHTO   C63 7380   5.387   8.714   1.565
   18CHTO  H120 7381   5.345   8.745   1.661
   18CHTO   N11 7382   5.511   8.799   1.559
   18CHTO  H108 7383   5.484   8.902   1.553
   18CHTO  H109 7384   5.569   8.772   1.474
   18CHTO   C61 7385   5.413   8.559   1.577
   18CHTO  H118 7386   5.488   8.544   1.656
   18CHTO   O40 7387   5.293   8.488   1.619
   18CHTO   C68 7388   5.163   8.552   1.589
   18CHTO  H125 7389   5.139   8.623   1.671
   18CHTO   C72 7390   5.052   8.444   1.590
   18CHTO   O48 7391   5.026   8.391   1.720
   18CHTO  H105 7392   5.101   8.342   1.750
   18CHTO   O38 7393   5.457   8.503   1.451
   18CHTO   C55 7394   5.555   8.398   1.456
   18CHTO  H112 7395   5.568   8.361   1.560
   18CHTO   C56 7396   5.691   8.448   1.394
   18CHTO  H113 7397   5.670   8.481   1.291
   18CHTO   O42 7398   5.738   8.564   1.466
   18CHTO  H100 7399   5.678   8.636   1.454
   18CHTO   C57 7400   5.797   8.332   1.396
   18CHTO  H114 7401   5.821   8.314   1.501
   18CHTO   N10 7402   5.925   8.368   1.329
   18CHTO  H106 7403   5.921   8.345   1.224
   18CHTO  H107 7404   6.007   8.313   1.374
   18CHTO   C58 7405   5.740   8.201   1.335
   18CHTO  H115 7406   5.738   8.209   1.224
   18CHTO   O37 7407   5.607   8.170   1.380
   18CHTO   C59 7408   5.508   8.274   1.374
   18CHTO  H116 7409   5.492   8.302   1.269
   18CHTO   C70 7410   5.376   8.217   1.427
   18CHTO   O46 7411   5.383   8.170   1.562
   18CHTO  H103 7412   5.438   8.094   1.567
   18CHTO   O39 7413   5.842   8.070   1.383
   18CHTO   C60 7414   5.806   8.020   1.514
   18CHTO  H117 7415   5.749   8.096   1.567
   18CHTO   C62 7416   5.717   7.893   1.501
   18CHTO  H119 7417   5.638   7.918   1.426
   18CHTO   O43 7418   5.792   7.781   1.449
   18CHTO  H101 7419   5.819   7.798   1.361
   18CHTO   C66 7420   5.649   7.867   1.642
   18CHTO  H123 7421   5.596   7.958   1.671
   18CHTO   N12 7422   5.547   7.760   1.638
   18CHTO  H110 7423   5.468   7.786   1.570
   18CHTO  H111 7424   5.593   7.666   1.610
   18CHTO   C69 7425   5.756   7.843   1.753
   18CHTO  H126 7426   5.799   7.741   1.742
   18CHTO   O41 7427   5.878   7.953   1.746
   18CHTO   C64 7428   5.929   7.987   1.603
   18CHTO  H121 7429   5.983   7.900   1.560
   18CHTO   C71 7430   6.028   8.105   1.611
   18CHTO   O47 7431   6.146   8.067   1.682
   18CHTO  H104 7432   6.206   8.139   1.684
   18CHTO   O34 7433   5.687   7.853   1.897
   18CHTO   C49 7434   5.624   7.934   2.017
   18CHTO   H91 7435   5.664   7.888   2.108
   18CHTO   C47 7436   5.470   7.922   2.016
   18CHTO   H89 7437   5.435   7.961   2.114
   18CHTO   O33 7438   5.436   7.782   2.008
   18CHTO   H70 7439   5.462   7.737   2.087
   18CHTO   C45 7440   5.406   8.010   1.898
   18CHTO   H87 7441   5.450   7.976   1.804
   18CHTO    N8 7442   5.258   7.996   1.887
   18CHTO   H75 7443   5.219   7.937   1.968
   18CHTO   H76 7444   5.232   7.951   1.793
   18CHTO   C43 7445   5.453   8.163   1.912
   18CHTO   H85 7446   5.416   8.215   1.824
   18CHTO   O29 7447   5.597   8.169   1.920
   18CHTO   C50 7448   5.665   8.084   2.015
   18CHTO   H92 7449   5.772   8.087   1.987
   18CHTO   C54 7450   5.665   8.143   2.158
   18CHTO   O36 7451   5.736   8.267   2.164
   18CHTO   H72 7452   5.733   8.301   2.252
   18CHTO   O27 7453   5.394   8.230   2.025
   18CHTO   C37 7454   5.342   8.359   2.063
   18CHTO   H79 7455   5.348   8.370   2.173
   18CHTO   C38 7456   5.424   8.477   2.000
   18CHTO   H80 7457   5.428   8.461   1.891
   18CHTO   O31 7458   5.557   8.472   2.053
   18CHTO   H68 7459   5.603   8.397   2.021
   18CHTO   C39 7460   5.356   8.617   2.030
   18CHTO   H81 7461   5.370   8.636   2.136
   18CHTO    N7 7462   5.421   8.731   1.957
   18CHTO   H73 7463   5.411   8.717   1.850
   18CHTO   H74 7464   5.375   8.825   1.986
   18CHTO   C40 7465   5.201   8.613   2.003
   18CHTO   H82 7466   5.181   8.614   1.896
   18CHTO   O26 7467   5.143   8.500   2.067
   18CHTO   C41 7468   5.195   8.373   2.019
   18CHTO   H83 7469   5.189   8.369   1.910
   18CHTO   C52 7470   5.103   8.263   2.075
   18CHTO   O35 7471   4.966   8.273   2.022
   18CHTO   H71 7472   4.966   8.254   1.931
   18CHTO   O28 7473   5.136   8.727   2.064
   18CHTO   C42 7474   4.993   8.758   2.052
   18CHTO   H84 7475   4.984   8.853   2.104
   18CHTO   C44 7476   4.894   8.660   2.123
   18CHTO   H86 7477   4.898   8.563   2.072
   18CHTO   O32 7478   4.940   8.643   2.258
   18CHTO   H69 7479   5.020   8.594   2.260
   18CHTO   C48 7480   4.746   8.714   2.118
   18CHTO   H90 7481   4.743   8.802   2.182
   18CHTO    N9 7482   4.648   8.617   2.177
   18CHTO   H77 7483   4.648   8.524   2.121
   18CHTO   H78 7484   4.548   8.660   2.177
   18CHTO   C51 7485   4.706   8.757   1.971
   18CHTO   H93 7486   4.690   8.667   1.911
   18CHTO   O30 7487   4.806   8.843   1.915
   18CHTO   C46 7488   4.943   8.779   1.906
   18CHTO   H88 7489   4.936   8.683   1.855
   18CHTO   C53 7490   5.035   8.874   1.826
   18CHTO   O72 7491   4.991   8.885   1.690
   18CHTO  H199 7492   4.911   8.934   1.686
   18CHTO   O22 7493   4.585   8.837   1.974
   18CHTO   C31 7494   4.502   8.866   1.856
   18CHTO   H59 7495   4.422   8.935   1.892
   18CHTO   C29 7496   4.575   8.939   1.740
   18CHTO   H57 7497   4.658   8.873   1.707
   18CHTO   O21 7498   4.635   9.058   1.794
   18CHTO   H37 7499   4.692   9.097   1.730
   18CHTO   C27 7500   4.481   8.968   1.617
   18CHTO   H55 7501   4.404   9.041   1.648
   18CHTO    N5 7502   4.553   9.022   1.499
   18CHTO   H43 7503   4.659   9.026   1.516
   18CHTO   H44 7504   4.516   9.121   1.475
   18CHTO   C25 7505   4.404   8.836   1.579
   18CHTO   H53 7506   4.477   8.763   1.541
   18CHTO   O17 7507   4.338   8.780   1.696
   18CHTO   C32 7508   4.428   8.741   1.801
   18CHTO   H60 7509   4.501   8.670   1.763
   18CHTO   C36 7510   4.344   8.671   1.911
   18CHTO   O25 7511   4.283   8.550   1.862
   18CHTO   H40 7512   4.349   8.486   1.845
   18CHTO   O15 7513   4.291   8.861   1.468
   18CHTO   C19 7514   4.271   8.778   1.350
   18CHTO   H47 7515   4.166   8.796   1.322
   18CHTO   C20 7516   4.363   8.820   1.230
   18CHTO   H48 7517   4.469   8.826   1.260
   18CHTO   O19 7518   4.321   8.953   1.193
   18CHTO   H35 7519   4.378   8.988   1.127
   18CHTO   C21 7520   4.352   8.721   1.107
   18CHTO   H49 7521   4.251   8.727   1.066
   18CHTO    N4 7522   4.447   8.755   0.998
   18CHTO   H41 7523   4.393   8.775   0.906
   18CHTO   H42 7524   4.518   8.676   0.981
   18CHTO   C22 7525   4.370   8.576   1.161
   18CHTO   H50 7526   4.469   8.568   1.206
   18CHTO   O14 7527   4.269   8.549   1.259
   18CHTO   C23 7528   4.283   8.625   1.380
   18CHTO   H51 7529   4.380   8.599   1.424
   18CHTO   C34 7530   4.173   8.579   1.477
   18CHTO   O23 7531   4.191   8.442   1.515
   18CHTO   H38 7532   4.268   8.433   1.568
   18CHTO   O16 7533   4.347   8.474   1.062
   18CHTO   C24 7534   4.471   8.373   1.042
   18CHTO   H52 7535   4.563   8.411   1.087
   18CHTO   C26 7536   4.493   8.351   0.891
   18CHTO   H54 7537   4.398   8.313   0.846
   18CHTO   O20 7538   4.523   8.477   0.829
   18CHTO   H36 7539   4.603   8.513   0.862
   18CHTO   C30 7540   4.606   8.246   0.866
   18CHTO   H58 7541   4.702   8.289   0.896
   18CHTO    N6 7542   4.619   8.213   0.721
   18CHTO   H45 7543   4.698   8.140   0.707
   18CHTO   H46 7544   4.642   8.302   0.665
   18CHTO   C33 7545   4.583   8.118   0.953
   18CHTO   H61 7546   4.496   8.063   0.913
   18CHTO   O18 7547   4.556   8.152   1.090
   18CHTO   C28 7548   4.441   8.236   1.110
   18CHTO   H56 7549   4.353   8.193   1.063
   18CHTO   C35 7550   4.417   8.251   1.262
   18CHTO   O24 7551   4.378   8.127   1.322
   18CHTO   H39 7552   4.365   8.140   1.414
   18CHTO    O9 7553   4.694   8.025   0.942
   18CHTO   C13 7554   4.813   8.029   1.058
   18CHTO   H26 7555   4.764   8.015   1.157
   18CHTO   C11 7556   4.894   8.165   1.052
   18CHTO   H24 7557   4.826   8.246   1.084
   18CHTO    O8 7558   4.935   8.193   0.916
   18CHTO    H3 7559   4.860   8.206   0.862
   18CHTO    C9 7560   5.012   8.157   1.152
   18CHTO   H22 7561   4.966   8.134   1.250
   18CHTO    N2 7562   5.082   8.286   1.173
   18CHTO   H10 7563   5.011   8.363   1.201
   18CHTO   H11 7564   5.157   8.275   1.250
   18CHTO    C7 7565   5.107   8.038   1.112
   18CHTO   H20 7566   5.184   8.035   1.192
   18CHTO    O4 7567   5.034   7.913   1.111
   18CHTO   C14 7568   4.908   7.902   1.041
   18CHTO   H27 7569   4.857   7.814   1.086
   18CHTO   C18 7570   4.937   7.865   0.892
   18CHTO   O13 7571   4.822   7.811   0.826
   18CHTO    H7 7572   4.844   7.791   0.738
   18CHTO    O2 7573   5.179   8.061   0.965
   18CHTO    C1 7574   5.310   8.004   0.943
   18CHTO   H14 7575   5.327   8.004   0.833
   18CHTO    C2 7576   5.334   7.857   0.997
   18CHTO   H15 7577   5.316   7.859   1.105
   18CHTO    O6 7578   5.240   7.768   0.934
   18CHTO    H1 7579   5.153   7.787   0.962
   18CHTO    C3 7580   5.484   7.810   0.966
   18CHTO   H16 7581   5.498   7.804   0.857
   18CHTO    N1 7582   5.516   7.675   1.023
   18CHTO    H8 7583   5.450   7.601   0.979
   18CHTO    H9 7584   5.503   7.676   1.130
   18CHTO    C4 7585   5.585   7.920   1.015
   18CHTO   H17 7586   5.586   7.921   1.125
   18CHTO    O1 7587   5.550   8.050   0.965
   18CHTO    C5 7588   5.420   8.098   1.001
   18CHTO   H18 7589   5.409   8.100   1.109
   18CHTO   C16 7590   5.407   8.243   0.946
   18CHTO   O11 7591   5.501   8.331   1.008
   18CHTO    H5 7592   5.588   8.310   0.981
   18CHTO    O3 7593   5.718   7.897   0.962
   18CHTO    C6 7594   5.827   7.936   1.051
   18CHTO   H19 7595   5.793   7.988   1.141
   18CHTO    C8 7596   5.909   7.810   1.096
   18CHTO   H21 7597   5.946   7.760   1.006
   18CHTO    O7 7598   5.819   7.722   1.166
   18CHTO    H2 7599   5.788   7.762   1.244
   18CHTO   C12 7600   6.031   7.854   1.186
   18CHTO   H25 7601   5.988   7.891   1.281
   18CHTO    N3 7602   6.118   7.737   1.221
   18CHTO   H12 7603   6.060   7.663   1.275
   18CHTO   H13 7604   6.201   7.770   1.282
   18CHTO   C15 7605   6.112   7.972   1.118
   18CHTO   H28 7606   6.177   7.937   1.038
   18CHTO   O10 7607   6.193   8.049   1.220
   18CHTO    H4 7608   6.258   7.994   1.258
   18CHTO    O5 7609   6.026   8.077   1.070
   18CHTO   C10 7610   5.925   8.032   0.978
   18CHTO   H23 7611   5.973   7.979   0.896
   18CHTO   C17 7612   5.855   8.155   0.920
   18CHTO   O12 7613   5.942   8.227   0.832
   18CHTO    H6 7614   6.011   8.268   0.881
   19CHTO  H203 7615   5.264   9.985   0.104
   19CHTO   O82 7616   5.308   9.909   0.071
   19CHTO  C123 7617   5.216   9.830   2.872
   19CHTO  H227 7618   5.178   9.891   2.788
   19CHTO   O77 7619   5.301   9.723   2.821
   19CHTO  C118 7620   5.236   9.632   2.731
   19CHTO  H222 7621   5.195   9.687   2.645
   19CHTO  C125 7622   5.344   9.531   2.680
   19CHTO   O84 7623   5.445   9.595   2.602
   19CHTO  H205 7624   5.409   9.624   2.520
   19CHTO  C114 7625   5.122   9.558   2.804
   19CHTO  H218 7626   5.165   9.499   0.008
   19CHTO  C116 7627   5.022   9.660   2.868
   19CHTO  H220 7628   4.965   9.711   2.787
   19CHTO   O79 7629   4.926   9.585   0.067
   19CHTO  H201 7630   4.860   9.643   0.102
   19CHTO  C120 7631   5.099   9.767   0.078
   19CHTO  H224 7632   5.140   9.713   0.166
   19CHTO   N21 7633   5.007   9.872   0.131
   19CHTO  H211 7634   4.966   9.842   0.226
   19CHTO  H212 7635   4.928   9.893   0.060
   19CHTO   O75 7636   5.060   9.473   2.706
   19CHTO  C112 7637   5.060   9.312   2.747
   19CHTO  H216 7638   5.044   9.303   2.856
   19CHTO   O73 7639   5.187   9.258   2.707
   19CHTO  C113 7640   5.204   9.119   2.738
   19CHTO  H217 7641   5.186   9.104   2.847
   19CHTO  C124 7642   5.350   9.079   2.710
   19CHTO   O83 7643   5.443   9.152   2.791
   19CHTO  H204 7644   5.531   9.128   2.768
   19CHTO  C109 7645   5.104   9.035   2.655
   19CHTO  H213 7646   5.127   9.053   2.549
   19CHTO  C110 7647   4.959   9.082   2.689
   19CHTO  H214 7648   4.937   9.054   2.792
   19CHTO   O78 7649   4.867   9.010   2.604
   19CHTO  H200 7650   4.778   9.028   2.630
   19CHTO  C111 7651   4.944   9.236   2.671
   19CHTO  H215 7652   4.954   9.260   2.564
   19CHTO   N19 7653   4.812   9.289   2.714
   19CHTO  H207 7654   4.807   9.395   2.697
   19CHTO  H208 7655   4.733   9.240   2.659
   19CHTO   O74 7656   5.123   8.893   2.684
   19CHTO  C115 7657   5.101   8.796   2.561
   19CHTO  H219 7658   5.009   8.820   2.506
   19CHTO   O76 7659   5.217   8.810   2.452
   19CHTO  C122 7660   5.337   8.742   2.492
   19CHTO  H226 7661   5.370   8.785   2.587
   19CHTO  C126 7662   5.452   8.773   2.390
   19CHTO   O85 7663   5.489   8.911   2.388
   19CHTO  H206 7664   5.559   8.924   2.327
   19CHTO  C121 7665   5.316   8.586   2.507
   19CHTO  H225 7666   5.353   8.535   2.415
   19CHTO   O81 7667   5.394   8.541   2.618
   19CHTO  H202 7668   5.396   8.447   2.620
   19CHTO  C119 7669   5.165   8.547   2.527
   19CHTO  H223 7670   5.120   8.554   2.428
   19CHTO  C117 7671   5.090   8.650   2.621
   19CHTO  H221 7672   5.131   8.656   2.722
   19CHTO   N20 7673   4.946   8.612   2.640
   19CHTO  H209 7674   4.939   8.512   2.681
   19CHTO  H210 7675   4.898   8.682   2.706
   19CHTO   O80 7676   5.146   8.392   2.561
   19CHTO  C103 7677   5.165   8.287   2.450
   19CHTO  H190 7678   5.173   8.334   2.353
   19CHTO  C101 7679   5.286   8.187   2.471
   19CHTO  H188 7680   5.288   8.155   2.575
   19CHTO   O68 7681   5.419   8.264   2.441
   19CHTO  H168 7682   5.428   8.336   2.500
   19CHTO   C99 7683   5.272   8.056   2.379
   19CHTO  H186 7684   5.279   8.087   2.272
   19CHTO   N17 7685   5.379   7.954   2.402
   19CHTO  H174 7686   5.439   7.941   2.314
   19CHTO  H175 7687   5.337   7.859   2.434
   19CHTO   C97 7688   5.129   7.998   2.396
   19CHTO  H184 7689   5.118   7.965   2.501
   19CHTO   O64 7690   5.033   8.098   2.361
   19CHTO  C104 7691   5.028   8.208   2.452
   19CHTO  H191 7692   5.007   8.175   2.553
   19CHTO  C108 7693   4.911   8.299   2.411
   19CHTO   O71 7694   4.787   8.227   2.412
   19CHTO  H171 7695   4.763   8.205   2.500
   19CHTO   O62 7696   5.098   7.888   2.307
   19CHTO   C91 7697   4.983   7.810   2.344
   19CHTO  H178 7698   4.932   7.857   2.428
   19CHTO   C92 7699   5.028   7.669   2.393
   19CHTO  H179 7700   5.092   7.623   2.315
   19CHTO   O66 7701   5.114   7.688   2.507
   19CHTO  H166 7702   5.152   7.607   2.534
   19CHTO   C93 7703   4.906   7.575   2.429
   19CHTO  H180 7704   4.863   7.614   2.523
   19CHTO   N16 7705   4.948   7.435   2.458
   19CHTO  H172 7706   4.915   7.405   2.557
   19CHTO  H173 7707   4.910   7.366   2.384
   19CHTO   C94 7708   4.796   7.580   2.317
   19CHTO  H181 7709   4.828   7.530   2.226
   19CHTO   O61 7710   4.765   7.716   2.283
   19CHTO   C95 7711   4.875   7.790   2.230
   19CHTO  H182 7712   4.919   7.734   2.148
   19CHTO  C106 7713   4.820   7.924   2.173
   19CHTO   O69 7714   4.915   7.985   2.086
   19CHTO  H169 7715   4.924   7.935   2.008
   19CHTO   O63 7716   4.658   7.516   2.371
   19CHTO   C96 7717   4.585   7.434   2.262
   19CHTO  H183 7718   4.655   7.359   2.225
   19CHTO   C98 7719   4.535   7.517   2.138
   19CHTO  H185 7720   4.618   7.577   2.097
   19CHTO   O67 7721   4.499   7.425   2.034
   19CHTO  H167 7722   4.574   7.378   2.003
   19CHTO  C102 7723   4.407   7.608   2.172
   19CHTO  H189 7724   4.358   7.625   2.075
   19CHTO   N18 7725   4.438   7.743   2.224
   19CHTO  H176 7726   4.346   7.798   2.241
   19CHTO  H177 7727   4.493   7.735   2.317
   19CHTO  C105 7728   4.308   7.530   2.263
   19CHTO  H192 7729   4.314   7.568   2.366
   19CHTO   O65 7730   4.335   7.388   2.270
   19CHTO  C100 7731   4.462   7.358   2.331
   19CHTO  H187 7732   4.456   7.389   2.437
   19CHTO  C107 7733   4.481   7.204   2.329
   19CHTO   O70 7734   4.597   7.165   2.404
   19CHTO  H170 7735   4.605   7.072   2.402
   19CHTO   O57 7736   4.165   7.564   2.201
   19CHTO   C85 7737   4.048   7.485   2.232
   19CHTO  H157 7738   4.083   7.388   2.273
   19CHTO   C83 7739   3.976   7.451   2.098
   19CHTO  H155 7740   4.047   7.397   2.034
   19CHTO   O56 7741   3.947   7.574   2.029
   19CHTO  H135 7742   3.913   7.556   1.943
   19CHTO   C81 7743   3.854   7.360   2.125
   19CHTO  H153 7744   3.890   7.267   2.169
   19CHTO   N14 7745   3.788   7.316   1.999
   19CHTO  H141 7746   3.713   7.244   2.020
   19CHTO  H142 7747   3.743   7.400   1.950
   19CHTO   C79 7748   3.754   7.426   2.229
   19CHTO  H151 7749   3.684   7.349   2.260
   19CHTO   O52 7750   3.825   7.469   2.350
   19CHTO   C86 7751   3.941   7.554   2.326
   19CHTO  H158 7752   3.898   7.646   2.279
   19CHTO   C90 7753   3.999   7.599   2.462
   19CHTO   O60 7754   4.095   7.704   2.449
   19CHTO  H138 7755   4.052   7.783   2.421
   19CHTO   O50 7756   3.677   7.534   2.175
   19CHTO   C73 7757   3.560   7.617   2.171
   19CHTO  H145 7758   3.477   7.569   2.225
   19CHTO   C74 7759   3.517   7.639   2.023
   19CHTO  H146 7760   3.494   7.540   1.980
   19CHTO   O54 7761   3.393   7.713   2.021
   19CHTO  H133 7762   3.363   7.723   1.933
   19CHTO   C75 7763   3.636   7.710   1.947
   19CHTO  H147 7764   3.722   7.643   1.947
   19CHTO   N13 7765   3.611   7.735   1.802
   19CHTO  H139 7766   3.514   7.697   1.773
   19CHTO  H140 7767   3.615   7.841   1.780
   19CHTO   C76 7768   3.679   7.843   2.026
   19CHTO  H148 7769   3.601   7.918   2.013
   19CHTO   O49 7770   3.700   7.819   2.169
   19CHTO   C77 7771   3.590   7.755   2.237
   19CHTO  H149 7772   3.501   7.818   2.231
   19CHTO   C88 7773   3.624   7.744   2.386
   19CHTO   O58 7774   3.511   7.685   2.464
   19CHTO  H136 7775   3.438   7.743   2.463
   19CHTO   O51 7776   3.821   7.892   1.974
   19CHTO   C78 7777   3.848   8.041   2.006
   19CHTO  H150 7778   3.777   8.079   2.084
   19CHTO   C80 7779   3.830   8.125   1.877
   19CHTO  H152 7780   3.895   8.081   1.798
   19CHTO   O55 7781   3.693   8.112   1.835
   19CHTO  H134 7782   3.635   8.150   1.898
   19CHTO   C84 7783   3.870   8.277   1.900
   19CHTO  H156 7784   3.793   8.321   1.963
   19CHTO   N15 7785   3.870   8.355   1.771
   19CHTO  H143 7786   3.943   8.314   1.703
   19CHTO  H144 7787   3.895   8.457   1.791
   19CHTO   C87 7788   4.007   8.287   1.973
   19CHTO  H159 7789   4.087   8.261   1.904
   19CHTO   O53 7790   4.010   8.196   2.093
   19CHTO   C82 7791   3.990   8.058   2.061
   19CHTO  H154 7792   4.065   8.023   1.990
   19CHTO   C89 7793   4.013   7.979   2.192
   19CHTO   O59 7794   4.024   7.838   2.168
   19CHTO  H137 7795   4.038   7.794   2.250
   19CHTO   O45 7796   4.036   8.441   2.028
   19CHTO   C67 7797   3.955   8.485   2.138
   19CHTO  H124 7798   3.857   8.438   2.130
   19CHTO   C65 7799   4.017   8.449   2.278
   19CHTO  H122 7800   4.121   8.422   2.259
   19CHTO   O44 7801   3.948   8.333   2.327
   19CHTO  H102 7802   3.860   8.355   2.353
   19CHTO   C63 7803   4.024   8.572   2.377
   19CHTO  H120 7804   4.098   8.643   2.338
   19CHTO   N11 7805   4.079   8.543   2.514
   19CHTO  H108 7806   4.014   8.581   2.590
   19CHTO  H109 7807   4.176   8.585   2.526
   19CHTO   C61 7808   3.886   8.647   2.374
   19CHTO  H118 7809   3.899   8.738   2.434
   19CHTO   O40 7810   3.848   8.689   2.240
   19CHTO   C68 7811   3.926   8.640   2.126
   19CHTO  H125 7812   4.022   8.696   2.122
   19CHTO   C72 7813   3.848   8.674   1.997
   19CHTO   O48 7814   3.824   8.815   1.983
   19CHTO  H105 7815   3.905   8.860   1.968
   19CHTO   O38 7816   3.779   8.566   2.429
   19CHTO   C55 7817   3.654   8.636   2.450
   19CHTO  H112 7818   3.649   8.725   2.385
   19CHTO   C56 7819   3.636   8.674   2.602
   19CHTO  H113 7820   3.639   8.581   2.660
   19CHTO   O42 7821   3.749   8.753   2.646
   19CHTO  H100 7822   3.743   8.770   2.738
   19CHTO   C57 7823   3.500   8.751   2.622
   19CHTO  H114 7824   3.511   8.847   2.572
   19CHTO   N10 7825   3.469   8.780   2.765
   19CHTO  H106 7826   3.409   8.869   2.772
   19CHTO  H107 7827   3.416   8.698   2.811
   19CHTO   C58 7828   3.382   8.674   2.555
   19CHTO  H115 7829   3.354   8.587   2.619
   19CHTO   O37 7830   3.414   8.626   2.423
   19CHTO   C59 7831   3.533   8.548   2.408
   19CHTO  H116 7832   3.527   8.457   2.469
   19CHTO   C70 7833   3.540   8.508   2.260
   19CHTO   O46 7834   3.635   8.404   2.233
   19CHTO  H103 7835   3.606   8.324   2.272
   19CHTO   O39 7836   3.249   8.781   2.543
   19CHTO   C60 7837   3.211   8.819   2.409
   19CHTO  H117 7838   3.296   8.809   2.342
   19CHTO   C62 7839   3.099   8.723   2.358
   19CHTO  H119 7840   3.140   8.620   2.366
   19CHTO   O43 7841   2.983   8.733   2.444
   19CHTO  H101 7842   2.918   8.671   2.417
   19CHTO   C66 7843   3.069   8.756   2.204
   19CHTO  H123 7844   3.162   8.744   2.148
   19CHTO   N12 7845   2.973   8.660   2.143
   19CHTO  H110 7846   2.956   8.685   2.040
   19CHTO  H111 7847   3.010   8.559   2.153
   19CHTO   C69 7848   3.024   8.904   2.189
   19CHTO  H126 7849   2.924   8.918   2.237
   19CHTO   O41 7850   3.129   9.001   2.256
   19CHTO   C64 7851   3.164   8.967   2.401
   19CHTO  H121 7852   3.075   8.982   2.466
   19CHTO   C71 7853   3.275   9.066   2.445
   19CHTO   O47 7854   3.301   9.059   2.586
   19CHTO  H104 7855   3.227   9.092   2.634
   19CHTO   O34 7856   3.010   8.944   2.037
   19CHTO   C49 7857   3.107   8.981   1.921
   19CHTO   H91 7858   3.132   9.086   1.933
   19CHTO   C47 7859   3.031   8.959   1.788
   19CHTO   H89 7860   3.098   8.994   1.707
   19CHTO   O33 7861   2.913   9.040   1.788
   19CHTO   H70 7862   2.852   9.010   1.854
   19CHTO   C45 7863   3.001   8.801   1.771
   19CHTO   H87 7864   2.943   8.768   1.858
   19CHTO    N8 7865   2.922   8.772   1.649
   19CHTO   H75 7866   2.899   8.666   1.645
   19CHTO   H76 7867   2.831   8.829   1.649
   19CHTO   C43 7868   3.139   8.718   1.779
   19CHTO   H85 7869   3.109   8.613   1.783
   19CHTO   O29 7870   3.216   8.755   1.895
   19CHTO   C50 7871   3.236   8.895   1.924
   19CHTO   H92 7872   3.277   8.902   2.025
   19CHTO   C54 7873   3.349   8.958   1.837
   19CHTO   O36 7874   3.475   8.892   1.858
   19CHTO   H72 7875   3.471   8.805   1.823
   19CHTO   O27 7876   3.221   8.732   1.662
   19CHTO   C37 7877   3.271   8.637   1.566
   19CHTO   H79 7878   3.198   8.556   1.551
   19CHTO   C38 7879   3.293   8.708   1.429
   19CHTO   H80 7880   3.356   8.796   1.444
   19CHTO   O31 7881   3.164   8.751   1.381
   19CHTO   H68 7882   3.107   8.678   1.366
   19CHTO   C39 7883   3.362   8.612   1.324
   19CHTO   H81 7884   3.290   8.534   1.300
   19CHTO    N7 7885   3.397   8.681   1.195
   19CHTO   H73 7886   3.504   8.680   1.177
   19CHTO   H74 7887   3.346   8.634   1.112
   19CHTO   C40 7888   3.488   8.541   1.388
   19CHTO   H82 7889   3.571   8.610   1.397
   19CHTO   O26 7890   3.453   8.481   1.514
   19CHTO   C41 7891   3.406   8.575   1.614
   19CHTO   H83 7892   3.480   8.656   1.628
   19CHTO   C52 7893   3.394   8.498   1.748
   19CHTO   O35 7894   3.523   8.449   1.796
   19CHTO   H71 7895   3.511   8.404   1.878
   19CHTO   O28 7896   3.529   8.428   1.309
   19CHTO   C42 7897   3.659   8.364   1.329
   19CHTO   H84 7898   3.692   8.396   1.428
   19CHTO   C44 7899   3.771   8.409   1.230
   19CHTO   H86 7900   3.737   8.389   1.128
   19CHTO   O32 7901   3.784   8.552   1.245
   19CHTO   H69 7902   3.844   8.586   1.181
   19CHTO   C48 7903   3.907   8.333   1.254
   19CHTO   H90 7904   3.947   8.366   1.350
   19CHTO    N9 7905   4.011   8.370   1.151
   19CHTO   H77 7906   4.043   8.284   1.095
   19CHTO   H78 7907   4.096   8.417   1.199
   19CHTO   C51 7908   3.882   8.178   1.261
   19CHTO   H93 7909   3.848   8.145   1.163
   19CHTO   O30 7910   3.785   8.149   1.363
   19CHTO   C46 7911   3.649   8.209   1.332
   19CHTO   H88 7912   3.616   8.174   1.235
   19CHTO   C53 7913   3.549   8.159   1.440
   19CHTO   O72 7914   3.587   8.200   1.572
   19CHTO  H199 7915   3.525   8.167   1.634
   19CHTO   O22 7916   4.000   8.107   1.302
   19CHTO   C31 7917   4.035   7.976   1.246
   19CHTO   H59 7918   3.938   7.924   1.227
   19CHTO   C29 7919   4.110   7.983   1.111
   19CHTO   H57 7920   4.191   8.056   1.125
   19CHTO   O21 7921   4.022   8.041   1.012
   19CHTO   H37 7922   3.952   7.983   0.992
   19CHTO   C27 7923   4.170   7.846   1.062
   19CHTO   H55 7924   4.087   7.779   1.034
   19CHTO    N5 7925   4.262   7.860   0.946
   19CHTO   H43 7926   4.274   7.964   0.919
   19CHTO   H44 7927   4.224   7.804   0.861
   19CHTO   C25 7928   4.243   7.777   1.183
   19CHTO   H53 7929   4.328   7.841   1.215
   19CHTO   O17 7930   4.150   7.762   1.294
   19CHTO   C32 7931   4.111   7.888   1.351
   19CHTO   H60 7932   4.199   7.943   1.385
   19CHTO   C36 7933   4.022   7.857   1.474
   19CHTO   O25 7934   3.999   7.973   1.554
   19CHTO   H40 7935   3.944   7.950   1.627
   19CHTO   O15 7936   4.300   7.636   1.146
   19CHTO   C19 7937   4.313   7.502   1.090
   19CHTO   H47 7938   4.292   7.517   0.983
   19CHTO   C20 7939   4.456   7.441   1.105
   19CHTO   H48 7940   4.484   7.429   1.210
   19CHTO   O19 7941   4.548   7.534   1.045
   19CHTO   H35 7942   4.533   7.543   0.953
   19CHTO   C21 7943   4.466   7.299   1.035
   19CHTO   H49 7944   4.461   7.313   0.928
   19CHTO    N4 7945   4.596   7.231   1.062
   19CHTO   H41 7946   4.610   7.218   1.168
   19CHTO   H42 7947   4.677   7.290   1.023
   19CHTO   C22 7948   4.346   7.210   1.075
   19CHTO   H50 7949   4.358   7.172   1.177
   19CHTO   O14 7950   4.220   7.279   1.064
   19CHTO   C23 7951   4.209   7.400   1.141
   19CHTO   H51 7952   4.226   7.374   1.247
   19CHTO   C34 7953   4.065   7.453   1.128
   19CHTO   O23 7954   3.969   7.358   1.175
   19CHTO   H38 7955   3.966   7.284   1.118
   19CHTO   O16 7956   4.327   7.103   0.980
   19CHTO   C24 7957   4.340   6.953   1.037
   19CHTO   H52 7958   4.387   6.951   1.136
   19CHTO   C26 7959   4.424   6.871   0.937
   19CHTO   H54 7960   4.379   6.884   0.835
   19CHTO   O20 7961   4.557   6.926   0.934
   19CHTO   H36 7962   4.557   7.012   0.897
   19CHTO   C30 7963   4.423   6.719   0.972
   19CHTO   H58 7964   4.477   6.703   1.067
   19CHTO    N6 7965   4.495   6.639   0.869
   19CHTO   H45 7966   4.494   6.534   0.896
   19CHTO   H46 7967   4.598   6.672   0.862
   19CHTO   C33 7968   4.277   6.669   0.994
   19CHTO   H61 7969   4.222   6.674   0.899
   19CHTO   O18 7970   4.211   6.753   1.090
   19CHTO   C28 7971   4.198   6.891   1.052
   19CHTO   H56 7972   4.146   6.900   0.957
   19CHTO   C35 7973   4.113   6.965   1.159
   19CHTO   O24 7974   4.170   6.963   1.291
   19CHTO   H39 7975   4.169   6.875   1.325
   19CHTO    O9 7976   4.274   6.530   1.035
   19CHTO   C13 7977   4.138   6.453   1.002
   19CHTO   H26 7978   4.098   6.492   0.906
   19CHTO   C11 7979   4.035   6.471   1.121
   19CHTO   H24 7980   4.006   6.577   1.124
   19CHTO    O8 7981   4.097   6.440   1.247
   19CHTO    H3 7982   4.121   6.350   1.250
   19CHTO    C9 7983   3.909   6.387   1.088
   19CHTO   H22 7984   3.873   6.424   0.990
   19CHTO    N2 7985   3.795   6.409   1.181
   19CHTO   H10 7986   3.824   6.470   1.265
   19CHTO   H11 7987   3.711   6.454   1.129
   19CHTO    C7 7988   3.948   6.236   1.073
   19CHTO   H20 7989   3.856   6.188   1.034
   19CHTO    O4 7990   4.051   6.215   0.975
   19CHTO   C14 7991   4.168   6.299   0.975
   19CHTO   H27 7992   4.208   6.292   0.873
   19CHTO   C18 7993   4.277   6.240   1.069
   19CHTO   O13 7994   4.318   6.110   1.023
   19CHTO    H7 7995   4.384   6.076   1.080
   19CHTO    O2 7996   3.994   6.171   1.216
   19CHTO    C1 7997   3.942   6.042   1.253
   19CHTO   H14 7998   3.974   5.967   1.177
   19CHTO    C2 7999   3.784   6.033   1.270
   19CHTO   H15 8000   3.755   6.125   1.323
   19CHTO    O6 8001   3.720   6.031   1.140
   19CHTO    H1 8002   3.735   6.112   1.096
   19CHTO    C3 8003   3.737   5.905   1.354
   19CHTO   H16 8004   3.752   5.815   1.293
   19CHTO    N1 8005   3.591   5.910   1.390
   19CHTO    H8 8006   3.544   6.000   1.352
   19CHTO    H9 8007   3.539   5.824   1.351
   19CHTO    C4 8008   3.828   5.887   1.480
   19CHTO   H17 8009   3.813   5.972   1.547
   19CHTO    O1 8010   3.966   5.879   1.441
   19CHTO    C5 8011   4.015   6.003   1.386
   19CHTO   H18 8012   3.995   6.083   1.458
   19CHTO   C16 8013   4.168   5.990   1.368
   19CHTO   O11 8014   4.203   5.884   1.277
   19CHTO    H5 8015   4.296   5.880   1.268
   19CHTO    O3 8016   3.801   5.763   1.549
   19CHTO    C6 8017   3.822   5.766   1.694
   19CHTO   H19 8018   3.895   5.842   1.724
   19CHTO    C8 8019   3.687   5.795   1.768
   19CHTO   H21 8020   3.612   5.725   1.730
   19CHTO    O7 8021   3.647   5.930   1.736
   19CHTO    H2 8022   3.623   5.937   1.646
   19CHTO   C12 8023   3.702   5.775   1.924
   19CHTO   H25 8024   3.768   5.857   1.960
   19CHTO    N3 8025   3.570   5.791   1.996
   19CHTO   H12 8026   3.490   5.812   1.927
   19CHTO   H13 8027   3.577   5.869   2.070
   19CHTO   C15 8028   3.772   5.638   1.954
   19CHTO   H28 8029   3.707   5.553   1.930
   19CHTO   O10 8030   3.819   5.627   2.101
   19CHTO    H4 8031   3.849   5.540   2.119
   19CHTO    O5 8032   3.896   5.627   1.882
   19CHTO   C10 8033   3.879   5.628   1.739
   19CHTO   H23 8034   3.810   5.549   1.711
   19CHTO   C17 8035   4.016   5.595   1.677
   19CHTO   O12 8036   4.006   5.566   1.537
   19CHTO    H6 8037   4.091   5.544   1.504
   20CHTO  H203 8038   4.915   0.662   2.481
   20CHTO   O82 8039   4.897   0.687   2.392
   20CHTO  C123 8040   4.880   0.830   2.383
   20CHTO  H227 8041   4.813   0.863   2.464
   20CHTO   O77 8042   5.015   0.882   2.408
   20CHTO  C118 8043   5.024   1.025   2.408
   20CHTO  H222 8044   4.951   1.066   2.479
   20CHTO  C125 8045   5.169   1.066   2.455
   20CHTO   O84 8046   5.271   1.017   2.367
   20CHTO  H205 8047   5.275   0.924   2.371
   20CHTO  C114 8048   4.991   1.076   2.266
   20CHTO  H218 8049   5.060   1.030   2.195
   20CHTO  C116 8050   4.847   1.033   2.227
   20CHTO  H220 8051   4.774   1.086   2.292
   20CHTO   O79 8052   4.821   1.078   2.092
   20CHTO  H201 8053   4.732   1.061   2.069
   20CHTO  C120 8054   4.829   0.877   2.242
   20CHTO  H224 8055   4.891   0.831   2.163
   20CHTO   N21 8056   4.689   0.833   2.218
   20CHTO  H211 8057   4.619   0.911   2.248
   20CHTO  H212 8058   4.675   0.810   2.113
   20CHTO   O75 8059   5.008   1.219   2.270
   20CHTO  C112 8060   5.094   1.277   2.146
   20CHTO  H216 8061   5.059   1.229   2.053
   20CHTO   O73 8062   5.232   1.248   2.172
   20CHTO  C113 8063   5.325   1.296   2.074
   20CHTO  H217 8064   5.299   1.253   1.974
   20CHTO  C124 8065   5.466   1.248   2.111
   20CHTO   O83 8066   5.476   1.105   2.112
   20CHTO  H204 8067   5.469   1.072   2.025
   20CHTO  C109 8068   5.319   1.451   2.067
   20CHTO  H213 8069   5.349   1.488   2.166
   20CHTO  C110 8070   5.172   1.496   2.035
   20CHTO  H214 8071   5.148   1.464   1.934
   20CHTO   O78 8072   5.166   1.640   2.038
   20CHTO  H200 8073   5.216   1.676   1.967
   20CHTO  C111 8074   5.071   1.433   2.136
   20CHTO  H215 8075   5.091   1.475   2.236
   20CHTO   N19 8076   4.929   1.465   2.103
   20CHTO  H207 8077   4.872   1.375   2.084
   20CHTO  H208 8078   4.883   1.519   2.184
   20CHTO   O74 8079   5.413   1.501   1.967
   20CHTO  C115 8080   5.484   1.638   2.010
   20CHTO  H219 8081   5.424   1.692   2.084
   20CHTO   O76 8082   5.619   1.612   2.081
   20CHTO  C122 8083   5.720   1.562   1.992
   20CHTO  H226 8084   5.682   1.469   1.950
   20CHTO  C126 8085   5.846   1.523   2.076
   20CHTO   O85 8086   5.902   1.633   2.148
   20CHTO  H206 8087   5.979   1.606   2.193
   20CHTO  C121 8088   5.755   1.664   1.876
   20CHTO  H225 8089   5.852   1.712   1.901
   20CHTO   O81 8090   5.775   1.590   1.755
   20CHTO  H202 8091   5.808   1.646   1.688
   20CHTO  C119 8092   5.647   1.777   1.860
   20CHTO  H223 8093   5.666   1.840   1.948
   20CHTO  C117 8094   5.500   1.724   1.878
   20CHTO  H221 8095   5.463   1.660   1.798
   20CHTO   N20 8096   5.405   1.840   1.880
   20CHTO  H209 8097   5.425   1.903   1.966
   20CHTO  H210 8098   5.303   1.805   1.883
   20CHTO   O80 8099   5.681   1.884   1.736
   20CHTO  C103 8100   5.618   1.863   1.575
   20CHTO  H190 8101   5.701   1.865   1.504
   20CHTO  C101 8102   5.525   1.742   1.534
   20CHTO  H188 8103   5.439   1.737   1.602
   20CHTO   O68 8104   5.602   1.614   1.544
   20CHTO  H168 8105   5.545   1.541   1.531
   20CHTO   C99 8106   5.467   1.762   1.385
   20CHTO  H186 8107   5.552   1.760   1.314
   20CHTO   N17 8108   5.370   1.655   1.341
   20CHTO  H174 8109   5.413   1.596   1.261
   20CHTO  H175 8110   5.340   1.593   1.424
   20CHTO   C97 8111   5.403   1.903   1.371
   20CHTO  H184 8112   5.310   1.906   1.430
   20CHTO   O64 8113   5.497   2.004   1.413
   20CHTO  C104 8114   5.535   1.995   1.551
   20CHTO  H191 8115   5.448   1.995   1.617
   20CHTO  C108 8116   5.615   2.121   1.589
   20CHTO   O71 8117   5.535   2.239   1.578
   20CHTO  H171 8118   5.521   2.258   1.487
   20CHTO   O62 8119   5.377   1.935   1.233
   20CHTO   C91 8120   5.291   2.048   1.206
   20CHTO  H178 8121   5.284   2.109   1.295
   20CHTO   C92 8122   5.146   1.997   1.174
   20CHTO  H179 8123   5.152   1.917   1.098
   20CHTO   O66 8124   5.094   1.933   1.293
   20CHTO  H166 8125   5.142   1.855   1.313
   20CHTO   C93 8126   5.050   2.113   1.125
   20CHTO  H180 8127   5.035   2.182   1.209
   20CHTO   N16 8128   4.915   2.066   1.085
   20CHTO  H172 8129   4.867   2.017   1.169
   20CHTO  H173 8130   4.855   2.149   1.052
   20CHTO   C94 8131   5.121   2.190   1.008
   20CHTO  H181 8132   5.143   2.124   0.923
   20CHTO   O61 8133   5.247   2.241   1.055
   20CHTO   C95 8134   5.343   2.140   1.088
   20CHTO  H182 8135   5.363   2.079   0.999
   20CHTO  C106 8136   5.476   2.215   1.124
   20CHTO   O69 8137   5.585   2.126   1.146
   20CHTO  H169 8138   5.570   2.077   1.225
   20CHTO   O63 8139   5.039   2.318   0.960
   20CHTO   C96 8140   5.043   2.338   0.802
   20CHTO  H183 8141   5.017   2.243   0.756
   20CHTO   C98 8142   5.179   2.385   0.742
   20CHTO  H185 8143   5.215   2.474   0.797
   20CHTO   O67 8144   5.277   2.283   0.766
   20CHTO  H167 8145   5.362   2.311   0.737
   20CHTO  C102 8146   5.169   2.417   0.585
   20CHTO  H189 8147   5.156   2.320   0.535
   20CHTO   N18 8148   5.291   2.477   0.526
   20CHTO  H176 8149   5.313   2.571   0.573
   20CHTO  H177 8150   5.279   2.491   0.420
   20CHTO  C105 8151   5.042   2.502   0.555
   20CHTO  H192 8152   5.057   2.604   0.592
   20CHTO   O65 8153   4.923   2.450   0.618
   20CHTO  C100 8154   4.932   2.441   0.761
   20CHTO  H187 8155   4.959   2.540   0.801
   20CHTO  C107 8156   4.794   2.402   0.818
   20CHTO   O70 8157   4.696   2.503   0.794
   20CHTO  H170 8158   4.677   2.509   0.703
   20CHTO   O57 8159   5.022   2.502   0.393
   20CHTO   C85 8160   4.950   2.612   0.335
   20CHTO  H157 8161   4.956   2.696   0.407
   20CHTO   C83 8162   4.798   2.576   0.324
   20CHTO  H155 8163   4.760   2.556   0.425
   20CHTO   O56 8164   4.782   2.455   0.248
   20CHTO  H135 8165   4.820   2.382   0.294
   20CHTO   C81 8166   4.722   2.699   0.266
   20CHTO  H153 8167   4.740   2.784   0.332
   20CHTO   N14 8168   4.574   2.682   0.269
   20CHTO  H141 8169   4.541   2.661   0.369
   20CHTO  H142 8170   4.545   2.602   0.205
   20CHTO   C79 8171   4.778   2.735   0.123
   20CHTO  H151 8172   4.731   2.829   0.093
   20CHTO   O52 8173   4.922   2.760   0.128
   20CHTO   C86 8174   5.000   2.653   0.191
   20CHTO  H158 8175   4.993   2.568   0.120
   20CHTO   C90 8176   5.150   2.692   0.195
   20CHTO   O60 8177   5.171   2.817   0.261
   20CHTO  H138 8178   5.263   2.837   0.262
   20CHTO   O50 8179   4.749   2.637   0.022
   20CHTO   C73 8180   4.767   2.643   2.757
   20CHTO  H145 8181   4.871   2.670   2.734
   20CHTO   C74 8182   4.672   2.750   2.694
   20CHTO  H146 8183   4.696   2.847   2.742
   20CHTO   O54 8184   4.708   2.765   2.555
   20CHTO  H133 8185   4.656   2.833   2.516
   20CHTO   C75 8186   4.522   2.707   2.718
   20CHTO  H147 8187   4.504   2.704   2.826
   20CHTO   N13 8188   4.424   2.804   2.663
   20CHTO  H139 8189   4.434   2.812   2.556
   20CHTO  H140 8190   4.323   2.771   2.686
   20CHTO   C76 8191   4.500   2.559   2.661
   20CHTO  H148 8192   4.512   2.563   2.553
   20CHTO   O49 8193   4.599   2.466   2.716
   20CHTO   C77 8194   4.736   2.504   2.694
   20CHTO  H149 8195   4.756   2.509   2.587
   20CHTO   C88 8196   4.829   2.396   2.749
   20CHTO   O58 8197   4.811   2.266   2.676
   20CHTO  H136 8198   4.839   2.276   2.587
   20CHTO   O51 8199   4.348   2.500   2.703
   20CHTO   C78 8200   4.339   2.428   2.848
   20CHTO  H150 8201   4.429   2.450   0.031
   20CHTO   C80 8202   4.326   2.275   2.831
   20CHTO  H152 8203   4.235   2.254   2.769
   20CHTO   O55 8204   4.441   2.229   2.758
   20CHTO  H134 8205   4.432   2.138   2.738
   20CHTO   C84 8206   4.313   2.201   0.092
   20CHTO  H156 8207   4.409   2.211   0.143
   20CHTO   N15 8208   4.285   2.054   0.079
   20CHTO  H143 8209   4.194   2.039   0.025
   20CHTO  H144 8210   4.365   2.007   0.026
   20CHTO   C87 8211   4.206   2.268   0.182
   20CHTO  H159 8212   4.106   2.239   0.150
   20CHTO   O53 8213   4.218   2.424   0.179
   20CHTO   C82 8214   4.216   2.480   0.047
   20CHTO  H154 8215   4.124   2.453   2.874
   20CHTO   C89 8216   4.217   2.634   0.059
   20CHTO   O59 8217   4.101   2.682   0.127
   20CHTO  H137 8218   4.024   2.668   0.074
   20CHTO   O45 8219   4.225   2.218   0.340
   20CHTO   C67 8220   4.315   2.299   0.418
   20CHTO  H124 8221   4.386   2.351   0.353
   20CHTO   C65 8222   4.234   2.405   0.499
   20CHTO  H122 8223   4.163   2.449   0.428
   20CHTO   O44 8224   4.321   2.509   0.547
   20CHTO  H102 8225   4.379   2.475   0.612
   20CHTO   C63 8226   4.146   2.331   0.607
   20CHTO  H120 8227   4.084   2.257   0.556
   20CHTO   N11 8228   4.043   2.415   0.676
   20CHTO  H108 8229   4.091   2.489   0.736
   20CHTO  H109 8230   3.981   2.463   0.603
   20CHTO   C61 8231   4.242   2.252   0.704
   20CHTO  H118 8232   4.176   2.190   0.768
   20CHTO   O40 8233   4.326   2.158   0.629
   20CHTO   C68 8234   4.402   2.206   0.513
   20CHTO  H125 8235   4.429   2.117   0.454
   20CHTO   C72 8236   4.535   2.271   0.559
   20CHTO   O48 8237   4.620   2.309   0.451
   20CHTO  H105 8238   4.698   2.348   0.485
   20CHTO   O38 8239   4.327   2.336   0.785
   20CHTO   C55 8240   4.320   2.325   0.928
   20CHTO  H112 8241   4.235   2.262   0.959
   20CHTO   C56 8242   4.312   2.470   0.991
   20CHTO  H113 8243   4.396   2.528   0.951
   20CHTO   O42 8244   4.192   2.535   0.944
   20CHTO  H100 8245   4.190   2.625   0.973
   20CHTO   C57 8246   4.318   2.465   1.149
   20CHTO  H114 8247   4.225   2.418   1.183
   20CHTO   N10 8248   4.325   2.601   1.211
   20CHTO  H106 8249   4.225   2.638   1.228
   20CHTO  H107 8250   4.377   2.597   1.306
   20CHTO   C58 8251   4.438   2.377   1.193
   20CHTO  H115 8252   4.533   2.429   1.167
   20CHTO   O37 8253   4.434   2.248   1.129
   20CHTO   C59 8254   4.447   2.255   0.986
   20CHTO  H116 8255   4.537   2.310   0.959
   20CHTO   C70 8256   4.462   2.112   0.933
   20CHTO   O46 8257   4.579   2.045   0.981
   20CHTO  H103 8258   4.656   2.086   0.946
   20CHTO   O39 8259   4.431   2.349   1.352
   20CHTO   C60 8260   4.559   2.318   1.411
   20CHTO  H117 8261   4.615   2.253   1.344
   20CHTO   C62 8262   4.644   2.446   1.436
   20CHTO  H119 8263   4.663   2.492   1.336
   20CHTO   O43 8264   4.567   2.540   1.515
   20CHTO  H101 8265   4.616   2.620   1.526
   20CHTO   C66 8266   4.784   2.406   1.503
   20CHTO  H123 8267   4.833   2.333   1.439
   20CHTO   N12 8268   4.877   2.521   1.513
   20CHTO  H110 8269   4.972   2.489   1.555
   20CHTO  H111 8270   4.833   2.599   1.573
   20CHTO   C69 8271   4.757   2.337   1.640
   20CHTO  H126 8272   4.701   2.407   1.707
   20CHTO   O41 8273   4.669   2.209   1.613
   20CHTO   C64 8274   4.536   2.239   1.542
   20CHTO  H121 8275   4.470   2.298   1.610
   20CHTO   C71 8276   4.464   2.105   1.511
   20CHTO   O47 8277   4.437   2.033   1.631
   20CHTO  H104 8278   4.393   1.952   1.610
   20CHTO   O34 8279   4.891   2.296   1.713
   20CHTO   C49 8280   4.942   2.160   1.747
   20CHTO   H91 8281   4.915   2.098   1.661
   20CHTO   C47 8282   4.870   2.105   1.872
   20CHTO   H89 8283   4.765   2.085   1.840
   20CHTO   O33 8284   4.868   2.204   1.977
   20CHTO   H70 8285   4.811   2.177   2.046
   20CHTO   C45 8286   4.942   1.972   1.931
   20CHTO   H87 8287   5.000   2.002   2.020
   20CHTO    N8 8288   4.842   1.871   1.975
   20CHTO   H75 8289   4.742   1.897   1.942
   20CHTO   H76 8290   4.868   1.773   1.939
   20CHTO   C43 8291   5.054   1.916   1.831
   20CHTO   H85 8292   5.102   1.832   1.881
   20CHTO   O29 8293   5.148   2.022   1.804
   20CHTO   C50 8294   5.096   2.151   1.768
   20CHTO   H92 8295   5.123   2.223   1.847
   20CHTO   C54 8296   5.173   2.203   1.644
   20CHTO   O36 8297   5.158   2.115   1.531
   20CHTO   H72 8298   5.204   2.035   1.548
   20CHTO   O27 8299   5.001   1.866   1.708
   20CHTO   C37 8300   4.924   1.768   1.636
   20CHTO   H79 8301   4.860   1.712   1.706
   20CHTO   C38 8302   4.830   1.839   1.534
   20CHTO   H80 8303   4.890   1.914   1.479
   20CHTO   O31 8304   4.729   1.908   1.610
   20CHTO   H68 8305   4.675   1.847   1.656
   20CHTO   C39 8306   4.766   1.738   1.431
   20CHTO   H81 8307   4.695   1.677   1.486
   20CHTO    N7 8308   4.690   1.809   1.321
   20CHTO   H73 8309   4.587   1.775   1.320
   20CHTO   H74 8310   4.736   1.792   1.225
   20CHTO   C40 8311   4.876   1.641   1.374
   20CHTO   H82 8312   4.946   1.697   1.311
   20CHTO   O26 8313   4.943   1.577   1.484
   20CHTO   C41 8314   5.020   1.669   1.565
   20CHTO   H83 8315   5.091   1.725   1.502
   20CHTO   C52 8316   5.102   1.586   1.668
   20CHTO   O35 8317   5.197   1.492   1.603
   20CHTO   H71 8318   5.149   1.426   1.557
   20CHTO   O28 8319   4.821   1.534   1.295
   20CHTO   C42 8320   4.904   1.450   1.209
   20CHTO   H84 8321   4.834   1.376   1.171
   20CHTO   C44 8322   5.019   1.369   1.279
   20CHTO   H86 8323   5.088   1.440   1.325
   20CHTO   O32 8324   4.958   1.291   1.383
   20CHTO   H69 8325   5.024   1.247   1.433
   20CHTO   C48 8326   5.102   1.281   1.177
   20CHTO   H90 8327   5.037   1.202   1.138
   20CHTO    N9 8328   5.217   1.210   1.244
   20CHTO   H77 8329   5.269   1.148   1.172
   20CHTO   H78 8330   5.284   1.282   1.287
   20CHTO   C51 8331   5.148   1.372   1.058
   20CHTO   H93 8332   5.211   1.450   1.101
   20CHTO   O30 8333   5.032   1.427   0.996
   20CHTO   C46 8334   4.962   1.526   1.085
   20CHTO   H88 8335   5.034   1.601   1.119
   20CHTO   C53 8336   4.851   1.595   1.002
   20CHTO   O72 8337   4.906   1.672   0.895
   20CHTO  H199 8338   4.946   1.616   0.832
   20CHTO   O22 8339   5.220   1.301   0.955
   20CHTO   C31 8340   5.312   1.375   0.866
   20CHTO   H59 8341   5.355   1.298   0.798
   20CHTO   C29 8342   5.242   1.480   0.777
   20CHTO   H57 8343   5.184   1.546   0.844
   20CHTO   O21 8344   5.146   1.412   0.694
   20CHTO   H37 8345   5.189   1.358   0.631
   20CHTO   C27 8346   5.343   1.569   0.694
   20CHTO   H55 8347   5.392   1.506   0.619
   20CHTO    N5 8348   5.275   1.682   0.624
   20CHTO   H43 8349   5.169   1.683   0.645
   20CHTO   H44 8350   5.292   1.674   0.517
   20CHTO   C25 8351   5.454   1.622   0.792
   20CHTO   H53 8352   5.406   1.684   0.870
   20CHTO   O17 8353   5.520   1.509   0.854
   20CHTO   C32 8354   5.434   1.437   0.943
   20CHTO   H60 8355   5.396   1.506   1.018
   20CHTO   C36 8356   5.517   1.327   1.015
   20CHTO   O25 8357   5.612   1.386   1.104
   20CHTO   H40 8358   5.567   1.424   1.177
   20CHTO   O15 8359   5.561   1.706   0.721
   20CHTO   C19 8360   5.682   1.771   0.768
   20CHTO   H47 8361   5.685   1.865   0.711
   20CHTO   C20 8362   5.686   1.805   0.921
   20CHTO   H48 8363   5.679   1.715   0.983
   20CHTO   O19 8364   5.571   1.887   0.950
   20CHTO   H35 8365   5.575   1.968   0.904
   20CHTO   C21 8366   5.820   1.881   0.960
   20CHTO   H49 8367   5.816   1.981   0.916
   20CHTO    N4 8368   5.835   1.900   1.107
   20CHTO   H41 8369   5.927   1.953   1.128
   20CHTO   H42 8370   5.752   1.956   1.145
   20CHTO   C22 8371   5.944   1.810   0.898
   20CHTO   H50 8372   5.967   1.720   0.955
   20CHTO   O14 8373   5.924   1.777   0.759
   20CHTO   C23 8374   5.811   1.693   0.732
   20CHTO   H51 8375   5.823   1.601   0.792
   20CHTO   C34 8376   5.816   1.649   0.585
   20CHTO   O23 8377   5.816   1.761   0.494
   20CHTO   H38 8378   5.819   1.729   0.406
   20CHTO   O16 8379   6.057   1.900   0.897
   20CHTO   C24 8380   6.193   1.833   0.851
   20CHTO   H52 8381   6.177   1.734   0.806
   20CHTO   C26 8382   6.286   1.818   0.974
   20CHTO   H54 8383   6.267   1.904   1.043
   20CHTO   O20 8384   6.246   1.702   1.050
   20CHTO   H36 8385   6.255   1.624   0.999
   20CHTO   C30 8386   6.437   1.807   0.938
   20CHTO   H58 8387   6.484   1.727   0.996
   20CHTO    N6 8388   6.515   1.929   0.975
   20CHTO   H45 8389   6.508   1.945   1.082
   20CHTO   H46 8390   6.475   2.015   0.925
   20CHTO   C33 8391   6.457   1.770   0.787
   20CHTO   H61 8392   6.564   1.771   0.761
   20CHTO   O18 8393   6.388   1.864   0.700
   20CHTO   C28 8394   6.262   1.920   0.742
   20CHTO   H56 8395   6.280   2.020   0.783
   20CHTO   C35 8396   6.172   1.939   0.618
   20CHTO   O24 8397   6.139   1.817   0.550
   20CHTO   H39 8398   6.084   1.764   0.605
   20CHTO    O9 8399   6.412   1.635   0.765
   20CHTO   C13 8400   6.516   1.519   0.813
   20CHTO   H26 8401   6.565   1.552   0.906
   20CHTO   C11 8402   6.620   1.491   0.697
   20CHTO   H24 8403   6.681   1.582   0.684
   20CHTO    O8 8404   6.552   1.463   0.574
   20CHTO    H3 8405   6.614   1.454   0.504
   20CHTO    C9 8406   6.713   1.375   0.745
   20CHTO   H22 8407   6.756   1.410   0.840
   20CHTO    N2 8408   6.831   1.356   0.658
   20CHTO   H10 8409   6.898   1.283   0.703
   20CHTO   H11 8410   6.883   1.450   0.645
   20CHTO    C7 8411   6.626   1.245   0.775
   20CHTO   H20 8412   6.659   1.216   0.877
   20CHTO    O4 8413   6.484   1.270   0.776
   20CHTO   C14 8414   6.439   1.384   0.852
   20CHTO   H27 8415   6.461   1.362   0.959
   20CHTO   C18 8416   6.285   1.393   0.838
   20CHTO   O13 8417   6.243   1.405   0.702
   20CHTO    H7 8418   6.260   1.325   0.656
   20CHTO    O2 8419   6.655   1.118   0.673
   20CHTO    C1 8420   6.622   0.992   0.733
   20CHTO   H14 8421   6.546   1.008   0.813
   20CHTO    C2 8422   6.746   0.916   0.795
   20CHTO   H15 8423   6.819   0.904   0.714
   20CHTO    O6 8424   6.803   0.997   0.900
   20CHTO    H1 8425   6.841   1.075   0.864
   20CHTO    C3 8426   6.700   0.772   0.850
   20CHTO   H16 8427   6.632   0.787   0.935
   20CHTO    N1 8428   6.816   0.691   0.901
   20CHTO    H8 8429   6.888   0.676   0.822
   20CHTO    H9 8430   6.863   0.742   0.984
   20CHTO    C4 8431   6.617   0.696   0.740
   20CHTO   H17 8432   6.684   0.666   0.659
   20CHTO    O1 8433   6.511   0.779   0.689
   20CHTO    C5 8434   6.554   0.901   0.627
   20CHTO   H18 8435   6.626   0.881   0.549
   20CHTO   C16 8436   6.430   0.971   0.565
   20CHTO   O11 8437   6.374   0.891   0.460
   20CHTO    H5 8438   6.299   0.935   0.424
   20CHTO    O3 8439   6.552   0.581   0.797
   20CHTO    C6 8440   6.497   0.485   0.700
   20CHTO   H19 8441   6.485   0.528   0.600
   20CHTO    C8 8442   6.589   0.360   0.688
   20CHTO   H21 8443   6.605   0.319   0.788
   20CHTO    O7 8444   6.715   0.405   0.634
   20CHTO    H2 8445   6.776   0.334   0.633
   20CHTO   C12 8446   6.520   0.250   0.597
   20CHTO   H25 8447   6.512   0.295   0.495
   20CHTO    N3 8448   6.603   0.126   0.583
   20CHTO   H12 8449   6.629   0.109   0.479
   20CHTO   H13 8450   6.693   0.132   0.643
   20CHTO   C15 8451   6.375   0.222   0.650
   20CHTO   H28 8452   6.377   0.173   0.748
   20CHTO   O10 8453   6.289   0.138   0.553
   20CHTO    H4 8454   6.328   0.054   0.542
   20CHTO    O5 8455   6.299   0.344   0.658
   20CHTO   C10 8456   6.355   0.442   0.747
   20CHTO   H23 8457   6.361   0.399   0.847
   20CHTO   C17 8458   6.259   0.561   0.755
   20CHTO   O12 8459   6.135   0.524   0.816
   20CHTO    H6 8460   6.079   0.599   0.821
   21GLOH   H03 8461   3.255   0.829   1.634
   21GLOH    O1 8462   3.235   0.822   1.537
   21GLOH    C1 8463   3.336   0.896   1.465
   21GLOH   H02 8464   3.433   0.851   1.482
   21GLOH   H08 8465   3.341   0.998   1.502
   21GLOH    C2 8466   3.312   0.901   1.313
   21GLOH   H04 8467   3.283   0.799   1.281
   21GLOH    O2 8468   3.206   0.991   1.276
   21GLOH   H05 8469   3.182   0.972   1.180
   21GLOH    C3 8470   3.443   0.934   1.239
   21GLOH   H06 8471   3.422   0.941   1.133
   21GLOH   H07 8472   3.512   0.850   1.252
   21GLOH    O3 8473   3.506   1.056   1.285
   21GLOH   H01 8474   3.508   1.119   1.208
   22GLOH   H03 8475   4.101   9.936   0.370
   22GLOH    O1 8476   4.074   9.943   0.465
   22GLOH    C1 8477   3.946   9.879   0.483
   22GLOH   H02 8478   3.959   9.785   0.538
   22GLOH   H08 8479   3.901   9.853   0.387
   22GLOH    C2 8480   3.847   9.967   0.561
   22GLOH   H04 8481   3.833   0.061   0.505
   22GLOH    O2 8482   3.721   9.899   0.574
   22GLOH   H05 8483   3.660   9.925   0.499
   22GLOH    C3 8484   3.903   0.002   0.701
   22GLOH   H06 8485   3.892   9.915   0.766
   22GLOH   H07 8486   3.843   0.081   0.743
   22GLOH    O3 8487   4.042   0.042   0.694
   22GLOH   H01 8488   4.075   0.005   0.608
   23GLOH   H03 8489   4.017   9.350   1.928
   23GLOH    O1 8490   3.973   9.408   1.996
   23GLOH    C1 8491   3.890   9.502   1.925
   23GLOH   H02 8492   3.809   9.450   1.874
   23GLOH   H08 8493   3.948   9.555   1.849
   23GLOH    C2 8494   3.829   9.607   2.021
   23GLOH   H04 8495   3.912   9.660   2.070
   23GLOH    O2 8496   3.749   9.703   1.948
   23GLOH   H05 8497   3.664   9.662   1.916
   23GLOH    C3 8498   3.748   9.536   2.131
   23GLOH   H06 8499   3.663   9.486   2.086
   23GLOH   H07 8500   3.709   9.611   2.200
   23GLOH    O3 8501   3.832   9.442   2.200
   23GLOH   H01 8502   3.902   9.419   2.134
   24GLOH   H03 8503   4.241   0.373   0.461
   24GLOH    O1 8504   4.330   0.375   0.505
   24GLOH    C1 8505   4.351   0.248   0.569
   24GLOH   H02 8506   4.453   0.214   0.551
   24GLOH   H08 8507   4.286   0.172   0.526
   24GLOH    C2 8508   4.329   0.249   0.721
   24GLOH   H04 8509   4.312   0.146   0.754
   24GLOH    O2 8510   4.445   0.300   0.792
   24GLOH   H05 8511   4.468   0.392   0.763
   24GLOH    C3 8512   4.205   0.332   0.759
   24GLOH   H06 8513   4.226   0.437   0.739
   24GLOH   H07 8514   4.190   0.324   0.867
   24GLOH    O3 8515   4.086   0.292   0.690
   24GLOH   H01 8516   4.070   0.195   0.702
   25GLOH   H03 8517   3.586   1.998   2.368
   25GLOH    O1 8518   3.562   1.940   2.444
   25GLOH    C1 8519   3.578   2.012   2.568
   25GLOH   H02 8520   3.492   2.075   2.586
   25GLOH   H08 8521   3.665   2.078   2.563
   25GLOH    C2 8522   3.596   1.916   2.687
   25GLOH   H04 8523   3.685   1.855   2.668
   25GLOH    O2 8524   3.616   1.993   2.807
   25GLOH   H05 8525   3.706   1.974   2.846
   25GLOH    C3 8526   3.474   1.823   2.701
   25GLOH   H06 8527   3.452   1.780   2.603
   25GLOH   H07 8528   3.387   1.884   2.727
   25GLOH    O3 8529   3.492   1.718   2.798
   25GLOH   H01 8530   3.576   1.672   2.771
   26GLOH   H03 8531   4.366   1.467   0.490
   26GLOH    O1 8532   4.414   1.552   0.469
   26GLOH    C1 8533   4.338   1.662   0.521
   26GLOH   H02 8534   4.405   1.734   0.567
   26GLOH   H08 8535   4.271   1.628   0.599
   26GLOH    C2 8536   4.252   1.737   0.417
   26GLOH   H04 8537   4.313   1.749   0.326
   26GLOH    O2 8538   4.132   1.664   0.382
   26GLOH   H05 8539   4.053   1.723   0.391
   26GLOH    C3 8540   4.220   1.879   0.468
   26GLOH   H06 8541   4.152   1.927   0.399
   26GLOH   H07 8542   4.313   1.936   0.467
   26GLOH    O3 8543   4.165   1.879   0.601
   26GLOH   H01 8544   4.086   1.939   0.603
   27GLOH   H03 8545   2.656   0.176   1.179
   27GLOH    O1 8546   2.726   0.177   1.249
   27GLOH    C1 8547   2.810   0.291   1.227
   27GLOH   H02 8548   2.834   0.299   1.121
   27GLOH   H08 8549   2.905   0.278   1.280
   27GLOH    C2 8550   2.746   0.424   1.273
   27GLOH   H04 8551   2.646   0.431   1.229
   27GLOH    O2 8552   2.736   0.430   1.416
   27GLOH   H05 8553   2.680   0.354   1.450
   27GLOH    C3 8554   2.829   0.544   1.222
   27GLOH   H06 8555   2.926   0.542   1.273
   27GLOH   H07 8556   2.780   0.636   1.254
   27GLOH    O3 8557   2.848   0.543   1.079
   27GLOH   H01 8558   2.939   0.508   1.065
   28GLOH   H03 8559   4.778   1.193   1.012
   28GLOH    O1 8560   4.725   1.172   1.093
   28GLOH    C1 8561   4.660   1.045   1.074
   28GLOH   H02 8562   4.734   0.968   1.056
   28GLOH   H08 8563   4.595   1.050   0.986
   28GLOH    C2 8564   4.574   1.002   1.194
   28GLOH   H04 8565   4.490   1.072   1.203
   28GLOH    O2 8566   4.522   0.869   1.173
   28GLOH   H05 8567   4.590   0.815   1.123
   28GLOH    C3 8568   4.654   1.008   1.325
   28GLOH   H06 8569   4.731   0.931   1.323
   28GLOH   H07 8570   4.587   0.984   1.408
   28GLOH    O3 8571   4.712   1.138   1.343
   28GLOH   H01 8572   4.727   1.173   1.251
   29GLOH   H03 8573   4.228   1.018   1.848
   29GLOH    O1 8574   4.275   1.057   1.769
   29GLOH    C1 8575   4.180   1.136   1.696
   29GLOH   H02 8576   4.175   1.237   1.737
   29GLOH   H08 8577   4.079   1.094   1.705
   29GLOH    C2 8578   4.214   1.148   1.547
   29GLOH   H04 8579   4.205   1.049   1.501
   29GLOH    O2 8580   4.119   1.238   1.484
   29GLOH   H05 8581   4.151   1.332   1.495
   29GLOH    C3 8582   4.359   1.196   1.532
   29GLOH   H06 8583   4.424   1.116   1.569
   29GLOH   H07 8584   4.374   1.282   1.598
   29GLOH    O3 8585   4.399   1.228   1.398
   29GLOH   H01 8586   4.481   1.283   1.407
   30GLOH   H03 8587   3.199   9.966   2.155
   30GLOH    O1 8588   3.275   0.008   2.202
   30GLOH    C1 8589   3.257   0.151   2.204
   30GLOH   H02 8590   3.268   0.191   2.103
   30GLOH   H08 8591   3.336   0.197   2.264
   30GLOH    C2 8592   3.121   0.197   2.260
   30GLOH   H04 8593   3.115   0.306   2.245
   30GLOH    O2 8594   3.011   0.136   2.189
   30GLOH   H05 8595   3.012   0.168   2.093
   30GLOH    C3 8596   3.113   0.170   2.411
   30GLOH   H06 8597   3.137   0.066   2.429
   30GLOH   H07 8598   3.010   0.185   2.444
   30GLOH    O3 8599   3.201   0.256   2.486
   30GLOH   H01 8600   3.158   0.342   2.503
   31GLOH   H03 8601   4.318   1.804   1.245
   31GLOH    O1 8602   4.281   1.892   1.217
   31GLOH    C1 8603   4.245   1.885   1.078
   31GLOH   H02 8604   4.336   1.876   1.018
   31GLOH   H08 8605   4.196   1.977   1.047
   31GLOH    C2 8606   4.154   1.766   1.041
   31GLOH   H04 8607   4.207   1.673   1.066
   31GLOH    O2 8608   4.029   1.768   1.113
   31GLOH   H05 8609   4.041   1.720   1.200
   31GLOH    C3 8610   4.126   1.766   0.890
   31GLOH   H06 8611   4.065   1.854   0.866
   31GLOH   H07 8612   4.065   1.679   0.866
   31GLOH    O3 8613   4.245   1.766   0.810
   31GLOH   H01 8614   4.220   1.811   0.724
   32GLOH   H03 8615   2.671   2.050   0.582
   32GLOH    O1 8616   2.611   1.973   0.597
   32GLOH    C1 8617   2.586   1.957   0.738
   32GLOH   H02 8618   2.553   2.052   0.782
   32GLOH   H08 8619   2.677   1.927   0.790
   32GLOH    C2 8620   2.477   1.851   0.766
   32GLOH   H04 8621   2.511   1.756   0.722
   32GLOH    O2 8622   2.456   1.832   0.908
   32GLOH   H05 8623   2.410   1.744   0.919
   32GLOH    C3 8624   2.346   1.892   0.697
   32GLOH   H06 8625   2.307   1.982   0.745
   32GLOH   H07 8626   2.272   1.813   0.712
   32GLOH    O3 8627   2.368   1.915   0.557
   32GLOH   H01 8628   2.460   1.951   0.550
   33GLOH   H03 8629   4.128   0.538   0.443
   33GLOH    O1 8630   4.146   0.625   0.488
   33GLOH    C1 8631   4.201   0.715   0.390
   33GLOH   H02 8632   4.214   0.814   0.434
   33GLOH   H08 8633   4.131   0.727   0.307
   33GLOH    C2 8634   4.337   0.668   0.334
   33GLOH   H04 8635   4.328   0.562   0.307
   33GLOH    O2 8636   4.371   0.744   0.217
   33GLOH   H05 8637   4.410   0.833   0.241
   33GLOH    C3 8638   4.449   0.682   0.439
   33GLOH   H06 8639   4.457   0.787   0.468
   33GLOH   H07 8640   4.543   0.656   0.391
   33GLOH    O3 8641   4.429   0.600   0.555
   33GLOH   H01 8642   4.392   0.512   0.526
   34GLOH   H03 8643   4.233   2.027   1.276
   34GLOH    O1 8644   4.177   2.104   1.303
   34GLOH    C1 8645   4.041   2.057   1.299
   34GLOH   H02 8646   4.015   2.004   1.391
   34GLOH   H08 8647   4.028   1.986   1.217
   34GLOH    C2 8648   3.940   2.171   1.277
   34GLOH   H04 8649   3.965   2.223   1.183
   34GLOH    O2 8650   3.805   2.120   1.270
   34GLOH   H05 8651   3.805   2.028   1.231
   34GLOH    C3 8652   3.952   2.271   1.393
   34GLOH   H06 8653   3.919   2.223   1.485
   34GLOH   H07 8654   3.885   2.355   1.375
   34GLOH    O3 8655   4.088   2.317   1.406
   34GLOH   H01 8656   4.144   2.242   1.372
   35GLOH   H03 8657   3.331   2.265   1.686
   35GLOH    O1 8658   3.327   2.171   1.718
   35GLOH    C1 8659   3.447   2.100   1.682
   35GLOH   H02 8660   3.535   2.164   1.693
   35GLOH   H08 8661   3.443   2.071   1.577
   35GLOH    C2 8662   3.469   1.971   1.765
   35GLOH   H04 8663   3.557   1.919   1.724
   35GLOH    O2 8664   3.494   2.000   1.904
   35GLOH   H05 8665   3.543   2.087   1.915
   35GLOH    C3 8666   3.348   1.878   1.754
   35GLOH   H06 8667   3.261   1.928   1.797
   35GLOH   H07 8668   3.367   1.790   1.815
   35GLOH    O3 8669   3.318   1.836   1.619
   35GLOH   H01 8670   3.244   1.771   1.625
   36GLOH   H03 8671   4.373   2.347   2.264
   36GLOH    O1 8672   4.283   2.347   2.308
   36GLOH    C1 8673   4.208   2.456   2.250
   36GLOH   H02 8674   4.194   2.440   2.143
   36GLOH   H08 8675   4.263   2.549   2.261
   36GLOH    C2 8676   4.070   2.474   2.316
   36GLOH   H04 8677   4.086   2.506   2.420
   36GLOH    O2 8678   3.996   2.577   2.246
   36GLOH   H05 8679   3.961   2.539   2.160
   36GLOH    C3 8680   3.993   2.340   2.318
   36GLOH   H06 8681   3.973   2.309   2.216
   36GLOH   H07 8682   3.897   2.356   2.367
   36GLOH    O3 8683   4.069   2.240   2.388
   36GLOH   H01 8684   4.163   2.264   2.370
   37GLOH   H03 8685   3.621   0.896   0.174
   37GLOH    O1 8686   3.585   0.820   0.228
   37GLOH    C1 8687   3.630   0.830   0.365
   37GLOH   H02 8688   3.565   0.770   0.429
   37GLOH   H08 8689   3.623   0.933   0.400
   37GLOH    C2 8690   3.774   0.781   0.387
   37GLOH   H04 8691   3.843   0.852   0.338
   37GLOH    O2 8692   3.802   0.778   0.529
   37GLOH   H05 8693   3.848   0.863   0.557
   37GLOH    C3 8694   3.796   0.641   0.325
   37GLOH   H06 8695   3.730   0.570   0.375
   37GLOH   H07 8696   3.898   0.610   0.344
   37GLOH    O3 8697   3.769   0.642   0.183
   37GLOH   H01 8698   3.687   0.696   0.172
   38GLOH   H03 8699   3.653   1.443   2.105
   38GLOH    O1 8700   3.682   1.399   2.189
   38GLOH    C1 8701   3.661   1.257   2.172
   38GLOH   H02 8702   3.723   1.202   2.242
   38GLOH   H08 8703   3.690   1.225   2.072
   38GLOH    C2 8704   3.515   1.214   2.196
   38GLOH   H04 8705   3.488   1.246   2.298
   38GLOH    O2 8706   3.425   1.277   2.102
   38GLOH   H05 8707   3.334   1.280   2.145
   38GLOH    C3 8708   3.504   1.061   2.190
   38GLOH   H06 8709   3.547   1.027   2.096
   38GLOH   H07 8710   3.399   1.033   2.188
   38GLOH    O3 8711   3.569   0.996   2.301
   38GLOH   H01 8712   3.508   0.996   2.379
   39GLOH   H03 8713   4.367   0.515   1.313
   39GLOH    O1 8714   4.386   0.419   1.328
   39GLOH    C1 8715   4.490   0.381   1.236
   39GLOH   H02 8716   4.567   0.322   1.287
   39GLOH   H08 8717   4.540   0.469   1.197
   39GLOH    C2 8718   4.438   0.299   1.117
   39GLOH   H04 8719   4.356   0.353   1.069
   39GLOH    O2 8720   4.546   0.280   1.023
   39GLOH   H05 8721   4.510   0.276   0.930
   39GLOH    C3 8722   4.385   0.162   1.164
   39GLOH   H06 8723   4.470   0.099   1.191
   39GLOH   H07 8724   4.337   0.113   1.079
   39GLOH    O3 8725   4.293   0.176   1.273
   39GLOH   H01 8726   4.310   0.265   1.312
   40GLOH   H03 8727   3.572   0.084   0.875
   40GLOH    O1 8728   3.573   0.152   0.946
   40GLOH    C1 8729   3.576   0.086   1.074
   40GLOH   H02 8730   3.477   0.045   1.097
   40GLOH   H08 8731   3.600   0.156   1.153
   40GLOH    C2 8732   3.678   9.971   1.078
   40GLOH   H04 8733   3.775   0.009   1.043
   40GLOH    O2 8734   3.692   9.922   1.214
   40GLOH   H05 8735   3.785   9.885   1.223
   40GLOH    C3 8736   3.634   9.856   0.986
   40GLOH   H06 8737   3.543   9.811   1.027
   40GLOH   H07 8738   3.711   9.779   0.988
   40GLOH    O3 8739   3.611   9.899   0.850
   40GLOH   H01 8740   3.578   9.820   0.799
   41GLOH   H03 8741   2.556   0.337   1.621
   41GLOH    O1 8742   2.598   0.269   1.561
   41GLOH    C1 8743   2.702   0.204   1.637
   41GLOH   H02 8744   2.705   0.241   1.739
   41GLOH   H08 8745   2.800   0.226   1.593
   41GLOH    C2 8746   2.688   0.050   1.644
   41GLOH   H04 8747   2.773   0.011   1.703
   41GLOH    O2 8748   2.565   0.013   1.709
   41GLOH   H05 8749   2.579   9.934   1.769
   41GLOH    C3 8750   2.694   9.987   1.504
   41GLOH   H06 8751   2.603   0.015   1.450
   41GLOH   H07 8752   2.692   9.879   1.516
   41GLOH    O3 8753   2.810   0.026   1.430
   41GLOH   H01 8754   2.779   0.086   1.356
   42GLOH   H03 8755   3.391   1.753   0.700
   42GLOH    O1 8756   3.350   1.843   0.710
   42GLOH    C1 8757   3.356   1.883   0.848
   42GLOH   H02 8758   3.330   1.988   0.856
   42GLOH   H08 8759   3.458   1.873   0.886
   42GLOH    C2 8760   3.262   1.803   0.941
   42GLOH   H04 8761   3.165   1.793   0.890
   42GLOH    O2 8762   3.313   1.672   0.972
   42GLOH   H05 8763   3.253   1.604   0.930
   42GLOH    C3 8764   3.239   1.884   1.070
   42GLOH   H06 8765   3.337   1.909   1.111
   42GLOH   H07 8766   3.189   1.823   1.144
   42GLOH    O3 8767   3.164   2.004   1.045
   42GLOH   H01 8768   3.073   1.979   1.017
   43GLOH   H03 8769   3.145   9.159   0.511
   43GLOH    O1 8770   3.205   9.083   0.490
   43GLOH    C1 8771   3.263   9.039   0.615
   43GLOH   H02 8772   3.278   8.931   0.612
   43GLOH   H08 8773   3.196   9.060   0.698
   43GLOH    C2 8774   3.399   9.106   0.641
   43GLOH   H04 8775   3.385   9.215   0.635
   43GLOH    O2 8776   3.448   9.073   0.772
   43GLOH   H05 8777   3.446   9.157   0.827
   43GLOH    C3 8778   3.497   9.065   0.530
   43GLOH   H06 8779   3.504   8.957   0.528
   43GLOH   H07 8780   3.597   9.103   0.555
   43GLOH    O3 8781   3.453   9.115   0.403
   43GLOH   H01 8782   3.355   9.104   0.402
   44GLOH   H03 8783   3.761   1.519   2.261
   44GLOH    O1 8784   3.788   1.593   2.320
   44GLOH    C1 8785   3.680   1.613   2.413
   44GLOH   H02 8786   3.586   1.625   2.359
   44GLOH   H08 8787   3.695   1.706   2.469
   44GLOH    C2 8788   3.664   1.497   2.514
   44GLOH   H04 8789   3.561   1.502   2.552
   44GLOH    O2 8790   3.682   1.368   2.450
   44GLOH   H05 8791   3.666   1.379   2.352
   44GLOH    C3 8792   3.759   1.514   2.635
   44GLOH   H06 8793   3.856   1.546   2.597
   44GLOH   H07 8794   3.773   1.417   2.682
   44GLOH    O3 8795   3.711   1.609   2.732
   44GLOH   H01 8796   3.774   1.617   2.807
   45GLOH   H03 8797   3.802   1.252   2.444
   45GLOH    O1 8798   3.891   1.211   2.435
   45GLOH    C1 8799   3.987   1.312   2.472
   45GLOH   H02 8800   3.954   1.360   2.564
   45GLOH   H08 8801   3.991   1.390   2.396
   45GLOH    C2 8802   4.131   1.261   2.498
   45GLOH   H04 8803   4.128   1.187   2.579
   45GLOH    O2 8804   4.188   1.202   2.380
   45GLOH   H05 8805   4.197   1.102   2.390
   45GLOH    C3 8806   4.220   1.379   2.541
   45GLOH   H06 8807   4.238   1.441   2.453
   45GLOH   H07 8808   4.317   1.339   2.570
   45GLOH    O3 8809   4.165   1.459   2.647
   45GLOH   H01 8810   4.177   1.411   2.732
   46GLOH   H03 8811   3.953   8.827   1.102
   46GLOH    O1 8812   3.984   8.915   1.134
   46GLOH    C1 8813   3.929   9.011   1.042
   46GLOH   H02 8814   3.821   9.011   1.047
   46GLOH   H08 8815   3.956   8.984   0.940
   46GLOH    C2 8816   3.978   9.155   1.067
   46GLOH   H04 8817   4.087   9.159   1.050
   46GLOH    O2 8818   3.912   9.244   0.974
   46GLOH   H05 8819   3.980   9.307   0.935
   46GLOH    C3 8820   3.950   9.197   1.212
   46GLOH   H06 8821   3.843   9.206   1.227
   46GLOH   H07 8822   3.993   9.297   1.228
   46GLOH    O3 8823   4.007   9.103   1.304
   46GLOH   H01 8824   4.010   9.017   1.254
   47GLOH   H03 8825   2.416   0.059   1.315
   47GLOH    O1 8826   2.441   9.987   1.249
   47GLOH    C1 8827   2.416   9.860   1.312
   47GLOH   H02 8828   2.322   9.818   1.277
   47GLOH   H08 8829   2.407   9.871   1.420
   47GLOH    C2 8830   2.529   9.758   1.284
   47GLOH   H04 8831   2.623   9.799   1.323
   47GLOH    O2 8832   2.502   9.632   1.348
   47GLOH   H05 8833   2.472   9.645   1.443
   47GLOH    C3 8834   2.544   9.737   1.133
   47GLOH   H06 8835   2.455   9.689   1.094
   47GLOH   H07 8836   2.628   9.669   1.115
   47GLOH    O3 8837   2.567   9.862   1.067
   47GLOH   H01 8838   2.525   9.930   1.126
   48GLOH   H03 8839   3.158   9.780   0.914
   48GLOH    O1 8840   3.149   9.692   0.961
   48GLOH    C1 8841   3.236   9.599   0.893
   48GLOH   H02 8842   3.318   9.569   0.960
   48GLOH   H08 8843   3.283   9.646   0.807
   48GLOH    C2 8844   3.163   9.473   0.845
   48GLOH   H04 8845   3.076   9.506   0.785
   48GLOH    O2 8846   3.248   9.393   0.760
   48GLOH   H05 8847   3.324   9.357   0.814
   48GLOH    C3 8848   3.110   9.390   0.963
   48GLOH   H06 8849   3.054   9.305   0.924
   48GLOH   H07 8850   3.040   9.451   1.020
   48GLOH    O3 8851   3.216   9.344   1.049
   48GLOH   H01 8852   3.182   9.341   1.142
   49GLOH   H03 8853   3.862   0.918   2.103
   49GLOH    O1 8854   3.884   0.905   2.007
   49GLOH    C1 8855   3.777   0.836   1.940
   49GLOH   H02 8856   3.754   0.888   1.846
   49GLOH   H08 8857   3.686   0.839   2.000
   49GLOH    C2 8858   3.809   0.689   1.905
   49GLOH   H04 8859   3.837   0.639   1.998
   49GLOH    O2 8860   3.695   0.621   1.849
   49GLOH   H05 8861   3.662   0.672   1.769
   49GLOH    C3 8862   3.925   0.680   1.805
   49GLOH   H06 8863   3.904   0.747   1.722
   49GLOH   H07 8864   3.928   0.579   1.764
   49GLOH    O3 8865   4.053   0.713   1.863
   49GLOH   H01 8866   4.117   0.718   1.787
   50GLOH   H03 8867   3.876   0.483   2.404
   50GLOH    O1 8868   3.828   0.413   2.455
   50GLOH    C1 8869   3.888   0.390   2.584
   50GLOH   H02 8870   3.989   0.349   2.571
   50GLOH   H08 8871   3.831   0.314   2.637
   50GLOH    C2 8872   3.897   0.516   2.673
   50GLOH   H04 8873   3.811   0.581   2.652
   50GLOH    O2 8874   3.898   0.477   2.812
   50GLOH   H05 8875   3.862   0.549   2.869
   50GLOH    C3 8876   4.027   0.594   2.644
   50GLOH   H06 8877   4.109   0.545   2.697
   50GLOH   H07 8878   4.017   0.693   2.688
   50GLOH    O3 8879   4.061   0.605   2.504
   50GLOH   H01 8880   3.983   0.635   2.451
   51GLOH   H03 8881   3.755   9.217   0.114
   51GLOH    O1 8882   3.801   9.138   0.081
   51GLOH    C1 8883   3.791   9.034   0.181
   51GLOH   H02 8884   3.821   8.938   0.138
   51GLOH   H08 8885   3.688   9.023   0.214
   51GLOH    C2 8886   3.880   9.063   0.303
   51GLOH   H04 8887   3.857   9.164   0.340
   51GLOH    O2 8888   3.854   8.967   0.407
   51GLOH   H05 8889   3.892   9.005   0.492
   51GLOH    C3 8890   4.029   9.060   0.264
   51GLOH   H06 8891   4.045   9.128   0.180
   51GLOH   H07 8892   4.053   8.959   0.228
   51GLOH    O3 8893   4.116   9.096   0.373
   51GLOH   H01 8894   4.076   9.060   0.456
   52GLOH   H03 8895   2.629   9.768   0.684
   52GLOH    O1 8896   2.674   9.760   0.596
   52GLOH    C1 8897   2.660   9.886   0.528
   52GLOH   H02 8898   2.720   9.963   0.576
   52GLOH   H08 8899   2.556   9.920   0.531
   52GLOH    C2 8900   2.703   9.876   0.380
   52GLOH   H04 8901   2.640   9.799   0.333
   52GLOH    O2 8902   2.680   0.001   0.311
   52GLOH   H05 8903   2.739   0.072   0.350
   52GLOH    C3 8904   2.849   9.830   0.369
   52GLOH   H06 8905   2.870   9.808   0.264
   52GLOH   H07 8906   2.857   9.735   0.422
   52GLOH    O3 8907   2.947   9.922   0.421
   52GLOH   H01 8908   2.979   9.977   0.346
   53GLOH   H03 8909   3.378   0.435   1.940
   53GLOH    O1 8910   3.332   0.519   1.970
   53GLOH    C1 8911   3.359   0.623   1.874
   53GLOH   H02 8912   3.359   0.584   1.772
   53GLOH   H08 8913   3.458   0.665   1.892
   53GLOH    C2 8914   3.257   0.739   1.883
   53GLOH   H04 8915   3.264   0.785   1.983
   53GLOH    O2 8916   3.285   0.839   1.783
   53GLOH   H05 8917   3.371   0.888   1.803
   53GLOH    C3 8918   3.114   0.686   1.863
   53GLOH   H06 8919   3.104   0.649   1.761
   53GLOH   H07 8920   3.044   0.769   1.874
   53GLOH    O3 8921   3.083   0.583   1.958
   53GLOH   H01 8922   3.170   0.540   1.980
   54GLOH   H03 8923   3.545   0.508   2.664
   54GLOH    O1 8924   3.511   0.540   2.752
   54GLOH    C1 8925   3.547   0.444   2.853
   54GLOH   H02 8926   3.558   0.493   0.072
   54GLOH   H08 8927   3.644   0.399   2.830
   54GLOH    C2 8928   3.444   0.330   2.868
   54GLOH   H04 8929   3.436   0.280   2.770
   54GLOH    O2 8930   3.489   0.234   0.088
   54GLOH   H05 8931   3.415   0.203   0.146
   54GLOH    C3 8932   3.304   0.387   0.025
   54GLOH   H06 8933   3.231   0.306   0.014
   54GLOH   H07 8934   3.278   0.462   2.828
   54GLOH    O3 8935   3.297   0.443   0.157
   54GLOH   H01 8936   3.386   0.445   0.197
   55GLOH   H03 8937   3.953   1.607   1.371
   55GLOH    O1 8938   4.031   1.657   1.335
   55GLOH    C1 8939   4.121   1.694   1.441
   55GLOH   H02 8940   4.065   1.706   1.534
   55GLOH   H08 8941   4.166   1.791   1.420
   55GLOH    C2 8942   4.235   1.593   1.466
   55GLOH   H04 8943   4.312   1.645   1.526
   55GLOH    O2 8944   4.191   1.478   1.542
   55GLOH   H05 8945   4.205   1.499   1.638
   55GLOH    C3 8946   4.304   1.553   1.335
   55GLOH   H06 8947   4.230   1.508   1.268
   55GLOH   H07 8948   4.378   1.476   1.357
   55GLOH    O3 8949   4.368   1.665   1.271
   55GLOH   H01 8950   4.437   1.632   1.207
   56GLOH   H03 8951   2.990   1.467   1.331
   56GLOH    O1 8952   3.043   1.418   1.400
   56GLOH    C1 8953   3.119   1.516   1.473
   56GLOH   H02 8954   3.151   1.597   1.407
   56GLOH   H08 8955   3.210   1.471   1.512
   56GLOH    C2 8956   3.042   1.579   1.591
   56GLOH   H04 8957   3.016   1.498   1.661
   56GLOH    O2 8958   3.126   1.674   1.659
   56GLOH   H05 8959   3.076   1.708   1.739
   56GLOH    C3 8960   2.912   1.647   1.546
   56GLOH   H06 8961   2.938   1.722   1.472
   56GLOH   H07 8962   2.870   1.700   1.632
   56GLOH    O3 8963   2.814   1.557   1.493
   56GLOH   H01 8964   2.728   1.606   1.490
   57GLOH   H03 8965   2.144   0.556   0.574
   57GLOH    O1 8966   2.235   0.554   0.613
   57GLOH    C1 8967   2.273   0.417   0.640
   57GLOH   H02 8968   2.333   0.413   0.730
   57GLOH   H08 8969   2.336   0.379   0.559
   57GLOH    C2 8970   2.153   0.322   0.657
   57GLOH   H04 8971   2.090   0.360   0.739
   57GLOH    O2 8972   2.074   0.316   0.537
   57GLOH   H05 8973   2.022   0.401   0.530
   57GLOH    C3 8974   2.201   0.181   0.697
   57GLOH   H06 8975   2.260   0.140   0.614
   57GLOH   H07 8976   2.114   0.116   0.707
   57GLOH    O3 8977   2.278   0.181   0.818
   57GLOH   H01 8978   2.230   0.234   0.888
   58GLOH   H03 8979   3.972   0.375   1.084
   58GLOH    O1 8980   3.939   0.299   1.139
   58GLOH    C1 8981   3.858   0.353   1.245
   58GLOH   H02 8982   3.810   0.272   1.300
   58GLOH   H08 8983   3.778   0.415   1.204
   58GLOH    C2 8984   3.939   0.438   1.345
   58GLOH   H04 8985   4.023   0.378   1.382
   58GLOH    O2 8986   3.992   0.558   1.283
   58GLOH   H05 8987   4.010   0.540   1.186
   58GLOH    C3 8988   3.851   0.477   1.465
   58GLOH   H06 8989   3.913   0.532   1.536
   58GLOH   H07 8990   3.819   0.386   1.515
   58GLOH    O3 8991   3.738   0.555   1.425
   58GLOH   H01 8992   3.769   0.620   1.358
   59GLOH   H03 8993   4.649   1.080   0.566
   59GLOH    O1 8994   4.582   1.085   0.493
   59GLOH    C1 8995   4.515   1.212   0.495
   59GLOH   H02 8996   4.492   1.244   0.394
   59GLOH   H08 8997   4.579   1.289   0.539
   59GLOH    C2 8998   4.383   1.208   0.576
   59GLOH   H04 8999   4.409   1.186   0.681
   59GLOH    O2 9000   4.316   1.335   0.569
   59GLOH   H05 9001   4.241   1.333   0.634
   59GLOH    C3 9002   4.291   1.095   0.525
   59GLOH   H06 9003   4.343   1.000   0.537
   59GLOH   H07 9004   4.276   1.108   0.418
   59GLOH    O3 9005   4.164   1.090   0.593
   59GLOH   H01 9006   4.162   1.159   0.664
   60GLOH   H03 9007   2.760   0.588   2.443
   60GLOH    O1 9008   2.779   0.551   2.534
   60GLOH    C1 9009   2.661   0.566   2.617
   60GLOH   H02 9010   2.577   0.511   2.574
   60GLOH   H08 9011   2.632   0.670   2.623
   60GLOH    C2 9012   2.686   0.514   2.760
   60GLOH   H04 9013   2.766   0.574   2.806
   60GLOH    O2 9014   2.567   0.525   2.841
   60GLOH   H05 9015   2.542   0.618   2.854
   60GLOH    C3 9016   2.732   0.367   2.756
   60GLOH   H06 9017   2.651   0.306   2.716
   60GLOH   H07 9018   2.752   0.333   2.858
   60GLOH    O3 9019   2.850   0.353   2.675
   60GLOH   H01 9020   2.843   0.425   2.607
   61GLOH   H03 9021   2.726   9.686   2.268
   61GLOH    O1 9022   2.766   9.623   2.333
   61GLOH    C1 9023   2.909   9.642   2.338
   61GLOH   H02 9024   2.957   9.580   2.262
   61GLOH   H08 9025   2.947   9.607   2.434
   61GLOH    C2 9026   2.956   9.788   2.318
   61GLOH   H04 9027   3.065   9.790   2.331
   61GLOH    O2 9028   2.925   9.837   2.185
   61GLOH   H05 9029   3.008   9.848   2.133
   61GLOH    C3 9030   2.893   9.880   2.423
   61GLOH   H06 9031   2.784   9.870   2.418
   61GLOH   H07 9032   2.916   9.983   2.397
   61GLOH    O3 9033   2.939   9.851   2.556
   61GLOH   H01 9034   2.890   9.905   2.621
   62GLOH   H03 9035   4.724   0.680   1.146
   62GLOH    O1 9036   4.695   0.720   1.061
   62GLOH    C1 9037   4.609   0.625   0.995
   62GLOH   H02 9038   4.513   0.621   1.047
   62GLOH   H08 9039   4.652   0.525   1.000
   62GLOH    C2 9040   4.582   0.659   0.847
   62GLOH   H04 9041   4.680   0.663   0.797
   62GLOH    O2 9042   4.503   0.554   0.786
   62GLOH   H05 9043   4.479   0.583   0.692
   62GLOH    C3 9044   4.516   0.798   0.832
   62GLOH   H06 9045   4.508   0.819   0.725
   62GLOH   H07 9046   4.584   0.872   0.873
   62GLOH    O3 9047   4.386   0.808   0.894
   62GLOH   H01 9048   4.370   0.900   0.928
   63GLOH   H03 9049   3.936   0.872   1.132
   63GLOH    O1 9050   4.023   0.900   1.171
   63GLOH    C1 9051   4.115   0.919   1.061
   63GLOH   H02 9052   4.063   0.959   0.974
   63GLOH   H08 9053   4.158   0.823   1.031
   63GLOH    C2 9054   4.229   1.015   1.099
   63GLOH   H04 9055   4.287   0.967   1.178
   63GLOH    O2 9056   4.314   1.037   0.983
   63GLOH   H05 9057   4.335   1.133   0.975
   63GLOH    C3 9058   4.169   1.145   1.157
   63GLOH   H06 9059   4.115   1.120   1.248
   63GLOH   H07 9060   4.096   1.184   1.087
   63GLOH    O3 9061   4.269   1.244   1.187
   63GLOH   H01 9062   4.308   1.228   1.277
   64GLOH   H03 9063   3.677   0.442   2.486
   64GLOH    O1 9064   3.593   0.476   2.528
   64GLOH    C1 9065   3.497   0.511   2.426
   64GLOH   H02 9066   3.404   0.544   2.473
   64GLOH   H08 9067   3.472   0.423   2.367
   64GLOH    C2 9068   3.545   0.623   2.331
   64GLOH   H04 9069   3.592   0.700   2.394
   64GLOH    O2 9070   3.645   0.577   2.237
   64GLOH   H05 9071   3.619   0.488   2.199
   64GLOH    C3 9072   3.426   0.690   2.261
   64GLOH   H06 9073   3.464   0.752   2.179
   64GLOH   H07 9074   3.380   0.759   2.333
   64GLOH    O3 9075   3.328   0.597   2.212
   64GLOH   H01 9076   3.352   0.564   2.122
   65GLOH   H03 9077   3.922   9.642   2.640
   65GLOH    O1 9078   3.958   9.642   2.548
   65GLOH    C1 9079   4.002   9.510   2.513
   65GLOH   H02 9080   4.082   9.480   2.580
   65GLOH   H08 9081   4.043   9.511   2.412
   65GLOH    C2 9082   3.893   9.400   2.519
   65GLOH   H04 9083   3.868   9.383   2.625
   65GLOH    O2 9084   3.773   9.440   2.448
   65GLOH   H05 9085   3.797   9.450   2.351
   65GLOH    C3 9086   3.952   9.269   2.464
   65GLOH   H06 9087   4.039   9.243   2.523
   65GLOH   H07 9088   3.988   9.287   2.362
   65GLOH    O3 9089   3.859   9.159   2.464
   65GLOH   H01 9090   3.823   9.146   2.554
   66GLOH   H03 9091   3.600   0.160   0.003
   66GLOH    O1 9092   3.670   0.114   2.829
   66GLOH    C1 9093   3.797   0.135   0.016
   66GLOH   H02 9094   3.795   0.093   0.117
   66GLOH   H08 9095   3.818   0.241   0.026
   66GLOH    C2 9096   3.914   0.070   2.818
   66GLOH   H04 9097   3.923   0.120   2.720
   66GLOH    O2 9098   4.037   0.088   0.012
   66GLOH   H05 9099   4.083   0.167   2.856
   66GLOH    C3 9100   3.887   9.921   2.792
   66GLOH   H06 9101   3.881   9.869   0.010
   66GLOH   H07 9102   3.970   9.878   2.737
   66GLOH    O3 9103   3.764   9.904   2.719
   66GLOH   H01 9104   3.707   9.980   2.745
   67GLOH   H03 9105   4.369   1.900   1.830
   67GLOH    O1 9106   4.271   1.910   1.827
   67GLOH    C1 9107   4.218   1.785   1.778
   67GLOH   H02 9108   4.228   1.782   1.670
   67GLOH   H08 9109   4.112   1.777   1.800
   67GLOH    C2 9110   4.291   1.664   1.838
   67GLOH   H04 9111   4.279   1.669   1.948
   67GLOH    O2 9112   4.231   1.541   1.790
   67GLOH   H05 9113   4.168   1.511   1.862
   67GLOH    C3 9114   4.441   1.671   1.805
   67GLOH   H06 9115   4.455   1.655   1.698
   67GLOH   H07 9116   4.491   1.588   1.856
   67GLOH    O3 9117   4.500   1.796   1.845
   67GLOH   H01 9118   4.516   1.796   1.943
   68GLOH   H03 9119   3.400   1.324   1.954
   68GLOH    O1 9120   3.369   1.334   1.861
   68GLOH    C1 9121   3.401   1.465   1.808
   68GLOH   H02 9122   3.393   1.541   1.886
   68GLOH   H08 9123   3.330   1.492   1.730
   68GLOH    C2 9124   3.543   1.467   1.748
   68GLOH   H04 9125   3.548   1.386   1.673
   68GLOH    O2 9126   3.574   1.592   1.683
   68GLOH   H05 9127   3.555   1.580   1.585
   68GLOH    C3 9128   3.646   1.434   1.857
   68GLOH   H06 9129   3.745   1.442   1.810
   68GLOH   H07 9130   3.634   1.330   1.886
   68GLOH    O3 9131   3.638   1.520   1.972
   68GLOH   H01 9132   3.635   1.613   1.940
   69GLOH   H03 9133   4.314   1.813   2.537
   69GLOH    O1 9134   4.344   1.895   2.492
   69GLOH    C1 9135   4.226   1.958   2.437
   69GLOH   H02 9136   4.206   1.920   2.337
   69GLOH   H08 9137   4.243   2.065   2.428
   69GLOH    C2 9138   4.102   1.935   2.525
   69GLOH   H04 9139   4.121   1.976   2.625
   69GLOH    O2 9140   3.988   2.003   2.467
   69GLOH   H05 9141   4.013   2.096   2.441
   69GLOH    C3 9142   4.072   1.784   2.538
   69GLOH   H06 9143   4.023   1.751   2.446
   69GLOH   H07 9144   3.998   1.772   2.618
   69GLOH    O3 9145   4.189   1.705   2.565
   69GLOH   H01 9146   4.164   1.615   2.601
   70GLOH   H03 9147   2.540   0.670   2.290
   70GLOH    O1 9148   2.492   0.673   2.376
   70GLOH    C1 9149   2.378   0.759   2.363
   70GLOH   H02 9150   2.302   0.733   2.437
   70GLOH   H08 9151   2.332   0.745   2.265
   70GLOH    C2 9152   2.414   0.907   2.381
   70GLOH   H04 9153   2.491   0.933   2.307
   70GLOH    O2 9154   2.298   0.991   2.359
   70GLOH   H05 9155   2.236   0.946   2.294
   70GLOH    C3 9156   2.474   0.926   2.521
   70GLOH   H06 9157   2.564   0.865   2.529
   70GLOH   H07 9158   2.403   0.888   2.595
   70GLOH    O3 9159   2.508   1.063   2.552
   70GLOH   H01 9160   2.430   1.118   2.531
   71GLOH   H03 9161   2.735   0.925   1.218
   71GLOH    O1 9162   2.780   0.924   1.129
   71GLOH    C1 9163   2.923   0.933   1.148
   71GLOH   H02 9164   2.961   0.840   1.192
   71GLOH   H08 9165   2.946   1.014   1.217
   71GLOH    C2 9166   2.998   0.960   1.017
   71GLOH   H04 9167   2.974   1.063   0.984
   71GLOH    O2 9168   3.141   0.951   1.036
   71GLOH   H05 9169   3.185   0.964   0.948
   71GLOH    C3 9170   2.951   0.864   0.906
   71GLOH   H06 9171   2.966   0.761   0.940
   71GLOH   H07 9172   3.011   0.879   0.817
   71GLOH    O3 9173   2.812   0.887   0.878
   71GLOH   H01 9174   2.770   0.903   0.966
   72GLOH   H03 9175   2.962   1.370   2.072
   72GLOH    O1 9176   2.920   1.314   2.142
   72GLOH    C1 9177   2.827   1.224   2.080
   72GLOH   H02 9178   2.871   1.124   2.071
   72GLOH   H08 9179   2.803   1.257   1.978
   72GLOH    C2 9180   2.697   1.215   2.161
   72GLOH   H04 9181   2.660   1.318   2.172
   72GLOH    O2 9182   2.596   1.138   2.093
   72GLOH   H05 9183   2.511   1.151   2.145
   72GLOH    C3 9184   2.724   1.161   2.302
   72GLOH   H06 9185   2.629   1.155   2.354
   72GLOH   H07 9186   2.784   1.234   2.356
   72GLOH    O3 9187   2.788   1.031   2.304
   72GLOH   H01 9188   2.821   1.016   2.396
   73GLOH   H03 9189   4.458   1.927   2.399
   73GLOH    O1 9190   4.523   1.948   2.326
   73GLOH    C1 9191   4.519   2.089   2.301
   73GLOH   H02 9192   4.565   2.144   2.383
   73GLOH   H08 9193   4.416   2.124   2.293
   73GLOH    C2 9194   4.592   2.127   2.170
   73GLOH   H04 9195   4.691   2.080   2.174
   73GLOH    O2 9196   4.522   2.075   2.055
   73GLOH   H05 9197   4.522   1.976   2.061
   73GLOH    C3 9198   4.615   2.279   2.163
   73GLOH   H06 9199   4.661   2.302   2.067
   73GLOH   H07 9200   4.687   2.306   2.240
   73GLOH    O3 9201   4.495   2.357   2.177
   73GLOH   H01 9202   4.481   2.405   2.091
   74GLOH   H03 9203   2.782   0.643   0.442
   74GLOH    O1 9204   2.714   0.608   0.506
   74GLOH    C1 9205   2.731   0.677   0.632
   74GLOH   H02 9206   2.668   0.766   0.633
   74GLOH   H08 9207   2.834   0.711   0.643
   74GLOH    C2 9208   2.696   0.593   0.756
   74GLOH   H04 9209   2.726   0.651   0.844
   74GLOH    O2 9210   2.555   0.565   0.764
   74GLOH   H05 9211   2.537   0.506   0.843
   74GLOH    C3 9212   2.779   0.463   0.756
   74GLOH   H06 9213   2.884   0.488   0.736
   74GLOH   H07 9214   2.745   0.401   0.673
   74GLOH    O3 9215   2.769   0.390   0.880
   74GLOH   H01 9216   2.788   0.452   0.955
   75GLOH   H03 9217   3.678   0.002   1.772
   75GLOH    O1 9218   3.656   0.008   1.674
   75GLOH    C1 9219   3.743   9.918   1.603
   75GLOH   H02 9220   3.705   9.902   1.501
   75GLOH   H08 9221   3.745   9.820   1.651
   75GLOH    C2 9222   3.887   9.970   1.594
   75GLOH   H04 9223   3.924   9.987   1.696
   75GLOH    O2 9224   3.970   9.872   1.528
   75GLOH   H05 9225   4.056   9.914   1.501
   75GLOH    C3 9226   3.890   0.105   1.518
   75GLOH   H06 9227   3.814   0.170   1.561
   75GLOH   H07 9228   3.862   0.086   1.414
   75GLOH    O3 9229   4.018   0.169   1.524
   75GLOH   H01 9230   4.087   0.103   1.496
   76GLOH   H03 9231   2.899   1.631   1.200
   76GLOH    O1 9232   2.945   1.542   1.202
   76GLOH    C1 9233   3.052   1.545   1.106
   76GLOH   H02 9234   3.135   1.484   1.140
   76GLOH   H08 9235   3.090   1.647   1.098
   76GLOH    C2 9236   3.011   1.500   0.965
   76GLOH   H04 9237   2.943   1.576   0.922
   76GLOH    O2 9238   3.131   1.493   0.884
   76GLOH   H05 9239   3.113   1.524   0.791
   76GLOH    C3 9240   2.935   1.366   0.972
   76GLOH   H06 9241   2.851   1.380   1.040
   76GLOH   H07 9242   3.000   1.292   1.019
   76GLOH    O3 9243   2.886   1.316   0.846
   76GLOH   H01 9244   2.808   1.257   0.868
   77GLOH   H03 9245   3.577   1.046   0.033
   77GLOH    O1 9246   3.660   1.004   0.067
   77GLOH    C1 9247   3.754   1.004   2.836
   77GLOH   H02 9248   3.763   1.104   2.793
   77GLOH   H08 9249   3.720   0.938   2.756
   77GLOH    C2 9250   3.895   0.957   2.877
   77GLOH   H04 9251   3.887   0.857   0.042
   77GLOH    O2 9252   3.980   0.953   2.761
   77GLOH   H05 9253   4.072   0.945   2.793
   77GLOH    C3 9254   3.955   1.052   0.105
   77GLOH   H06 9255   3.892   1.048   0.194
   77GLOH   H07 9256   3.950   1.154   0.067
   77GLOH    O3 9257   4.090   1.016   0.138
   77GLOH   H01 9258   4.119   1.065   0.217
   78GLOH   H03 9259   2.519   1.889   2.140
   78GLOH    O1 9260   2.522   1.794   2.169
   78GLOH    C1 9261   2.654   1.765   2.218
   78GLOH   H02 9262   2.652   1.676   2.282
   78GLOH   H08 9263   2.691   1.847   2.280
   78GLOH    C2 9264   2.754   1.741   2.103
   78GLOH   H04 9265   2.740   1.820   2.028
   78GLOH    O2 9266   2.889   1.746   2.153
   78GLOH   H05 9267   2.897   1.693   2.237
   78GLOH    C3 9268   2.727   1.604   2.037
   78GLOH   H06 9269   2.619   1.591   2.026
   78GLOH   H07 9270   2.761   1.526   2.105
   78GLOH    O3 9271   2.792   1.591   1.909
   78GLOH   H01 9272   2.726   1.623   1.841
   79GLOH   H03 9273   3.198   1.264   0.102
   79GLOH    O1 9274   3.241   1.178   0.123
   79GLOH    C1 9275   3.156   1.105   0.215
   79GLOH   H02 9276   3.130   1.008   0.172
   79GLOH   H08 9277   3.061   1.158   0.230
   79GLOH    C2 9278   3.219   1.083   0.354
   79GLOH   H04 9279   3.318   1.038   0.340
   79GLOH    O2 9280   3.233   1.208   0.425
   79GLOH   H05 9281   3.323   1.209   0.470
   79GLOH    C3 9282   3.134   0.985   0.438
   79GLOH   H06 9283   3.040   1.033   0.464
   79GLOH   H07 9284   3.186   0.967   0.533
   79GLOH    O3 9285   3.109   0.859   0.372
   79GLOH   H01 9286   3.196   0.812   0.357
   80GLOH   H03 9287   3.586   9.382   2.370
   80GLOH    O1 9288   3.534   9.351   2.292
   80GLOH    C1 9289   3.416   9.432   2.275
   80GLOH   H02 9290   3.443   9.534   2.249
   80GLOH   H08 9291   3.360   9.438   2.369
   80GLOH    C2 9292   3.321   9.376   2.167
   80GLOH   H04 9293   3.281   9.280   2.202
   80GLOH    O2 9294   3.210   9.466   2.142
   80GLOH   H05 9295   3.245   9.552   2.105
   80GLOH    C3 9296   3.397   9.351   2.036
   80GLOH   H06 9297   3.437   9.446   2.001
   80GLOH   H07 9298   3.327   9.316   1.960
   80GLOH    O3 9299   3.504   9.257   2.055
   80GLOH   H01 9300   3.534   9.269   2.148
   81GLOH   H03 9301   4.150   1.284   2.260
   81GLOH    O1 9302   4.113   1.325   2.176
   81GLOH    C1 9303   4.010   1.236   2.130
   81GLOH   H02 9304   3.915   1.264   2.174
   81GLOH   H08 9305   4.030   1.133   2.159
   81GLOH    C2 9306   3.996   1.242   1.977
   81GLOH   H04 9307   4.092   1.211   1.934
   81GLOH    O2 9308   3.892   1.154   1.929
   81GLOH   H05 9309   3.907   1.061   1.962
   81GLOH    C3 9310   3.967   1.387   1.934
   81GLOH   H06 9311   3.873   1.417   1.979
   81GLOH   H07 9312   3.956   1.390   1.826
   81GLOH    O3 9313   4.071   1.477   1.977
   81GLOH   H01 9314   4.100   1.442   2.065
   82GLOH   H03 9315   3.665   8.948   1.555
   82GLOH    O1 9316   3.600   9.000   1.502
   82GLOH    C1 9317   3.648   9.008   1.365
   82GLOH   H02 9318   3.639   8.911   1.316
   82GLOH   H08 9319   3.753   9.035   1.363
   82GLOH    C2 9320   3.568   9.112   1.283
   82GLOH   H04 9321   3.583   9.210   1.330
   82GLOH    O2 9322   3.614   9.118   1.146
   82GLOH   H05 9323   3.633   9.213   1.123
   82GLOH    C3 9324   3.418   9.078   1.288
   82GLOH   H06 9325   3.402   8.980   1.243
   82GLOH   H07 9326   3.363   9.150   1.227
   82GLOH    O3 9327   3.371   9.079   1.424
   82GLOH   H01 9328   3.444   9.038   1.477
   83GLOH   H03 9329   4.586   1.215   2.199
   83GLOH    O1 9330   4.576   1.253   2.289
   83GLOH    C1 9331   4.545   1.393   2.274
   83GLOH   H02 9332   4.637   1.451   2.260
   83GLOH   H08 9333   4.496   1.431   2.363
   83GLOH    C2 9334   4.452   1.419   2.154
   83GLOH   H04 9335   4.357   1.367   2.172
   83GLOH    O2 9336   4.427   1.560   2.140
   83GLOH   H05 9337   4.356   1.587   2.206
   83GLOH    C3 9338   4.513   1.363   2.024
   83GLOH   H06 9339   4.603   1.420   2.001
   83GLOH   H07 9340   4.443   1.381   1.943
   83GLOH    O3 9341   4.545   1.222   2.031
   83GLOH   H01 9342   4.554   1.190   1.937
   84GLOH   H03 9343   3.157   0.854   2.326
   84GLOH    O1 9344   3.191   0.941   2.361
   84GLOH    C1 9345   3.146   1.045   2.273
   84GLOH   H02 9346   3.037   1.044   2.265
   84GLOH   H08 9347   3.185   1.030   2.173
   84GLOH    C2 9348   3.189   1.185   2.323
   84GLOH   H04 9349   3.289   1.176   2.367
   84GLOH    O2 9350   3.194   1.280   2.215
   84GLOH   H05 9351   3.139   1.247   2.138
   84GLOH    C3 9352   3.094   1.234   2.435
   84GLOH   H06 9353   2.994   1.242   2.394
   84GLOH   H07 9354   3.125   1.335   2.463
   84GLOH    O3 9355   3.095   1.149   2.551
   84GLOH   H01 9356   3.019   1.086   2.544
   85GLOH   H03 9357   2.539   1.189   1.770
   85GLOH    O1 9358   2.511   1.272   1.724
   85GLOH    C1 9359   2.614   1.313   1.631
   85GLOH   H02 9360   2.701   1.348   1.686
   85GLOH   H08 9361   2.579   1.397   1.572
   85GLOH    C2 9362   2.658   1.200   1.535
   85GLOH   H04 9363   2.686   1.113   1.596
   85GLOH    O2 9364   2.555   1.161   1.442
   85GLOH   H05 9365   2.535   1.238   1.382
   85GLOH    C3 9366   2.784   1.243   1.457
   85GLOH   H06 9367   2.759   1.331   1.398
   85GLOH   H07 9368   2.810   1.164   1.387
   85GLOH    O3 9369   2.894   1.270   1.544
   85GLOH   H01 9370   2.950   1.338   1.498
   86GLOH   H03 9371   3.193   0.292   0.531
   86GLOH    O1 9372   3.254   0.214   0.536
   86GLOH    C1 9373   3.254   0.171   0.673
   86GLOH   H02 9374   3.152   0.158   0.709
   86GLOH   H08 9375   3.298   0.248   0.736
   86GLOH    C2 9376   3.333   0.041   0.697
   86GLOH   H04 9377   3.305   9.969   0.619
   86GLOH    O2 9378   3.475   0.066   0.688
   86GLOH   H05 9379   3.526   9.984   0.712
   86GLOH    C3 9380   3.293   9.979   0.833
   86GLOH   H06 9381   3.290   0.059   0.907
   86GLOH   H07 9382   3.372   9.911   0.865
   86GLOH    O3 9383   3.168   9.907   0.833
   86GLOH   H01 9384   3.101   9.949   0.773
   87GLOH   H03 9385   3.091   1.285   1.931
   87GLOH    O1 9386   3.122   1.205   1.980
   87GLOH    C1 9387   3.150   1.096   1.890
   87GLOH   H02 9388   3.111   1.003   1.932
   87GLOH   H08 9389   3.258   1.082   1.881
   87GLOH    C2 9390   3.091   1.108   1.747
   87GLOH   H04 9391   3.109   1.012   1.697
   87GLOH    O2 9392   2.949   1.132   1.751
   87GLOH   H05 9393   2.923   1.184   1.670
   87GLOH    C3 9394   3.163   1.217   1.664
   87GLOH   H06 9395   3.135   1.315   1.704
   87GLOH   H07 9396   3.126   1.212   1.562
   87GLOH    O3 9397   3.305   1.202   1.662
   87GLOH   H01 9398   3.339   1.246   1.745
   88GLOH   H03 9399   2.822   1.017   2.625
   88GLOH    O1 9400   2.882   0.998   2.550
   88GLOH    C1 9401   2.931   0.863   2.566
   88GLOH   H02 9402   3.002   0.840   2.487
   88GLOH   H08 9403   2.849   0.793   2.557
   88GLOH    C2 9404   3.003   0.837   2.700
   88GLOH   H04 9405   3.089   0.905   2.707
   88GLOH    O2 9406   2.916   0.860   2.813
   88GLOH   H05 9407   2.966   0.844   0.017
   88GLOH    C3 9408   3.056   0.692   2.702
   88GLOH   H06 9409   2.971   0.624   2.697
   88GLOH   H07 9410   3.104   0.674   2.798
   88GLOH    O3 9411   3.147   0.665   2.594
   88GLOH   H01 9412   3.237   0.700   2.618
   89GLOH   H03 9413   3.966   9.145   1.443
   89GLOH    O1 9414   3.934   9.166   1.535
   89GLOH    C1 9415   3.936   9.308   1.558
   89GLOH   H02 9416   3.872   9.333   1.643
   89GLOH   H08 9417   3.895   9.361   1.472
   89GLOH    C2 9418   4.077   9.361   1.587
   89GLOH   H04 9419   4.137   9.345   1.495
   89GLOH    O2 9420   4.077   9.503   1.616
   89GLOH   H05 9421   4.006   9.548   1.562
   89GLOH    C3 9422   4.144   9.279   1.699
   89GLOH   H06 9423   4.235   9.331   1.730
   89GLOH   H07 9424   4.176   9.184   1.658
   89GLOH    O3 9425   4.061   9.259   1.815
   89GLOH   H01 9426   4.011   9.174   1.802
   90GLOH   H03 9427   2.814   0.943   0.734
   90GLOH    O1 9428   2.826   0.959   0.637
   90GLOH    C1 9429   2.766   1.083   0.596
   90GLOH   H02 9430   2.843   1.160   0.586
   90GLOH   H08 9431   2.695   1.119   0.671
   90GLOH    C2 9432   2.691   1.071   0.462
   90GLOH   H04 9433   2.597   1.017   0.481
   90GLOH    O2 9434   2.660   1.203   0.412
   90GLOH   H05 9435   2.622   1.194   0.321
   90GLOH    C3 9436   2.774   0.989   0.361
   90GLOH   H06 9437   2.810   0.900   0.411
   90GLOH   H07 9438   2.862   1.048   0.334
   90GLOH    O3 9439   2.703   0.950   0.242
   90GLOH   H01 9440   2.755   0.879   0.199
   91GLOH   H03 9441   3.891   1.609   0.205
   91GLOH    O1 9442   3.819   1.644   0.148
   91GLOH    C1 9443   3.744   1.741   0.224
   91GLOH   H02 9444   3.688   1.692   0.304
   91GLOH   H08 9445   3.670   1.789   0.160
   91GLOH    C2 9446   3.829   1.852   0.289
   91GLOH   H04 9447   3.761   1.925   0.334
   91GLOH    O2 9448   3.913   1.798   0.394
   91GLOH   H05 9449   3.858   1.784   0.477
   91GLOH    C3 9450   3.912   1.924   0.182
   91GLOH   H06 9451   3.978   1.852   0.134
   91GLOH   H07 9452   3.977   1.997   0.231
   91GLOH    O3 9453   3.829   1.989   0.084
   91GLOH   H01 9454   3.785   2.067   0.127
   92GLOH   H03 9455   3.924   9.728   1.496
   92GLOH    O1 9456   3.902   9.632   1.487
   92GLOH    C1 9457   3.833   9.611   1.362
   92GLOH   H02 9458   3.762   9.691   1.344
   92GLOH   H08 9459   3.775   9.518   1.366
   92GLOH    C2 9460   3.929   9.603   1.242
   92GLOH   H04 9461   4.000   9.521   1.262
   92GLOH    O2 9462   3.858   9.571   1.120
   92GLOH   H05 9463   3.908   9.606   1.041
   92GLOH    C3 9464   4.013   9.732   1.230
   92GLOH   H06 9465   4.076   9.724   1.142
   92GLOH   H07 9466   4.080   9.737   1.316
   92GLOH    O3 9467   3.933   9.852   1.223
   92GLOH   H01 9468   3.992   9.929   1.203
   93GLOH   H03 9469   2.939   9.657   1.580
   93GLOH    O1 9470   2.963   9.726   1.647
   93GLOH    C1 9471   2.895   9.697   1.771
   93GLOH   H02 9472   2.851   9.598   1.768
   93GLOH   H08 9473   2.813   9.768   1.786
   93GLOH    C2 9474   2.986   9.704   1.896
   93GLOH   H04 9475   2.921   9.688   1.984
   93GLOH    O2 9476   3.087   9.601   1.895
   93GLOH   H05 9477   3.045   9.512   1.908
   93GLOH    C3 9478   3.051   9.843   1.909
   93GLOH   H06 9479   2.973   9.918   1.907
   93GLOH   H07 9480   3.112   9.859   1.820
   93GLOH    O3 9481   3.132   9.857   2.028
   93GLOH   H01 9482   3.197   9.782   2.027
   94GLOH   H03 9483   3.398   2.009   1.301
   94GLOH    O1 9484   3.374   2.095   1.256
   94GLOH    C1 9485   3.474   2.193   1.291
   94GLOH   H02 9486   3.569   2.168   1.242
   94GLOH   H08 9487   3.493   2.193   1.398
   94GLOH    C2 9488   3.433   2.334   1.248
   94GLOH   H04 9489   3.335   2.358   1.291
   94GLOH    O2 9490   3.530   2.430   1.296
   94GLOH   H05 9491   3.523   2.434   1.396
   94GLOH    C3 9492   3.423   2.342   1.094
   94GLOH   H06 9493   3.522   2.325   1.052
   94GLOH   H07 9494   3.393   2.443   1.067
   94GLOH    O3 9495   3.329   2.247   1.040
   94GLOH   H01 9496   3.328   2.168   1.100
   95GLOH   H03 9497   3.945   2.127   2.018
   95GLOH    O1 9498   3.920   2.044   2.065
   95GLOH    C1 9499   3.911   1.937   1.970
   95GLOH   H02 9500   3.999   1.936   1.906
   95GLOH   H08 9501   3.825   1.951   1.905
   95GLOH    C2 9502   3.899   1.798   2.037
   95GLOH   H04 9503   3.800   1.792   2.084
   95GLOH    O2 9504   3.910   1.694   1.938
   95GLOH   H05 9505   3.967   1.621   1.975
   95GLOH    C3 9506   4.006   1.785   2.147
   95GLOH   H06 9507   3.987   1.862   2.223
   95GLOH   H07 9508   4.103   1.806   2.104
   95GLOH    O3 9509   4.006   1.655   2.210
   95GLOH   H01 9510   3.918   1.641   2.255
   96GLOH   H03 9511   3.078   9.842   0.462
   96GLOH    O1 9512   3.160   9.787   0.469
   96GLOH    C1 9513   3.130   9.657   0.415
   96GLOH   H02 9514   3.122   9.661   0.307
   96GLOH   H08 9515   3.034   9.622   0.453
   96GLOH    C2 9516   3.235   9.551   0.453
   96GLOH   H04 9517   3.230   9.536   0.562
   96GLOH    O2 9518   3.203   9.427   0.387
   96GLOH   H05 9519   3.152   9.370   0.451
   96GLOH    C3 9520   3.378   9.598   0.419
   96GLOH   H06 9521   3.388   9.604   0.311
   96GLOH   H07 9522   3.449   9.524   0.455
   96GLOH    O3 9523   3.402   9.726   0.481
   96GLOH   H01 9524   3.311   9.768   0.484
   97GLOH   H03 9525   3.226   2.447   1.593
   97GLOH    O1 9526   3.272   2.420   1.678
   97GLOH    C1 9527   3.180   2.456   1.784
   97GLOH   H02 9528   3.077   2.438   1.753
   97GLOH   H08 9529   3.188   2.562   1.806
   97GLOH    C2 9530   3.203   2.378   1.916
   97GLOH   H04 9531   3.139   2.424   1.992
   97GLOH    O2 9532   3.167   2.239   1.901
   97GLOH   H05 9533   3.231   2.198   1.835
   97GLOH    C3 9534   3.349   2.395   1.960
   97GLOH   H06 9535   3.366   2.500   1.985
   97GLOH   H07 9536   3.415   2.372   1.876
   97GLOH    O3 9537   3.382   2.313   2.073
   97GLOH   H01 9538   3.465   2.265   2.051
   98GLOH   H03 9539   3.511   1.233   0.192
   98GLOH    O1 9540   3.581   1.292   0.227
   98GLOH    C1 9541   3.545   1.429   0.198
   98GLOH   H02 9542   3.520   1.440   0.092
   98GLOH   H08 9543   3.630   1.494   0.217
   98GLOH    C2 9544   3.426   1.481   0.281
   98GLOH   H04 9545   3.340   1.416   0.261
   98GLOH    O2 9546   3.455   1.478   0.423
   98GLOH   H05 9547   3.457   1.384   0.454
   98GLOH    C3 9548   3.389   1.624   0.239
   98GLOH   H06 9549   3.477   1.687   0.245
   98GLOH   H07 9550   3.317   1.662   0.312
   98GLOH    O3 9551   3.332   1.631   0.107
   98GLOH   H01 9552   3.396   1.668   0.040
   99GLOH   H03 9553   4.208   0.854   2.352
   99GLOH    O1 9554   4.232   0.950   2.360
   99GLOH    C1 9555   4.345   0.969   2.272
   99GLOH   H02 9556   4.406   0.879   2.269
   99GLOH   H08 9557   4.409   1.049   2.310
   99GLOH    C2 9558   4.303   1.004   2.128
   99GLOH   H04 9559   4.266   1.108   2.127
   99GLOH    O2 9560   4.418   0.995   2.041
   99GLOH   H05 9561   4.468   1.081   2.047
   99GLOH    C3 9562   4.191   0.912   2.078
   99GLOH   H06 9563   4.110   0.911   2.151
   99GLOH   H07 9564   4.230   0.811   2.073
   99GLOH    O3 9565   4.139   0.951   1.950
   99GLOH   H01 9566   4.057   0.898   1.937
  100GLOH   H03 9567   3.607   9.343   1.597
  100GLOH    O1 9568   3.582   9.425   1.546
  100GLOH    C1 9569   3.601   9.539   1.631
  100GLOH   H02 9570   3.589   9.631   1.574
  100GLOH   H08 9571   3.703   9.540   1.671
  100GLOH    C2 9572   3.501   9.539   1.749
  100GLOH   H04 9573   3.514   9.443   1.801
  100GLOH    O2 9574   3.526   9.647   1.842
  100GLOH   H05 9575   3.497   9.733   1.800
  100GLOH    C3 9576   3.357   9.546   1.697
  100GLOH   H06 9577   3.291   9.551   1.784
  100GLOH   H07 9578   3.333   9.453   1.646
  100GLOH    O3 9579   3.333   9.658   1.610
  100GLOH   H01 9580   3.358   9.742   1.658
  101GLOH   H03 9581   4.174   2.007   1.765
  101GLOH    O1 9582   4.103   2.060   1.720
  101GLOH    C1 9583   4.136   2.199   1.728
  101GLOH   H02 9584   4.071   2.256   1.662
  101GLOH   H08 9585   4.238   2.216   1.692
  101GLOH    C2 9586   4.125   2.259   1.870
  101GLOH   H04 9587   4.150   2.366   1.863
  101GLOH    O2 9588   3.991   2.247   1.924
  101GLOH   H05 9589   3.924   2.240   1.849
  101GLOH    C3 9590   4.227   2.194   1.964
  101GLOH   H06 9591   4.204   2.088   1.975
  101GLOH   H07 9592   4.216   2.238   2.064
  101GLOH    O3 9593   4.362   2.213   1.917
  101GLOH   H01 9594   4.423   2.156   1.970
  102GLOH   H03 9595   3.359   1.125   0.006
  102GLOH    O1 9596   3.451   1.105   2.851
  102GLOH    C1 9597   3.454   1.107   2.706
  102GLOH   H02 9598   3.557   1.114   2.671
  102GLOH   H08 9599   3.402   1.196   2.668
  102GLOH    C2 9600   3.389   0.983   2.640
  102GLOH   H04 9601   3.283   0.982   2.667
  102GLOH    O2 9602   3.402   0.992   2.497
  102GLOH   H05 9603   3.312   0.972   2.456
  102GLOH    C3 9604   3.455   0.854   2.693
  102GLOH   H06 9605   3.474   0.865   2.800
  102GLOH   H07 9606   3.552   0.843   2.645
  102GLOH    O3 9607   3.376   0.736   2.670
  102GLOH   H01 9608   3.427   0.659   2.707
  103GLOH   H03 9609   3.466   9.717   0.621
  103GLOH    O1 9610   3.503   9.719   0.713
  103GLOH    C1 9611   3.567   9.593   0.740
  103GLOH   H02 9612   3.502   9.510   0.708
  103GLOH   H08 9613   3.582   9.580   0.847
  103GLOH    C2 9614   3.703   9.579   0.669
  103GLOH   H04 9615   3.685   9.585   0.560
  103GLOH    O2 9616   3.792   9.687   0.707
  103GLOH   H05 9617   3.758   9.770   0.663
  103GLOH    C3 9618   3.765   9.442   0.700
  103GLOH   H06 9619   3.775   9.433   0.808
  103GLOH   H07 9620   3.865   9.440   0.658
  103GLOH    O3 9621   3.686   9.335   0.647
  103GLOH   H01 9622   3.711   9.252   0.695
  104GLOH   H03 9623   3.272   1.853   0.192
  104GLOH    O1 9624   3.326   1.912   0.249
  104GLOH    C1 9625   3.267   1.924   0.380
  104GLOH   H02 9626   3.286   1.834   0.439
  104GLOH   H08 9627   3.158   1.934   0.371
  104GLOH    C2 9628   3.321   2.046   0.457
  104GLOH   H04 9629   3.287   2.137   0.405
  104GLOH    O2 9630   3.268   2.048   0.592
  104GLOH   H05 9631   3.301   1.966   0.641
  104GLOH    C3 9632   3.475   2.046   0.459
  104GLOH   H06 9633   3.510   1.960   0.517
  104GLOH   H07 9634   3.508   2.136   0.510
  104GLOH    O3 9635   3.528   2.041   0.325
  104GLOH   H01 9636   3.460   1.992   0.273
  105GLOH   H03 9637   2.766   0.938   2.177
  105GLOH    O1 9638   2.761   0.873   2.102
  105GLOH    C1 9639   2.865   0.774   2.117
  105GLOH   H02 9640   2.962   0.817   2.091
  105GLOH   H08 9641   2.848   0.692   2.048
  105GLOH    C2 9642   2.874   0.715   2.260
  105GLOH   H04 9643   2.874   0.800   2.329
  105GLOH    O2 9644   2.763   0.630   2.293
  105GLOH   H05 9645   2.757   0.554   2.227
  105GLOH    C3 9646   3.007   0.639   2.278
  105GLOH   H06 9647   3.010   0.556   2.209
  105GLOH   H07 9648   3.009   0.597   2.379
  105GLOH    O3 9649   3.120   0.726   2.259
  105GLOH   H01 9650   3.200   0.668   2.244
  106GLOH   H03 9651   2.344   1.114   2.281
  106GLOH    O1 9652   2.385   1.187   2.227
  106GLOH    C1 9653   2.289   1.238   2.132
  106GLOH   H02 9654   2.195   1.260   2.181
  106GLOH   H08 9655   2.268   1.163   2.055
  106GLOH    C2 9656   2.340   1.366   2.062
  106GLOH   H04 9657   2.434   1.343   2.010
  106GLOH    O2 9658   2.243   1.413   1.966
  106GLOH   H05 9659   2.253   1.364   1.880
  106GLOH    C3 9660   2.367   1.476   2.166
  106GLOH   H06 9661   2.273   1.506   2.212
  106GLOH   H07 9662   2.408   1.563   2.115
  106GLOH    O3 9663   2.459   1.430   2.267
  106GLOH   H01 9664   2.443   1.333   2.276
  107GLOH   H03 9665   3.147   9.644   1.114
  107GLOH    O1 9666   3.155   9.616   1.209
  107GLOH    C1 9667   3.027   9.617   1.274
  107GLOH   H02 9668   2.948   9.589   1.205
  107GLOH   H08 9669   3.004   9.718   1.309
  107GLOH    C2 9670   3.020   9.522   1.395
  107GLOH   H04 9671   3.108   9.541   1.459
  107GLOH    O2 9672   2.900   9.546   1.471
  107GLOH   H05 9673   2.822   9.525   1.411
  107GLOH    C3 9674   3.021   9.375   1.352
  107GLOH   H06 9675   2.937   9.358   1.285
  107GLOH   H07 9676   3.004   9.315   1.441
  107GLOH    O3 9677   3.142   9.331   1.287
  107GLOH   H01 9678   3.220   9.353   1.344
  108GLOH   H03 9679   2.499   0.465   1.806
  108GLOH    O1 9680   2.509   0.449   1.708
  108GLOH    C1 9681   2.523   0.575   1.639
  108GLOH   H02 9682   2.627   0.593   1.614
  108GLOH   H08 9683   2.491   0.658   1.701
  108GLOH    C2 9684   2.441   0.576   1.508
  108GLOH   H04 9685   2.451   0.478   1.461
  108GLOH    O2 9686   2.301   0.600   1.536
  108GLOH   H05 9687   2.285   0.598   1.636
  108GLOH    C3 9688   2.497   0.680   1.409
  108GLOH   H06 9689   2.605   0.666   1.401
  108GLOH   H07 9690   2.481   0.779   1.451
  108GLOH    O3 9691   2.437   0.671   1.278
  108GLOH   H01 9692   2.506   0.692   1.209
  109GLOH   H03 9693   4.377   1.690   0.827
  109GLOH    O1 9694   4.457   1.632   0.832
  109GLOH    C1 9695   4.413   1.495   0.828
  109GLOH   H02 9696   4.489   1.430   0.784
  109GLOH   H08 9697   4.324   1.486   0.765
  109GLOH    C2 9698   4.378   1.439   0.967
  109GLOH   H04 9699   4.294   1.497   1.006
  109GLOH    O2 9700   4.337   1.301   0.961
  109GLOH   H05 9701   4.307   1.280   1.056
  109GLOH    C3 9702   4.497   1.457   1.063
  109GLOH   H06 9703   4.585   1.408   1.021
  109GLOH   H07 9704   4.475   1.408   1.158
  109GLOH    O3 9705   4.523   1.597   1.084
  109GLOH   H01 9706   4.526   1.637   0.994
  110GLOH   H03 9707   2.505   1.942   1.008
  110GLOH    O1 9708   2.548   2.016   1.060
  110GLOH    C1 9709   2.592   1.967   1.188
  110GLOH   H02 9710   2.694   1.999   1.208
  110GLOH   H08 9711   2.592   1.858   1.190
  110GLOH    C2 9712   2.503   2.016   1.304
  110GLOH   H04 9713   2.400   1.986   1.283
  110GLOH    O2 9714   2.544   1.955   1.429
  110GLOH   H05 9715   2.601   2.019   1.480
  110GLOH    C3 9716   2.507   2.170   1.313
  110GLOH   H06 9717   2.435   2.202   1.389
  110GLOH   H07 9718   2.472   2.211   1.218
  110GLOH    O3 9719   2.638   2.222   1.344
  110GLOH   H01 9720   2.662   2.192   1.435
  111GLOH   H03 9721   2.775   1.634   2.738
  111GLOH    O1 9722   2.837   1.614   2.665
  111GLOH    C1 9723   2.857   1.733   2.586
  111GLOH   H02 9724   2.882   1.817   2.650
  111GLOH   H08 9725   2.764   1.759   2.534
  111GLOH    C2 9726   2.968   1.718   2.480
  111GLOH   H04 9727   3.059   1.682   2.531
  111GLOH    O2 9728   2.933   1.626   2.375
  111GLOH   H05 9729   3.016   1.579   2.345
  111GLOH    C3 9730   2.998   1.854   2.416
  111GLOH   H06 9731   2.912   1.884   2.357
  111GLOH   H07 9732   3.081   1.840   2.347
  111GLOH    O3 9733   3.030   1.958   2.510
  111GLOH   H01 9734   3.022   2.042   2.459
  112GLOH   H03 9735   2.571   1.444   1.261
  112GLOH    O1 9736   2.533   1.352   1.265
  112GLOH    C1 9737   2.580   1.280   1.148
  112GLOH   H02 9738   2.547   1.176   1.153
  112GLOH   H08 9739   2.689   1.278   1.147
  112GLOH    C2 9740   2.530   1.340   1.015
  112GLOH   H04 9741   2.420   1.338   1.019
  112GLOH    O2 9742   2.571   1.478   0.997
  112GLOH   H05 9743   2.495   1.526   0.953
  112GLOH    C3 9744   2.571   1.255   0.893
  112GLOH   H06 9745   2.590   1.321   0.808
  112GLOH   H07 9746   2.487   1.193   0.864
  112GLOH    O3 9747   2.687   1.172   0.915
  112GLOH   H01 9748   2.651   1.083   0.941
  113GLOH   H03 9749   3.227   2.161   2.066
  113GLOH    O1 9750   3.216   2.085   2.128
  113GLOH    C1 9751   3.087   2.024   2.112
  113GLOH   H02 9752   3.088   1.923   2.152
  113GLOH   H08 9753   3.062   2.014   2.006
  113GLOH    C2 9754   2.975   2.102   2.183
  113GLOH   H04 9755   2.885   2.038   2.187
  113GLOH    O2 9756   3.018   2.133   2.317
  113GLOH   H05 9757   3.113   2.155   2.310
  113GLOH    C3 9758   2.937   2.232   2.109
  113GLOH   H06 9759   3.012   2.308   2.132
  113GLOH   H07 9760   2.843   2.269   2.151
  113GLOH    O3 9761   2.924   2.215   1.967
  113GLOH   H01 9762   3.015   2.223   1.929
  114GLOH   H03 9763   3.800   1.501   1.132
  114GLOH    O1 9764   3.849   1.415   1.135
  114GLOH    C1 9765   3.803   1.344   1.252
  114GLOH   H02 9766   3.834   1.239   1.246
  114GLOH   H08 9767   3.694   1.344   1.257
  114GLOH    C2 9768   3.858   1.402   1.384
  114GLOH   H04 9769   3.967   1.400   1.378
  114GLOH    O2 9770   3.816   1.538   1.405
  114GLOH   H05 9771   3.717   1.543   1.411
  114GLOH    C3 9772   3.814   1.315   1.504
  114GLOH   H06 9773   3.705   1.311   1.506
  114GLOH   H07 9774   3.845   1.366   1.596
  114GLOH    O3 9775   3.869   1.182   1.501
  114GLOH   H01 9776   3.967   1.191   1.489
  115GLOH   H03 9777   3.690   0.732   0.630
  115GLOH    O1 9778   3.615   0.698   0.685
  115GLOH    C1 9779   3.629   0.555   0.694
  115GLOH   H02 9780   3.688   0.528   0.782
  115GLOH   H08 9781   3.683   0.516   0.608
  115GLOH    C2 9782   3.495   0.479   0.703
  115GLOH   H04 9783   3.517   0.372   0.698
  115GLOH    O2 9784   3.424   0.506   0.826
  115GLOH   H05 9785   3.474   0.466   0.903
  115GLOH    C3 9786   3.406   0.515   0.582
  115GLOH   H06 9787   3.385   0.622   0.585
  115GLOH   H07 9788   3.311   0.464   0.595
  115GLOH    O3 9789   3.464   0.479   0.455
  115GLOH   H01 9790   3.499   0.387   0.462
  116GLOH   H03 9791   2.735   0.271   0.406
  116GLOH    O1 9792   2.805   0.199   0.403
  116GLOH    C1 9793   2.916   0.237   0.485
  116GLOH   H02 9794   2.995   0.162   0.479
  116GLOH   H08 9795   2.887   0.244   0.590
  116GLOH    C2 9796   2.977   0.372   0.443
  116GLOH   H04 9797   2.900   0.449   0.454
  116GLOH    O2 9798   3.088   0.403   0.530
  116GLOH   H05 9799   3.084   0.500   0.556
  116GLOH    C3 9800   3.022   0.366   0.296
  116GLOH   H06 9801   2.939   0.326   0.236
  116GLOH   H07 9802   3.103   0.294   0.288
  116GLOH    O3 9803   3.063   0.493   0.243
  116GLOH   H01 9804   3.155   0.482   0.209
  117GLOH   H03 9805   3.798   0.977   0.956
  117GLOH    O1 9806   3.780   1.060   0.905
  117GLOH    C1 9807   3.639   1.059   0.873
  117GLOH   H02 9808   3.583   1.008   0.952
  117GLOH   H08 9809   3.621   1.004   0.781
  117GLOH    C2 9810   3.582   1.201   0.859
  117GLOH   H04 9811   3.646   1.256   0.789
  117GLOH    O2 9812   3.447   1.196   0.805
  117GLOH   H05 9813   3.382   1.231   0.873
  117GLOH    C3 9814   3.587   1.272   0.995
  117GLOH   H06 9815   3.565   1.378   0.980
  117GLOH   H07 9816   3.689   1.266   1.032
  117GLOH    O3 9817   3.498   1.216   1.092
  117GLOH   H01 9818   3.407   1.245   1.066
  118GLOH   H03 9819   3.939   0.184   2.023
  118GLOH    O1 9820   3.876   0.260   2.025
  118GLOH    C1 9821   3.931   0.370   2.101
  118GLOH   H02 9822   3.969   0.334   2.196
  118GLOH   H08 9823   3.852   0.441   2.124
  118GLOH    C2 9824   4.043   0.446   2.028
  118GLOH   H04 9825   4.012   0.458   1.923
  118GLOH    O2 9826   4.064   0.578   2.084
  118GLOH   H05 9827   4.064   0.641   2.006
  118GLOH    C3 9828   4.176   0.367   2.028
  118GLOH   H06 9829   4.198   0.336   2.130
  118GLOH   H07 9830   4.256   0.434   1.998
  118GLOH    O3 9831   4.171   0.254   1.941
  118GLOH   H01 9832   4.148   0.288   1.850
  119GLOH   H03 9833   2.208   1.267   1.407
  119GLOH    O1 9834   2.183   1.212   1.487
  119GLOH    C1 9835   2.174   1.075   1.443
  119GLOH   H02 9836   2.247   1.055   1.364
  119GLOH   H08 9837   2.076   1.056   1.400
  119GLOH    C2 9838   2.198   0.975   1.557
  119GLOH   H04 9839   2.128   0.997   1.639
  119GLOH    O2 9840   2.174   0.841   1.507
  119GLOH   H05 9841   2.231   0.776   1.555
  119GLOH    C3 9842   2.342   0.991   1.610
  119GLOH   H06 9843   2.362   1.097   1.624
  119GLOH   H07 9844   2.411   0.958   1.532
  119GLOH    O3 9845   2.369   0.921   1.733
  119GLOH   H01 9846   2.445   0.966   1.776
  120GLOH   H03 9847   3.610   1.635   1.143
  120GLOH    O1 9848   3.699   1.615   1.104
  120GLOH    C1 9849   3.729   1.715   1.004
  120GLOH   H02 9850   3.658   1.706   0.922
  120GLOH   H08 9851   3.828   1.696   0.962
  120GLOH    C2 9852   3.724   1.860   1.055
  120GLOH   H04 9853   3.620   1.885   1.082
  120GLOH    O2 9854   3.809   1.878   1.171
  120GLOH   H05 9855   3.896   1.832   1.151
  120GLOH    C3 9856   3.772   1.956   0.945
  120GLOH   H06 9857   3.880   1.948   0.936
  120GLOH   H07 9858   3.751   2.058   0.978
  120GLOH    O3 9859   3.709   1.932   0.818
  120GLOH   H01 9860   3.692   2.021   0.777
  121ACOH    H4 9861   2.831   0.039   0.909
  121ACOH    O2 9862   2.868   9.978   0.978
  121ACOH    C2 9863   2.971   0.044   1.034
  121ACOH    O1 9864   3.019   0.150   0.997
  121ACOH    C1 9865   3.025   9.970   1.150
  121ACOH    H1 9866   2.971   9.877   1.164
  121ACOH    H2 9867   3.014   0.030   1.239
  121ACOH    H3 9868   3.131   9.948   1.134
  122ACOH    H4 9869   3.621   8.778   0.941
  122ACOH    O2 9870   3.632   8.681   0.921
  122ACOH    C2 9871   3.763   8.655   0.927
  122ACOH    O1 9872   3.848   8.718   0.988
  122ACOH    C1 9873   3.794   8.524   0.865
  122ACOH    H1 9874   3.853   8.540   0.776
  122ACOH    H2 9875   3.702   8.471   0.839
  122ACOH    H3 9876   3.851   8.463   0.934
  123ACOH    H4 9877   3.725   1.308   0.273
  123ACOH    O2 9878   3.821   1.324   0.296
  123ACOH    C2 9879   3.829   1.334   0.430
  123ACOH    O1 9880   3.738   1.325   0.510
  123ACOH    C1 9881   3.968   1.364   0.472
  123ACOH    H1 9882   4.003   1.455   0.424
  123ACOH    H2 9883   4.034   1.282   0.443
  123ACOH    H3 9884   3.974   1.377   0.580
  124ACOH    H4 9885   2.647   9.380   0.450
  124ACOH    O2 9886   2.606   9.295   0.420
  124ACOH    C2 9887   2.603   9.296   0.286
  124ACOH    O1 9888   2.638   9.386   0.212
  124ACOH    C1 9889   2.549   9.168   0.234
  124ACOH    H1 9890   2.451   9.149   0.278
  124ACOH    H2 9891   2.616   9.087   0.262
  124ACOH    H3 9892   2.539   9.171   0.126
  125ACOH    H4 9893   3.651   2.465   1.217
  125ACOH    O2 9894   3.731   2.480   1.159
  125ACOH    C2 9895   3.814   2.560   1.227
  125ACOH    O1 9896   3.795   2.610   1.336
  125ACOH    C1 9897   3.938   2.582   1.149
  125ACOH    H1 9898   4.006   2.646   1.203
  125ACOH    H2 9899   3.913   2.627   1.054
  125ACOH    H3 9900   3.986   2.486   1.131
  126ACOH    H4 9901   3.710   9.526   2.582
  126ACOH    O2 9902   3.644   9.557   2.648
  126ACOH    C2 9903   3.709   9.600   2.758
  126ACOH    O1 9904   3.828   9.588   2.782
  126ACOH    C1 9905   3.613   9.651   2.859
  126ACOH    H1 9906   3.535   9.576   2.876
  126ACOH    H2 9907   3.568   9.742   2.822
  126ACOH    H3 9908   3.663   9.672   0.075
  127ACOH    H4 9909   4.199   9.563   1.686
  127ACOH    O2 9910   4.274   9.595   1.743
  127ACOH    C2 9911   4.332   9.700   1.681
  127ACOH    O1 9912   4.299   9.750   1.575
  127ACOH    C1 9913   4.441   9.757   1.764
  127ACOH    H1 9914   4.459   9.695   1.852
  127ACOH    H2 9915   4.413   9.856   1.797
  127ACOH    H3 9916   4.532   9.763   1.706
  128ACOH    H4 9917   4.499   0.690   1.419
  128ACOH    O2 9918   4.567   0.684   1.490
  128ACOH    C2 9919   4.675   0.623   1.436
  128ACOH    O1 9920   4.705   0.625   1.318
  128ACOH    C1 9921   4.770   0.580   1.541
  128ACOH    H1 9922   4.810   0.483   1.516
  128ACOH    H2 9923   4.720   0.574   1.637
  128ACOH    H3 9924   4.851   0.652   1.549
  129ACOH    H4 9925   3.085   9.379   2.148
  129ACOH    O2 9926   3.005   9.321   2.161
  129ACOH    C2 9927   2.942   9.306   2.043
  129ACOH    O1 9928   2.975   9.354   1.936
  129ACOH    C1 9929   2.821   9.223   2.060
  129ACOH    H1 9930   2.771   9.207   1.964
  129ACOH    H2 9931   2.753   9.272   2.128
  129ACOH    H3 9932   2.848   9.126   2.102
  130ACOH    H4 9933   3.831   9.068   1.849
  130ACOH    O2 9934   3.919   9.042   1.810
  130ACOH    C2 9935   3.894   8.947   1.718
  130ACOH    O1 9936   3.784   8.910   1.678
  130ACOH    C1 9937   4.020   8.889   1.668
  130ACOH    H1 9938   4.079   8.967   1.620
  130ACOH    H2 9939   4.001   8.810   1.596
  130ACOH    H3 9940   4.077   8.848   1.751
  131ACOH    H4 9941   3.641   2.120   0.276
  131ACOH    O2 9942   3.719   2.168   0.234
  131ACOH    C2 9943   3.769   2.249   0.330
  131ACOH    O1 9944   3.756   2.234   0.450
  131ACOH    C1 9945   3.866   2.346   0.274
  131ACOH    H1 9946   3.837   2.447   0.302
  131ACOH    H2 9947   3.871   2.339   0.166
  131ACOH    H3 9948   3.965   2.326   0.315
  132ACOH    H4 9949   4.077   2.705   2.218
  132ACOH    O2 9950   4.136   2.781   2.197
  132ACOH    C2 9951   4.165   2.778   2.066
  132ACOH    O1 9952   4.126   2.696   1.984
  132ACOH    C1 9953   4.254   2.890   2.029
  132ACOH    H1 9954   4.278   2.888   1.923
  132ACOH    H2 9955   4.346   2.884   2.087
  132ACOH    H3 9956   4.204   2.984   2.052
  133ACOH    H4 9957   3.760   8.854   0.422
  133ACOH    O2 9958   3.692   8.782   0.436
  133ACOH    C2 9959   3.672   8.773   0.568
  133ACOH    O1 9960   3.728   8.836   0.656
  133ACOH    C1 9961   3.565   8.676   0.599
  133ACOH    H1 9962   3.528   8.628   0.508
  133ACOH    H2 9963   3.482   8.728   0.647
  133ACOH    H3 9964   3.602   8.600   0.667
  134ACOH    H4 9965   4.733   1.192   1.479
  134ACOH    O2 9966   4.746   1.232   1.570
  134ACOH    C2 9967   4.681   1.349   1.571
  134ACOH    O1 9968   4.605   1.391   1.485
  134ACOH    C1 9969   4.698   1.419   1.701
  134ACOH    H1 9970   4.726   1.522   1.684
  134ACOH    H2 9971   4.775   1.370   1.760
  134ACOH    H3 9972   4.604   1.415   1.755
  135ACOH    H4 9973   4.159   9.238   0.359
  135ACOH    O2 9974   4.171   9.336   0.344
  135ACOH    C2 9975   4.127   9.398   0.454
  135ACOH    O1 9976   4.105   9.350   0.564
  135ACOH    C1 9977   4.118   9.544   0.429
  135ACOH    H1 9978   4.215   9.581   0.396
  135ACOH    H2 9979   4.087   9.597   0.519
  135ACOH    H3 9980   4.045   9.562   0.351
  136ACOH    H4 9981   4.827   1.270   0.800
  136ACOH    O2 9982   4.848   1.195   0.863
  136ACOH    C2 9983   4.846   1.084   0.787
  136ACOH    O1 9984   4.766   1.063   0.697
  136ACOH    C1 9985   4.925   0.974   0.847
  136ACOH    H1 9986   4.858   0.897   0.887
  136ACOH    H2 9987   4.987   1.011   0.928
  136ACOH    H3 9988   4.988   0.929   0.772
  137ACOH    H4 9989   4.091   2.451   1.468
  137ACOH    O2 9990   4.097   2.544   1.504
  137ACOH    C2 9991   3.990   2.562   1.583
  137ACOH    O1 9992   3.921   2.475   1.634
  137ACOH    C1 9993   3.981   2.704   1.625
  137ACOH    H1 9994   3.905   2.717   1.701
  137ACOH    H2 9995   3.956   2.764   1.538
  137ACOH    H3 9996   4.077   2.736   1.664
  138ACOH    H4 9997   4.204   0.108   1.930
  138ACOH    O2 9998   4.210   0.012   1.903
  138ACOH    C2 9999   4.093   9.957   1.938
  138ACOH    O110000   4.010   0.003   2.016
  138ACOH    C110001   4.078   9.826   1.871
  138ACOH    H110002   4.151   9.756   1.910
  138ACOH    H210003   4.094   9.837   1.765
  138ACOH    H310004   3.978   9.786   1.887
  139SOL     OW10005   3.908   1.299   0.902
  139SOL    HW110006   3.862   1.210   0.904
  139SOL    HW210007   3.897   1.344   0.991
  140SOL     OW10008   2.258   0.941   0.939
  140SOL    HW110009   2.252   0.912   1.035
  140SOL    HW210010   2.279   0.862   0.882
  141SOL     OW10011   2.165   1.407   1.025
  141SOL    HW110012   2.189   1.334   0.961
  141SOL    HW210013   2.066   1.419   1.026
  142SOL     OW10014   2.323   0.298   2.106
  142SOL    HW110015   2.325   0.225   2.174
  142SOL    HW210016   2.228   0.326   2.090
  143SOL     OW10017   3.617   2.231   1.945
  143SOL    HW110018   3.683   2.225   1.870
  143SOL    HW210019   3.633   2.314   1.998
  144SOL     OW10020   3.443   1.270   1.445
  144SOL    HW110021   3.461   1.189   1.389
  144SOL    HW210022   3.390   1.243   1.526
  145SOL     OW10023   3.441   1.605   0.656
  145SOL    HW110024   3.524   1.579   0.706
  145SOL    HW210025   3.444   1.566   0.564
  146SOL     OW10026   3.375   1.858   2.092
  146SOL    HW110027   3.431   1.900   2.022
  146SOL    HW210028   3.327   1.929   2.144
  147SOL     OW10029   3.894   0.621   2.304
  147SOL    HW110030   3.797   0.621   2.279
  147SOL    HW210031   3.950   0.625   2.222
  148SOL     OW10032   2.597   0.691   1.073
  148SOL    HW110033   2.555   0.608   1.036
  148SOL    HW210034   2.696   0.682   1.071
  149SOL     OW10035   2.028   0.736   1.310
  149SOL    HW110036   2.009   0.641   1.334
  149SOL    HW210037   2.071   0.782   1.389
  150SOL     OW10038   2.240   0.597   1.783
  150SOL    HW110039   2.213   0.502   1.801
  150SOL    HW210040   2.277   0.638   1.867
  151SOL     OW10041   2.846   1.780   1.184
  151SOL    HW110042   2.868   1.825   1.098
  151SOL    HW210043   2.867   1.841   1.260
  152SOL     OW10044   3.093   2.362   1.145
  152SOL    HW110045   3.154   2.311   1.084
  152SOL    HW210046   3.000   2.325   1.137
  153SOL     OW10047   3.686   1.821   1.410
  153SOL    HW110048   3.739   1.834   1.326
  153SOL    HW210049   3.748   1.812   1.487
  154SOL     OW10050   2.620   0.382   0.401
  154SOL    HW110051   2.558   0.410   0.327
  154SOL    HW210052   2.651   0.463   0.450
  155SOL     OW10053   3.710   9.136   1.940
  155SOL    HW110054   3.762   9.131   2.026
  155SOL    HW210055   3.618   9.169   1.959
  156SOL     OW10056   3.096   1.203   0.715
  156SOL    HW110057   3.022   1.244   0.768
  156SOL    HW210058   3.095   1.240   0.622
  157SOL     OW10059   3.078   0.424   1.064
  157SOL    HW110060   3.123   0.409   1.153
  157SOL    HW210061   3.064   0.336   1.019
  158SOL     OW10062   2.290   0.061   2.275
  158SOL    HW110063   2.372   0.032   2.227
  158SOL    HW210064   2.301   0.044   2.373
  159SOL     OW10065   2.394   0.174   1.416
  159SOL    HW110066   2.317   0.236   1.431
  159SOL    HW210067   2.471   0.202   1.473
  160SOL     OW10068   3.336   9.685   2.048
  160SOL    HW110069   3.392   9.739   2.111
  160SOL    HW210070   3.390   9.662   1.967
  161SOL     OW10071   2.453   0.155   0.374
  161SOL    HW110072   2.512   0.082   0.338
  161SOL    HW210073   2.511   0.230   0.407
  162SOL     OW10074   2.621   9.568   2.007
  162SOL    HW110075   2.644   9.652   2.056
  162SOL    HW210076   2.602   9.496   2.073
  163SOL     OW10077   3.364   9.348   1.418
  163SOL    HW110078   3.364   9.249   1.431
  163SOL    HW210079   3.441   9.389   1.468
  164SOL     OW10080   2.599   9.431   2.249
  164SOL    HW110081   2.547   9.385   2.321
  164SOL    HW210082   2.666   9.493   2.290
  165SOL     OW10083   2.251   0.842   1.188
  165SOL    HW110084   2.162   0.813   1.224
  165SOL    HW210085   2.324   0.788   1.230
  166SOL     OW10086   3.437   9.292   0.919
  166SOL    HW110087   3.359   9.305   0.980
  166SOL    HW210088   3.521   9.321   0.966
  167SOL     OW10089   3.928   2.492   2.012
  167SOL    HW110090   3.950   2.401   1.977
  167SOL    HW210091   3.987   2.560   1.968
  168SOL     OW10092   2.116   1.509   0.461
  168SOL    HW110093   2.065   1.424   0.455
  168SOL    HW210094   2.060   1.584   0.427
  169SOL     OW10095   3.493   9.842   2.197
  169SOL    HW110096   3.428   9.915   2.218
  169SOL    HW210097   3.587   9.876   2.206
  170SOL     OW10098   4.502   0.533   1.800
  170SOL    HW110099   4.474   0.625   1.827
  170SOL    HW210100   4.546   0.488   1.878
  171SOL     OW10101   2.591   1.697   1.472
  171SOL    HW110102   2.566   1.794   1.464
  171SOL    HW210103   2.583   1.654   1.383
  172SOL     OW10104   4.148   1.283   0.772
  172SOL    HW110105   4.217   1.291   0.843
  172SOL    HW210106   4.057   1.294   0.812
  173SOL     OW10107   2.879   9.696   0.975
  173SOL    HW110108   2.978   9.693   0.959
  173SOL    HW210109   2.849   9.791   0.972
  174SOL     OW10110   2.642   9.213   1.323
  174SOL    HW110111   2.712   9.176   1.384
  174SOL    HW210112   2.572   9.143   1.305
  175SOL     OW10113   1.991   1.164   0.702
  175SOL    HW110114   1.981   1.214   0.617
  175SOL    HW210115   2.070   1.200   0.753
  176SOL     OW10116   2.568   1.048   1.848
  176SOL    HW110117   2.650   0.994   1.828
  176SOL    HW210118   2.571   1.081   1.942
  177SOL     OW10119   3.185   1.670   2.039
  177SOL    HW110120   3.162   1.629   2.127
  177SOL    HW210121   3.261   1.734   2.051
  178SOL     OW10122   2.671   9.789   2.158
  178SOL    HW110123   2.765   9.823   2.157
  178SOL    HW210124   2.608   9.867   2.152
  179SOL     OW10125   2.929   1.919   0.957
  179SOL    HW110126   2.869   1.999   0.948
  179SOL    HW210127   2.934   1.872   0.869
  180SOL     OW10128   2.872   1.982   0.318
  180SOL    HW110129   2.867   1.888   0.286
  180SOL    HW210130   2.918   1.985   0.406
  181SOL     OW10131   1.987   1.339   1.801
  181SOL    HW110132   1.932   1.329   1.718
  181SOL    HW210133   2.084   1.328   1.778
  182SOL     OW10134   3.065   0.026   0.205
  182SOL    HW110135   3.010   0.093   0.154
  182SOL    HW210136   3.088   9.949   0.145
  183SOL     OW10137   3.702   0.347   1.829
  183SOL    HW110138   3.774   0.313   1.889
  183SOL    HW210139   3.701   0.447   1.834
  184SOL     OW10140   4.328   0.479   1.595
  184SOL    HW110141   4.401   0.489   1.663
  184SOL    HW210142   4.367   0.446   1.509
  185SOL     OW10143   2.197   0.861   0.190
  185SOL    HW110144   2.294   0.862   0.214
  185SOL    HW210145   2.173   0.771   0.153
  186SOL     OW10146   3.545   0.400   1.034
  186SOL    HW110147   3.510   0.388   1.127
  186SOL    HW210148   3.565   0.311   0.994
  187SOL     OW10149   2.776   2.173   0.553
  187SOL    HW110150   2.780   2.217   0.463
  187SOL    HW210151   2.862   2.124   0.570
  188SOL     OW10152   3.793   9.173   2.200
  188SOL    HW110153   3.789   9.273   2.199
  188SOL    HW210154   3.813   9.141   2.293
  189SOL     OW10155   4.197   9.992   1.457
  189SOL    HW110156   4.251   0.044   1.391
  189SOL    HW210157   4.250   9.914   1.490
  190SOL     OW10158   2.445   0.667   0.479
  190SOL    HW110159   2.532   0.637   0.517
  190SOL    HW210160   2.370   0.619   0.526
  191SOL     OW10161   2.264   1.340   1.277
  191SOL    HW110162   2.225   1.368   1.189
  191SOL    HW210163   2.363   1.348   1.274
  192SOL     OW10164   2.896   1.956   1.674
  192SOL    HW110165   2.923   1.887   1.742
  192SOL    HW210166   2.974   2.017   1.656
  193SOL     OW10167   3.162   1.535   2.282
  193SOL    HW110168   3.165   1.439   2.256
  193SOL    HW210169   3.243   1.557   2.337
  194SOL     OW10170   3.112   0.174   1.701
  194SOL    HW110171   3.085   0.100   1.639
  194SOL    HW210172   3.122   0.259   1.649
  195SOL     OW10173   3.830   0.971   2.251
  195SOL    HW110174   3.879   1.022   2.322
  195SOL    HW210175   3.732   0.969   2.273
  196SOL     OW10176   4.607   0.876   1.686
  196SOL    HW110177   4.601   0.811   1.611
  196SOL    HW210178   4.548   0.847   1.761
  197SOL     OW10179   3.705   1.514   0.727
  197SOL    HW110180   3.758   1.483   0.806
  197SOL    HW210181   3.710   1.446   0.654
  198SOL     OW10182   2.766   0.136   0.798
  198SOL    HW110183   2.772   0.232   0.827
  198SOL    HW210184   2.670   0.109   0.792
  199SOL     OW10185   2.601   1.979   0.235
  199SOL    HW110186   2.591   2.049   0.164
  199SOL    HW210187   2.696   1.979   0.268
  200SOL     OW10188   2.324   0.799   1.971
  200SOL    HW110189   2.324   0.842   1.881
  200SOL    HW210190   2.257   0.845   2.030
  201SOL     OW10191   3.587   8.935   0.953
  201SOL    HW110192   3.595   8.999   1.029
  201SOL    HW210193   3.528   8.974   0.883
  202SOL     OW10194   1.983   0.562   0.534
  202SOL    HW110195   1.977   0.631   0.462
  202SOL    HW210196   1.948   0.601   0.620
  203SOL     OW10197   4.415   0.789   1.863
  203SOL    HW110198   4.415   0.859   1.934
  203SOL    HW210199   4.334   0.800   1.805
  204SOL     OW10200   2.848   9.375   0.714
  204SOL    HW110201   2.811   9.395   0.805
  204SOL    HW210202   2.796   9.426   0.645
  205SOL     OW10203   2.672   0.930   1.363
  205SOL    HW110204   2.709   0.885   1.444
  205SOL    HW210205   2.618   1.010   1.391
  206SOL     OW10206   3.702   9.962   1.922
  206SOL    HW110207   3.698   0.007   2.012
  206SOL    HW210208   3.726   9.866   1.934
  207SOL     OW10209   2.745   0.160   2.219
  207SOL    HW110210   2.842   0.138   2.204
  207SOL    HW210211   2.729   0.176   2.316
  208SOL     OW10212   3.460   0.796   0.882
  208SOL    HW110213   3.510   0.754   0.806
  208SOL    HW210214   3.362   0.796   0.861
  209SOL     OW10215   4.119   0.337   1.704
  209SOL    HW110216   4.190   0.391   1.659
  209SOL    HW210217   4.074   0.279   1.637
  210SOL     OW10218   3.911   0.995   0.621
  210SOL    HW110219   3.882   1.025   0.711
  210SOL    HW210220   4.007   1.018   0.608
  211SOL     OW10221   3.568   0.231   0.484
  211SOL    HW110222   3.531   0.187   0.565
  211SOL    HW210223   3.566   0.168   0.407
  212SOL     OW10224   2.199   0.365   1.466
  212SOL    HW110225   2.140   0.332   1.539
  212SOL    HW210226   2.235   0.455   1.490
  213SOL     OW10227   2.922   1.957   1.376
  213SOL    HW110228   2.990   2.025   1.350
  213SOL    HW210229   2.919   1.948   1.476
  214SOL     OW10230   2.667   2.306   0.762
  214SOL    HW110231   2.707   2.264   0.681
  214SOL    HW210232   2.619   2.390   0.737
  215SOL     OW10233   3.475   9.515   1.225
  215SOL    HW110234   3.451   9.607   1.255
  215SOL    HW210235   3.429   9.447   1.282
  216SOL     OW10236   3.663   2.465   2.070
  216SOL    HW110237   3.633   2.524   2.144
  216SOL    HW210238   3.759   2.485   2.048
  217SOL     OW10239   3.466   1.235   0.540
  217SOL    HW110240   3.564   1.240   0.522
  217SOL    HW210241   3.451   1.219   0.638
  218SOL     OW10242   2.845   9.351   1.667
  218SOL    HW110243   2.877   9.422   1.605
  218SOL    HW210244   2.902   9.349   1.749
  219SOL     OW10245   3.474   9.961   1.361
  219SOL    HW110246   3.426   9.873   1.362
  219SOL    HW210247   3.558   9.952   1.308
  220SOL     OW10248   2.797   0.814   1.586
  220SOL    HW110249   2.792   0.848   1.680
  220SOL    HW210250   2.875   0.855   1.539
  221SOL     OW10251   3.437   9.867   1.733
  221SOL    HW110252   3.381   9.930   1.786
  221SOL    HW210253   3.513   9.916   1.691
  222SOL     OW10254   2.835   2.265   1.175
  222SOL    HW110255   2.818   2.220   1.087
  222SOL    HW210256   2.754   2.255   1.233
  223SOL     OW10257   3.078   9.294   0.582
  223SOL    HW110258   2.986   9.309   0.619
  223SOL    HW210259   3.146   9.328   0.647
  224SOL     OW10260   3.973   9.092   0.605
  224SOL    HW110261   4.021   9.179   0.609
  224SOL    HW210262   3.899   9.090   0.672
  225SOL     OW10263   3.772   1.762   0.614
  225SOL    HW110264   3.752   1.831   0.684
  225SOL    HW210265   3.747   1.671   0.648
  226SOL     OW10266   3.460   1.665   1.198
  226SOL    HW110267   3.402   1.664   1.117
  226SOL    HW210268   3.437   1.743   1.256
  227SOL     OW10269   2.754   9.458   0.982
  227SOL    HW110270   2.745   9.432   1.078
  227SOL    HW210271   2.799   9.548   0.976
  228SOL     OW10272   2.764   0.427   2.133
  228SOL    HW110273   2.782   0.437   2.035
  228SOL    HW210274   2.746   0.331   2.154
  229SOL     OW10275   2.488   0.448   0.999
  229SOL    HW110276   2.404   0.456   1.053
  229SOL    HW210277   2.524   0.355   1.008
  230SOL     OW10278   2.050   0.331   2.060
  230SOL    HW110279   2.038   0.237   2.092
  230SOL    HW210280   1.974   0.388   2.092
  231SOL     OW10281   3.344   9.723   1.356
  231SOL    HW110282   3.270   9.685   1.302
  231SOL    HW210283   3.336   9.692   1.451
  232SOL     OW10284   2.540   0.178   1.064
  232SOL    HW110285   2.537   0.134   0.974
  232SOL    HW210286   2.468   0.138   1.122
  233SOL     OW10287   3.763   9.930   2.213
  233SOL    HW110288   3.848   9.937   2.162
  233SOL    HW210289   3.783   9.915   2.310
  234SOL     OW10290   3.864   2.002   1.629
  234SOL    HW110291   3.836   1.910   1.656
  234SOL    HW210292   3.959   2.018   1.656
  235SOL     OW10293   2.545   0.707   2.105
  235SOL    HW110294   2.624   0.769   2.101
  235SOL    HW210295   2.469   0.747   2.054
  236SOL     OW10296   4.515   1.808   2.104
  236SOL    HW110297   4.487   1.713   2.118
  236SOL    HW210298   4.525   1.853   2.193
  237SOL     OW10299   2.608   9.500   1.738
  237SOL    HW110300   2.614   9.513   1.837
  237SOL    HW210301   2.677   9.433   1.709
  238SOL     OW10302   2.699   2.123   1.577
  238SOL    HW110303   2.772   2.058   1.597
  238SOL    HW210304   2.662   2.159   1.663
  239SOL     OW10305   4.377   0.689   1.310
  239SOL    HW110306   4.286   0.719   1.337
  239SOL    HW210307   4.418   0.757   1.249
  240SOL     OW10308   3.516   2.434   1.557
  240SOL    HW110309   3.590   2.485   1.601
  240SOL    HW210310   3.431   2.447   1.609
  241SOL     OW10311   4.097   0.392   0.375
  241SOL    HW110312   4.010   0.356   0.408
  241SOL    HW210313   4.101   0.384   0.276
  242SOL     OW10314   1.936   0.745   1.044
  242SOL    HW110315   1.938   0.839   1.010
  242SOL    HW210316   1.960   0.745   1.142
  243SOL     OW10317   3.225   0.083   1.384
  243SOL    HW110318   3.165   0.028   1.442
  243SOL    HW210319   3.314   0.038   1.375
  244SOL     OW10320   2.992   1.769   1.864
  244SOL    HW110321   3.061   1.759   1.935
  244SOL    HW210322   2.908   1.720   1.891
  245SOL     OW10323   3.274   1.290   0.986
  245SOL    HW110324   3.225   1.269   1.071
  245SOL    HW210325   3.222   1.358   0.934
  246SOL     OW10326   2.876   9.532   0.264
  246SOL    HW110327   2.956   9.480   0.235
  246SOL    HW210328   2.794   9.494   0.222
  247SOL     OW10329   4.125   0.766   1.382
  247SOL    HW110330   4.092   0.838   1.321
  247SOL    HW210331   4.075   0.681   1.362
  248SOL     OW10332   4.201   0.693   2.300
  248SOL    HW110333   4.169   0.641   2.221
  248SOL    HW210334   4.167   0.651   2.384
  249SOL     OW10335   3.525   0.492   1.564
  249SOL    HW110336   3.601   0.509   1.502
  249SOL    HW210337   3.510   0.393   1.573
  250SOL     OW10338   2.416   1.773   1.921
  250SOL    HW110339   2.322   1.740   1.913
  250SOL    HW210340   2.447   1.762   2.016
  251SOL     OW10341   3.249   0.998   0.804
  251SOL    HW110342   3.343   1.031   0.801
  251SOL    HW210343   3.188   1.069   0.769
  252SOL     OW10344   2.912   2.346   1.438
  252SOL    HW110345   2.861   2.283   1.498
  252SOL    HW210346   2.886   2.329   1.343
  253SOL     OW10347   2.225   1.201   0.851
  253SOL    HW110348   2.274   1.206   0.764
  253SOL    HW210349   2.240   1.110   0.892
  254SOL     OW10350   2.326   9.895   1.670
  254SOL    HW110351   2.404   9.958   1.663
  254SOL    HW210352   2.355   9.804   1.642
  255SOL     OW10353   2.329   0.920   0.589
  255SOL    HW110354   2.342   0.859   0.666
  255SOL    HW210355   2.363   0.877   0.505
  256SOL     OW10356   3.716   1.140   1.732
  256SOL    HW110357   3.764   1.147   1.645
  256SOL    HW210358   3.781   1.148   1.807
  257SOL     OW10359   2.756   2.132   0.950
  257SOL    HW110360   2.728   2.201   0.883
  257SOL    HW210361   2.674   2.093   0.993
  258SOL     OW10362   2.709   9.474   1.304
  258SOL    HW110363   2.628   9.532   1.314
  258SOL    HW210364   2.682   9.378   1.309
  259SOL     OW10365   2.381   1.527   0.376
  259SOL    HW110366   2.286   1.525   0.407
  259SOL    HW210367   2.405   1.620   0.348
  260SOL     OW10368   2.418   9.639   1.597
  260SOL    HW110369   2.337   9.581   1.606
  260SOL    HW210370   2.493   9.598   1.649
  261SOL     OW10371   1.938   0.479   0.966
  261SOL    HW110372   1.887   0.481   0.879
  261SOL    HW210373   1.939   0.570   1.006
  262SOL     OW10374   3.976   9.663   0.900
  262SOL    HW110375   3.906   9.674   0.829
  262SOL    HW210376   4.023   9.750   0.913
  263SOL     OW10377   3.802   2.238   1.744
  263SOL    HW110378   3.812   2.155   1.689
  263SOL    HW210379   3.826   2.318   1.689
  264SOL     OW10380   2.341   0.730   0.785
  264SOL    HW110381   2.278   0.668   0.738
  264SOL    HW210382   2.431   0.687   0.792
  265SOL     OW10383   3.814   0.832   1.029
  265SOL    HW110384   3.859   0.781   0.955
  265SOL    HW210385   3.735   0.781   1.062
  266SOL     OW10386   4.174   0.764   0.724
  266SOL    HW110387   4.185   0.718   0.636
  266SOL    HW210388   4.264   0.776   0.766
  267SOL     OW10389   3.336   0.735   0.331
  267SOL    HW110390   3.355   0.646   0.373
  267SOL    HW210391   3.417   0.766   0.282
  268SOL     OW10392   3.172   0.339   1.314
  268SOL    HW110393   3.187   0.241   1.325
  268SOL    HW210394   3.148   0.379   1.402
  269SOL     OW10395   4.533   1.126   1.795
  269SOL    HW110396   4.437   1.102   1.786
  269SOL    HW210397   4.590   1.058   1.748
  270SOL     OW10398   1.971   1.274   0.445
  270SOL    HW110399   2.031   1.211   0.396
  270SOL    HW210400   1.877   1.263   0.413
  271SOL     OW10401   2.546   9.779   0.820
  271SOL    HW110402   2.563   9.813   0.913
  271SOL    HW210403   2.522   9.682   0.825
  272SOL     OW10404   3.516   0.954   1.796
  272SOL    HW110405   3.568   1.037   1.779
  272SOL    HW210406   3.552   0.880   1.739
  273SOL     OW10407   3.606   0.343   2.131
  273SOL    HW110408   3.692   0.296   2.112
  273SOL    HW210409   3.540   0.321   2.059
  274SOL     OW10410   3.022   1.456   1.946
  274SOL    HW110411   2.935   1.499   1.922
  274SOL    HW210412   3.090   1.528   1.964
  275SOL     OW10413   3.536   9.941   0.388
  275SOL    HW110414   3.466   9.996   0.343
  275SOL    HW210415   3.498   9.853   0.414
  276SOL     OW10416   2.168   1.660   1.913
  276SOL    HW110417   2.195   1.567   1.938
  276SOL    HW210418   2.085   1.658   1.859
  277SOL     OW10419   3.141   2.486   1.473
  277SOL    HW110420   3.151   2.547   1.394
  277SOL    HW210421   3.055   2.436   1.466
  278SOL     OW10422   3.603   0.672   1.078
  278SOL    HW110423   3.589   0.573   1.071
  278SOL    HW210424   3.543   0.718   1.012
  279SOL     OW10425   2.338   1.195   0.600
  279SOL    HW110426   2.339   1.095   0.602
  279SOL    HW210427   2.350   1.226   0.505
  280SOL     OW10428   3.417   2.217   0.782
  280SOL    HW110429   3.379   2.235   0.872
  280SOL    HW210430   3.345   2.183   0.722
  281SOL     OW10431   3.006   0.922   1.461
  281SOL    HW110432   3.087   0.873   1.494
  281SOL    HW210433   3.034   0.987   1.390
  282SOL     OW10434   2.834   2.251   0.295
  282SOL    HW110435   2.886   2.299   0.225
  282SOL    HW210436   2.853   2.153   0.289
  283SOL     OW10437   4.488   0.969   0.277
  283SOL    HW110438   4.527   1.009   0.360
  283SOL    HW210439   4.537   1.004   0.197
  284SOL     OW10440   3.326   0.112   0.299
  284SOL    HW110441   3.313   0.153   0.389
  284SOL    HW210442   3.239   0.075   0.266
  285SOL     OW10443   3.630   9.211   1.678
  285SOL    HW110444   3.660   9.183   1.769
  285SOL    HW210445   3.627   9.132   1.617
  286SOL     OW10446   2.005   0.778   0.372
  286SOL    HW110447   2.065   0.820   0.304
  286SOL    HW210448   2.006   0.833   0.456
  287SOL     OW10449   3.839   0.325   0.458
  287SOL    HW110450   3.745   0.292   0.465
  287SOL    HW210451   3.856   0.392   0.531
  288SOL     OW10452   3.087   0.647   0.619
  288SOL    HW110453   3.119   0.638   0.713
  288SOL    HW210454   3.082   0.743   0.594
  289SOL     OW10455   2.847   1.726   0.245
  289SOL    HW110456   2.779   1.660   0.275
  289SOL    HW210457   2.931   1.678   0.220
  290SOL     OW10458   3.452   0.342   1.281
  290SOL    HW110459   3.489   0.300   1.363
  290SOL    HW210460   3.352   0.351   1.290
  291SOL     OW10461   4.248   1.642   2.304
  291SOL    HW110462   4.239   1.670   2.400
  291SOL    HW210463   4.158   1.642   2.261
  292SOL     OW10464   2.480   0.476   1.963
  292SOL    HW110465   2.516   0.549   2.022
  292SOL    HW210466   2.431   0.409   2.018
  293SOL     OW10467   3.548   1.520   1.423
  293SOL    HW110468   3.506   1.430   1.428
  293SOL    HW210469   3.512   1.569   1.344
  294SOL     OW10470   4.034   0.516   1.027
  294SOL    HW110471   4.131   0.527   1.009
  294SOL    HW210472   3.982   0.574   0.965
  295SOL     OW10473   1.955   1.324   2.072
  295SOL    HW110474   1.972   1.412   2.117
  295SOL    HW210475   1.966   1.334   1.973
  296SOL     OW10476   3.942   0.505   0.638
  296SOL    HW110477   4.000   0.572   0.592
  296SOL    HW210478   3.997   0.426   0.665
  297SOL     OW10479   3.124   2.146   1.333
  297SOL    HW110480   3.100   2.235   1.294
  297SOL    HW210481   3.213   2.117   1.297
  298SOL     OW10482   4.452   2.457   1.943
  298SOL    HW110483   4.453   2.516   1.862
  298SOL    HW210484   4.416   2.367   1.918
  299SOL     OW10485   2.122   0.592   0.172
  299SOL    HW110486   2.051   0.616   0.237
  299SOL    HW210487   2.158   0.501   0.194
  300SOL     OW10488   2.319   9.949   1.937
  300SOL    HW110489   2.307   9.934   1.838
  300SOL    HW210490   2.231   9.972   1.978
  301SOL     OW10491   3.690   0.948   1.454
  301SOL    HW110492   3.763   1.015   1.468
  301SOL    HW210493   3.622   0.985   1.391
  302SOL     OW10494   3.081   1.596   0.203
  302SOL    HW110495   3.093   1.538   0.284
  302SOL    HW210496   3.168   1.604   0.155
  303SOL     OW10497   3.123   0.428   1.572
  303SOL    HW110498   3.198   0.494   1.583
  303SOL    HW210499   3.036   0.473   1.589
  304SOL     OW10500   4.287   0.570   0.961
  304SOL    HW110501   4.358   0.518   0.913
  304SOL    HW210502   4.305   0.668   0.952
  305SOL     OW10503   1.979   0.985   0.923
  305SOL    HW110504   2.079   0.975   0.928
  305SOL    HW210505   1.955   1.050   0.851
  306SOL     OW10506   1.959   1.053   2.062
  306SOL    HW110507   1.959   1.152   2.079
  306SOL    HW210508   1.898   1.033   1.985
  307SOL     OW10509   3.154   1.602   0.645
  307SOL    HW110510   3.131   1.553   0.561
  307SOL    HW210511   3.254   1.611   0.652
  308SOL     OW10512   4.090   9.910   0.931
  308SOL    HW110513   4.086   9.969   1.012
  308SOL    HW210514   4.082   9.966   0.848
  309SOL     OW10515   4.071   9.407   0.854
  309SOL    HW110516   4.050   9.504   0.870
  309SOL    HW210517   4.101   9.395   0.759
  310SOL     OW10518   2.998   0.221   1.944
  310SOL    HW110519   3.042   0.197   1.858
  310SOL    HW210520   2.940   0.302   1.931
  311SOL     OW10521   2.955   1.785   0.714
  311SOL    HW110522   3.029   1.722   0.692
  311SOL    HW210523   2.871   1.755   0.668
  312SOL     OW10524   2.704   2.109   1.864
  312SOL    HW110525   2.779   2.161   1.906
  312SOL    HW210526   2.741   2.024   1.826
  313SOL     OW10527   2.563   1.166   0.168
  313SOL    HW110528   2.555   1.187   0.071
  313SOL    HW210529   2.609   1.078   0.180
  314SOL     OW10530   2.973   9.991   0.682
  314SOL    HW110531   2.897   0.046   0.717
  314SOL    HW210532   2.952   9.960   0.589
  315SOL     OW10533   2.138   0.888   2.174
  315SOL    HW110534   2.090   0.801   2.186
  315SOL    HW210535   2.075   0.955   2.136
  316SOL     OW10536   2.834   9.127   1.492
  316SOL    HW110537   2.926   9.093   1.472
  316SOL    HW210538   2.837   9.192   1.567
  317SOL     OW10539   3.611   0.751   1.639
  317SOL    HW110540   3.571   0.668   1.600
  317SOL    HW210541   3.644   0.810   1.565
  318SOL     OW10542   2.618   1.693   1.751
  318SOL    HW110543   2.538   1.725   1.802
  318SOL    HW210544   2.596   1.691   1.654
  319SOL     OW10545   3.160   1.247   1.226
  319SOL    HW110546   3.184   1.157   1.263
  319SOL    HW210547   3.125   1.305   1.300
  320SOL     OW10548   2.999   2.014   0.569
  320SOL    HW110549   3.094   2.042   0.578
  320SOL    HW210550   2.982   1.933   0.625
  321SOL     OW10551   2.888   1.413   0.593
  321SOL    HW110552   2.800   1.445   0.559
  321SOL    HW210553   2.880   1.390   0.690
  322SOL     OW10554   2.165   0.331   0.997
  322SOL    HW110555   2.077   0.376   0.984
  322SOL    HW210556   2.210   0.369   1.077
  323SOL     OW10557   2.904   0.687   0.334
  323SOL    HW110558   2.971   0.757   0.359
  323SOL    HW210559   2.952   0.608   0.295
  324SOL     OW10560   3.539   0.192   1.505
  324SOL    HW110561   3.589   0.157   1.583
  324SOL    HW210562   3.505   0.116   1.449
  325SOL     OW10563   3.445   0.294   1.907
  325SOL    HW110564   3.533   0.300   1.860
  325SOL    HW210565   3.404   0.205   1.888
  326SOL     OW10566   3.098   9.082   1.409
  326SOL    HW110567   3.192   9.055   1.430
  326SOL    HW210568   3.099   9.156   1.342
  327SOL     OW10569   4.070   0.070   1.159
  327SOL    HW110570   4.154   0.100   1.204
  327SOL    HW210571   4.008   0.147   1.148
  328SOL     OW10572   2.507   2.019   2.037
  328SOL    HW110573   2.575   2.071   1.984
  328SOL    HW210574   2.451   1.965   1.974
  329SOL     OW10575   2.509   0.058   0.813
  329SOL    HW110576   2.418   0.100   0.806
  329SOL    HW210577   2.501   9.959   0.803
  330SOL     OW10578   2.519   0.017   2.136
  330SOL    HW110579   2.595   0.081   2.142
  330SOL    HW210580   2.477   0.024   2.045
  331SOL     OW10581   2.045   0.079   2.157
  331SOL    HW110582   2.133   0.070   2.204
  331SOL    HW210583   1.982   0.009   2.190
  332SOL     OW10584   2.516   9.511   0.856
  332SOL    HW110585   2.469   9.428   0.824
  332SOL    HW210586   2.601   9.486   0.902
  333SOL     OW10587   2.538   0.958   0.975
  333SOL    HW110588   2.564   0.871   1.018
  333SOL    HW210589   2.439   0.960   0.961
  334SOL     OW10590   2.729   9.515   0.501
  334SOL    HW110591   2.702   9.604   0.538
  334SOL    HW210592   2.790   9.529   0.423
  335SOL     OW10593   3.035   9.961   1.546
  335SOL    HW110594   2.951   9.987   1.498
  335SOL    HW210595   3.023   9.871   1.588
  336SOL     OW10596   3.767   9.127   0.783
  336SOL    HW110597   3.724   9.039   0.803
  336SOL    HW210598   3.809   9.164   0.866
  337SOL     OW10599   3.794   1.749   1.701
  337SOL    HW110600   3.710   1.695   1.691
  337SOL    HW210601   3.839   1.726   1.787
  338SOL     OW10602   3.676   2.162   0.714
  338SOL    HW110603   3.585   2.193   0.744
  338SOL    HW210604   3.699   2.205   0.627
  339SOL     OW10605   3.651   9.373   1.082
  339SOL    HW110606   3.741   9.416   1.077
  339SOL    HW210607   3.588   9.431   1.134
  340SOL     OW10608   3.099   2.107   1.600
  340SOL    HW110609   3.188   2.119   1.645
  340SOL    HW210610   3.107   2.131   1.503
  341SOL     OW10611   2.293   0.454   1.210
  341SOL    HW110612   2.338   0.538   1.240
  341SOL    HW210613   2.251   0.408   1.289
  342SOL     OW10614   2.229   0.319   0.313
  342SOL    HW110615   2.301   0.251   0.321
  342SOL    HW210616   2.164   0.308   0.389
  343SOL     OW10617   2.556   9.809   1.869
  343SOL    HW110618   2.571   9.715   1.899
  343SOL    HW210619   2.470   9.843   1.908
  344SOL     OW10620   2.454   0.843   0.275
  344SOL    HW110621   2.453   0.768   0.341
  344SOL    HW210622   2.547   0.882   0.270
  345SOL     OW10623   3.183   0.602   0.870
  345SOL    HW110624   3.143   0.548   0.945
  345SOL    HW210625   3.276   0.570   0.852
  346SOL     OW10626   4.630   1.570   0.627
  346SOL    HW110627   4.583   1.608   0.707
  346SOL    HW210628   4.567   1.567   0.550
  347SOL     OW10629   1.931   0.705   0.758
  347SOL    HW110630   1.967   0.786   0.713
  347SOL    HW210631   1.926   0.721   0.857
  348SOL     OW10632   2.284   1.465   0.677
  348SOL    HW110633   2.220   1.496   0.607
  348SOL    HW210634   2.318   1.374   0.654
  349SOL     OW10635   2.878   0.549   1.607
  349SOL    HW110636   2.853   0.645   1.604
  349SOL    HW210637   2.827   0.499   1.536
  350SOL     OW10638   2.632   1.597   1.220
  350SOL    HW110639   2.613   1.559   1.129
  350SOL    HW210640   2.705   1.664   1.214
  351SOL     OW10641   3.294   0.056   1.868
  351SOL    HW110642   3.230   0.102   1.806
  351SOL    HW210643   3.243   0.012   1.941
  352SOL     OW10644   2.433   1.787   0.332
  352SOL    HW110645   2.494   1.851   0.286
  352SOL    HW210646   2.390   1.832   0.410
  353SOL     OW10647   2.051   0.911   0.610
  353SOL    HW110648   2.017   1.001   0.640
  353SOL    HW210649   2.150   0.916   0.598
  354SOL     OW10650   3.635   9.314   0.381
  354SOL    HW110651   3.658   9.329   0.477
  354SOL    HW210652   3.565   9.243   0.374
  355SOL     OW10653   2.252   1.304   1.725
  355SOL    HW110654   2.352   1.303   1.726
  355SOL    HW210655   2.218   1.271   1.637
  356SOL     OW10656   3.427   1.873   1.380
  356SOL    HW110657   3.525   1.858   1.393
  356SOL    HW210658   3.379   1.862   1.467
  357SOL     OW10659   3.940   0.694   0.837
  357SOL    HW110660   4.024   0.734   0.802
  357SOL    HW210661   3.903   0.630   0.770
  358SOL     OW10662   2.868   0.456   1.877
  358SOL    HW110663   2.851   0.483   1.782
  358SOL    HW210664   2.945   0.509   1.912
  359SOL     OW10665   2.133   1.109   0.307
  359SOL    HW110666   2.219   1.161   0.312
  359SOL    HW210667   2.149   1.024   0.256
  360SOL     OW10668   2.633   1.464   0.482
  360SOL    HW110669   2.542   1.493   0.452
  360SOL    HW210670   2.646   1.367   0.462
  361SOL     OW10671   3.134   2.615   1.233
  361SOL    HW110672   3.121   2.523   1.196
  361SOL    HW210673   3.091   2.681   1.171
  362SOL     OW10674   4.821   1.390   0.696
  362SOL    HW110675   4.906   1.421   0.652
  362SOL    HW210676   4.747   1.453   0.673
  363SOL     OW10677   3.100   1.438   0.427
  363SOL    HW110678   3.015   1.425   0.478
  363SOL    HW210679   3.149   1.351   0.420
  364SOL     OW10680   3.955   2.030   0.609
  364SOL    HW110681   3.891   2.012   0.534
  364SOL    HW210682   3.914   2.095   0.673
  365SOL     OW10683   2.361   1.260   0.331
  365SOL    HW110684   2.370   1.359   0.336
  365SOL    HW210685   2.429   1.224   0.267
  366SOL     OW10686   2.346   1.590   0.910
  366SOL    HW110687   2.329   1.556   0.817
  366SOL    HW210688   2.281   1.547   0.973
  367SOL     OW10689   2.808   0.922   1.837
  367SOL    HW110690   2.868   1.000   1.820
  367SOL    HW210691   2.800   0.907   1.936
  368SOL     OW10692   2.168   0.334   1.810
  368SOL    HW110693   2.245   0.270   1.815
  368SOL    HW210694   2.116   0.330   1.895
  369SOL     OW10695   4.206   0.720   1.654
  369SOL    HW110696   4.251   0.632   1.636
  369SOL    HW210697   4.175   0.760   1.567
  370SOL     OW10698   2.732   1.717   0.576
  370SOL    HW110699   2.687   1.635   0.541
  370SOL    HW210700   2.676   1.797   0.558
  10.00000  10.00000   2.87800
