Written by MDAnalysis
18931
    1CHTO  H203    1   5.575   6.726   2.203 -1.6982 -0.0319 -1.2395
    1CHTO   O82    2   5.573   6.635   2.227  0.1969  0.1638 -0.3048
    1CHTO  C123    3   5.687   6.601   2.299 -0.4610 -0.0168  0.1681
    1CHTO  H227    4   5.686   6.660   2.392  0.5586 -0.6602  0.6062
    1CHTO   O77    5   5.681   6.464   2.334 -0.1002 -0.0178  0.2586
    1CHTO  C118    6   5.775   6.413   2.425  0.0165  0.2219  0.2103
    1CHTO  H222    7   5.782   6.476   2.516 -0.0802 -1.6510  1.5426
    1CHTO  C125    8   5.738   6.264   2.479 -0.4235  0.1361 -0.0642
    1CHTO   O84    9   5.708   6.183   2.362  0.4082 -0.2782 -0.1172
    1CHTO  H205   10   5.784   6.183   2.307  1.0388 -3.5755  0.6271
    1CHTO  C114   11   5.915   6.418   2.357  0.0538  0.6261 -0.0278
    1CHTO  H218   12   5.917   6.355   2.268 -0.3331  0.7259 -0.1049
    1CHTO  C116   13   5.947   6.564   2.308  0.1533 -0.7015  0.2762
    1CHTO  H220   14   5.962   6.634   2.392 -0.4989  0.2630 -0.4011
    1CHTO   O79   15   6.069   6.553   2.227  0.1321  0.3058 -0.6919
    1CHTO  H201   16   6.141   6.545   2.286 -1.4903 -3.1103  0.9618
    1CHTO  C120   17   5.820   6.620   2.220 -0.4227  0.2297 -0.2024
    1CHTO  H224   18   5.817   6.576   2.118  0.9817  0.5832 -0.4110
    1CHTO   N21   19   5.848   6.762   2.199 -0.4883 -0.4266 -0.1172
    1CHTO  H211   20   5.759   6.824   2.196  0.1462  0.4127 -2.7496
    1CHTO  H212   21   5.923   6.801   2.266 -0.0511 -0.6122 -0.5013
    1CHTO   O75   22   6.012   6.375   2.449  0.3722  0.0934  0.0653
    1CHTO  C112   23   6.125   6.265   2.405 -0.2405  0.4333  0.1957
    1CHTO  H216   24   6.147   6.277   2.298  2.0549  1.2659  0.7403
    1CHTO   O73   25   6.066   6.130   2.429 -0.0958 -0.4916  0.6860
    1CHTO  C113   26   6.150   6.018   2.386 -0.2764  0.2828  0.5711
    1CHTO  H217   27   6.160   6.028   2.276 -0.6309  1.2474  0.6206
    1CHTO  C124   28   6.080   5.897   2.435 -0.0394 -0.2434  0.1941
    1CHTO   O83   29   6.133   5.779   2.370  0.5410  0.1362  0.2545
    1CHTO  H204   30   6.225   5.765   2.367  0.2932 -2.2502  1.8875
    1CHTO  C109   31   6.293   6.016   2.450  0.8543 -0.5889  0.0299
    1CHTO  H213   32   6.278   5.991   2.556 -2.9477  0.7065 -0.1261
    1CHTO  C110   33   6.355   6.159   2.430  0.7203  0.0410 -0.1764
    1CHTO  H214   34   6.371   6.165   2.323  1.8203 -0.5898 -0.0617
    1CHTO   O78   35   6.481   6.143   2.495  0.1210 -0.2147  0.2489
    1CHTO  H200   36   6.547   6.117   2.434  3.3827 -0.9101  3.8416
    1CHTO  C111   37   6.261   6.271   2.487 -0.1338  0.7756  1.0358
    1CHTO  H215   38   6.245   6.252   2.595 -0.1934  1.3419  1.1254
    1CHTO   N19   39   6.323   6.407   2.477 -0.3630  0.0736  0.3421
    1CHTO  H207   40   6.261   6.492   2.454 -0.0088 -0.0277 -1.0171
    1CHTO  H208   41   6.388   6.427   2.561  0.3278 -0.7279  0.0072
    1CHTO   O74   42   6.376   5.919   2.378 -0.2678  0.2306  0.7040
    1CHTO  C115   43   6.451   5.812   2.467  0.3460  0.2224  0.5269
    1CHTO  H219   44   6.424   5.823   2.572 -0.9539  2.2794  0.0091
    1CHTO   O76   45   6.412   5.672   2.430 -0.3548 -0.3594 -0.0247
    1CHTO  C122   46   6.414   5.639   2.294  0.4113  0.7409 -0.5427
    1CHTO  H226   47   6.319   5.677   2.257  0.3296 -0.5910 -1.7263
    1CHTO  C126   48   6.404   5.482   2.274 -0.2673  0.2514 -0.2050
    1CHTO   O85   49   6.498   5.400   2.342 -0.6258 -0.6441  0.2246
    1CHTO  H206   50   6.551   5.371   2.271 -2.5727 -0.5565 -1.3082
    1CHTO  C121   51   6.551   5.692   2.223 -0.2286  0.0158  0.6124
    1CHTO  H225   52   6.597   5.609   2.164  0.6919 -0.5352  2.0864
    1CHTO   O81   53   6.518   5.795   2.128 -0.4716 -0.3765  0.1011
    1CHTO  H202   54   6.438   5.771   2.084 -0.2966 -0.1101 -0.3710
    1CHTO  C119   55   6.657   5.740   2.325 -0.2010 -0.3019  0.4851
    1CHTO  H223   56   6.690   5.650   2.378  1.5208  1.5585  2.6582
    1CHTO  C117   57   6.608   5.840   2.438 -0.2935 -0.1888  0.0525
    1CHTO  H221   58   6.602   5.944   2.406  2.4099 -0.0323 -0.0461
    1CHTO   N20   59   6.685   5.840   2.567 -0.0812 -0.1816 -0.5705
    1CHTO  H209   60   6.714   5.742   2.602  4.6321  1.4667  0.5128
    1CHTO  H210   61   6.770   5.898   2.534  0.0422 -1.2588 -2.2374
    1CHTO   O80   62   6.779   5.791   2.275 -0.8077  0.2889  0.4434
    1CHTO  C103   63   6.920   5.707   2.306  0.0417 -0.0437  0.5147
    1CHTO  H190   64   6.929   5.673   2.409  3.4419 -2.5757 -0.5419
    1CHTO  C101   65   6.948   5.584   2.215  0.0591  0.4455 -0.0119
    1CHTO  H188   66   6.948   5.620   2.112 -0.8228  0.0271 -0.1641
    1CHTO   O68   67   6.847   5.485   2.221  0.0805 -0.4039 -0.2735
    1CHTO  H168   68   6.823   5.444   2.140  0.7447 -2.1520  0.3958
    1CHTO   C99   69   7.092   5.529   2.243 -0.7315  0.1522 -0.2937
    1CHTO  H186   70   7.102   5.483   2.343  2.1325 -0.8070 -1.0004
    1CHTO   N17   71   7.123   5.412   2.141  0.6208  0.3578 -0.2284
    1CHTO  H174   72   7.132   5.445   2.039 -0.1486 -2.3884 -1.2292
    1CHTO  H175   73   7.215   5.368   2.178  0.3746  0.3694  0.4066
    1CHTO   C97   74   7.196   5.646   2.242  0.4404 -0.3159 -0.1654
    1CHTO  H184   75   7.209   5.683   2.139 -2.1805 -3.3058 -1.6535
    1CHTO   O64   76   7.153   5.746   2.331  0.1173 -0.1863 -0.4283
    1CHTO  C104   77   7.033   5.816   2.286  0.2010  0.0075  0.5489
    1CHTO  H191   78   7.038   5.847   2.182 -1.1891  1.0359  0.7765
    1CHTO  C108   79   7.007   5.944   2.361  0.1153 -0.5284 -0.0604
    1CHTO   O71   80   7.114   6.030   2.321 -0.0692 -0.0466  0.3550
    1CHTO  H171   81   7.133   6.093   2.388 -0.4887  1.2870 -0.7534
    1CHTO   O62   82   7.322   5.618   2.306 -0.0333 -0.4045 -0.2620
    1CHTO   C91   83   7.439   5.581   2.230  1.2857  0.0931 -0.0222
    1CHTO  H178   84   7.409   5.577   2.125  2.1101  0.6588 -0.2816
    1CHTO   C92   85   7.470   5.429   2.269  0.6744 -0.5963  0.2545
    1CHTO  H179   86   7.383   5.380   2.316  2.0118 -1.0768  2.2451
    1CHTO   O66   87   7.488   5.355   2.143  0.1129 -0.1057  0.0590
    1CHTO  H166   88   7.414   5.356   2.086  1.5998 -2.5374 -2.0486
    1CHTO   C93   89   7.593   5.407   2.356 -0.3656  0.1937  0.1171
    1CHTO  H180   90   7.608   5.298   2.362 -0.3077  0.2212  0.4729
    1CHTO   N16   91   7.590   5.442   2.499  0.0426 -0.2439  0.8289
    1CHTO  H172   92   7.589   5.550   2.508 -0.5839 -0.3128  1.5709
    1CHTO  H173   93   7.504   5.394   2.542 -0.0268  0.5081  1.5454
    1CHTO   C94   94   7.716   5.475   2.279  0.2241  0.7646  0.3531
    1CHTO  H181   95   7.789   5.519   2.347  1.4090  1.2537 -1.1850
    1CHTO   O61   96   7.683   5.592   2.199 -0.1512  0.3281  0.0833
    1CHTO   C95   97   7.573   5.664   2.251 -0.1789  0.8089  0.2875
    1CHTO  H182   98   7.581   5.663   2.360  1.8756 -2.1870  0.1365
    1CHTO  C106   99   7.562   5.810   2.199 -0.7811  0.2030  0.3775
    1CHTO   O69  100   7.442   5.873   2.242  0.0068  0.0610 -0.1284
    1CHTO  H169  101   7.458   5.906   2.328  0.1618 -1.3524  0.3905
    1CHTO   O63  102   7.772   5.360   2.183 -0.0096  0.1036 -0.3150
    1CHTO   C96  103   7.890   5.304   2.230 -0.7903  0.3375  0.1597
    1CHTO  H183  104   7.886   5.308   2.339 -1.3023 -2.3594  0.2630
    1CHTO   C98  105   8.010   5.387   2.172  0.1966 -0.3453  0.6850
    1CHTO  H185  106   7.991   5.495   2.181 -1.0269 -0.6916  2.5850
    1CHTO   O67  107   8.127   5.361   2.247  0.3892 -0.4201 -0.7682
    1CHTO  H167  108   8.201   5.404   2.210 -1.2230  0.6346 -2.8202
    1CHTO  C102  109   8.044   5.343   2.023  0.3142  0.1985  0.6931
    1CHTO  H189  110   8.144   5.379   1.998  0.1524 -0.7881 -1.5636
    1CHTO   N18  111   7.958   5.400   1.916  0.2991  0.0987  0.5343
    1CHTO  H176  112   8.017   5.429   1.830 -0.9537  0.9835 -0.0494
    1CHTO  H177  113   7.879   5.463   1.952 -0.6247 -1.1884  0.8089
    1CHTO  C105  114   8.050   5.187   2.004 -0.3905  0.6828 -0.5441
    1CHTO  H192  115   8.046   5.157   1.899 -0.9861  0.3239 -0.4205
    1CHTO   O65  116   7.942   5.116   2.062  0.1827  0.1145 -0.7303
    1CHTO  C100  117   7.905   5.145   2.196 -0.5495 -0.6559  0.0198
    1CHTO  H187  118   7.804   5.105   2.214  0.2231 -1.7502  2.0755
    1CHTO  C107  119   7.997   5.069   2.298 -0.1919  0.1636  0.0257
    1CHTO   O70  120   7.991   4.925   2.276 -0.6820 -0.1660 -0.0598
    1CHTO  H170  121   8.061   4.890   2.328 -0.7768 -0.0825  0.1241
    1CHTO   O57  122   8.187   5.151   2.054 -0.4834  0.6181 -0.3733
    1CHTO   C85  123   8.257   5.036   2.005 -0.5401  0.9492 -0.1763
    1CHTO  H157  124   8.177   4.964   1.976  1.4973 -1.6513  0.4533
    1CHTO   C83  125   8.335   4.957   2.108 -0.2112 -0.2011 -0.0149
    1CHTO  H155  126   8.273   4.924   2.191  1.5638 -0.7828  1.1284
    1CHTO   O56  127   8.441   5.037   2.163 -0.5454  0.2527  0.2364
    1CHTO  H135  128   8.491   4.983   2.221 -1.2959 -0.3727  0.3152
    1CHTO   C81  129   8.385   4.825   2.044  0.2529 -0.6652 -0.0476
    1CHTO  H153  130   8.299   4.772   2.003 -0.4564  0.9722 -0.7117
    1CHTO   N14  131   8.435   4.726   2.141  0.7807  0.0567 -0.5032
    1CHTO  H141  132   8.357   4.694   2.207  0.8495 -0.6168 -0.7459
    1CHTO  H142  133   8.512   4.771   2.200 -0.3737  0.4044  0.7744
    1CHTO   C79  134   8.492   4.852   1.929  0.4311 -0.0101 -0.2193
    1CHTO  H151  135   8.505   4.756   1.877 -0.9504 -0.8782  1.0106
    1CHTO   O52  136   8.432   4.943   1.833 -0.5156  0.0913  0.2625
    1CHTO   C86  137   8.362   5.063   1.886  0.7064  0.2361  0.4427
    1CHTO  H158  138   8.453   5.116   1.919  0.2851  3.0562 -2.5874
    1CHTO   C90  139   8.312   5.137   1.757  0.1541  0.4870  0.2812
    1CHTO   O60  140   8.286   5.278   1.782 -0.2774  0.2687 -0.3557
    1CHTO  H138  141   8.258   5.300   1.695 -0.1804 -0.6116 -0.6135
    1CHTO   O50  142   8.615   4.897   1.984 -0.4397  0.0612  0.1056
    1CHTO   C73  143   8.756   4.894   1.976 -1.1168  0.7063 -0.4512
    1CHTO  H145  144   8.790   4.874   1.873 -0.2285 -0.6407  0.0870
    1CHTO   C74  145   8.809   4.774   2.060 -0.3307 -0.4092 -0.7772
    1CHTO  H146  146   8.752   4.684   2.032 -0.6392 -0.0934 -1.1610
    1CHTO   O54  147   8.947   4.749   2.026 -0.1845 -0.4285  0.0872
    1CHTO  H133  148   8.998   4.814   2.069 -1.3561  0.5089  0.1005
    1CHTO   C75  149   8.800   4.801   2.220 -0.0634 -0.1112  0.1010
    1CHTO  H147  150   8.693   4.795   2.246  0.2044  0.8195  1.4426
    1CHTO   N13  151   8.868   4.707   2.312 -0.3285 -0.1286 -0.3924
    1CHTO  H139  152   8.888   4.750   2.409 -0.3846 -0.8351 -0.0598
    1CHTO  H140  153   8.957   4.672   2.262 -0.9847  0.3330 -1.9180
    1CHTO   C76  154   8.834   4.955   2.262 -0.2872  0.1657 -0.0118
    1CHTO  H148  155   8.942   4.968   2.258 -0.6948  4.3322 -0.0945
    1CHTO   O49  156   8.776   5.043   2.158  0.2019 -0.1022 -0.4569
    1CHTO   C77  157   8.827   5.025   2.021 -0.4808  0.6599  0.5183
    1CHTO  H149  158   8.935   5.019   2.017 -0.4298  2.6863 -2.2056
    1CHTO   C88  159   8.803   5.142   1.924 -0.1626  0.1916 -0.5302
    1CHTO   O58  160   8.842   5.269   1.978 -0.4767  0.2429  0.3479
    1CHTO  H136  161   8.867   5.318   1.901  1.6863  0.1945  0.9745
    1CHTO   O51  162   8.762   4.995   2.420 -0.0098  0.3779 -0.2277
    1CHTO   C78  163   8.665   5.106   2.451  0.0879 -0.6905 -0.2966
    1CHTO  H150  164   8.601   5.131   2.364  0.9384  1.6371 -0.3086
    1CHTO   C80  165   8.748   5.230   2.487 -0.6922  0.2085 -0.1916
    1CHTO  H152  166   8.840   5.191   2.535  0.4071  0.6721 -1.9026
    1CHTO   O55  167   8.789   5.285   2.368  0.5435  0.5100  0.2143
    1CHTO  H134  168   8.858   5.237   2.326  0.5332  0.1600  0.5991
    1CHTO   C84  169   8.677   5.341   2.568 -0.4142  0.1455  0.0839
    1CHTO  H156  170   8.599   5.382   2.504 -1.8812 -0.0668  1.7178
    1CHTO   N15  171   8.766   5.462   2.609 -0.6302 -0.2451  0.5568
    1CHTO  H143  172   8.724   5.517   2.690 -1.3511 -0.9456  0.6635
    1CHTO  H144  173   8.861   5.419   2.632  0.2432  2.2677  1.8065
    1CHTO   C87  174   8.607   5.270   2.683 -0.1065 -0.5070  0.0047
    1CHTO  H159  175   8.681   5.225   2.749 -2.0372  0.3684  2.8788
    1CHTO   O53  176   8.508   5.169   2.634 -0.1137 -0.3370  0.3371
    1CHTO   C82  177   8.578   5.061   2.576 -0.4171  0.2236 -0.2011
    1CHTO  H154  178   8.641   5.009   2.647 -1.5615 -1.0423 -0.0887
    1CHTO   C89  179   8.476   4.955   2.524  0.3339 -0.0545  0.4947
    1CHTO   O59  180   8.519   4.825   2.478 -0.2860  0.1788 -0.6242
    1CHTO  H137  181   8.596   4.789   2.518 -0.8839  0.2564  0.6171
    1CHTO   O45  182   8.513   5.362   2.779 -0.1111 -0.3503  0.2261
    1CHTO   C67  183   8.417   5.455   2.720 -0.5004 -0.1704 -0.5566
    1CHTO  H124  184   8.459   5.518   2.642  0.1212  1.7956  1.3052
    1CHTO   C65  185   8.298   5.377   2.662 -0.0985  0.3024  0.0174
    1CHTO  H122  186   8.291   5.286   2.722  1.3609  0.1733  0.0141
    1CHTO   O44  187   8.325   5.352   2.521 -0.5340 -0.3246 -0.0707
    1CHTO  H102  188   8.407   5.309   2.509 -0.3843 -0.0485 -0.0464
    1CHTO   C63  189   8.154   5.449   2.699  0.2397  0.5283 -0.0229
    1CHTO  H120  190   8.127   5.441   2.804 -0.8123  2.8769 -0.0707
    1CHTO   N11  191   8.030   5.384   2.638 -0.4973 -0.1344  0.2340
    1CHTO  H108  192   8.000   5.298   2.694  1.2909 -1.2628 -0.4897
    1CHTO  H109  193   7.949   5.454   2.637 -0.5755 -0.2113  0.7279
    1CHTO   C61  194   8.173   5.609   2.676  0.2215  0.4983  0.2474
    1CHTO  H118  195   8.083   5.660   2.715  2.3756  3.4809  1.4393
    1CHTO   O40  196   8.285   5.661   2.767 -0.4012 -0.0126 -0.2161
    1CHTO   C68  197   8.369   5.557   2.827  0.8076 -0.4022 -0.8357
    1CHTO  H125  198   8.318   5.516   2.917 -1.4523 -0.0735 -1.9136
    1CHTO   C72  199   8.495   5.629   2.880  0.4759 -0.2961 -0.3510
    1CHTO   O48  200   8.553   5.555   2.987 -0.3736 -0.2071  0.2146
    1CHTO  H105  201   8.569   5.468   2.955  0.5525  0.2033 -0.4598
    1CHTO   O38  202   8.201   5.648   2.535  0.3374  0.6189  0.3660
    1CHTO   C55  203   8.144   5.778   2.498  0.5863  0.1470 -0.1093
    1CHTO  H112  204   8.119   5.828   2.593  3.9566  0.2349  0.8018
    1CHTO   C56  205   8.016   5.754   2.405  0.3954  0.1683 -0.0163
    1CHTO  H113  206   8.052   5.685   2.328  0.9821  0.4014  0.0473
    1CHTO   O42  207   7.914   5.683   2.476 -0.2363 -0.0725 -0.2063
    1CHTO  H100  208   7.865   5.732   2.539  0.8208  0.2348  0.3864
    1CHTO   C57  209   7.960   5.886   2.345 -0.2034 -0.0278 -0.9347
    1CHTO  H114  210   7.874   5.910   2.406  1.5367 -0.8682  1.9684
    1CHTO   N10  211   7.913   5.862   2.208  0.3482  0.6735  0.0234
    1CHTO  H106  212   7.836   5.930   2.176 -0.4549 -0.1872  0.1018
    1CHTO  H107  213   7.986   5.863   2.129 -1.0911  0.2595 -1.3455
    1CHTO   C58  214   8.055   6.010   2.350 -0.1969 -0.5181 -0.5411
    1CHTO  H115  215   8.030   6.079   2.267  1.2996  1.1276  0.3336
    1CHTO   O37  216   8.196   5.974   2.332 -0.9830 -0.0265 -0.3779
    1CHTO   C59  217   8.249   5.868   2.419 -0.2325 -0.2124 -0.4886
    1CHTO  H116  218   8.312   5.802   2.359  0.0943 -1.0519  0.7295
    1CHTO   C70  219   8.347   5.919   2.527  0.0881  0.2024  0.1175
    1CHTO   O46  220   8.293   6.014   2.622  0.4339 -0.0507  0.2949
    1CHTO  H103  221   8.253   5.958   2.685  0.5841  0.2403  0.6477
    1CHTO   O39  222   8.047   6.101   2.497  0.3616  0.2891 -0.0502
    1CHTO   C60  223   7.962   6.220   2.490 -0.6595  0.0952  0.3353
    1CHTO  H117  224   7.950   6.250   2.386 -1.2429 -2.0065 -0.2290
    1CHTO   C62  225   7.819   6.195   2.547  0.2281 -0.5363  0.1716
    1CHTO  H119  226   7.774   6.126   2.472 -0.7991  0.4180 -0.1092
    1CHTO   O43  227   7.836   6.152   2.686 -0.3049  0.1717  0.1309
    1CHTO  H101  228   7.750   6.133   2.719  1.3105 -2.4224  3.1169
    1CHTO   C66  229   7.729   6.328   2.540  0.0474 -0.1064  1.0957
    1CHTO  H123  230   7.722   6.359   2.435  1.0712  0.6273  1.2329
    1CHTO   N12  231   7.596   6.313   2.582 -1.0438  0.4983  0.1961
    1CHTO  H110  232   7.536   6.307   2.493  0.7422 -0.3844 -0.9864
    1CHTO  H111  233   7.583   6.218   2.632  4.1306 -1.1415 -1.1916
    1CHTO   C69  234   7.801   6.440   2.622 -0.3590 -0.2156 -0.6523
    1CHTO  H126  235   7.801   6.407   2.727  3.3851 -2.3185 -1.2131
    1CHTO   O41  236   7.948   6.454   2.575  0.3376  0.7061 -0.0294
    1CHTO   C64  237   8.031   6.341   2.568  0.1138  0.6148 -1.0533
    1CHTO  H121  238   8.048   6.287   2.664 -0.2285  1.1510 -0.6907
    1CHTO   C71  239   8.164   6.393   2.521 -0.2949 -0.4729  0.9403
    1CHTO   O47  240   8.263   6.292   2.512 -0.1193  0.1903  0.2883
    1CHTO  H104  241   8.342   6.314   2.557  0.5723 -2.6443  0.5737
    1CHTO   O34  242   7.724   6.598   2.611 -0.2395  0.2740  0.7848
    1CHTO   C49  243   7.766   6.719   2.683 -0.0628 -0.2508  0.4167
    1CHTO   H91  244   7.859   6.696   2.736  0.4918  0.4107 -0.2505
    1CHTO   C47  245   7.670   6.769   2.794  0.3152  0.2900 -0.8350
    1CHTO   H89  246   7.712   6.866   2.829  2.2427 -0.8818  0.1458
    1CHTO   O33  247   7.668   6.663   2.897  0.4259  0.2723 -0.2487
    1CHTO   H70  248   7.757   6.646   2.920  0.0538 -1.5294 -0.0788
    1CHTO   C45  249   7.524   6.786   2.723 -0.2300  0.5592 -0.4707
    1CHTO   H87  250   7.504   6.702   2.655  3.1422 -0.5460 -0.1675
    1CHTO    N8  251   7.414   6.812   2.820  1.2633  0.4755  0.6726
    1CHTO   H75  252   7.323   6.856   2.780  1.3603  0.3606  0.3261
    1CHTO   H76  253   7.385   6.719   2.866  2.3933  1.4221  3.4453
    1CHTO   C43  254   7.545   6.912   2.613 -0.0812  0.0339 -0.1091
    1CHTO   H85  255   7.460   6.901   2.546 -0.3914 -0.6253  0.3846
    1CHTO   O29  256   7.666   6.899   2.543  0.1537  0.1361  0.4269
    1CHTO   C50  257   7.787   6.845   2.587  0.2906  0.1583  0.2579
    1CHTO   H92  258   7.837   6.809   2.495 -0.5683 -0.2913 -0.0451
    1CHTO   C54  259   7.894   6.932   2.641 -0.6626  0.1691 -0.7231
    1CHTO   O36  260   7.944   7.017   2.541  0.4296 -0.5052 -0.1612
    1CHTO   H72  261   7.982   7.092   2.582 -0.3585 -1.2385  1.9976
    1CHTO   O27  262   7.546   7.041   2.675 -0.4351  0.0666  0.1774
    1CHTO   C37  263   7.484   7.166   2.649  0.4966 -0.1632  0.2621
    1CHTO   H79  264   7.485   7.192   2.543  1.9930  0.1383  0.3372
    1CHTO   C38  265   7.344   7.174   2.722  0.8067 -0.2335  0.2118
    1CHTO   H80  266   7.350   7.128   2.822  1.1241  1.6824  1.1004
    1CHTO   O31  267   7.264   7.082   2.646  0.2645 -0.0207 -0.6591
    1CHTO   H68  268   7.189   7.115   2.600  0.9233  2.2250 -0.1696
    1CHTO   C39  269   7.274   7.320   2.713 -0.2085  0.2092 -0.5644
    1CHTO   H81  270   7.267   7.330   2.605 -0.9793  1.5760 -0.4020
    1CHTO    N7  271   7.138   7.332   2.776  0.0809 -0.0972  0.1848
    1CHTO   H73  272   7.079   7.243   2.791  0.6770 -0.3438  1.1029
    1CHTO   H74  273   7.079   7.417   2.745 -0.6487  0.5668  3.2547
    1CHTO   C40  274   7.382   7.426   2.761  0.0468 -0.7623  0.0717
    1CHTO   H82  275   7.395   7.422   2.869 -0.4879  1.7790  0.2619
    1CHTO   O26  276   7.508   7.401   2.689  0.2753 -0.0389 -0.2725
    1CHTO   C41  277   7.564   7.274   2.724 -0.3352  0.2079 -0.0292
    1CHTO   H83  278   7.562   7.256   2.832 -1.3013  0.4235 -0.0047
    1CHTO   C52  279   7.706   7.276   2.682  0.0589 -0.2780  0.4340
    1CHTO   O35  280   7.793   7.335   2.807  0.4685  0.2539  0.4991
    1CHTO   H71  281   7.734   7.385   2.860 -1.7777 -0.8137 -0.9079
    1CHTO   O28  282   7.329   7.562   2.745 -0.6645  0.4028 -0.0237
    1CHTO   C42  283   7.356   7.638   2.619 -0.1684 -0.2564 -0.3144
    1CHTO   H84  284   7.368   7.559   2.546 -2.2564  0.2452 -1.2210
    1CHTO   C44  285   7.486   7.733   2.611  0.1942  0.1934 -0.5662
    1CHTO   H86  286   7.476   7.812   2.686 -0.0998 -2.2769  2.1097
    1CHTO   O32  287   7.597   7.658   2.655  0.0433  0.4877 -0.1015
    1CHTO   H69  288   7.633   7.687   2.738  1.2970  4.5965 -1.9277
    1CHTO   C48  289   7.510   7.796   2.470  0.6676 -0.6457 -0.4236
    1CHTO   H90  290   7.547   7.720   2.401  2.3421 -0.0836 -0.1481
    1CHTO    N9  291   7.616   7.907   2.477  0.2390 -0.1023  0.3848
    1CHTO   H77  292   7.616   7.980   2.398  0.4287 -0.0154  0.4658
    1CHTO   H78  293   7.713   7.860   2.479  1.5298  2.3719 -1.6992
    1CHTO   C51  294   7.382   7.864   2.407 -0.2441  0.0265  0.5288
    1CHTO   H93  295   7.367   7.963   2.448 -1.0757  0.0461  0.1891
    1CHTO   O30  296   7.266   7.781   2.419  0.5911 -0.0746 -0.2959
    1CHTO   C46  297   7.232   7.721   2.567  0.9057 -0.4451 -0.5408
    1CHTO   H88  298   7.213   7.804   2.635  2.6439 -0.6937  0.2580
    1CHTO   C53  299   7.099   7.639   2.557 -0.3508  0.6249 -0.6044
    1CHTO   O72  300   7.105   7.532   2.462 -0.3224  0.3583  0.2590
    1CHTO  H199  301   7.051   7.553   2.388 -0.1466  2.3321  0.6707
    1CHTO   O22  302   7.406   7.883   2.265  0.3265 -0.1108  0.0498
    1CHTO   C31  303   7.323   7.935   2.157 -0.3463 -1.4181 -0.4203
    1CHTO   H59  304   7.218   7.935   2.194 -0.5966 -1.0178 -1.1287
    1CHTO   C29  305   7.363   8.083   2.122 -0.0838  0.5151 -0.6375
    1CHTO   H57  306   7.466   8.073   2.086  0.3023 -0.1528  0.6150
    1CHTO   O21  307   7.364   8.156   2.244  0.3865  0.0388 -0.0466
    1CHTO   H37  308   7.454   8.180   2.255  0.3604 -0.9126  2.6413
    1CHTO   C27  309   7.280   8.136   2.001  0.3018 -0.4041 -0.2328
    1CHTO   H55  310   7.178   8.147   2.039  1.7468  0.7049  3.5007
    1CHTO    N5  311   7.330   8.264   1.948  0.0783  0.0364 -0.0888
    1CHTO   H43  312   7.435   8.243   1.934 -0.4433 -2.2488 -0.6612
    1CHTO   H44  313   7.265   8.281   1.863 -0.0390 -0.5724 -0.1177
    1CHTO   C25  314   7.282   8.027   1.887 -0.3551 -0.3004 -0.2893
    1CHTO   H53  315   7.384   8.007   1.851  0.0683  0.6027  0.4060
    1CHTO   O17  316   7.238   7.898   1.939  0.0765  0.8706 -0.1073
    1CHTO   C32  317   7.328   7.842   2.036 -0.6302  0.9755 -0.2540
    1CHTO   H60  318   7.427   7.834   1.993 -0.9905  1.4608 -1.1993
    1CHTO   C36  319   7.279   7.695   2.070  0.2276 -0.7231 -0.4950
    1CHTO   O25  320   7.165   7.684   2.162  0.3908 -0.3732  0.4217
    1CHTO   H40  321   7.093   7.736   2.130  0.0689 -1.1040 -0.0625
    1CHTO   O15  322   7.174   8.071   1.760  0.0367 -0.2247  0.5757
    1CHTO   C19  323   7.127   7.998   1.641  0.3606  0.0629 -0.6843
    1CHTO   H47  324   7.055   8.069   1.598  1.9411  1.6291 -0.8013
    1CHTO   C20  325   7.221   7.965   1.520  0.2616 -0.0424  0.5731
    1CHTO   H48  326   7.312   7.914   1.555 -0.8804 -1.6927  1.2034
    1CHTO   O19  327   7.250   8.090   1.461  0.4201  0.5637 -0.5405
    1CHTO   H35  328   7.301   8.081   1.383 -0.0074 -1.1905 -0.6355
    1CHTO   C21  329   7.144   7.875   1.409  0.9561  0.1695  0.5499
    1CHTO   H49  330   7.057   7.930   1.372  1.7140 -0.1896 -1.8593
    1CHTO    N4  331   7.229   7.836   1.297  0.1628  0.3224  0.7500
    1CHTO   H41  332   7.273   7.739   1.314 -0.5268  0.2746  2.3256
    1CHTO   H42  333   7.307   7.909   1.278  1.5119 -0.5600  2.7692
    1CHTO   C22  334   7.075   7.760   1.480 -0.2137  0.7057  0.3944
    1CHTO   H50  335   7.152   7.707   1.534 -1.2404 -0.1372  1.0540
    1CHTO   O14  336   6.977   7.819   1.571 -0.0465 -0.2738  0.0930
    1CHTO   C23  337   7.047   7.876   1.681  0.0081  0.2627 -0.6318
    1CHTO   H51  338   7.110   7.800   1.728  0.8178  1.4066  0.1453
    1CHTO   C34  339   6.934   7.912   1.786  0.4605  0.1956  0.0732
    1CHTO   O23  340   6.822   7.984   1.720 -0.3070 -0.0699  0.1694
    1CHTO   H38  341   6.804   8.065   1.764 -1.2508 -1.1971  1.8932
    1CHTO   O16  342   6.990   7.677   1.397  0.1153  0.0362 -0.7162
    1CHTO   C24  343   7.065   7.541   1.349  0.5795 -0.6644 -0.8506
    1CHTO   H52  344   7.173   7.551   1.359  0.5906 -1.1327 -0.4563
    1CHTO   C26  345   7.023   7.515   1.211 -0.3965 -0.0279  0.3698
    1CHTO   H54  346   6.912   7.507   1.208 -0.3994  0.6476 -2.1160
    1CHTO   O20  347   7.064   7.625   1.121 -0.1237 -0.5703  0.5966
    1CHTO   H36  348   7.035   7.612   1.033  1.1858 -0.5529  0.1471
    1CHTO   C30  349   7.080   7.376   1.161 -0.2724  0.1234  0.6688
    1CHTO   H58  350   7.188   7.383   1.143 -0.6909  1.8169 -1.4196
    1CHTO    N6  351   7.028   7.340   1.023 -0.5045 -0.1433  0.4852
    1CHTO   H45  352   7.000   7.430   0.969  2.1309  0.0703 -0.5907
    1CHTO   H46  353   6.940   7.281   1.043  0.1660 -0.4890  2.5002
    1CHTO   C33  354   7.043   7.261   1.257  0.1436 -0.4830 -0.5573
    1CHTO   H61  355   6.934   7.246   1.250  0.3709 -1.4862 -2.3277
    1CHTO   O18  356   7.085   7.294   1.387  0.3547 -0.4030 -0.1164
    1CHTO   C28  357   7.019   7.413   1.436 -0.2455  1.0279  0.0772
    1CHTO   H56  358   6.911   7.409   1.418 -0.2463 -2.7020  0.6087
    1CHTO   C35  359   7.061   7.427   1.582  0.7794 -0.0280  0.6445
    1CHTO   O24  360   6.964   7.507   1.644 -0.1464  0.3093 -0.5829
    1CHTO   H39  361   7.002   7.565   1.707  1.5312  0.2493 -1.5343
    1CHTO    O9  362   7.096   7.137   1.221 -0.0736 -0.0072 -0.2820
    1CHTO   C13  363   7.038   7.003   1.298 -0.7338 -1.1706  0.0264
    1CHTO   H26  364   6.947   7.035   1.352  0.4193  0.1679  1.1911
    1CHTO   C11  365   7.150   6.953   1.400  0.0590 -0.8094 -0.4267
    1CHTO   H24  366   7.150   7.024   1.484 -1.8789 -2.7746  1.2942
    1CHTO    O8  367   7.275   6.960   1.334 -0.7774  0.2004 -0.3418
    1CHTO    H3  368   7.340   6.908   1.377 -0.4975  0.5386 -0.3610
    1CHTO    C9  369   7.113   6.808   1.442 -0.2522 -0.1699 -0.1517
    1CHTO   H22  370   7.010   6.811   1.481  0.1557 -0.9198  1.0315
    1CHTO    N2  371   7.190   6.754   1.554 -0.0870 -0.3812  0.1366
    1CHTO   H10  372   7.158   6.657   1.589  1.2026 -0.5590  0.8374
    1CHTO   H11  373   7.295   6.763   1.533 -0.5739  0.9352 -1.8409
    1CHTO    C7  374   7.130   6.714   1.319 -0.5291  0.6590 -0.5743
    1CHTO   H20  375   7.065   6.629   1.347  0.7186  0.2451  1.1569
    1CHTO    O4  376   7.094   6.773   1.190 -0.4917 -0.1928  0.0750
    1CHTO   C14  377   7.000   6.883   1.195 -0.6780 -0.1879  0.2048
    1CHTO   H27  378   6.914   6.819   1.225 -0.4287  0.1656  1.7157
    1CHTO   C18  379   6.975   6.927   1.045 -0.7839  0.4441 -0.6821
    1CHTO   O13  380   6.858   7.015   1.054  0.1327  0.1622  0.2372
    1CHTO    H7  381   6.826   7.025   0.967  0.1144 -1.4875  0.0259
    1CHTO    O2  382   7.255   6.636   1.294 -0.3619  0.5459 -0.5277
    1CHTO    C1  383   7.278   6.540   1.190  0.4076  0.2782  0.2149
    1CHTO   H14  384   7.241   6.579   1.092  0.4535 -0.8557 -0.2555
    1CHTO    C2  385   7.203   6.396   1.216 -0.2130  0.6887  0.1711
    1CHTO   H15  386   7.232   6.369   1.319  0.7953  1.8687  0.2121
    1CHTO    O6  387   7.062   6.417   1.202  0.1010  0.0634 -0.2256
    1CHTO    H1  388   7.019   6.334   1.195  2.4003 -1.3404  1.4835
    1CHTO    C3  389   7.241   6.283   1.109  0.0368  0.4483  0.0458
    1CHTO   H16  390   7.199   6.313   1.012  2.8950 -0.6957 -1.6038
    1CHTO    N1  391   7.187   6.144   1.146 -0.3054  0.3451 -0.7458
    1CHTO    H8  392   7.228   6.062   1.089 -0.0718 -0.4241  0.5135
    1CHTO    H9  393   7.190   6.109   1.248  0.2256 -1.0940 -1.2477
    1CHTO    C4  394   7.395   6.294   1.088  0.3269 -0.1840  0.2546
    1CHTO   H17  395   7.444   6.251   1.175 -1.6784 -1.1369  0.9457
    1CHTO    O1  396   7.451   6.423   1.071  0.3460 -0.2360  0.0025
    1CHTO    C5  397   7.428   6.521   1.175  0.4295 -0.7859  0.7484
    1CHTO   H18  398   7.461   6.480   1.271  1.2237  0.9573  1.2334
    1CHTO   C16  399   7.495   6.654   1.147 -0.3226 -0.1585 -0.5244
    1CHTO   O11  400   7.636   6.639   1.120 -0.7551 -0.0025  0.3217
    1CHTO    H5  401   7.659   6.555   1.085  0.0095  0.8156 -1.1953
    1CHTO    O3  402   7.436   6.221   0.973 -0.2827  0.3945 -0.5615
    1CHTO    C6  403   7.539   6.116   0.974 -0.9407 -0.2389  0.6107
    1CHTO   H19  404   7.545   6.057   1.065  0.9948 -0.0480  0.6175
    1CHTO    C8  405   7.507   6.025   0.847  0.4128 -0.0958  0.1608
    1CHTO   H21  406   7.493   6.085   0.757  0.7443  0.4015  0.4395
    1CHTO    O7  407   7.387   5.961   0.884 -0.1393 -0.2961  0.0508
    1CHTO    H2  408   7.344   5.905   0.822 -0.6593  0.0226  0.1188
    1CHTO   C12  409   7.624   5.922   0.831 -0.5076  0.0859 -0.8111
    1CHTO   H25  410   7.635   5.861   0.922 -0.1570 -0.7187 -1.3842
    1CHTO    N3  411   7.613   5.830   0.721  0.3710  0.2571 -0.0561
    1CHTO   H12  412   7.555   5.878   0.644 -2.2424  0.0585  1.7345
    1CHTO   H13  413   7.569   5.735   0.747 -1.4204  1.1902  0.3946
    1CHTO   C15  414   7.762   6.000   0.811  0.1982  0.2004  0.3801
    1CHTO   H28  415   7.771   6.057   0.719  2.8718  0.3594  0.6874
    1CHTO   O10  416   7.876   5.917   0.829 -0.3683 -0.0772 -0.1652
    1CHTO    H4  417   7.902   5.877   0.748  2.0280  1.2039 -0.0558
    1CHTO    O5  418   7.780   6.084   0.923 -0.1815  0.3973  0.1838
    1CHTO   C10  419   7.678   6.180   0.943  0.1809 -0.2361 -0.0004
    1CHTO   H23  420   7.663   6.247   0.858  0.3621 -1.6844 -1.2029
    1CHTO   C17  421   7.725   6.277   1.049 -0.1523  0.7797 -0.0028
    1CHTO   O12  422   7.842   6.349   1.004 -0.0320 -0.3266 -0.3578
    1CHTO    H6  423   7.918   6.293   1.009 -1.4097 -2.1996  0.1585
    2CHTO  H203  424   6.959   4.367   2.563 -0.8369 -3.5702 -1.7155
    2CHTO   O82  425   6.876   4.372   2.607 -0.0368 -0.0932 -0.4020
    2CHTO  C123  426   6.771   4.425   2.531 -0.1935 -0.4858  0.6701
    2CHTO  H227  427   6.817   4.466   2.440 -2.5967 -2.0741 -1.3256
    2CHTO   O77  428   6.686   4.309   2.496  0.0821 -0.8828 -0.3475
    2CHTO  C118  429   6.568   4.341   2.423  0.3288  0.5744  0.4950
    2CHTO  H222  430   6.615   4.382   2.332  2.7467  1.0271  1.9215
    2CHTO  C125  431   6.518   4.196   2.387  0.3884 -0.0482 -0.3328
    2CHTO   O84  432   6.485   4.120   2.503  0.1613 -0.0762 -0.3904
    2CHTO  H205  433   6.564   4.110   2.553 -1.6690  1.2707  2.9425
    2CHTO  C114  434   6.476   4.433   2.507 -0.3613  0.1088  0.5117
    2CHTO  H218  435   6.442   4.377   2.594  0.2524 -0.3074  0.4789
    2CHTO  C116  436   6.547   4.563   2.550  0.5003  0.2928  0.5974
    2CHTO  H220  437   6.550   4.630   2.461 -0.3580  0.2702  0.5426
    2CHTO   O79  438   6.465   4.635   2.643  0.3421  0.3063 -0.2394
    2CHTO  H201  439   6.509   4.686   2.708 -0.5954 -1.9325  2.2926
    2CHTO  C120  440   6.692   4.532   2.608 -0.4746  0.0173  0.3486
    2CHTO  H224  441   6.671   4.497   2.711  4.3015 -3.1097  0.4380
    2CHTO   N21  442   6.779   4.653   2.618 -0.4791  0.6489 -0.8369
    2CHTO  H211  443   6.852   4.627   2.693 -0.9868 -1.2239 -0.9739
    2CHTO  H212  444   6.712   4.731   2.649 -0.7848 -0.6804  2.0059
    2CHTO   O75  445   6.363   4.457   2.426  0.2114  0.3846  0.2266
    2CHTO  C112  446   6.215   4.424   2.484  0.3548  0.5959  0.0585
    2CHTO  H216  447   6.219   4.417   2.594  1.6849  0.6410  0.0328
    2CHTO   O73  448   6.164   4.302   2.427 -0.5945 -0.0925  0.0118
    2CHTO  C113  449   6.035   4.258   2.463  0.3958  0.1823 -0.5189
    2CHTO  H217  450   6.030   4.219   2.567  0.1038 -0.0343 -0.6133
    2CHTO  C124  451   5.998   4.142   2.375  0.5208  0.5648 -0.8780
    2CHTO   O83  452   6.099   4.040   2.365  0.3429 -0.1786 -0.3130
    2CHTO  H204  453   6.080   3.968   2.422 -0.8776  0.1064 -0.3412
    2CHTO  C109  454   5.924   4.365   2.448  0.4874  0.9290  0.6135
    2CHTO  H213  455   5.925   4.396   2.343  1.1846  0.1238  0.3751
    2CHTO  C110  456   5.971   4.490   2.531  0.4560  0.2306 -0.3303
    2CHTO  H214  457   5.984   4.451   2.632  1.2151  0.5885 -0.2813
    2CHTO   O78  458   5.865   4.590   2.531  0.3862  0.2931 -0.5936
    2CHTO  H200  459   5.894   4.670   2.569 -0.5622  1.2919 -1.9267
    2CHTO  C111  460   6.104   4.538   2.462 -0.4916  0.2010 -0.1007
    2CHTO  H215  461   6.084   4.549   2.354 -0.5855  2.9725  0.1739
    2CHTO   N19  462   6.147   4.668   2.507 -0.6990  0.2274 -0.4106
    2CHTO  H207  463   6.218   4.677   2.588  0.6108 -1.0727 -1.3812
    2CHTO  H208  464   6.056   4.723   2.526 -1.6019 -1.4041  0.1203
    2CHTO   O74  465   5.797   4.306   2.489  0.1652  0.4107 -0.7369
    2CHTO  C115  466   5.690   4.313   2.381  1.5347  0.3320 -0.2512
    2CHTO  H219  467   5.723   4.367   2.293  1.7773 -0.2896 -0.5476
    2CHTO   O76  468   5.667   4.158   2.315 -0.0498  0.3657 -0.0409
    2CHTO  C122  469   5.584   4.065   2.375 -0.0420  0.0062 -0.1103
    2CHTO  H226  470   5.640   4.032   2.463  1.7675  2.5947 -0.2550
    2CHTO  C126  471   5.561   3.942   2.287  0.7132 -0.5141  0.5065
    2CHTO   O85  472   5.685   3.881   2.249 -0.4739 -0.3375  0.3720
    2CHTO  H206  473   5.731   3.842   2.320 -0.8678  0.5655  1.1256
    2CHTO  C121  474   5.439   4.126   2.428 -0.4798 -0.5908 -0.4041
    2CHTO  H225  475   5.353   4.074   2.380  0.4371 -2.1856 -0.3472
    2CHTO   O81  476   5.433   4.097   2.570 -0.3010 -0.5117 -0.5844
    2CHTO  H202  477   5.350   4.063   2.599  1.1975 -2.3259  1.8132
    2CHTO  C119  478   5.427   4.283   2.407 -0.0797  0.1085 -0.2379
    2CHTO  H223  479   5.409   4.290   2.300 -3.6521  1.7373  0.3635
    2CHTO  C117  480   5.555   4.375   2.445  0.2693  0.0810  0.2635
    2CHTO  H221  481   5.582   4.381   2.551  0.7047  0.9220  0.1140
    2CHTO   N20  482   5.547   4.521   2.401 -0.3875  0.3525 -0.0580
    2CHTO  H209  483   5.475   4.559   2.472  0.9214 -2.2690  2.7772
    2CHTO  H210  484   5.638   4.570   2.432 -0.1834 -0.2220  0.2447
    2CHTO   O80  485   5.306   4.340   2.452 -0.7412 -0.6090  0.0766
    2CHTO  C103  486   5.203   4.400   2.349 -0.3807  0.6451  0.6459
    2CHTO  H190  487   5.256   4.455   2.272  0.9984 -1.0018  0.4106
    2CHTO  C101  488   5.119   4.304   2.255 -0.2559 -0.1258  0.1856
    2CHTO  H188  489   5.066   4.228   2.313  1.8040 -0.4365  1.7180
    2CHTO   O68  490   5.207   4.221   2.167 -0.5659  1.0428  0.3483
    2CHTO  H168  491   5.280   4.270   2.134  0.5683  0.2161  1.5484
    2CHTO   C99  492   5.012   4.377   2.160  0.7307 -0.0548  0.1070
    2CHTO  H186  493   5.072   4.430   2.083  0.1545 -1.9754 -1.7082
    2CHTO   N17  494   4.915   4.291   2.086  0.2228  0.6156  0.1478
    2CHTO  H174  495   4.910   4.196   2.138 -0.3691 -0.4016 -1.7260
    2CHTO  H175  496   4.961   4.277   1.989 -0.5249  1.4920 -0.3357
    2CHTO   C97  497   4.937   4.479   2.248  0.4271 -0.1573  0.2220
    2CHTO  H184  498   4.866   4.427   2.314  1.6741 -1.3602  0.6346
    2CHTO   O64  499   5.024   4.564   2.324  0.3354  0.1858  0.0867
    2CHTO  C104  500   5.108   4.499   2.417 -0.2278  0.0618 -0.5842
    2CHTO  H191  501   5.052   4.447   2.495  1.2739 -0.6127  0.0776
    2CHTO  C108  502   5.190   4.601   2.495  0.2159 -0.0384  0.2074
    2CHTO   O71  503   5.101   4.670   2.582 -0.4206  0.7141 -0.3141
    2CHTO  H171  504   5.127   4.753   2.617  1.7074  0.0027 -0.1438
    2CHTO   O62  505   4.865   4.571   2.161  0.1306 -0.0632  0.7250
    2CHTO   C91  506   4.778   4.667   2.223 -0.6083 -0.3389 -0.5305
    2CHTO  H178  507   4.772   4.649   2.331 -2.1708  0.1989 -0.5161
    2CHTO   C92  508   4.629   4.654   2.174 -0.2443  0.3415  0.0124
    2CHTO  H179  509   4.601   4.549   2.157  0.8778  0.1186 -0.4986
    2CHTO   O66  510   4.554   4.704   2.282 -0.5805  0.0564  0.0871
    2CHTO  H166  511   4.547   4.641   2.351  1.1443  0.9307  1.1012
    2CHTO   C93  512   4.593   4.731   2.041  0.0774  0.8682  0.4957
    2CHTO  H180  513   4.485   4.750   2.045  0.1440  1.0771  1.6372
    2CHTO   N16  514   4.617   4.649   1.922  0.6617  0.5342 -0.0002
    2CHTO  H172  515   4.720   4.630   1.894 -0.4601 -1.5664 -3.0160
    2CHTO  H173  516   4.561   4.557   1.925 -1.9986  1.9271 -3.2576
    2CHTO   C94  517   4.671   4.869   2.028  0.6184 -0.3056  0.6030
    2CHTO  H181  518   4.759   4.859   1.965 -0.4393 -0.9300 -0.8204
    2CHTO   O61  519   4.723   4.912   2.157 -0.3174 -0.5418  0.5792
    2CHTO   C95  520   4.826   4.822   2.193  0.1617  0.5349 -0.2885
    2CHTO  H182  521   4.897   4.820   2.110 -1.5685 -0.8541 -1.7577
    2CHTO  C106  522   4.887   4.890   2.304 -0.6286 -0.6321  0.2653
    2CHTO   O69  523   5.029   4.859   2.335 -0.0524 -0.4810 -0.2224
    2CHTO  H169  524   5.080   4.894   2.264 -0.9099  1.7896  0.2397
    2CHTO   O63  525   4.587   4.976   1.960  0.3956 -0.6370 -0.0015
    2CHTO   C96  526   4.570   5.131   2.026 -0.4006 -0.3147 -0.2874
    2CHTO  H183  527   4.663   5.169   2.068 -0.5508 -0.3367  0.0626
    2CHTO   C98  528   4.456   5.141   2.131  0.1603 -0.6041  0.3137
    2CHTO  H185  529   4.364   5.093   2.093  1.4941 -0.9445 -2.5971
    2CHTO   O67  530   4.490   5.068   2.253  0.0911 -0.0936 -0.1532
    2CHTO  H167  531   4.579   5.081   2.280  1.3642 -2.8124 -2.6925
    2CHTO  C102  532   4.421   5.294   2.166 -0.9308 -0.5258  0.5365
    2CHTO  H189  533   4.505   5.335   2.224 -1.8844  0.4487  1.2570
    2CHTO   N18  534   4.308   5.307   2.256  0.4487 -0.0181  0.0642
    2CHTO  H176  535   4.325   5.387   2.326 -0.4381  1.9259 -1.8983
    2CHTO  H177  536   4.268   5.216   2.299  2.8191 -0.6060  1.1453
    2CHTO  C105  537   4.415   5.385   2.036 -0.3189 -0.4555  0.0405
    2CHTO  H192  538   4.314   5.375   1.995 -0.3724  0.9327 -0.1819
    2CHTO   O65  539   4.510   5.358   1.936  0.0086 -0.0311  0.0676
    2CHTO  C100  540   4.528   5.221   1.907 -0.8203  0.2422 -0.3152
    2CHTO  H187  541   4.440   5.178   1.857  0.3166  0.1260 -2.2826
    2CHTO  C107  542   4.635   5.225   1.799  0.0881  0.7764 -0.1535
    2CHTO   O70  543   4.590   5.270   1.676  1.2206  1.1956  0.1133
    2CHTO  H170  544   4.611   5.361   1.674  1.0032  1.2108 -3.1154
    2CHTO   O57  545   4.435   5.557   2.107 -0.2591 -0.4036  0.4578
    2CHTO   C85  546   4.368   5.653   2.022  0.7676 -0.1284 -1.0226
    2CHTO  H157  547   4.278   5.600   1.983 -0.7843  0.4452  1.6821
    2CHTO   C83  548   4.461   5.704   1.909  0.3515  0.3688 -0.1733
    2CHTO  H155  549   4.506   5.619   1.858  1.3519  0.6550  0.2255
    2CHTO   O56  550   4.579   5.769   1.966 -0.0108 -0.0763  0.4614
    2CHTO  H135  551   4.559   5.844   2.019  1.9213  0.0318  1.0587
    2CHTO   C81  552   4.380   5.792   1.810 -0.5453 -0.0028 -0.2163
    2CHTO  H153  553   4.291   5.738   1.777  0.5792 -1.3170 -1.1499
    2CHTO   N14  554   4.445   5.818   1.681 -0.2599  0.3848  0.1126
    2CHTO  H141  555   4.551   5.809   1.693 -0.0412  0.5046 -1.6894
    2CHTO  H142  556   4.407   5.745   1.613  1.5059 -0.0494 -0.4294
    2CHTO   C79  557   4.330   5.923   1.894  0.1071  0.1057 -0.6423
    2CHTO  H151  558   4.245   5.967   1.843  1.3323  0.4657 -2.4389
    2CHTO   O52  559   4.284   5.890   2.032  0.0945 -0.3733  0.3599
    2CHTO   C86  560   4.323   5.777   2.106 -1.0176 -0.0522 -0.2065
    2CHTO  H158  561   4.407   5.819   2.166  0.2310 -4.1589  1.1314
    2CHTO   C90  562   4.209   5.754   2.207 -0.0207  0.0248  0.0755
    2CHTO   O60  563   4.236   5.638   2.278  0.0393  0.5837  0.3930
    2CHTO  H138  564   4.177   5.572   2.249  1.8027 -0.4153 -0.9860
    2CHTO   O50  565   4.438   6.018   1.910  0.0729  0.0027 -0.0032
    2CHTO   C73  566   4.479   6.149   1.947  0.1654 -0.2425  0.3333
    2CHTO  H145  567   4.394   6.206   1.987 -1.4291  0.1430 -3.4294
    2CHTO   C74  568   4.525   6.227   1.820 -0.4051  0.0401  0.2676
    2CHTO  H146  569   4.442   6.253   1.754  1.1126 -0.6886 -1.9832
    2CHTO   O54  570   4.565   6.356   1.868  0.1198 -0.5853  0.0647
    2CHTO  H133  571   4.499   6.404   1.914  0.0563  0.1265 -0.7438
    2CHTO   C75  572   4.639   6.151   1.745 -0.5773 -0.3404 -0.3001
    2CHTO  H147  573   4.598   6.059   1.701 -0.2029 -1.4990  1.7088
    2CHTO   N13  574   4.692   6.222   1.628 -0.3773  0.3123 -0.4241
    2CHTO  H139  575   4.798   6.203   1.622 -0.4466 -0.0283 -0.5539
    2CHTO  H140  576   4.668   6.327   1.638 -0.3283  0.1263  1.9783
    2CHTO   C76  577   4.758   6.123   1.854  0.2049  0.0628 -0.3303
    2CHTO  H148  578   4.803   6.221   1.867 -1.5943  0.9738 -0.8388
    2CHTO   O49  579   4.709   6.068   1.991  1.1452 -0.4779  0.4563
    2CHTO   C77  580   4.594   6.138   2.048  0.6796 -0.4934  0.3681
    2CHTO  H149  581   4.623   6.239   2.077  0.5497 -0.9806  2.3203
    2CHTO   C88  582   4.547   6.064   2.173  0.1811 -0.0765 -0.2582
    2CHTO   O58  583   4.450   6.123   2.252 -0.3675 -0.3880  0.3914
    2CHTO  H136  584   4.467   6.215   2.249  0.1465 -0.4692  0.8737
    2CHTO   O51  585   4.876   5.996   1.783  0.6363  0.4895 -0.1463
    2CHTO   C78  586   4.956   5.934   1.875  0.3564 -0.0916  0.3843
    2CHTO  H150  587   4.913   5.954   1.975  0.7602 -0.8238  0.7097
    2CHTO   C80  588   5.100   5.998   1.871  0.4802  0.5958 -0.6243
    2CHTO  H152  589   5.139   5.975   1.770 -0.5930  1.0190 -1.1320
    2CHTO   O55  590   5.093   6.143   1.891  0.1600  0.3744  0.4821
    2CHTO  H134  591   5.182   6.167   1.878  0.1998  0.9384  1.7210
    2CHTO   C84  592   5.202   5.936   1.978  0.2766 -0.2605 -0.3499
    2CHTO  H156  593   5.160   5.965   2.074 -1.2536  1.4220 -1.4787
    2CHTO   N15  594   5.342   5.988   1.955 -0.3455  0.4863  0.0227
    2CHTO  H143  595   5.392   5.922   1.887  0.7376 -2.0981  3.2088
    2CHTO  H144  596   5.393   5.974   2.048 -0.3299 -3.1754 -0.4540
    2CHTO   C87  597   5.190   5.780   1.969 -0.0849  0.1319 -0.0627
    2CHTO  H159  598   5.261   5.744   1.895 -0.5047  0.8909 -0.8521
    2CHTO   O53  599   5.053   5.725   1.950 -0.2809 -0.2347  0.3246
    2CHTO   C82  600   4.975   5.783   1.844  0.1024 -0.6664  0.2700
    2CHTO  H154  601   5.028   5.766   1.750  3.3587  3.2107  1.2517
    2CHTO   C89  602   4.843   5.706   1.841  0.9838 -0.1307 -0.5799
    2CHTO   O59  603   4.854   5.576   1.780  0.0298 -0.6173  0.1138
    2CHTO  H137  604   4.769   5.536   1.783 -0.2049 -0.1926 -0.6525
    2CHTO   O45  605   5.255   5.723   2.102 -0.0379  0.1838 -0.0103
    2CHTO   C67  606   5.177   5.636   2.182 -0.3956 -0.2238 -0.5297
    2CHTO  H124  607   5.075   5.675   2.185 -0.0781  0.5828  0.0951
    2CHTO   C65  608   5.173   5.487   2.130 -0.3640 -0.6542  0.5239
    2CHTO  H122  609   5.246   5.480   2.049 -3.4875 -1.7426 -2.3190
    2CHTO   O44  610   5.046   5.476   2.066  0.3429 -0.0853  0.5847
    2CHTO  H102  611   4.974   5.477   2.126 -0.3397  1.1330 -0.2233
    2CHTO   C63  612   5.227   5.380   2.229  0.1631 -0.1903  0.1150
    2CHTO  H120  613   5.331   5.405   2.249  0.0699 -0.8346  1.4146
    2CHTO   N11  614   5.219   5.243   2.177 -0.2670  0.1671  0.1304
    2CHTO  H108  615   5.316   5.228   2.134  0.6980 -0.6287  2.5013
    2CHTO  H109  616   5.191   5.177   2.257  1.3925 -0.3107  0.3336
    2CHTO   C61  617   5.144   5.410   2.357 -0.4032 -0.2191  0.6231
    2CHTO  H118  618   5.178   5.342   2.437 -3.1567  0.0958  2.1168
    2CHTO   O40  619   5.156   5.542   2.416  0.3647  0.2148  0.1057
    2CHTO   C68  620   5.226   5.642   2.332  0.1539  0.3878 -0.2579
    2CHTO  H125  621   5.335   5.625   2.325  0.2714  1.0820 -0.1381
    2CHTO   C72  622   5.207   5.775   2.406 -0.2180  0.0894  0.1925
    2CHTO   O48  623   5.279   5.777   2.531 -0.2559 -0.3354  0.3557
    2CHTO  H105  624   5.238   5.716   2.589  1.4468 -2.3625 -0.5117
    2CHTO   O38  625   5.009   5.393   2.323  0.3033  0.3454 -0.3376
    2CHTO   C55  626   4.908   5.400   2.424 -0.2392  0.2208  0.1903
    2CHTO  H112  627   4.941   5.480   2.492 -1.2581  1.0639 -0.2920
    2CHTO   C56  628   4.878   5.265   2.505 -0.5805  0.4922 -0.3753
    2CHTO  H113  629   4.879   5.190   2.425  0.8269 -1.2631  1.2105
    2CHTO   O42  630   4.999   5.240   2.579  0.2147 -0.0509  0.4524
    2CHTO  H100  631   4.992   5.156   2.621  2.2741  0.1804  1.2968
    2CHTO   C57  632   4.751   5.271   2.600  0.8995 -1.1779  0.3514
    2CHTO  H114  633   4.782   5.341   2.677 -0.3377 -1.9832  1.6221
    2CHTO   N10  634   4.711   5.146   2.670  0.0287  0.1417  0.1284
    2CHTO  H106  635   4.797   5.085   2.692 -0.4009 -0.6141 -0.2683
    2CHTO  H107  636   4.656   5.174   2.758  1.9654 -0.0404  1.4296
    2CHTO   C58  637   4.628   5.336   2.524  0.6729  0.9073 -0.4243
    2CHTO  H115  638   4.579   5.266   2.452 -0.0161  0.1307  0.7694
    2CHTO   O37  639   4.661   5.456   2.452 -0.4898  0.1560  0.0862
    2CHTO   C59  640   4.768   5.448   2.354 -0.1364  0.4901 -0.6193
    2CHTO  H116  641   4.745   5.381   2.270  0.5332  1.8603 -1.9109
    2CHTO   C70  642   4.787   5.589   2.302  0.4428  0.1345 -0.0810
    2CHTO   O46  643   4.667   5.621   2.230 -0.0582  0.1656  0.0249
    2CHTO  H103  644   4.597   5.661   2.278 -0.0037 -0.5662  0.7422
    2CHTO   O39  645   4.514   5.376   2.639  0.0515  0.4154  0.0508
    2CHTO   C60  646   4.391   5.447   2.598 -0.9125  0.4113  0.1236
    2CHTO  H117  647   4.378   5.449   2.490 -0.4856  0.3132  0.0662
    2CHTO   C62  648   4.262   5.376   2.656 -0.5905 -0.3125 -0.1568
    2CHTO  H119  649   4.255   5.274   2.613 -2.2176 -0.8298  1.2915
    2CHTO   O43  650   4.276   5.361   2.796 -0.1398  0.1631  0.1480
    2CHTO  H101  651   4.306   5.273   2.810 -0.8300 -0.1516 -0.3184
    2CHTO   C66  652   4.126   5.438   2.604  0.3224 -0.0533 -0.3986
    2CHTO  H123  653   4.137   5.453   2.497 -0.6610  1.5431 -0.2895
    2CHTO   N12  654   4.007   5.356   2.632  0.0567  0.1573  0.3292
    2CHTO  H110  655   3.987   5.270   2.569  0.1013  1.8530 -2.0795
    2CHTO  H111  656   3.921   5.422   2.633 -0.7705 -0.9178  1.4852
    2CHTO   C69  657   4.120   5.582   2.659 -0.5399 -0.8507 -0.0612
    2CHTO  H126  658   4.109   5.587   2.770 -0.7824  0.5909 -0.1399
    2CHTO   O41  659   4.258   5.663   2.618 -0.0601  0.0269 -0.1258
    2CHTO   C64  660   4.387   5.595   2.649  0.9353  0.0238  0.2931
    2CHTO  H121  661   4.402   5.597   2.759  0.7568 -1.5241  0.3466
    2CHTO   C71  662   4.509   5.677   2.589  0.2598  0.4260 -0.2865
    2CHTO   O47  663   4.494   5.699   2.446 -0.4080 -0.0830 -0.1091
    2CHTO  H104  664   4.463   5.616   2.416  1.7988 -1.0197  0.1240
    2CHTO   O34  665   3.977   5.662   2.598  0.7824  0.1277  0.0774
    2CHTO   C49  666   3.973   5.798   2.622  0.5476  0.5358  0.3406
    2CHTO   H91  667   4.077   5.819   2.649  0.3075  1.4791  0.5474
    2CHTO   C47  668   3.882   5.834   2.744  0.2611  0.0330  0.1344
    2CHTO   H89  669   3.907   5.940   2.762  0.3776 -0.4275  2.8248
    2CHTO   O33  670   3.917   5.755   2.860  0.2274  0.5133  0.3990
    2CHTO   H70  671   3.879   5.672   2.838  0.3126  1.0679 -1.9590
    2CHTO   C45  672   3.726   5.823   2.697 -0.1867  0.0210  0.2703
    2CHTO   H87  673   3.711   5.720   2.661  2.2532 -0.2722 -0.0043
    2CHTO    N8  674   3.627   5.846   2.810  0.1081  0.1597 -0.1076
    2CHTO   H75  675   3.652   5.774   2.887 -0.4515  0.5316  0.4254
    2CHTO   H76  676   3.660   5.937   2.858 -0.8774 -0.6506  2.1435
    2CHTO   C43  677   3.699   5.919   2.568  0.7534  0.1476  0.3316
    2CHTO   H85  678   3.595   5.921   2.536  1.1574  0.7875 -1.0042
    2CHTO   O29  679   3.785   5.880   2.460 -0.0097 -0.4096 -0.5689
    2CHTO   C50  680   3.928   5.870   2.491  0.6989  0.3874 -0.3695
    2CHTO   H92  681   3.959   5.819   2.399  0.5533 -1.4466  0.5684
    2CHTO   C54  682   4.011   6.003   2.465  0.1894  0.4153 -0.6927
    2CHTO   O36  683   4.139   6.023   2.519 -0.0329 -0.0288  0.2800
    2CHTO   H72  684   4.144   6.117   2.516  1.1841 -0.1142 -0.6242
    2CHTO   O27  685   3.721   6.060   2.590  0.1994  0.2549  0.1388
    2CHTO   C37  686   3.682   6.181   2.525 -0.4771  0.6767  0.1751
    2CHTO   H79  687   3.733   6.195   2.429 -0.0667  0.3990  0.3519
    2CHTO   C38  688   3.530   6.190   2.494 -0.7702 -0.6493 -0.6598
    2CHTO   H80  689   3.468   6.165   2.581 -2.7627 -1.4251 -2.2607
    2CHTO   O31  690   3.501   6.103   2.387 -0.1459  0.6969 -0.3685
    2CHTO   H68  691   3.499   6.012   2.412 -1.0070  0.1001 -2.5277
    2CHTO   C39  692   3.485   6.340   2.457  0.2585 -0.1440  0.2225
    2CHTO   H81  693   3.529   6.372   2.362  1.7194 -1.8324  0.3154
    2CHTO    N7  694   3.334   6.357   2.438  0.2839  0.1403 -0.3083
    2CHTO   H73  695   3.309   6.453   2.396 -2.7752 -0.3470  0.2974
    2CHTO   H74  696   3.297   6.266   2.394  1.0465 -1.2979  1.9475
    2CHTO   C40  697   3.539   6.439   2.560  0.4717 -0.4049 -0.1129
    2CHTO   H82  698   3.482   6.420   2.650  1.4531 -2.8779  0.0334
    2CHTO   O26  699   3.680   6.419   2.576 -0.1708  0.3524  0.1458
    2CHTO   C41  700   3.723   6.294   2.626  0.3008  0.0880 -0.8371
    2CHTO   H83  701   3.667   6.292   2.720 -1.2868  3.1874 -1.6534
    2CHTO   C52  702   3.877   6.316   2.639  0.6134  0.6535 -0.0299
    2CHTO   O35  703   3.940   6.244   2.740 -0.1017 -0.1684  0.7245
    2CHTO   H71  704   3.932   6.277   2.827  0.0814  1.3887  0.1659
    2CHTO   O28  705   3.523   6.576   2.513  0.4652  0.5721 -0.1485
    2CHTO   C42  706   3.544   6.692   2.601  0.1040  0.5644  0.5602
    2CHTO   H84  707   3.523   6.777   2.536  0.2828  2.0810  2.4437
    2CHTO   C44  708   3.684   6.714   2.667  0.7399  0.5642  0.0042
    2CHTO   H86  709   3.704   6.633   2.737  1.7438  0.5882 -0.2412
    2CHTO   O32  710   3.782   6.711   2.566  0.0869  0.3488 -0.2459
    2CHTO   H69  711   3.814   6.793   2.535  1.2960  0.5457  1.4607
    2CHTO   C48  712   3.688   6.850   2.759 -0.7788 -0.0474  0.5672
    2CHTO   H90  713   3.676   6.930   2.686 -1.7078  0.6570  1.4925
    2CHTO    N9  714   3.819   6.878   2.830 -0.2915 -0.2717  0.2306
    2CHTO   H77  715   3.878   6.962   2.797 -0.7685  0.8531  2.1753
    2CHTO   H78  716   3.882   6.793   2.850  0.5665  0.7154  1.7740
    2CHTO   C51  717   3.574   6.837   2.866  0.4027  0.5263  0.2794
    2CHTO   H93  718   3.590   6.749   2.927 -2.2082 -0.9292 -1.0634
    2CHTO   O30  719   3.452   6.830   2.792 -0.3767  0.6778  0.4032
    2CHTO   C46  720   3.433   6.698   2.711 -0.5975 -0.0111  0.7117
    2CHTO   H88  721   3.444   6.618   2.785  0.1470  0.9923  1.7175
    2CHTO   C53  722   3.287   6.713   2.643  0.6832  0.1079 -0.6155
    2CHTO   O72  723   3.181   6.701   2.743 -0.4905  0.0565 -0.3374
    2CHTO  H199  724   3.097   6.681   2.707 -0.8371  1.4643 -0.3100
    2CHTO   O22  725   3.550   6.948   2.952 -0.0341  0.1498  0.8048
    2CHTO   C31  726   3.491   6.921   3.085  0.2270 -0.5527 -0.5106
    2CHTO   H59  727   3.446   7.018   3.115 -0.4678 -0.2176 -2.5361
    2CHTO   C29  728   3.372   6.823   3.089  0.2313 -0.4701  0.3599
    2CHTO   H57  729   3.399   6.734   3.030  0.1795 -1.4257  1.7516
    2CHTO   O21  730   3.259   6.875   3.024  0.2446  1.1683  0.0099
    2CHTO   H37  731   3.278   6.874   2.932 -1.0083 -2.5987 -0.2891
    2CHTO   C27  732   3.335   6.785   3.238 -0.8763  0.1798 -0.3581
    2CHTO   H55  733   3.283   6.871   3.283 -1.2617  0.7553 -1.8820
    2CHTO    N5  734   3.240   6.665   3.236  0.2383 -0.1216 -0.3280
    2CHTO   H43  735   3.268   6.592   3.310  1.0717 -0.4897 -1.0041
    2CHTO   H44  736   3.137   6.695   3.243  0.8557  2.7030 -2.4375
    2CHTO   C25  737   3.458   6.751   3.331 -0.7052  0.2415 -0.3746
    2CHTO   H53  738   3.508   6.668   3.279  1.0335  1.1409 -0.1653
    2CHTO   O17  739   3.555   6.864   3.322  0.0652 -0.2170 -0.0767
    2CHTO   C32  740   3.601   6.887   3.187  0.0391 -0.2463  0.0851
    2CHTO   H60  741   3.653   6.798   3.152 -0.1391 -0.1152 -0.5136
    2CHTO   C36  742   3.706   7.007   3.190  0.0052  0.0990 -0.2391
    2CHTO   O25  743   3.810   6.965   3.276  0.0839 -0.3920  0.1883
    2CHTO   H40  744   3.868   6.904   3.235  0.2204  0.3073 -0.6782
    2CHTO   O15  745   3.427   6.729   3.475 -0.1609 -0.2468 -0.0710
    2CHTO   C19  746   3.387   6.604   3.538 -0.3314 -0.0123  0.5888
    2CHTO   H47  747   3.284   6.598   3.501  0.6508 -0.6405 -2.1265
    2CHTO   C20  748   3.464   6.475   3.494  0.3045 -0.2893  0.2494
    2CHTO   H48  749   3.572   6.496   3.484  0.0232  1.5384  0.8728
    2CHTO   O19  750   3.413   6.432   3.369  0.2026  0.1006  0.0225
    2CHTO   H35  751   3.482   6.379   3.333 -0.6861  1.1036 -3.3418
    2CHTO   C21  752   3.453   6.353   3.588 -0.4565 -0.9010  0.5340
    2CHTO   H49  753   3.355   6.308   3.572 -0.0805 -1.3960 -0.4468
    2CHTO    N4  754   3.562   6.253   3.569 -0.7599  0.8902  0.1579
    2CHTO   H41  755   3.656   6.296   3.598 -0.6559 -0.3035  1.6562
    2CHTO   H42  756   3.564   6.219   3.467  1.6758  0.3498  0.3711
    2CHTO   C22  757   3.443   6.399   3.739  0.5223  0.7604  0.0784
    2CHTO   H50  758   3.535   6.450   3.769  1.2549 -0.9322  0.7326
    2CHTO   O14  759   3.332   6.496   3.744 -0.4791 -0.3694 -0.1754
    2CHTO   C23  760   3.374   6.622   3.692 -1.0587 -0.1490  0.7413
    2CHTO   H51  761   3.470   6.650   3.738 -0.6756 -0.7574  0.3175
    2CHTO   C34  762   3.262   6.717   3.735  0.0297 -0.1039  0.1346
    2CHTO   O23  763   3.245   6.735   3.880  0.1386  0.7022  0.4750
    2CHTO   H38  764   3.193   6.663   3.912  1.3459 -0.0760  0.6965
    2CHTO   O16  765   3.412   6.289   3.827  0.2447 -0.0592  0.7189
    2CHTO   C24  766   3.435   6.337   3.980 -0.0972 -0.0571 -0.6371
    2CHTO   H52  767   3.466   6.441   3.990 -0.4601 -0.1308  1.6290
    2CHTO   C26  768   3.545   6.246   4.033  0.3884  0.1312 -0.3182
    2CHTO   H54  769   3.504   6.142   4.032  0.0132  0.2760  0.0179
    2CHTO   O20  770   3.661   6.263   3.945 -0.1994 -0.3906  0.0207
    2CHTO   H36  771   3.737   6.246   3.998  0.0399 -1.1299 -0.5525
    2CHTO   C30  772   3.576   6.286   4.181 -0.7957 -0.0347 -0.7803
    2CHTO   H58  773   3.605   6.392   4.191 -0.8939  0.0718 -1.5552
    2CHTO    N6  774   3.701   6.209   4.229  0.2424 -0.1867 -0.6350
    2CHTO   H45  775   3.783   6.267   4.270 -1.1168  1.1641  0.2093
    2CHTO   H46  776   3.683   6.130   4.300 -1.1119  2.1194  1.6595
    2CHTO   C33  777   3.450   6.273   4.261  0.5479  0.6989  0.2221
    2CHTO   H61  778   3.410   6.171   4.262 -1.5528  1.4669 -1.2267
    2CHTO   O18  779   3.344   6.352   4.204 -0.0508  0.1162 -0.0766
    2CHTO   C28  780   3.306   6.316   4.067 -1.0576  0.7573 -1.2588
    2CHTO   H56  781   3.267   6.215   4.056  0.0643 -0.0149  1.2284
    2CHTO   C35  782   3.195   6.410   4.020  0.3766  0.3262 -0.4194
    2CHTO   O24  783   3.125   6.359   3.906 -1.2917 -0.5471 -0.2188
    2CHTO   H39  784   3.180   6.375   3.831 -0.5958 -2.8402 -0.2343
    2CHTO    O9  785   3.481   6.305   4.396  0.2120 -0.2818 -0.2995
    2CHTO   C13  786   3.398   6.427   4.467 -0.3094 -0.7950  0.2041
    2CHTO   H26  787   3.289   6.406   4.462 -0.8331  2.0457 -1.6355
    2CHTO   C11  788   3.436   6.571   4.410 -0.5474 -0.2057 -0.2289
    2CHTO   H24  789   3.398   6.581   4.307 -1.6336 -1.4146  0.0509
    2CHTO    O8  790   3.577   6.590   4.408  0.4959 -0.2047 -0.1596
    2CHTO    H3  791   3.623   6.560   4.333  0.5389 -3.1417  0.9885
    2CHTO    C9  792   3.356   6.674   4.489 -0.2440 -0.3636  0.1819
    2CHTO   H22  793   3.254   6.633   4.484 -0.2809 -0.2059 -0.3958
    2CHTO    N2  794   3.350   6.810   4.423 -0.1043  0.2932 -0.4610
    2CHTO   H10  795   3.288   6.815   4.334 -1.7529 -1.5510  0.5438
    2CHTO   H11  796   3.328   6.891   4.490  0.0824 -2.2564  2.8037
    2CHTO    C7  797   3.400   6.667   4.642 -0.1778  0.2271 -0.3508
    2CHTO   H20  798   3.310   6.668   4.708 -0.3433 -0.9120 -0.5498
    2CHTO    O4  799   3.478   6.549   4.672  0.5675  0.3816  0.2658
    2CHTO   C14  800   3.431   6.420   4.621  0.4018 -0.2301 -0.0168
    2CHTO   H27  801   3.338   6.395   4.676 -0.2326 -0.9353 -1.4111
    2CHTO   C18  802   3.533   6.310   4.665 -0.0483  0.3406 -0.0076
    2CHTO   O13  803   3.664   6.319   4.613 -0.5108 -0.0202  0.2975
    2CHTO    H7  804   3.721   6.262   4.661  1.7003  0.2264 -1.9629
    2CHTO    O2  805   3.489   6.782   4.669  0.0047 -0.3341 -0.0633
    2CHTO    C1  806   3.532   6.811   4.804 -0.9988  0.6203  0.1460
    2CHTO   H14  807   3.518   6.719   4.865 -0.4298  0.1347 -0.4482
    2CHTO    C2  808   3.439   6.928   4.861 -0.6372  0.2456  0.4302
    2CHTO   H15  809   3.423   6.986   4.769 -0.5312 -0.7635 -0.2403
    2CHTO    O6  810   3.311   6.892   4.907  0.7732  0.3686 -0.1440
    2CHTO    H1  811   3.283   6.813   4.863  1.6113 -1.7688  3.0168
    2CHTO    C3  812   3.515   7.019   4.969 -0.0839 -0.1043  0.3605
    2CHTO   H16  813   3.499   6.981   5.071  1.3527 -2.8425 -0.3848
    2CHTO    N1  814   3.441   7.156   4.977  0.1236 -0.8724  0.2447
    2CHTO    H8  815   3.515   7.234   4.965 -2.6017  1.9099  1.2215
    2CHTO    H9  816   3.386   7.177   5.067 -0.8020 -1.6541 -0.1299
    2CHTO    C4  817   3.668   7.030   4.944  0.0369  0.6379 -0.2887
    2CHTO   H17  818   3.678   7.093   4.856 -1.3548 -1.0304 -1.6891
    2CHTO    O1  819   3.723   6.905   4.912 -0.0399  0.0883 -0.4445
    2CHTO    C5  820   3.685   6.836   4.796  0.3197  0.7821 -0.4470
    2CHTO   H18  821   3.699   6.890   4.702 -0.5863 -0.7978 -1.5213
    2CHTO   C16  822   3.770   6.710   4.785 -0.0683 -0.4523  0.1659
    2CHTO   O11  823   3.756   6.629   4.664 -0.7566 -0.0733  0.4468
    2CHTO    H5  824   3.714   6.551   4.694 -3.5100  0.3532 -2.0647
    2CHTO    O3  825   3.739   7.071   5.062 -0.2881  0.3690 -0.4535
    2CHTO    C6  826   3.829   7.192   5.034 -0.0346  0.4978  0.5330
    2CHTO   H19  827   3.881   7.185   4.939 -0.2309  1.3783  0.3579
    2CHTO    C8  828   3.738   7.327   5.030 -0.6365 -0.5615  0.4349
    2CHTO   H21  829   3.656   7.318   5.102 -1.3282  2.4776  0.0851
    2CHTO    O7  830   3.685   7.324   4.898 -0.3666  0.2743 -0.0402
    2CHTO    H2  831   3.606   7.274   4.894  1.2588 -2.3287 -0.7055
    2CHTO   C12  832   3.825   7.457   5.051 -0.6297 -0.0908  0.0228
    2CHTO   H25  833   3.870   7.489   4.955 -1.0073  0.6258  0.0793
    2CHTO    N3  834   3.726   7.571   5.077 -0.3760  0.0905 -0.1101
    2CHTO   H12  835   3.673   7.550   5.168  0.3017 -0.6268  0.1249
    2CHTO   H13  836   3.782   7.658   5.109 -0.8153  0.1308  0.5458
    2CHTO   C15  837   3.938   7.430   5.157  0.3902  0.0580  0.0026
    2CHTO   H28  838   3.879   7.416   5.247 -0.8669 -2.4424 -1.1361
    2CHTO   O10  839   4.037   7.558   5.176 -0.2686  0.8581 -0.0311
    2CHTO    H4  840   4.090   7.568   5.100  0.3220 -1.0442  0.1268
    2CHTO    O5  841   4.018   7.321   5.129 -0.7409  0.2359  0.1689
    2CHTO   C10  842   3.946   7.196   5.145 -0.2136  0.2926 -0.2889
    2CHTO   H23  843   3.902   7.194   5.245 -0.5818 -0.8980 -0.4714
    2CHTO   C17  844   4.058   7.088   5.130 -0.1760  0.0851 -0.2143
    2CHTO   O12  845   3.997   6.958   5.151  0.7273  0.2607 -0.6953
    2CHTO    H6  846   3.985   6.914   5.069  1.2200  0.2165 -0.7418
    3CHTO  H203  847   8.330   0.922   1.165 -1.3913 -0.0683 -1.8770
    3CHTO   O82  848   8.275   0.981   1.214  0.0971 -0.2227  0.0191
    3CHTO  C123  849   8.173   0.908   1.285 -0.4503 -0.8438  0.1366
    3CHTO  H227  850   8.220   0.836   1.353  1.0376  1.0237  1.1405
    3CHTO   O77  851   8.124   1.025   1.370  0.5199 -0.0334  0.7056
    3CHTO  C118  852   8.029   0.983   1.461 -0.4430  0.0268  0.3326
    3CHTO  H222  853   8.075   0.905   1.524  3.1195  2.8030  1.3382
    3CHTO  C125  854   7.987   1.096   1.553 -1.0348 -0.1030  0.0096
    3CHTO   O84  855   8.083   1.111   1.663  0.1551 -0.6212 -0.6700
    3CHTO  H205  856   8.073   1.185   1.721 -0.2327 -2.0799  1.1585
    3CHTO  C114  857   7.904   0.930   1.384  0.1969  0.0769 -0.3595
    3CHTO  H218  858   7.860   1.013   1.329 -0.1244 -0.3747 -0.7873
    3CHTO  C116  859   7.943   0.816   1.280 -0.0332  0.7730 -0.3511
    3CHTO  H220  860   7.976   0.723   1.330 -0.6958 -0.7949 -2.7413
    3CHTO   O79  861   7.828   0.772   1.204 -0.1555  0.5422 -0.0117
    3CHTO  H201  862   7.764   0.718   1.246  1.6364 -1.3766  0.3287
    3CHTO  C120  863   8.061   0.870   1.193  0.0609  0.0007  0.2671
    3CHTO  H224  864   8.033   0.955   1.128 -1.5220  0.2553  1.2476
    3CHTO   N21  865   8.108   0.763   1.099  0.1132 -0.1286 -0.3305
    3CHTO  H211  866   8.168   0.803   1.019 -0.4322  1.2858 -0.0534
    3CHTO  H212  867   8.148   0.677   1.151  0.6338 -0.7615 -1.7529
    3CHTO   O75  868   7.820   0.889   1.486 -0.4042  0.2250 -0.9233
    3CHTO  C112  869   7.657   0.894   1.449  0.4843  0.1132  0.1145
    3CHTO  H216  870   7.645   0.873   1.341  1.4427  1.1329 -0.1938
    3CHTO   O73  871   7.614   1.024   1.484 -0.5682  0.0708  0.2051
    3CHTO  C113  872   7.481   1.045   1.448  0.1271  0.1230  0.1747
    3CHTO  H217  873   7.477   1.019   1.340 -0.5839 -0.5071  0.3492
    3CHTO  C124  874   7.457   1.195   1.462 -0.1901 -0.0875  0.3355
    3CHTO   O83  875   7.497   1.279   1.352 -0.0856  0.0811  0.1320
    3CHTO  H204  876   7.451   1.257   1.274  0.3985  1.2206 -0.4828
    3CHTO  C109  877   7.381   0.969   1.528  0.2680  0.0410 -0.5767
    3CHTO  H213  878   7.389   1.010   1.630  0.1735  0.3638 -0.6970
    3CHTO  C110  879   7.423   0.818   1.525 -0.2424  1.0121 -0.0405
    3CHTO  H214  880   7.377   0.778   1.435  1.8735 -1.4310 -0.0833
    3CHTO   O78  881   7.362   0.755   1.643 -0.6342 -0.3577 -0.1473
    3CHTO  H200  882   7.277   0.724   1.619 -1.3184  2.6748 -1.8810
    3CHTO  C111  883   7.575   0.789   1.538  0.5532  0.3128  0.0292
    3CHTO  H215  884   7.606   0.797   1.643 -2.4034 -1.4240  1.0821
    3CHTO   N19  885   7.612   0.655   1.492 -0.9482 -0.6611  0.1535
    3CHTO  H207  886   7.550   0.581   1.541 -0.7325 -0.6226  0.4848
    3CHTO  H208  887   7.715   0.624   1.493 -1.9440 -4.0957  2.0861
    3CHTO   O74  888   7.246   0.999   1.480 -0.0529  0.0228  0.0769
    3CHTO  C115  889   7.133   0.991   1.596 -0.1444 -0.5337  0.1851
    3CHTO  H219  890   7.173   0.934   1.680  2.4382  1.0887  0.1143
    3CHTO   O76  891   7.113   1.125   1.656  0.5492 -0.5829  0.0999
    3CHTO  C122  892   6.995   1.149   1.737 -0.4485 -0.0913  0.0068
    3CHTO  H226  893   6.994   1.257   1.751  0.6738 -0.1938  0.9601
    3CHTO  C126  894   7.019   1.095   1.877 -0.1983 -0.0978  0.6758
    3CHTO   O85  895   6.913   1.055   1.960 -0.0305 -0.3840  0.4725
    3CHTO  H206  896   6.933   0.970   1.995  4.1098  0.4211  0.3377
    3CHTO  C121  897   6.858   1.103   1.660  0.2638 -0.3254 -0.3606
    3CHTO  H225  898   6.770   1.108   1.727  0.1975 -0.6791 -0.4235
    3CHTO   O81  899   6.824   1.203   1.564 -0.1084 -0.3808  0.0225
    3CHTO  H202  900   6.759   1.167   1.507  0.6580 -0.2025 -0.9689
    3CHTO  C119  901   6.874   0.957   1.612  0.0518  0.3200  0.0968
    3CHTO  H223  902   6.883   0.906   1.707 -0.3737  0.3402  0.1481
    3CHTO  C117  903   7.001   0.928   1.537 -1.0771  0.3966 -0.3233
    3CHTO  H221  904   7.000   0.961   1.433  0.8834 -1.5359 -0.9738
    3CHTO   N20  905   7.021   0.780   1.531  0.1859  0.1056 -0.0836
    3CHTO  H209  906   6.941   0.740   1.469 -0.8996  1.9826  0.0683
    3CHTO  H210  907   6.999   0.743   1.630 -0.7327 -1.2555 -0.7767
    3CHTO   O80  908   6.734   0.889   1.544  0.5106 -0.0721 -0.1535
    3CHTO  C103  909   6.603   0.858   1.624 -0.1601 -0.0961  0.5892
    3CHTO  H190  910   6.618   0.895   1.725  1.0912  0.2875  0.2741
    3CHTO  C101  911   6.478   0.913   1.552  0.0884  0.1946 -0.0172
    3CHTO  H188  912   6.486   0.888   1.446 -0.6068 -0.1412  0.0080
    3CHTO   O68  913   6.474   1.069   1.568 -0.1050 -0.7533 -0.1515
    3CHTO  H168  914   6.557   1.098   1.535 -0.2948 -0.8092 -0.6760
    3CHTO   C99  915   6.346   0.854   1.606  0.0717 -0.6506  0.3649
    3CHTO  H186  916   6.341   0.885   1.712  1.2587 -1.4279  0.6541
    3CHTO   N17  917   6.218   0.900   1.542  0.2184 -0.1821  0.4332
    3CHTO  H174  918   6.209   1.007   1.547  2.5958  0.0933 -0.6981
    3CHTO  H175  919   6.130   0.850   1.581 -1.1930  3.2845  1.8772
    3CHTO   C97  920   6.359   0.698   1.606  0.2133  0.0920 -0.1240
    3CHTO  H184  921   6.360   0.650   1.507  1.1407 -1.0391  0.4280
    3CHTO   O64  922   6.471   0.651   1.685 -0.4734  0.4418  0.0972
    3CHTO  C104  923   6.595   0.696   1.628  0.0924 -0.0831 -0.2331
    3CHTO  H191  924   6.596   0.665   1.524  2.5006  0.0760 -0.2771
    3CHTO  C108  925   6.716   0.628   1.696 -0.7739  0.6570  0.8187
    3CHTO   O71  926   6.713   0.486   1.704  0.0197 -0.1216 -0.0364
    3CHTO  H171  927   6.731   0.456   1.617 -0.3654  0.8685 -0.4640
    3CHTO   O62  928   6.248   0.636   1.681 -0.0704 -0.2392 -0.0317
    3CHTO   C91  929   6.202   0.504   1.651 -0.6790  0.4151  0.2567
    3CHTO  H178  930   6.260   0.481   1.562  0.0349  0.1521  0.7906
    3CHTO   C92  931   6.046   0.523   1.617 -0.2774 -0.0250 -0.2360
    3CHTO  H179  932   5.989   0.567   1.700  0.7204 -0.9043  0.9275
    3CHTO   O66  933   6.033   0.603   1.498 -0.3365 -0.4971  0.5669
    3CHTO  H166  934   5.971   0.673   1.501  0.2497  0.0018  1.0631
    3CHTO   C93  935   5.978   0.383   1.592 -0.4337  0.2424  0.5354
    3CHTO  H180  936   6.012   0.346   1.494 -0.5015 -0.4880  0.7822
    3CHTO   N16  937   5.833   0.395   1.571 -0.2928 -0.2670 -0.6840
    3CHTO  H172  938   5.803   0.299   1.531  2.7196 -0.5235 -2.4542
    3CHTO  H173  939   5.787   0.424   1.664 -1.2343 -1.5885 -0.7137
    3CHTO   C94  940   6.010   0.276   1.707  0.4568  0.1987  0.3711
    3CHTO  H181  941   5.923   0.259   1.771 -0.8688  2.0426 -0.9065
    3CHTO   O61  942   6.105   0.323   1.806 -0.1783  0.3201  0.1364
    3CHTO   C95  943   6.225   0.390   1.757  1.2400  0.6054 -0.5362
    3CHTO  H182  944   6.279   0.429   1.843 -0.0387  0.4987  0.3147
    3CHTO  C106  945   6.326   0.288   1.707 -0.1708 -0.0815  0.3159
    3CHTO   O69  946   6.385   0.216   1.812 -0.0202  0.3273 -0.1943
    3CHTO  H169  947   6.380   0.123   1.800 -0.1202  0.3562 -0.3979
    3CHTO   O63  948   6.060   0.133   1.633 -0.2638 -0.5547 -0.8342
    3CHTO   C96  949   5.957  -0.003   1.670 -0.4888 -0.2660  0.2130
    3CHTO  H183  950   5.993  -0.081   1.602  0.5933  0.3381  0.0697
    3CHTO   C98  951   5.810   0.027   1.635 -0.1628  0.2291  0.1637
    3CHTO  H185  952   5.774   0.120   1.683 -1.8210  0.1358 -0.8576
    3CHTO   O67  953   5.805   0.046   1.492  0.0763 -0.1732 -0.7108
    3CHTO  H167  954   5.884   0.086   1.461 -0.1356 -0.4814 -1.6901
    3CHTO  C102  955   5.711  -0.097   1.668 -0.1873  0.1515  0.5908
    3CHTO  H189  956   5.724  -0.170   1.587  0.2136  0.7275  0.1348
    3CHTO   N18  957   5.567  -0.055   1.659 -0.4346 -0.5290  0.8249
    3CHTO  H176  958   5.554   0.044   1.699  0.4588  0.8772 -2.2832
    3CHTO  H177  959   5.531  -0.055   1.558 -0.3215 -0.2047  0.7852
    3CHTO  C105  960   5.749  -0.165   1.806 -0.2996 -0.3018 -0.0484
    3CHTO  H192  961   5.709  -0.103   1.886 -0.6164  0.0896 -0.5072
    3CHTO   O65  962   5.892  -0.178   1.822  0.1956  0.1813  0.6542
    3CHTO  C100  963   5.960  -0.052   1.819 -0.1294  0.0231  0.4056
    3CHTO  H187  964   5.913   0.025   1.882  1.4544 -0.0924  1.7576
    3CHTO  C107  965   6.103  -0.075   1.868  0.2135  0.2614  0.5147
    3CHTO   O70  966   6.112  -0.059   2.005  0.4162 -0.2168 -0.4852
    3CHTO  H170  967   6.108   0.031   2.031 -0.9802  0.1014 -1.7823
    3CHTO   O57  968   5.672  -0.307   1.809  0.0420 -0.3975 -0.6252
    3CHTO   C85  969   5.625  -0.377   1.920 -1.3009  0.0110  0.6468
    3CHTO  H157  970   5.617  -0.480   1.880 -0.8237  0.0150  0.5385
    3CHTO   C83  971   5.475  -0.329   1.938 -0.6165  0.0149 -0.3889
    3CHTO  H155  972   5.428  -0.362   1.846  0.3755 -1.1027 -0.5050
    3CHTO   O56  973   5.465  -0.187   1.932  0.3256 -0.0463  0.3371
    3CHTO  H135  974   5.514  -0.144   1.864 -1.9615  2.3121  0.0958
    3CHTO   C81  975   5.403  -0.393   2.060  0.0282 -0.1850 -0.4600
    3CHTO  H153  976   5.406  -0.501   2.049  0.9761 -0.1693 -0.3742
    3CHTO   N14  977   5.259  -0.366   2.065  0.2391 -0.6088 -0.6562
    3CHTO  H141  978   5.251  -0.265   2.098  1.2118 -0.7970  0.1985
    3CHTO  H142  979   5.208  -0.429   2.134 -0.2455  0.6220  0.1251
    3CHTO   C79  980   5.489  -0.353   2.190  0.2077  0.5306 -0.3007
    3CHTO  H151  981   5.435  -0.387   2.278 -1.0522  1.5733 -0.6575
    3CHTO   O52  982   5.628  -0.403   2.181 -0.2435  0.2977 -0.3316
    3CHTO   C86  983   5.702  -0.373   2.052 -0.1759  0.5619 -0.0376
    3CHTO  H158  984   5.725  -0.266   2.069  0.2251  0.4613  0.0647
    3CHTO   C90  985   5.833  -0.451   2.046 -0.0325 -0.1208 -0.1287
    3CHTO   O60  986   5.925  -0.407   2.153 -0.0598  0.0355 -0.3334
    3CHTO  H138  987   5.924  -0.467   2.225  0.2724  1.6104  0.9856
    3CHTO   O50  988   5.491  -0.211   2.208 -0.3075 -0.0255 -0.4133
    3CHTO   C73  989   5.504  -0.132   2.329  0.0777 -0.0245  0.5190
    3CHTO  H145  990   5.567  -0.188   2.399  0.4794 -2.2689 -1.5406
    3CHTO   C74  991   5.363  -0.111   2.385 -0.3139 -0.4838 -0.2443
    3CHTO  H146  992   5.318  -0.211   2.399  2.0699 -1.4096  1.1719
    3CHTO   O54  993   5.368  -0.050   2.516 -0.2170 -0.1011 -1.0261
    3CHTO  H133  994   5.411  -0.110   2.574  0.0141  1.3653  0.3728
    3CHTO   C75  995   5.281  -0.014   2.279  0.3047 -0.0935 -0.0338
    3CHTO  H147  996   5.255  -0.063   2.185  0.8042 -1.9423  0.7550
    3CHTO   N13  997   5.141   0.013   2.328 -0.2178  0.4807 -0.2855
    3CHTO  H139  998   5.082  -0.066   2.371 -2.4987  2.7631  0.9260
    3CHTO  H140  999   5.080   0.044   2.245 -1.1632  2.1217  0.9958
    3CHTO   C76 1000   5.371   0.116   2.240 -0.0918  0.3048  0.7614
    3CHTO  H148 1001   5.380   0.189   2.321 -0.2264  0.8194  0.3150
    3CHTO   O49 1002   5.507   0.082   2.198 -0.5069 -0.2592  0.0916
    3CHTO   C77 1003   5.573   0.004   2.297  0.2542  0.2608  0.4234
    3CHTO  H149 1004   5.580   0.064   2.387 -0.8215  2.0938 -0.6735
    3CHTO   C88 1005   5.715  -0.004   2.251  0.1459  0.0581 -0.5880
    3CHTO   O58 1006   5.792  -0.139   2.323  0.2805 -0.8610  0.5344
    3CHTO  H136 1007   5.881  -0.134   2.294 -0.4204  0.1495 -1.4771
    3CHTO   O51 1008   5.302   0.176   2.089 -0.2301  0.8114  0.1436
    3CHTO   C78 1009   5.346   0.319   2.069  0.1725  0.4651 -0.5772
    3CHTO  H150 1010   5.434   0.346   2.130  0.1149 -0.2882 -0.1526
    3CHTO   C80 1011   5.231   0.418   2.102  0.2816  0.1880  0.2214
    3CHTO  H152 1012   5.146   0.387   2.038  1.1086 -3.1638  0.6442
    3CHTO   O55 1013   5.195   0.394   2.240 -0.2299 -0.0866  0.4947
    3CHTO  H134 1014   5.118   0.340   2.241  0.7082 -1.4602 -0.2983
    3CHTO   C84 1015   5.269   0.562   2.075  0.1572  0.4684  0.0064
    3CHTO  H156 1016   5.354   0.581   2.140 -0.1178  0.1466  0.4602
    3CHTO   N15 1017   5.168   0.668   2.105  0.6182 -0.1656  1.0380
    3CHTO  H143 1018   5.083   0.650   2.042  1.1450  0.7482  0.0382
    3CHTO  H144 1019   5.206   0.761   2.068 -0.2661 -0.3899 -0.5190
    3CHTO   C87 1020   5.312   0.579   1.931  0.7378  0.0424  0.0806
    3CHTO  H159 1021   5.237   0.578   1.852 -0.6716 -0.4069  1.4045
    3CHTO   O53 1022   5.412   0.468   1.904 -0.4997  0.4943 -0.3809
    3CHTO   C82 1023   5.374   0.335   1.920  0.2265 -0.7781 -0.3186
    3CHTO  H154 1024   5.285   0.305   1.864  1.1786 -2.1386 -1.1499
    3CHTO   C89 1025   5.486   0.248   1.869  0.4615 -0.1728 -0.1420
    3CHTO   O59 1026   5.490   0.281   1.731 -0.1809  1.1601 -0.3133
    3CHTO  H137 1027   5.516   0.207   1.680  0.4477  1.1561  0.0096
    3CHTO   O45 1028   5.386   0.727   1.901  0.2271 -0.5349 -0.1017
    3CHTO   C67 1029   5.529   0.728   1.925  0.1914  0.2694 -0.7554
    3CHTO  H124 1030   5.552   0.640   1.984  1.1207  1.5090  0.7900
    3CHTO   C65 1031   5.617   0.735   1.790 -0.4367 -0.2307  0.3607
    3CHTO  H122 1032   5.564   0.780   1.707 -2.4533  0.8079  2.1502
    3CHTO   O44 1033   5.642   0.599   1.749  0.3005 -0.2823 -0.2747
    3CHTO  H102 1034   5.727   0.563   1.762 -0.2449 -0.9038  1.6729
    3CHTO   C63 1035   5.749   0.833   1.808 -0.6469 -0.0037  0.0682
    3CHTO  H120 1036   5.712   0.935   1.812  1.0269  0.7172 -1.9378
    3CHTO   N11 1037   5.836   0.844   1.692  0.4494  0.1859 -0.4438
    3CHTO  H108 1038   5.898   0.757   1.680 -1.5126 -1.2337 -0.5919
    3CHTO  H109 1039   5.893   0.933   1.677 -0.0861  0.3448 -1.5830
    3CHTO   C61 1040   5.810   0.801   1.951  0.0207 -0.0464 -0.3029
    3CHTO  H118 1041   5.882   0.883   1.965  2.0538 -1.9638  0.8817
    3CHTO   O40 1042   5.721   0.814   2.051 -0.2308  0.0099  0.0346
    3CHTO   C68 1043   5.580   0.840   2.023 -0.6909  0.4544 -0.6715
    3CHTO  H125 1044   5.572   0.937   1.970  0.3622  0.1761 -1.3607
    3CHTO   C72 1045   5.499   0.848   2.156  0.0760  0.1639  0.2332
    3CHTO   O48 1046   5.535   0.963   2.234 -0.6223  0.1486  0.4000
    3CHTO  H105 1047   5.463   1.023   2.241  0.2495  1.3263 -0.5462
    3CHTO   O38 1048   5.868   0.670   1.954 -0.0915 -0.0269  0.2166
    3CHTO   C55 1049   5.974   0.646   2.046  0.2564 -0.5456 -0.0595
    3CHTO  H112 1050   5.959   0.714   2.130 -1.8187  1.9144 -2.3432
    3CHTO   C56 1051   6.114   0.666   1.981  0.3634  0.2368  0.4919
    3CHTO  H113 1052   6.111   0.606   1.889  0.8264  0.9773 -0.0123
    3CHTO   O42 1053   6.134   0.800   1.917  0.4185  0.2338  0.2810
    3CHTO  H100 1054   6.226   0.818   1.919  0.5768 -0.6662  1.9323
    3CHTO   C57 1055   6.226   0.630   2.087 -0.1815  0.2466 -0.4341
    3CHTO  H114 1056   6.215   0.696   2.173 -0.3378 -0.7246  0.2917
    3CHTO   N10 1057   6.365   0.630   2.027 -0.0435 -0.3444  0.0317
    3CHTO  H106 1058   6.381   0.532   1.984 -0.2786  0.0147 -0.8784
    3CHTO  H107 1059   6.440   0.649   2.102  0.8756 -0.7748 -0.7638
    3CHTO   C58 1060   6.192   0.488   2.139  0.0706  0.7561  0.0570
    3CHTO  H115 1061   6.204   0.419   2.054  2.2985 -0.4787  1.3112
    3CHTO   O37 1062   6.067   0.478   2.201 -0.0464 -0.2771 -0.2428
    3CHTO   C59 1063   5.962   0.499   2.102 -0.0863  0.0567 -0.0926
    3CHTO  H116 1064   5.964   0.430   2.018 -0.4041 -1.2788  0.9874
    3CHTO   C70 1065   5.821   0.489   2.164  0.4723  0.2199 -0.5107
    3CHTO   O46 1066   5.789   0.351   2.200  0.0385 -0.5421  0.1403
    3CHTO  H103 1067   5.699   0.358   2.226  0.1335 -1.2717  0.6790
    3CHTO   O39 1068   6.292   0.435   2.263 -0.4326 -0.0184 -0.1695
    3CHTO   C60 1069   6.388   0.333   2.218  0.0135 -0.5864 -0.3954
    3CHTO  H117 1070   6.380   0.315   2.111  0.8534  1.5908 -0.8504
    3CHTO   C62 1071   6.537   0.389   2.244  0.1306 -0.2545 -0.5858
    3CHTO  H119 1072   6.545   0.481   2.182  0.6241  0.1339  0.0435
    3CHTO   O43 1073   6.565   0.412   2.380 -0.0227 -0.0388  0.3704
    3CHTO  H101 1074   6.516   0.483   2.416  0.5340  0.4108  0.2436
    3CHTO   C66 1075   6.643   0.287   2.175 -0.3029 -0.0801  0.5797
    3CHTO  H123 1076   6.626   0.288   2.068  3.8021 -0.9368 -0.1693
    3CHTO   N12 1077   6.778   0.343   2.182 -0.2078 -0.1249 -0.5760
    3CHTO  H110 1078   6.852   0.266   2.169  0.8205  1.0793 -2.0097
    3CHTO  H111 1079   6.788   0.393   2.278 -0.0834  1.2181 -1.2700
    3CHTO   C69 1080   6.614   0.143   2.233 -0.4285 -0.1886 -0.3611
    3CHTO  H126 1081   6.646   0.145   2.339  0.2190  1.8406 -0.5753
    3CHTO   O41 1082   6.464   0.092   2.233  0.4167  0.4693 -0.1491
    3CHTO   C64 1083   6.362   0.201   2.286 -0.5821  0.2361 -0.4266
    3CHTO  H121 1084   6.375   0.215   2.395 -0.4360 -2.3959 -0.0584
    3CHTO   C71 1085   6.216   0.159   2.249  0.3760 -0.3929 -0.2040
    3CHTO   O47 1086   6.179   0.033   2.304  0.3966  0.0536  0.1017
    3CHTO  H104 1087   6.242  -0.030   2.274 -0.0668  0.3779 -1.6241
    3CHTO   O34 1088   6.685   0.030   2.150 -0.1240 -0.5400  0.1478
    3CHTO   C49 1089   6.727  -0.099   2.060 -0.1461 -0.0098  1.0910
    3CHTO   H91 1090   6.780  -0.057   1.975  0.9340  0.2092  1.8698
    3CHTO   C47 1091   6.597  -0.175   2.002  0.3939  0.0750 -0.8633
    3CHTO   H89 1092   6.579  -0.124   1.905 -0.5485  0.0823 -0.6930
    3CHTO   O33 1093   6.479  -0.159   2.081 -0.1744 -0.4411  0.1197
    3CHTO   H70 1094   6.480  -0.096   2.151 -0.1828 -0.6936  0.3471
    3CHTO   C45 1095   6.629  -0.332   1.973 -0.0175  0.1351 -0.4399
    3CHTO   H87 1096   6.616  -0.390   2.066 -2.0212  1.0081 -0.1461
    3CHTO    N8 1097   6.534  -0.380   1.870 -0.1130  0.5349 -1.6573
    3CHTO   H75 1098   6.565  -0.346   1.773  0.4555  0.8183 -1.3816
    3CHTO   H76 1099   6.526  -0.488   1.875 -0.5826  0.5282 -2.4765
    3CHTO   C43 1100   6.786  -0.349   1.952 -0.0366  0.6571 -0.0739
    3CHTO   H85 1101   6.805  -0.449   1.912 -1.1436  1.0912 -1.7227
    3CHTO   O29 1102   6.850  -0.325   2.078 -0.5107  0.1951  0.4433
    3CHTO   C50 1103   6.817  -0.200   2.145  0.1690  0.0637  0.0252
    3CHTO   H92 1104   6.760  -0.222   2.236  0.1905 -0.4547 -0.0878
    3CHTO   C54 1105   6.940  -0.114   2.188 -0.4006 -0.0491 -0.2975
    3CHTO   O36 1106   7.034  -0.178   2.283  0.0380  0.4729 -0.3133
    3CHTO   H72 1107   7.106  -0.123   2.307  0.1187 -0.2966  1.2432
    3CHTO   O27 1108   6.822  -0.257   1.845  0.2441 -0.0032 -0.0188
    3CHTO   C37 1109   6.946  -0.194   1.803 -0.7782 -0.1972  0.9741
    3CHTO   H79 1110   6.989  -0.128   1.880 -2.1573  0.6537  1.0330
    3CHTO   C38 1111   7.057  -0.295   1.779  0.3557 -0.6778 -0.3996
    3CHTO   H80 1112   7.026  -0.361   1.697  1.4458  0.8107 -2.0606
    3CHTO   O31 1113   7.085  -0.356   1.906 -0.3792  0.3122 -0.6518
    3CHTO   H68 1114   7.065  -0.447   1.890  0.4463 -0.2291  1.2282
    3CHTO   C39 1115   7.191  -0.227   1.727 -0.5226 -0.1899 -0.2678
    3CHTO   H81 1116   7.220  -0.165   1.812  1.3229 -2.3457  0.7287
    3CHTO    N7 1117   7.309  -0.317   1.705  0.0360  0.5861 -0.2409
    3CHTO   H73 1118   7.272  -0.419   1.709 -2.0993  1.3918  1.4575
    3CHTO   H74 1119   7.371  -0.289   1.622 -0.3796  0.7893 -0.4829
    3CHTO   C40 1120   7.150  -0.138   1.600  0.1990 -0.4072  0.1838
    3CHTO   H82 1121   7.121  -0.203   1.518  3.4726 -1.3767 -0.2587
    3CHTO   O26 1122   7.047  -0.043   1.635  0.2402  0.3203  0.2743
    3CHTO   C41 1123   6.921  -0.107   1.671 -0.3399 -0.3365 -0.2530
    3CHTO   H83 1124   6.899  -0.166   1.580 -0.4840 -1.0058  0.2131
    3CHTO   C52 1125   6.824   0.007   1.682  0.4437  0.4006 -0.1736
    3CHTO   O35 1126   6.695  -0.039   1.664 -0.1882 -0.6657 -0.0969
    3CHTO   H71 1127   6.638   0.008   1.723  3.4234 -0.5291  3.5158
    3CHTO   O28 1128   7.268  -0.062   1.574 -0.3507 -0.1588 -0.3504
    3CHTO   C42 1129   7.269   0.074   1.511  0.0766  0.4313 -0.3989
    3CHTO   H84 1130   7.374   0.084   1.482 -0.0395  0.3295 -0.8526
    3CHTO   C44 1131   7.236   0.195   1.605  0.1586 -0.4008 -0.8593
    3CHTO   H86 1132   7.147   0.167   1.662 -0.2680  1.7569 -0.4258
    3CHTO   O32 1133   7.353   0.209   1.693  0.3903  0.2118  0.6046
    3CHTO   H69 1134   7.319   0.242   1.774 -0.4073  2.6263 -0.6802
    3CHTO   C48 1135   7.203   0.327   1.533  0.3424  0.7325  0.9091
    3CHTO   H90 1136   7.296   0.370   1.496  0.4083 -0.1249  0.0549
    3CHTO    N9 1137   7.146   0.427   1.635 -0.1454  0.3816  0.0240
    3CHTO   H77 1138   7.040   0.442   1.618 -0.2965 -2.5018 -2.0924
    3CHTO   H78 1139   7.191   0.525   1.628 -0.3320  0.3843 -1.2894
    3CHTO   C51 1140   7.105   0.303   1.413  0.1061  0.5079 -0.5367
    3CHTO   H93 1141   7.016   0.255   1.453 -0.0668  1.4075  0.1961
    3CHTO   O30 1142   7.170   0.223   1.315  0.1977  0.0608 -0.3378
    3CHTO   C46 1143   7.187   0.084   1.373  0.8288  0.2631  0.1757
    3CHTO   H88 1144   7.086   0.053   1.399  0.7673  1.6583  1.6812
    3CHTO   C53 1145   7.257  -0.007   1.264  0.2210  0.1772 -0.0852
    3CHTO   O72 1146   7.277  -0.146   1.293  0.5062  0.1269  0.1262
    3CHTO  H199 1147   7.332  -0.152   1.369  1.8416  0.3071 -0.8049
    3CHTO   O22 1148   7.065   0.424   1.344 -0.0209  0.3523  0.4962
    3CHTO   C31 1149   6.970   0.451   1.235 -0.2353 -0.8054 -0.0766
    3CHTO   H59 1150   6.943   0.351   1.195 -2.3784  0.1561 -1.1142
    3CHTO   C29 1151   6.841   0.513   1.287  0.1619  0.1819 -0.4019
    3CHTO   H57 1152   6.866   0.614   1.323  0.8210 -0.4187  0.8660
    3CHTO   O21 1153   6.791   0.443   1.405 -0.1644 -0.3220  0.5036
    3CHTO   H37 1154   6.774   0.506   1.471  1.6104  2.0058 -1.1826
    3CHTO   C27 1155   6.742   0.512   1.168  0.1437  0.1952  0.4340
    3CHTO   H55 1156   6.723   0.408   1.138  0.1942  0.2880  0.0883
    3CHTO    N5 1157   6.606   0.568   1.200 -0.8462  0.2562 -0.3468
    3CHTO   H43 1158   6.574   0.508   1.284  0.3148 -0.1257 -0.1632
    3CHTO   H44 1159   6.614   0.673   1.225  2.0181 -0.0456  0.1773
    3CHTO   C25 1160   6.809   0.585   1.048  0.6007 -0.6617 -0.3873
    3CHTO   H53 1161   6.810   0.692   1.073 -1.0173 -0.8178  0.4092
    3CHTO   O17 1162   6.936   0.531   1.015 -0.8931  0.3926  0.0504
    3CHTO   C32 1163   7.030   0.532   1.124  0.2616 -0.0191  0.5106
    3CHTO   H60 1164   7.052   0.635   1.153 -0.5929 -0.1030  1.4784
    3CHTO   C36 1165   7.153   0.471   1.070 -0.0162  0.5152 -0.7447
    3CHTO   O25 1166   7.271   0.512   1.142 -0.0339  0.1319  0.1304
    3CHTO   H40 1167   7.324   0.583   1.112  2.8280 -1.7436  0.5264
    3CHTO   O15 1168   6.715   0.561   0.919 -0.3042 -0.1347  0.3511
    3CHTO   C19 1169   6.670   0.660   0.811 -0.1375  0.7376  0.3142
    3CHTO   H47 1170   6.611   0.600   0.740 -0.2416  0.0938  0.9377
    3CHTO   C20 1171   6.590   0.784   0.871 -0.6737  0.1368  0.5454
    3CHTO   H48 1172   6.646   0.829   0.953  0.7920 -1.8657  0.6679
    3CHTO   O19 1173   6.471   0.729   0.922  0.1581 -0.1903 -0.4894
    3CHTO   H35 1174   6.419   0.687   0.856 -0.7801 -0.1817  0.2202
    3CHTO   C21 1175   6.565   0.897   0.759  0.6392  0.0072 -0.6517
    3CHTO   H49 1176   6.492   0.859   0.687 -0.3660 -0.9415  0.8261
    3CHTO    N4 1177   6.516   1.023   0.828  0.3646  0.0673 -0.3869
    3CHTO   H41 1178   6.599   1.057   0.888  1.4505  0.1120 -1.8932
    3CHTO   H42 1179   6.440   0.986   0.896  2.0498  1.7510  2.5442
    3CHTO   C22 1180   6.697   0.921   0.682  0.2706 -0.2618 -0.2482
    3CHTO   H50 1181   6.761   0.966   0.757  0.1828  2.1969 -1.5892
    3CHTO   O14 1182   6.757   0.798   0.629 -0.0233  0.0504 -0.3718
    3CHTO   C23 1183   6.787   0.708   0.736  0.0189  0.2864 -0.7077
    3CHTO   H51 1184   6.860   0.760   0.799 -2.4345  1.4440  1.2905
    3CHTO   C34 1185   6.862   0.587   0.684 -0.1487 -0.3003 -0.4662
    3CHTO   O23 1186   7.002   0.601   0.677 -0.0657 -0.6078 -0.1339
    3CHTO   H38 1187   7.029   0.614   0.588  0.5407 -0.1618  0.1126
    3CHTO   O16 1188   6.674   1.013   0.573  0.0408  0.0539 -0.0264
    3CHTO   C24 1189   6.790   1.116   0.551  0.3449 -0.0485  0.6397
    3CHTO   H52 1190   6.864   1.111   0.631  2.6710 -1.8366 -1.5732
    3CHTO   C26 1191   6.734   1.260   0.540 -0.4953  0.9058  0.6209
    3CHTO   H54 1192   6.655   1.261   0.462  1.5182 -0.3165 -1.4908
    3CHTO   O20 1193   6.682   1.294   0.670 -0.0910 -0.4863 -0.9023
    3CHTO   H36 1194   6.748   1.286   0.737  2.5649  0.6028 -3.3005
    3CHTO   C30 1195   6.843   1.363   0.498 -0.7566 -0.1114  0.0291
    3CHTO   H58 1196   6.918   1.382   0.577 -0.7944 -1.1161  0.3160
    3CHTO    N6 1197   6.768   1.491   0.483 -0.5172  0.1192 -0.3166
    3CHTO   H45 1198   6.833   1.571   0.517 -0.0325 -0.7915  0.9337
    3CHTO   H46 1199   6.739   1.510   0.381 -1.1277  1.7434  0.1390
    3CHTO   C33 1200   6.917   1.320   0.372 -0.9809 -0.1967 -0.3228
    3CHTO   H61 1201   6.838   1.327   0.295 -0.3600  0.5811 -0.9100
    3CHTO   O18 1202   6.963   1.184   0.379 -0.1187  0.0193  0.0158
    3CHTO   C28 1203   6.866   1.086   0.418 -0.1222  0.5333 -0.5363
    3CHTO   H56 1204   6.793   1.074   0.338 -1.8275  0.3693  1.0329
    3CHTO   C35 1205   6.935   0.943   0.418 -0.0807  0.1483  0.3799
    3CHTO   O24 1206   7.033   0.927   0.522 -0.1126 -0.8978 -0.0949
    3CHTO   H39 1207   7.048   0.838   0.547  1.0109 -0.9282 -0.8754
    3CHTO    O9 1208   7.022   1.411   0.325 -0.0159 -0.6608  0.6277
    3CHTO   C13 1209   7.145   1.422   0.426 -0.0924  0.2567 -0.1828
    3CHTO   H26 1210   7.123   1.357   0.514 -1.8989  0.2015 -0.6584
    3CHTO   C11 1211   7.179   1.568   0.464 -0.8684  0.6405 -0.6966
    3CHTO   H24 1212   7.091   1.617   0.509 -2.0769 -1.9149 -0.1715
    3CHTO    O8 1213   7.205   1.630   0.344 -0.0199  0.3657 -0.2355
    3CHTO    H3 1214   7.152   1.702   0.315  0.1895  0.6842  0.1739
    3CHTO    C9 1215   7.305   1.560   0.557 -0.6287  0.1942  0.0378
    3CHTO   H22 1216   7.273   1.513   0.651 -4.3596  0.4676 -1.0061
    3CHTO    N2 1217   7.346   1.694   0.610 -0.3616 -0.0136  1.0607
    3CHTO   H10 1218   7.427   1.683   0.679  1.1357 -1.7873 -0.9044
    3CHTO   H11 1219   7.260   1.731   0.664 -0.8865 -3.4817  2.7457
    3CHTO    C7 1220   7.425   1.471   0.495  0.3377 -0.0353  0.2016
    3CHTO   H20 1221   7.430   1.381   0.559  0.9581 -0.1837 -0.0566
    3CHTO    O4 1222   7.395   1.428   0.359 -0.7212 -0.6676  0.1041
    3CHTO   C14 1223   7.274   1.355   0.354 -0.3898 -0.3970 -0.1206
    3CHTO   H27 1224   7.303   1.265   0.412 -0.7593 -1.5316 -1.6785
    3CHTO   C18 1225   7.256   1.313   0.208 -0.4861 -0.3990 -0.7305
    3CHTO   O13 1226   7.367   1.229   0.171  0.2905  0.5183  0.3191
    3CHTO    H7 1227   7.386   1.168   0.239  1.6174  1.6680  1.0163
    3CHTO    O2 1228   7.574   1.557   0.488  0.0216 -0.1225  0.2005
    3CHTO    C1 1229   7.671   1.465   0.450  0.0317 -0.0856  0.3158
    3CHTO   H14 1230   7.620   1.379   0.403 -2.7803  0.3808  2.3921
    3CHTO    C2 1231   7.769   1.412   0.552  0.3240  0.4321 -0.7188
    3CHTO   H15 1232   7.821   1.502   0.590  1.5243 -0.8214  0.6436
    3CHTO    O6 1233   7.696   1.340   0.651 -0.0879 -0.3452 -0.4056
    3CHTO    H1 1234   7.746   1.265   0.678  1.9827  1.1855  0.1620
    3CHTO    C3 1235   7.877   1.319   0.490  0.2251 -0.7689 -0.0542
    3CHTO   H16 1236   7.827   1.232   0.445  2.1442 -2.4651  0.9768
    3CHTO    N1 1237   7.977   1.261   0.589 -0.3575 -0.2078 -0.0313
    3CHTO    H8 1238   7.938   1.187   0.657 -0.4493  1.6173  1.9920
    3CHTO    H9 1239   8.005   1.347   0.648  0.8502 -0.7896  0.2560
    3CHTO    C4 1240   7.941   1.394   0.366  0.0819 -0.6844 -0.3104
    3CHTO   H17 1241   8.013   1.470   0.398 -1.7423  1.8054 -1.8776
    3CHTO    O1 1242   7.837   1.452   0.280  0.1517  0.0356 -0.2179
    3CHTO    C5 1243   7.745   1.541   0.340 -0.6682 -0.1808  0.1918
    3CHTO   H18 1244   7.793   1.631   0.378 -1.1574  0.7531 -1.3554
    3CHTO   C16 1245   7.657   1.591   0.227 -0.8962  0.2743  0.6942
    3CHTO   O11 1246   7.559   1.683   0.266  0.3468  0.3391 -0.3725
    3CHTO    H5 1247   7.514   1.721   0.194 -1.5931  2.8262  2.0555
    3CHTO    O3 1248   8.008   1.298   0.278  0.0384 -0.7111  0.0231
    3CHTO    C6 1249   8.100   1.358   0.189  0.2008 -0.7612  0.4443
    3CHTO   H19 1250   8.077   1.460   0.159  1.6706  0.1125  2.2345
    3CHTO    C8 1251   8.249   1.354   0.251  0.2360  0.4758 -0.5684
    3CHTO   H21 1252   8.271   1.248   0.260 -1.4510 -0.0368 -2.2162
    3CHTO    O7 1253   8.236   1.420   0.380 -0.0075  0.3400 -0.3099
    3CHTO    H2 1254   8.175   1.490   0.376 -0.2772  0.3158  2.4029
    3CHTO   C12 1255   8.343   1.434   0.149 -0.0366 -0.0005  0.1436
    3CHTO   H25 1256   8.300   1.536   0.149 -1.0472 -0.3931  2.4000
    3CHTO    N3 1257   8.492   1.444   0.199 -0.4639 -0.2727 -0.2016
    3CHTO   H12 1258   8.530   1.544   0.191 -2.0787  0.6604  2.8003
    3CHTO   H13 1259   8.499   1.421   0.304  1.9101  1.7953  0.1326
    3CHTO   C15 1260   8.332   1.367   0.010 -0.3446 -0.6642 -0.1098
    3CHTO   H28 1261   8.388   1.274   0.017  1.3320  0.3868  0.7802
    3CHTO   O10 1262   8.405   1.463  -0.105  0.4269  0.0738 -0.1421
    3CHTO    H4 1263   8.352   1.478  -0.181 -0.6297  0.1889  0.6199
    3CHTO    O5 1264   8.195   1.344  -0.034 -0.3910  0.0519  0.3749
    3CHTO   C10 1265   8.112   1.273   0.063  0.5191  0.1247 -0.2540
    3CHTO   H23 1266   8.157   1.175   0.081  0.1322  0.4302  2.5955
    3CHTO   C17 1267   7.975   1.249  -0.005  0.1199 -0.0066 -0.1953
    3CHTO   O12 1268   7.990   1.161  -0.114  0.0156 -0.1025 -0.4121
    3CHTO    H6 1269   8.064   1.182  -0.168 -1.1722  1.2772 -1.5596
    4CHTO  H203 1270   6.447   7.142   2.168  0.1625 -0.4160 -0.1831
    4CHTO   O82 1271   6.405   7.148   2.252  0.4296 -0.1773 -0.0666
    4CHTO  C123 1272   6.387   7.280   2.311 -0.3828  0.4799 -0.0463
    4CHTO  H227 1273   6.322   7.278   2.400 -0.1042  0.1079  0.1506
    4CHTO   O77 1274   6.533   7.320   2.330 -0.5918 -0.1847  0.6100
    4CHTO  C118 1275   6.551   7.449   2.386 -0.5073  0.2071 -0.1177
    4CHTO  H222 1276   6.496   7.454   2.481 -0.3342 -0.3814  0.0178
    4CHTO  C125 1277   6.705   7.471   2.407  0.1001 -0.6772  0.3167
    4CHTO   O84 1278   6.754   7.363   2.484  0.2706 -0.4848  0.2380
    4CHTO  H205 1279   6.820   7.400   2.539  0.2140  1.1893 -0.7991
    4CHTO  C114 1280   6.491   7.563   2.302  0.1297  0.3288 -0.1448
    4CHTO  H218 1281   6.546   7.566   2.208  0.4329  1.2232  0.0495
    4CHTO  C116 1282   6.340   7.522   2.259  0.3192 -0.8518  0.3597
    4CHTO  H220 1283   6.280   7.530   2.352 -0.8207  2.2673 -0.5613
    4CHTO   O79 1284   6.297   7.609   2.159 -0.6505 -0.1397  0.1338
    4CHTO  H201 1285   6.205   7.610   2.141 -0.7155 -1.1423  0.4010
    4CHTO  C120 1286   6.325   7.379   2.205 -0.1548  0.3969  0.5034
    4CHTO  H224 1287   6.385   7.384   2.111 -1.6471  0.4651 -0.4708
    4CHTO   N21 1288   6.188   7.327   2.177  0.4133  0.0524 -0.0722
    4CHTO  H211 1289   6.116   7.408   2.174 -0.1545 -0.4256  0.3357
    4CHTO  H212 1290   6.177   7.273   2.084  0.1241 -0.2680  0.1454
    4CHTO   O75 1291   6.497   7.684   2.387 -0.6939  0.0523  0.0196
    4CHTO  C112 1292   6.518   7.804   2.294  0.2365  0.0918  0.1752
    4CHTO  H216 1293   6.479   7.775   2.195  0.5289  0.2266  0.0205
    4CHTO   O73 1294   6.657   7.830   2.286 -0.5857  0.3527 -0.0153
    4CHTO  C113 1295   6.699   7.940   2.204 -0.2434  0.5268 -0.7544
    4CHTO  H217 1296   6.654   7.918   2.104 -0.9785 -2.3896  0.1734
    4CHTO  C124 1297   6.852   7.941   2.217  0.1961  0.1535 -0.9890
    4CHTO   O83 1298   6.923   7.993   2.106 -0.5159  0.2759 -0.5358
    4CHTO  H204 1299   7.007   7.954   2.092  1.7681  3.8514  2.3564
    4CHTO  C109 1300   6.638   8.074   2.264  0.1834 -0.1787 -0.1423
    4CHTO  H213 1301   6.680   8.083   2.365 -1.7437 -0.6750  0.7115
    4CHTO  C110 1302   6.487   8.062   2.277 -0.2141  0.0444  0.0949
    4CHTO  H214 1303   6.442   8.068   2.177  2.3628  3.7558 -0.9694
    4CHTO   O78 1304   6.431   8.172   2.349  0.2978  0.1346 -0.8829
    4CHTO  H200 1305   6.345   8.190   2.318  0.3845  0.9718 -0.6505
    4CHTO  C111 1306   6.444   7.929   2.347 -0.3124  0.6291 -0.5868
    4CHTO  H215 1307   6.461   7.937   2.455  2.8528 -0.9845 -0.9029
    4CHTO   N19 1308   6.301   7.906   2.329  0.9462  0.3748 -0.2023
    4CHTO  H207 1309   6.261   7.905   2.228 -2.6377 -1.7124  1.1354
    4CHTO  H208 1310   6.262   7.819   2.379 -0.7112  1.3080  0.2075
    4CHTO   O74 1311   6.691   8.183   2.176  0.1689  0.1096 -0.1189
    4CHTO  C115 1312   6.693   8.326   2.253 -0.1558 -0.2541 -0.0429
    4CHTO  H219 1313   6.609   8.342   2.321  0.0499 -2.5694  0.7995
    4CHTO   O76 1314   6.824   8.348   2.344 -0.1591 -0.4501 -0.1257
    4CHTO  C122 1315   6.943   8.332   2.263 -0.6483 -0.2308 -0.3314
    4CHTO  H226 1316   6.949   8.223   2.257 -1.2175 -0.4847  2.5052
    4CHTO  C126 1317   7.060   8.372   2.355  0.3266  0.3476 -0.0093
    4CHTO   O85 1318   7.083   8.287   2.466  0.2870  0.5424 -0.0075
    4CHTO  H206 1319   7.055   8.333   2.543 -0.1071 -0.8606  0.6976
    4CHTO  C121 1320   6.941   8.403   2.127  0.2646  1.0103 -0.0582
    4CHTO  H225 1321   7.035   8.463   2.120  0.8588  0.0647 -0.3039
    4CHTO   O81 1322   6.939   8.312   2.020 -0.8864  0.5131 -0.3736
    4CHTO  H202 1323   7.014   8.255   2.020 -0.2810  1.3133  0.1308
    4CHTO  C119 1324   6.818   8.505   2.115 -0.1807  0.0015 -0.0515
    4CHTO  H223 1325   6.830   8.582   2.192 -1.1785  0.0008  0.1106
    4CHTO  C117 1326   6.677   8.434   2.136 -0.2640  0.4900  0.1092
    4CHTO  H221 1327   6.636   8.381   2.050  0.5879 -0.2641  0.1549
    4CHTO   N20 1328   6.572   8.528   2.165  0.0473  0.1351  0.0826
    4CHTO  H209 1329   6.534   8.576   2.077 -4.6994 -0.7349  1.5253
    4CHTO  H210 1330   6.489   8.477   2.211  1.8364 -1.7557  1.2708
    4CHTO   O80 1331   6.837   8.609   1.977 -0.2439 -0.3623  0.3797
    4CHTO  C103 1332   6.855   8.758   1.991  0.0044 -0.3801 -0.7204
    4CHTO  H190 1333   6.806   8.804   2.077 -1.2426 -0.7783 -1.2012
    4CHTO  C101 1334   7.003   8.804   1.977  0.0418 -0.7984  0.4958
    4CHTO  H188 1335   7.037   8.777   1.877 -0.4890 -1.6187  0.5264
    4CHTO   O68 1336   7.094   8.736   2.093  0.4397 -0.5078 -0.1160
    4CHTO  H168 1337   7.123   8.805   2.150  1.6330  0.3304 -1.7072
    4CHTO   C99 1338   7.009   8.969   1.977  0.1596  0.1893  0.5609
    4CHTO  H186 1339   6.956   9.006   2.067  0.3883  2.7169 -0.2910
    4CHTO   N17 1340   7.144   9.037   1.990 -0.5535 -0.7422 -0.0070
    4CHTO  H174 1341   7.176   9.061   1.890 -0.6243  0.1165  0.1711
    4CHTO  H175 1342   7.217   8.979   2.044  0.2845  1.4602  1.2788
    4CHTO   C97 1343   6.927   9.019   1.855  0.0405 -0.2922 -0.0742
    4CHTO  H184 1344   6.973   9.002   1.756  2.4594 -0.4221  1.0369
    4CHTO   O64 1345   6.792   8.964   1.866 -0.0528 -0.3480 -0.3166
    4CHTO  C104 1346   6.778   8.822   1.863 -0.2936  0.3842 -0.1374
    4CHTO  H191 1347   6.815   8.771   1.773 -0.1608 -3.7198  2.0955
    4CHTO  C108 1348   6.625   8.802   1.870  0.2632  0.0218 -0.0749
    4CHTO   O71 1349   6.555   8.883   1.779  0.6418  0.5884 -0.5350
    4CHTO  H171 1350   6.542   8.967   1.819  2.0573  1.6688 -2.2797
    4CHTO   O62 1351   6.891   9.162   1.858 -0.1773  0.1442  0.8422
    4CHTO   C91 1352   6.850   9.213   1.728 -0.2250 -0.5351 -0.0215
    4CHTO  H178 1353   6.833   9.134   1.655 -2.2214 -1.5109  1.4620
    4CHTO   C92 1354   6.965   9.292   1.666 -0.3403  0.7067  0.0178
    4CHTO  H179 1355   6.982   9.376   1.735  0.8701  0.2408  0.3004
    4CHTO   O66 1356   7.084   9.209   1.659 -0.2125 -0.5922 -0.4370
    4CHTO  H166 1357   7.143   9.239   1.726 -1.8000  3.0664 -0.5353
    4CHTO   C93 1358   6.926   9.356   1.527 -0.0217  0.3578  0.3574
    4CHTO  H180 1359   6.912   9.276   1.452 -3.2242  1.0224  0.1465
    4CHTO   N16 1360   7.031   9.441   1.473 -0.4008  0.1891  0.0332
    4CHTO  H172 1361   7.118   9.378   1.472  0.4322  1.3053  1.5738
    4CHTO  H173 1362   7.001   9.479   1.376 -0.6473 -0.4447 -0.1386
    4CHTO   C94 1363   6.791   9.441   1.542 -0.2675  1.2013  0.2979
    4CHTO  H181 1364   6.802   9.525   1.610  0.5127  0.8001  0.6778
    4CHTO   O61 1365   6.691   9.354   1.601 -0.6866  0.1200  0.1112
    4CHTO   C95 1366   6.722   9.308   1.737 -0.1931  0.0536  0.2396
    4CHTO  H182 1367   6.751   9.392   1.800  0.1622  1.0106 -1.1981
    4CHTO  C106 1368   6.604   9.231   1.790  0.7979 -0.1003  0.1034
    4CHTO   O69 1369   6.620   9.212   1.933 -0.0046  0.0663  0.3477
    4CHTO  H169 1370   6.556   9.270   1.970  0.3562  0.7830 -0.1449
    4CHTO   O63 1371   6.743   9.505   1.390  0.2601 -0.2955  0.1036
    4CHTO   C96 1372   6.757   9.399   1.249 -0.2416 -0.3324  0.1456
    4CHTO  H183 1373   6.850   9.343   1.240 -0.0195  0.1412 -0.5496
    4CHTO   C98 1374   6.741   9.480   1.120  0.0319  0.0736 -0.3038
    4CHTO  H185 1375   6.644   9.532   1.119 -0.3294 -0.5585  0.9571
    4CHTO   O67 1376   6.843   9.579   1.132  0.1436 -0.4789  0.4389
    4CHTO  H167 1377   6.836   9.638   1.059  0.6249  0.1031  0.8612
    4CHTO  C102 1378   6.757   9.393   0.980 -0.8063  0.2263 -0.1979
    4CHTO  H189 1379   6.864   9.382   0.962 -0.7878 -1.6938  0.9210
    4CHTO   N18 1380   6.701   9.456   0.858  0.7253 -0.1328  0.9961
    4CHTO  H176 1381   6.743   9.554   0.839 -0.5407  0.4016  0.9433
    4CHTO  H177 1382   6.723   9.384   0.780  0.1476 -0.0003  0.7121
    4CHTO  C105 1383   6.687   9.254   1.009  0.0503 -0.3959  0.1666
    4CHTO  H192 1384   6.637   9.216   0.920  0.7685 -1.4873  0.2119
    4CHTO   O65 1385   6.599   9.245   1.126  0.0253  0.2611  0.0507
    4CHTO  C100 1386   6.645   9.282   1.252  0.0007  0.4810  0.2458
    4CHTO  H187 1387   6.558   9.324   1.305 -1.4647 -0.3744 -1.4387
    4CHTO  C107 1388   6.683   9.152   1.339  0.1965  0.1210 -0.2158
    4CHTO   O70 1389   6.563   9.065   1.357 -0.2017 -0.0961  0.1335
    4CHTO  H170 1390   6.487   9.108   1.323  1.3002  2.5529 -0.0430
    4CHTO   O57 1391   6.820   9.155   1.044  0.3126  0.1502 -0.8775
    4CHTO   C85 1392   6.829   9.036   0.964 -0.3700 -0.2474  0.2550
    4CHTO  H157 1393   6.758   9.030   0.878 -0.9342 -0.9499  0.7588
    4CHTO   C83 1394   6.763   8.923   1.054 -0.4099  0.9205 -0.0646
    4CHTO  H155 1395   6.660   8.952   1.070 -0.6625 -0.8378  1.8032
    4CHTO   O56 1396   6.826   8.907   1.181  0.2615  0.3278 -0.2833
    4CHTO  H135 1397   6.762   8.863   1.234  1.4370  1.1221  1.8381
    4CHTO   C81 1398   6.772   8.792   0.968  0.2812 -0.6166 -0.2653
    4CHTO  H153 1399   6.710   8.804   0.879 -1.0720 -0.9478  0.6081
    4CHTO   N14 1400   6.702   8.679   1.032 -0.1654  0.0106  0.0168
    4CHTO  H141 1401   6.745   8.652   1.126  0.1369 -0.4833 -0.2578
    4CHTO  H142 1402   6.606   8.715   1.063  1.1340 -0.0213  4.3252
    4CHTO   C79 1403   6.921   8.755   0.918 -0.6539 -0.8337  0.1743
    4CHTO  H151 1404   6.910   8.674   0.846 -0.1903  0.0581 -0.9157
    4CHTO   O52 1405   6.973   8.864   0.843 -0.2447  0.3800 -0.1437
    4CHTO   C86 1406   6.972   8.991   0.923  1.2610 -0.5870  0.1768
    4CHTO  H158 1407   7.034   8.980   1.014  0.5504  3.5281  1.2681
    4CHTO   C90 1408   7.051   9.101   0.844  0.1244 -0.2002 -0.8020
    4CHTO   O60 1409   7.170   9.045   0.793  0.0801 -0.4226  0.0743
    4CHTO  H138 1410   7.226   9.037   0.867 -0.6542  0.1415  0.7003
    4CHTO   O50 1411   7.005   8.715   1.023 -1.0581 -0.6554  0.4884
    4CHTO   C73 1412   7.102   8.666   1.112  0.2331  0.0028  0.3698
    4CHTO  H145 1413   7.068   8.675   1.216  0.2927 -0.6482  0.4533
    4CHTO   C74 1414   7.227   8.747   1.073 -0.0996  0.6805  0.4844
    4CHTO  H146 1415   7.206   8.855   1.080 -0.3950  0.7597 -1.2894
    4CHTO   O54 1416   7.321   8.734   1.180 -0.1685 -0.2741 -0.1726
    4CHTO  H133 1417   7.396   8.680   1.162  0.3802 -0.1013  1.5282
    4CHTO   C75 1418   7.274   8.705   0.927 -0.3172  0.0233 -0.0351
    4CHTO  H147 1419   7.204   8.750   0.855 -0.4483  2.5023  1.5759
    4CHTO   N13 1420   7.403   8.769   0.892  0.2940  0.3631  0.2248
    4CHTO  H139 1421   7.394   8.876   0.889  0.6113  0.3713 -0.6359
    4CHTO  H140 1422   7.470   8.748   0.974  0.9102  2.0705  0.1837
    4CHTO   C76 1423   7.275   8.549   0.903 -0.5054 -0.8255  0.7701
    4CHTO  H148 1424   7.361   8.503   0.951  0.9448  1.6122  0.6006
    4CHTO   O49 1425   7.152   8.480   0.949  0.1474  0.6597 -0.6118
    4CHTO   C77 1426   7.116   8.509   1.084  0.7979 -0.4104 -0.6898
    4CHTO  H149 1427   7.193   8.464   1.148  0.5930 -0.2250 -0.3095
    4CHTO   C88 1428   6.990   8.435   1.124  0.2035 -0.5740  0.2123
    4CHTO   O58 1429   6.962   8.436   1.246 -0.3681 -0.0502  0.1918
    4CHTO  H136 1430   6.951   8.347   1.272  1.4484 -0.1493  0.6876
    4CHTO   O51 1431   7.264   8.518   0.739 -0.2396  0.0535 -0.0969
    4CHTO   C78 1432   7.404   8.481   0.680 -0.0388  0.3116  0.2641
    4CHTO  H150 1433   7.489   8.525   0.736  1.4462 -1.4894 -0.5032
    4CHTO   C80 1434   7.403   8.528   0.536  0.1684  0.4835  0.2368
    4CHTO  H152 1435   7.311   8.493   0.486  0.9726 -2.2380  0.5759
    4CHTO   O55 1436   7.404   8.674   0.530  0.4998 -0.3049 -0.2384
    4CHTO  H134 1437   7.418   8.701   0.441  4.0520  0.9365  0.6305
    4CHTO   C84 1438   7.515   8.474   0.450 -0.4158  0.2653 -0.7514
    4CHTO  H156 1439   7.607   8.506   0.499 -0.9563 -0.6294  0.8779
    4CHTO   N15 1440   7.518   8.511   0.304  0.5061  0.1943  0.1562
    4CHTO  H143 1441   7.610   8.559   0.279 -0.5233  1.9836 -0.2978
    4CHTO  H144 1442   7.441   8.580   0.276  1.1559  1.4193  1.3825
    4CHTO   C87 1443   7.518   8.323   0.465  0.8924 -0.3256 -0.5121
    4CHTO  H159 1444   7.431   8.281   0.415 -0.3421 -0.3167  1.5612
    4CHTO   O53 1445   7.528   8.283   0.612 -0.0039  0.0725 -0.9188
    4CHTO   C82 1446   7.412   8.327   0.684 -0.3325  0.0276  0.1837
    4CHTO  H154 1447   7.324   8.277   0.644 -0.4141  0.2991  0.0219
    4CHTO   C89 1448   7.426   8.279   0.830  0.0540 -0.3679 -0.5272
    4CHTO   O59 1449   7.369   8.154   0.838 -0.4422  0.5364 -0.2007
    4CHTO  H137 1450   7.369   8.129   0.929 -1.9629 -0.1007 -0.3780
    4CHTO   O45 1451   7.654   8.253   0.383  0.4741  0.0953  0.3516
    4CHTO   C67 1452   7.690   8.123   0.415  0.6439  0.5554  0.4861
    4CHTO  H124 1453   7.749   8.082   0.333 -1.0504  0.3263 -0.6306
    4CHTO   C65 1454   7.786   8.141   0.541 -0.9260  0.2028 -0.0385
    4CHTO  H122 1455   7.792   8.245   0.573  1.5029  0.3867 -0.9744
    4CHTO   O44 1456   7.918   8.105   0.498 -0.3827  0.0959 -0.1008
    4CHTO  H102 1457   7.982   8.071   0.558  0.6418  1.4091 -0.4423
    4CHTO   C63 1458   7.737   8.058   0.670  0.1587 -0.2327  0.5764
    4CHTO  H120 1459   7.637   8.090   0.696  0.4519 -0.0478  1.4905
    4CHTO   N11 1460   7.813   8.086   0.796  0.3157 -0.0640  0.4681
    4CHTO  H108 1461   7.744   8.122   0.870  0.1671 -1.5272  1.0462
    4CHTO  H109 1462   7.885   8.165   0.783 -1.7184  1.7041 -0.3404
    4CHTO   C61 1463   7.719   7.904   0.623  0.3797 -0.5941  0.2364
    4CHTO  H118 1464   7.669   7.850   0.704  1.2415 -1.1977  0.3696
    4CHTO   O40 1465   7.625   7.897   0.499  0.1949 -0.1381  0.5497
    4CHTO   C68 1466   7.576   8.022   0.440 -0.5603  0.3018 -0.5810
    4CHTO  H125 1467   7.495   8.053   0.510  1.9179  0.7907  2.1547
    4CHTO   C72 1468   7.509   7.972   0.308  0.3656  0.3230  0.2509
    4CHTO   O48 1469   7.436   8.080   0.251 -0.6633  0.4002 -0.2091
    4CHTO  H105 1470   7.368   8.114   0.307 -0.6856 -0.4250  0.2878
    4CHTO   O38 1471   7.841   7.836   0.592 -0.3975  0.0173 -0.0371
    4CHTO   C55 1472   7.838   7.701   0.627  0.6445 -0.9995 -0.3690
    4CHTO  H112 1473   7.737   7.664   0.652  0.9346 -2.8682 -1.8383
    4CHTO   C56 1474   7.945   7.680   0.751  1.1050 -0.1477  0.3522
    4CHTO  H113 1475   8.042   7.722   0.722  0.9048 -0.2368 -0.4494
    4CHTO   O42 1476   7.900   7.745   0.865 -0.8546 -0.8193  0.0125
    4CHTO  H100 1477   7.851   7.823   0.848  0.5549  0.2422  0.6465
    4CHTO   C57 1478   7.962   7.523   0.780  0.2870 -0.2045 -0.5922
    4CHTO  H114 1479   7.865   7.482   0.808 -1.4477  3.1691 -1.3156
    4CHTO   N10 1480   8.069   7.502   0.882  0.4320  0.2262  0.1474
    4CHTO  H106 1481   8.077   7.581   0.956  2.9058  1.6927 -1.6222
    4CHTO  H107 1482   8.046   7.408   0.931  0.1774  0.6174  0.7876
    4CHTO   C58 1483   8.001   7.457   0.647 -0.9957  0.9221 -0.4546
    4CHTO  H115 1484   8.098   7.501   0.614 -0.8862  2.1901  1.4787
    4CHTO   O37 1485   7.904   7.484   0.544  0.5906  0.0706  0.3819
    4CHTO   C59 1486   7.880   7.623   0.502 -0.1008 -0.1325  0.2826
    4CHTO  H116 1487   7.973   7.655   0.454  0.0802 -2.1854 -0.8197
    4CHTO   C70 1488   7.772   7.612   0.392 -0.5311 -0.2678 -0.3386
    4CHTO   O46 1489   7.637   7.591   0.431  0.1235  0.5274  0.1415
    4CHTO  H103 1490   7.586   7.661   0.395  0.8182 -0.0327 -1.9895
    4CHTO   O39 1491   8.028   7.290   0.670  0.4195  0.0932  0.5997
    4CHTO   C60 1492   7.912   7.206   0.685  0.6412 -0.4281 -0.1968
    4CHTO  H117 1493   7.851   7.257   0.760  0.9753 -0.3669  0.0317
    4CHTO   C62 1494   7.830   7.178   0.555 -0.3478  0.3242 -0.2932
    4CHTO  H119 1495   7.789   7.280   0.538  0.8653  0.6920 -1.0795
    4CHTO   O43 1496   7.915   7.128   0.455 -0.3448  0.1696 -0.2628
    4CHTO  H101 1497   7.964   7.050   0.472  0.6812  0.9350  0.3165
    4CHTO   C66 1498   7.702   7.084   0.585 -0.1491  0.1731 -0.3990
    4CHTO  H123 1499   7.644   7.125   0.668  1.9804  1.9005  0.2833
    4CHTO   N12 1500   7.613   7.064   0.471 -0.0879  0.1680 -0.3131
    4CHTO  H110 1501   7.566   7.160   0.456 -0.3124  0.2461  0.8351
    4CHTO  H111 1502   7.676   7.048   0.385  0.6097 -0.1899  0.2596
    4CHTO   C69 1503   7.748   6.949   0.638  0.6668 -0.1147 -0.2287
    4CHTO  H126 1504   7.818   6.908   0.563 -1.8350  0.8456 -3.2173
    4CHTO   O41 1505   7.824   6.978   0.770 -0.3663 -0.2499 -0.0147
    4CHTO   C64 1506   7.951   7.066   0.748  0.5261 -0.2202  0.9641
    4CHTO  H121 1507   8.026   7.027   0.676  1.5399  2.6938  0.3595
    4CHTO   C71 1508   8.010   7.077   0.890  0.2963 -0.1965  0.0147
    4CHTO   O47 1509   8.015   6.958   0.965 -0.8706  0.3949 -0.4818
    4CHTO  H104 1510   8.025   6.970   1.057 -1.4482 -0.7490 -0.2625
    4CHTO   O34 1511   7.634   6.838   0.685  0.6032  0.0822 -0.3746
    4CHTO   C49 1512   7.635   6.685   0.653  0.3492  0.4500 -0.0128
    4CHTO   H91 1513   7.703   6.676   0.568  0.7536  1.9115  0.1485
    4CHTO   C47 1514   7.494   6.649   0.611 -0.1789  0.8048 -0.1676
    4CHTO   H89 1515   7.472   6.696   0.512 -0.5526  0.4381 -0.2588
    4CHTO   O33 1516   7.405   6.696   0.715 -0.6051  0.2890  0.8351
    4CHTO   H70 1517   7.420   6.785   0.737  2.8860  0.2119 -0.8930
    4CHTO   C45 1518   7.475   6.484   0.608  0.0042 -0.3284  0.7462
    4CHTO   H87 1519   7.411   6.457   0.693 -0.4818  0.4625  0.6410
    4CHTO    N8 1520   7.402   6.440   0.486  0.1389 -0.3650  0.1868
    4CHTO   H75 1521   7.329   6.369   0.522 -1.2166  0.7114 -0.3598
    4CHTO   H76 1522   7.468   6.394   0.415  1.2408 -0.7307  1.4310
    4CHTO   C43 1523   7.612   6.400   0.632  0.4758  0.0229 -0.4145
    4CHTO   H85 1524   7.580   6.298   0.652 -0.2851  0.3031 -0.1963
    4CHTO   O29 1525   7.690   6.449   0.747 -0.4243  0.3441  0.4893
    4CHTO   C50 1526   7.690   6.595   0.769 -0.0615  0.1507  0.3507
    4CHTO   H92 1527   7.625   6.601   0.857  0.8279 -1.3177  1.1139
    4CHTO   C54 1528   7.829   6.647   0.824  0.6285  0.5836 -0.3354
    4CHTO   O36 1529   7.930   6.639   0.723  0.4907 -0.2859 -0.5929
    4CHTO   H72 1530   7.997   6.581   0.755 -1.1612 -1.5025  0.7568
    4CHTO   O27 1531   7.696   6.406   0.504  0.1176 -0.6350  0.0294
    4CHTO   C37 1532   7.806   6.328   0.441 -0.3284 -0.6455  0.0899
    4CHTO   H79 1533   7.810   6.350   0.333  0.4218 -2.0308 -0.1758
    4CHTO   C38 1534   7.955   6.360   0.495 -0.0709 -0.6286 -0.6074
    4CHTO   H80 1535   7.959   6.355   0.605  3.2462  0.6771 -0.6292
    4CHTO   O31 1536   8.002   6.489   0.460  0.3374  0.0488  0.0040
    4CHTO   H68 1537   7.958   6.559   0.505  0.4625  0.2313 -0.1571
    4CHTO   C39 1538   8.061   6.255   0.438 -0.5756 -0.5734 -0.0033
    4CHTO   H81 1539   8.065   6.276   0.331 -2.0895  0.8127  0.1833
    4CHTO    N7 1540   8.206   6.272   0.484  0.0124 -0.1205 -0.0969
    4CHTO   H73 1541   8.259   6.179   0.478  1.1715  0.5198  0.1197
    4CHTO   H74 1542   8.250   6.341   0.413  0.7919 -0.7936 -0.2676
    4CHTO   C40 1543   8.013   6.108   0.454  0.4152 -0.1582 -0.0405
    4CHTO   H82 1544   8.013   6.085   0.560 -0.2725 -1.6123 -0.3551
    4CHTO   O26 1545   7.882   6.095   0.399  0.0309  0.2164  0.2844
    4CHTO   C41 1546   7.773   6.178   0.454  0.3623  0.9217  1.0312
    4CHTO   H83 1547   7.764   6.160   0.562  0.5601 -1.2501  0.7054
    4CHTO   C52 1548   7.651   6.128   0.376 -1.0341 -0.0743  0.2905
    4CHTO   O35 1549   7.616   5.966   0.429  0.4277  0.1043  0.1168
    4CHTO   H71 1550   7.600   5.963   0.521  0.1843 -2.6158  0.0136
    4CHTO   O28 1551   8.093   5.999   0.396  0.3053 -0.3461 -0.2288
    4CHTO   C42 1552   8.089   5.855   0.446 -0.0262 -0.2541 -0.4886
    4CHTO   H84 1553   8.158   5.809   0.375  1.9873  3.3237 -0.9781
    4CHTO   C44 1554   7.949   5.782   0.425 -0.2018  0.3616  0.7128
    4CHTO   H86 1555   7.875   5.825   0.493  0.6071  1.1641  1.1002
    4CHTO   O32 1556   7.908   5.798   0.291  0.5152  0.8502 -0.2986
    4CHTO   H69 1557   7.899   5.891   0.279  0.1754  0.9365  0.5464
    4CHTO   C48 1558   7.953   5.629   0.457  0.4939  0.2514 -0.2253
    4CHTO   H90 1559   8.008   5.572   0.382 -1.2254 -0.4518 -0.9717
    4CHTO    N9 1560   7.812   5.577   0.456 -0.0027 -0.1695 -0.7891
    4CHTO   H77 1561   7.792   5.530   0.361  0.1372 -1.2289 -0.2936
    4CHTO   H78 1562   7.802   5.501   0.531  0.0310  1.5454  0.9955
    4CHTO   C51 1563   8.019   5.610   0.596  0.0646  0.4576  0.1173
    4CHTO   H93 1564   7.945   5.649   0.666 -0.5775  0.4493 -0.5547
    4CHTO   O30 1565   8.144   5.671   0.614 -0.3793  0.0403  1.1763
    4CHTO   C46 1566   8.139   5.823   0.590 -0.6819  0.0259 -0.1148
    4CHTO   H88 1567   8.066   5.862   0.661  1.8599  1.2602  1.9330
    4CHTO   C53 1568   8.278   5.891   0.629 -0.4067  0.3988  0.1430
    4CHTO   O72 1569   8.394   5.827   0.571 -0.0354  0.1318  0.3610
    4CHTO  H199 1570   8.473   5.856   0.613 -0.8734  0.8977  1.4390
    4CHTO   O22 1571   8.033   5.470   0.632 -0.7723  0.6431 -0.4124
    4CHTO   C31 1572   8.093   5.416   0.754  0.5387  0.3395 -0.5987
    4CHTO   H59 1573   8.141   5.501   0.807 -0.0680  0.7172 -0.6519
    4CHTO   C29 1574   7.997   5.347   0.850  0.2291 -0.7330 -0.1762
    4CHTO   H57 1575   7.960   5.253   0.805 -1.5500  0.6552 -1.6606
    4CHTO   O21 1576   7.885   5.434   0.859 -0.1424 -0.2896  0.0592
    4CHTO   H37 1577   7.853   5.475   0.938  1.9389  1.1168  0.2021
    4CHTO   C27 1578   8.069   5.321   0.991  0.1285  0.2196  0.4019
    4CHTO   H55 1579   8.077   5.418   1.042 -1.0740 -0.9594  2.9128
    4CHTO    N5 1580   7.986   5.235   1.081  0.3219  0.3382 -0.0846
    4CHTO   H43 1581   8.054   5.178   1.143  0.5798  0.5456 -0.1762
    4CHTO   H44 1582   7.900   5.183   1.042 -0.4822  0.2825  1.6909
    4CHTO   C25 1583   8.213   5.264   0.975  0.4786  0.5231  0.0856
    4CHTO   H53 1584   8.217   5.155   0.988  0.1412  0.3093 -1.6005
    4CHTO   O17 1585   8.280   5.297   0.852 -0.0387  0.0640  0.7571
    4CHTO   C32 1586   8.204   5.307   0.732 -0.0153 -0.9927  0.6939
    4CHTO   H60 1587   8.162   5.212   0.699  1.9940 -1.6971  0.1164
    4CHTO   C36 1588   8.302   5.344   0.617  0.5829  0.0536 -0.0766
    4CHTO   O25 1589   8.391   5.445   0.663  0.2251 -0.0390 -0.2616
    4CHTO   H40 1590   8.435   5.421   0.742 -0.8791  2.6442  1.2350
    4CHTO   O15 1591   8.308   5.310   1.094  0.3429  0.3797  0.0258
    4CHTO   C19 1592   8.359   5.435   1.146 -0.1215 -0.6198  0.1646
    4CHTO   H47 1593   8.459   5.407   1.183 -0.4398 -0.0918  1.4411
    4CHTO   C20 1594   8.375   5.550   1.029  0.1315 -0.2883 -0.8407
    4CHTO   H48 1595   8.289   5.552   0.960 -0.9701  0.3438  0.5087
    4CHTO   O19 1596   8.484   5.513   0.947  0.6369  0.4179  0.2330
    4CHTO   H35 1597   8.464   5.523   0.856 -1.3136  1.6557  0.7632
    4CHTO   C21 1598   8.393   5.698   1.084 -0.4338 -0.6010 -0.2223
    4CHTO   H49 1599   8.494   5.710   1.123 -0.8866  1.7872  0.3092
    4CHTO    N4 1600   8.377   5.799   0.976  1.0741 -0.5431  0.0440
    4CHTO   H41 1601   8.458   5.797   0.904  0.7449  0.0526 -0.3509
    4CHTO   H42 1602   8.290   5.776   0.917  0.4087  1.8618  0.0437
    4CHTO   C22 1603   8.290   5.716   1.199 -0.0405 -0.0823  0.0614
    4CHTO   H50 1604   8.193   5.709   1.151 -0.3334 -0.2199  0.6658
    4CHTO   O14 1605   8.315   5.610   1.305  0.2694 -0.0593 -0.1521
    4CHTO   C23 1606   8.279   5.480   1.263 -0.1150 -0.0846  0.1867
    4CHTO   H51 1607   8.172   5.483   1.239 -0.6467 -0.2307  2.3772
    4CHTO   C34 1608   8.298   5.390   1.385 -0.5234  0.3446 -0.0774
    4CHTO   O23 1609   8.420   5.356   1.438 -0.0914 -0.1487 -0.0814
    4CHTO   H38 1610   8.489   5.334   1.378  0.4627  0.1308  0.4539
    4CHTO   O16 1611   8.291   5.847   1.257  0.3127 -0.5809  0.0127
    4CHTO   C24 1612   8.159   5.947   1.234  0.0104 -0.4576 -0.4111
    4CHTO   H52 1613   8.081   5.902   1.174 -0.3852 -1.2401  0.6965
    4CHTO   C26 1614   8.206   6.080   1.166  0.1789  0.3473  0.4061
    4CHTO   H54 1615   8.311   6.101   1.197 -0.7147  2.1818  2.2395
    4CHTO   O20 1616   8.216   6.061   1.020 -0.6428  0.3038  0.1410
    4CHTO   H36 1617   8.138   6.081   0.972 -0.9013 -0.1380  0.3702
    4CHTO   C30 1618   8.114   6.203   1.184  0.0938  0.3339 -0.1941
    4CHTO   H58 1619   8.030   6.189   1.114  1.7268 -0.1862 -2.1049
    4CHTO    N6 1620   8.186   6.323   1.133 -0.7629  0.1257 -0.4254
    4CHTO   H45 1621   8.170   6.400   1.207 -2.2092 -2.0132  1.5536
    4CHTO   H46 1622   8.143   6.350   1.038  0.5205  2.5609 -0.3637
    4CHTO   C33 1623   8.052   6.215   1.330 -0.0637  0.0611  0.0941
    4CHTO   H61 1624   8.130   6.243   1.403  0.9610 -1.2993 -0.4506
    4CHTO   O18 1625   7.999   6.086   1.369  0.1512 -0.4949  0.2365
    4CHTO   C28 1626   8.101   5.983   1.371  0.2960  0.4839  0.5303
    4CHTO   H56 1627   8.179   6.023   1.436 -1.3681  1.3365  2.0742
    4CHTO   C35 1628   8.036   5.850   1.417 -0.4758  0.1819  0.0819
    4CHTO   O24 1629   8.000   5.845   1.553 -0.2636  0.1777 -0.4942
    4CHTO   H39 1630   7.917   5.807   1.572  0.8088 -2.4707 -0.9458
    4CHTO    O9 1631   7.951   6.320   1.341 -0.7235 -0.0102  0.2761
    4CHTO   C13 1632   7.874   6.344   1.479  0.5728 -0.0737  0.1587
    4CHTO   H26 1633   7.886   6.255   1.544  3.1672 -0.6502 -1.0217
    4CHTO   C11 1634   7.725   6.369   1.438  0.0912 -0.4852 -0.4292
    4CHTO   H24 1635   7.678   6.275   1.409 -1.3524 -0.1550  0.7322
    4CHTO    O8 1636   7.719   6.454   1.327 -0.2923  0.1337  0.0103
    4CHTO    H3 1637   7.757   6.540   1.334  1.1465 -0.4246 -0.6083
    4CHTO    C9 1638   7.643   6.414   1.563 -0.3053  0.1920  0.2833
    4CHTO   H22 1639   7.655   6.335   1.638  0.2335 -1.3237 -1.3686
    4CHTO    N2 1640   7.502   6.414   1.539  0.2592  0.4768 -0.4290
    4CHTO   H10 1641   7.465   6.318   1.505  1.1183 -0.5597  1.4988
    4CHTO   H11 1642   7.450   6.439   1.630  1.1144 -1.1579  0.5507
    4CHTO    C7 1643   7.716   6.549   1.618 -0.2548  0.6089 -0.2678
    4CHTO   H20 1644   7.718   6.526   1.726  0.2543  1.3788 -0.1086
    4CHTO    O4 1645   7.850   6.570   1.575 -0.4244 -0.3719 -0.1239
    4CHTO   C14 1646   7.936   6.457   1.567  0.5113 -0.5814 -0.7326
    4CHTO   H27 1647   7.944   6.418   1.671  2.5263 -0.3588 -0.7798
    4CHTO   C18 1648   8.072   6.505   1.524  0.1334 -0.6958 -0.2076
    4CHTO   O13 1649   8.139   6.579   1.624 -0.6314  0.4820  0.4743
    4CHTO    H7 1650   8.232   6.577   1.615 -0.4957  1.2232  1.5815
    4CHTO    O2 1651   7.624   6.688   1.598  0.0378  0.0922  0.3592
    4CHTO    C1 1652   7.661   6.802   1.677 -0.6954 -0.5727  0.8578
    4CHTO   H14 1653   7.583   6.880   1.664  0.2408  0.7025  2.6735
    4CHTO    C2 1654   7.802   6.864   1.643 -0.1432 -0.2877 -0.4759
    4CHTO   H15 1655   7.883   6.794   1.666  0.8173  1.1215  0.5713
    4CHTO    O6 1656   7.809   6.896   1.502 -0.5539 -0.8303 -0.5626
    4CHTO    H1 1657   7.894   6.926   1.474 -1.3892  0.7914 -1.4671
    4CHTO    C3 1658   7.817   6.997   1.735 -0.2450 -0.3871 -0.3047
    4CHTO   H16 1659   7.749   7.075   1.697  1.2991 -0.6820 -3.8346
    4CHTO    N1 1660   7.953   7.058   1.712  0.1649  0.4360 -0.6789
    4CHTO    H8 1661   8.030   6.989   1.744 -0.7707  0.8332  2.6354
    4CHTO    H9 1662   7.960   7.077   1.606 -1.1956  1.4171 -0.5969
    4CHTO    C4 1663   7.792   6.963   1.890  0.3009 -0.0023 -0.3702
    4CHTO   H17 1664   7.876   6.906   1.928 -0.4485  0.6123  2.3317
    4CHTO    O1 1665   7.671   6.892   1.909 -0.2809 -0.5923 -0.2485
    4CHTO    C5 1666   7.652   6.773   1.830 -0.6903  0.3935 -0.2671
    4CHTO   H18 1667   7.725   6.694   1.848  0.1875  1.4192  0.7294
    4CHTO   C16 1668   7.510   6.713   1.859  0.1432  0.0294 -0.2622
    4CHTO   O11 1669   7.401   6.791   1.809 -0.3322  0.0054  0.1315
    4CHTO    H5 1670   7.344   6.809   1.882  1.8285  1.6187  1.4887
    4CHTO    O3 1671   7.769   7.086   1.962  0.6240 -0.4945  0.1928
    4CHTO    C6 1672   7.858   7.113   2.084 -0.3699 -0.8956 -0.0565
    4CHTO   H19 1673   7.900   7.014   2.102  0.1367 -0.7348 -0.3467
    4CHTO    C8 1674   7.969   7.233   2.069  0.5649 -0.0870  0.5291
    4CHTO   H21 1675   7.924   7.310   2.007  0.0789 -0.7092  0.1139
    4CHTO    O7 1676   8.073   7.166   1.997 -0.0426  0.5790  0.1417
    4CHTO    H2 1677   8.056   7.170   1.905 -2.3930 -0.9128  0.4744
    4CHTO   C12 1678   8.022   7.271   2.213 -0.5765  0.1554  1.0468
    4CHTO   H25 1679   8.076   7.180   2.247  1.1727  0.2204 -1.4477
    4CHTO    N3 1680   8.123   7.387   2.211 -0.1256  0.1563 -0.0178
    4CHTO   H12 1681   8.206   7.355   2.149  2.4925  1.3847  2.7316
    4CHTO   H13 1682   8.070   7.472   2.172  1.9341  1.3788 -0.1983
    4CHTO   C15 1683   7.895   7.297   2.310  0.2140  0.3454 -0.1531
    4CHTO   H28 1684   7.842   7.390   2.286 -1.7862  0.1336  3.0657
    4CHTO   O10 1685   7.938   7.316   2.465 -0.0768  0.2139  0.3365
    4CHTO    H4 1686   7.904   7.397   2.499 -0.1649  0.4811 -0.3938
    4CHTO    O5 1687   7.809   7.185   2.315 -0.0159  0.0452 -0.4546
    4CHTO   C10 1688   7.755   7.140   2.190 -0.3259  1.0533 -0.0973
    4CHTO   H23 1689   7.682   7.213   2.155 -2.0035  0.8764  2.7929
    4CHTO   C17 1690   7.671   7.013   2.219  0.8503  0.9322 -0.0832
    4CHTO   O12 1691   7.754   6.912   2.279 -0.4902  0.1317 -0.3736
    4CHTO    H6 1692   7.818   6.876   2.219 -0.7986 -1.6648  0.3313
    5CHTO  H203 1693   8.787   3.438   0.919  0.4521 -1.7280  0.1530
    5CHTO   O82 1694   8.772   3.455   1.010  0.7418 -0.2967 -0.0493
    5CHTO  C123 1695   8.751   3.341   1.091 -0.8337  0.4264 -0.5554
    5CHTO  H227 1696   8.837   3.273   1.077 -1.3861 -0.9770  2.3306
    5CHTO   O77 1697   8.767   3.395   1.224 -0.4933 -0.4543 -0.1155
    5CHTO  C118 1698   8.743   3.301   1.331 -0.7082  0.0505 -0.0707
    5CHTO  H222 1699   8.820   3.222   1.325  0.4665  1.0390  1.5503
    5CHTO  C125 1700   8.774   3.378   1.465  0.2093  0.0230  0.4679
    5CHTO   O84 1701   8.739   3.291   1.574  0.6205  0.0266  0.2803
    5CHTO  H205 1702   8.766   3.338   1.651 -1.2486 -0.1987  1.1128
    5CHTO  C114 1703   8.595   3.254   1.320  0.2332 -0.4221 -0.3241
    5CHTO  H218 1704   8.529   3.330   1.362 -0.0342 -3.0777  4.4300
    5CHTO  C116 1705   8.561   3.190   1.180  0.0175  0.1945 -1.0210
    5CHTO  H220 1706   8.613   3.092   1.175  1.0646  0.5932  1.4874
    5CHTO   O79 1707   8.425   3.153   1.168  0.3576  0.1059  0.4612
    5CHTO  H201 1708   8.378   3.224   1.128  1.0529  0.4148  0.1996
    5CHTO  C120 1709   8.609   3.285   1.061 -0.1773 -0.2425 -0.9200
    5CHTO  H224 1710   8.540   3.372   1.066  1.1478  0.6652  2.4385
    5CHTO   N21 1711   8.598   3.219   0.927  0.2810  0.0163  0.2169
    5CHTO  H211 1712   8.581   3.115   0.950 -3.1765  0.7373  1.3463
    5CHTO  H212 1713   8.521   3.254   0.859 -0.0768 -0.7113  0.2450
    5CHTO   O75 1714   8.588   3.142   1.411 -0.0313  0.5282  0.1043
    5CHTO  C112 1715   8.444   3.133   1.486  0.5704  0.5321  0.4478
    5CHTO  H216 1716   8.365   3.139   1.409  1.9532  1.3158 -0.9455
    5CHTO   O73 1717   8.438   3.242   1.576 -0.1534 -0.2938 -0.1811
    5CHTO  C113 1718   8.313   3.258   1.641  0.1849 -0.1779 -0.4284
    5CHTO  H217 1719   8.234   3.268   1.564 -1.0651  0.5661  0.9321
    5CHTO  C124 1720   8.303   3.393   1.711 -0.2757 -0.1861  0.1228
    5CHTO   O83 1721   8.358   3.503   1.643  0.4717 -0.2257  0.0237
    5CHTO  H204 1722   8.315   3.516   1.561  0.6098  2.4049  0.3185
    5CHTO  C109 1723   8.276   3.130   1.724 -0.2230 -0.4976 -0.1636
    5CHTO  H213 1724   8.345   3.131   1.809 -0.7834 -1.7317  0.3168
    5CHTO  C110 1725   8.289   2.999   1.644  0.4754 -0.0263  0.4939
    5CHTO  H214 1726   8.203   3.006   1.577 -1.1419  1.6848  2.6755
    5CHTO   O78 1727   8.273   2.886   1.733 -0.2563  0.0856 -0.5462
    5CHTO  H200 1728   8.354   2.863   1.775 -0.5851  0.5472  0.3624
    5CHTO  C111 1729   8.424   2.995   1.559  0.2217 -0.0111  0.5517
    5CHTO  H215 1730   8.512   2.987   1.625  1.6636 -1.2293 -1.4566
    5CHTO   N19 1731   8.431   2.879   1.459  0.4455 -0.2020 -0.2571
    5CHTO  H207 1732   8.352   2.888   1.386 -1.0930 -0.5760  1.3278
    5CHTO  H208 1733   8.446   2.790   1.518  1.9902  1.4668  1.9648
    5CHTO   O74 1734   8.137   3.134   1.769  0.3810 -1.1562 -0.2345
    5CHTO  C115 1735   8.118   3.128   1.929 -0.1461  0.4011  0.0469
    5CHTO  H219 1736   8.202   3.076   1.975  0.7159  1.5438 -0.2119
    5CHTO   O76 1737   8.115   3.281   2.000  0.1469  0.0018 -0.0523
    5CHTO  C122 1738   8.011   3.355   1.939 -0.2119 -0.0465 -0.5862
    5CHTO  H226 1739   8.049   3.390   1.843 -0.0446  3.2271  0.6058
    5CHTO  C126 1740   7.984   3.484   2.023  0.0674  0.2865 -0.3188
    5CHTO   O85 1741   8.097   3.569   2.037 -0.3349  0.3137  0.0308
    5CHTO  H206 1742   8.075   3.659   2.047  0.7326  0.5011  0.7623
    5CHTO  C121 1743   7.877   3.266   1.915  0.7236 -0.0615  0.0977
    5CHTO  H225 1744   7.790   3.333   1.930  0.3338  0.1759 -2.8403
    5CHTO   O81 1745   7.864   3.233   1.775  0.1352  0.3661  0.1286
    5CHTO  H202 1746   7.823   3.295   1.719  0.9103  1.3808  0.6674
    5CHTO  C119 1747   7.874   3.147   2.008  0.4294 -0.5318 -0.3080
    5CHTO  H223 1748   7.899   3.182   2.108  2.6613  1.1295 -1.4261
    5CHTO  C117 1749   7.987   3.047   1.958  0.6094 -0.3588  1.0836
    5CHTO  H221 1750   7.963   2.996   1.865 -2.9542  1.2472  1.0666
    5CHTO   N20 1751   8.007   2.935   2.060  0.2888 -0.0551  0.8772
    5CHTO  H209 1752   8.094   2.880   2.027 -0.3371  0.7701 -2.3040
    5CHTO  H210 1753   7.915   2.881   2.076 -2.3034  3.4426 -1.3229
    5CHTO   O80 1754   7.719   3.089   2.037  0.2816  0.0401  0.4247
    5CHTO  C103 1755   7.620   3.075   1.930 -0.1746  0.5631  0.3289
    5CHTO  H190 1756   7.629   3.159   1.861 -0.7193  0.4248  0.0942
    5CHTO  C101 1757   7.611   2.946   1.845  1.0042 -0.1583 -0.1518
    5CHTO  H188 1758   7.633   2.860   1.909  0.9096 -1.3166 -1.6449
    5CHTO   O68 1759   7.717   2.954   1.745 -0.2754  0.0983 -0.2619
    5CHTO  H168 1760   7.693   3.000   1.667 -0.7887  0.1267 -0.0861
    5CHTO   C99 1761   7.468   2.919   1.771  0.3661 -0.1633 -0.3081
    5CHTO  H186 1762   7.452   2.992   1.689  3.0290  1.8577  0.8736
    5CHTO   N17 1763   7.453   2.793   1.698 -0.3529 -0.2504  0.3389
    5CHTO  H174 1764   7.524   2.771   1.619  0.9586  0.5651  1.2573
    5CHTO  H175 1765   7.470   2.720   1.776  2.2875  1.0946  1.1091
    5CHTO   C97 1766   7.351   2.946   1.872 -0.8508 -0.5107 -0.6069
    5CHTO  H184 1767   7.347   2.872   1.953  0.5398  1.0296  0.9087
    5CHTO   O64 1768   7.370   3.079   1.924  0.0775  0.0177 -0.3625
    5CHTO  C104 1769   7.480   3.094   2.012  0.6428  0.2540  0.1586
    5CHTO  H191 1770   7.473   3.020   2.092  1.0760 -0.4986 -0.4947
    5CHTO  C108 1771   7.461   3.236   2.073  0.6472 -0.0783 -0.4839
    5CHTO   O71 1772   7.561   3.277   2.165  0.1929 -0.2917  0.0916
    5CHTO  H171 1773   7.592   3.209   2.221 -1.0329  0.1553  1.3290
    5CHTO   O62 1774   7.221   2.952   1.812  0.6551 -0.2739 -0.2732
    5CHTO   C91 1775   7.106   2.921   1.889 -0.4929 -0.2374  0.1254
    5CHTO  H178 1776   7.125   2.924   1.996  1.6280 -0.3173 -0.2431
    5CHTO   C92 1777   7.073   2.765   1.863  0.4372  0.0891 -0.7643
    5CHTO  H179 1778   7.076   2.734   1.758 -0.3441 -1.0605 -0.4531
    5CHTO   O66 1779   7.178   2.690   1.920 -0.1901 -0.0599 -0.7794
    5CHTO  H166 1780   7.258   2.717   1.879  0.2621 -1.5393 -0.9057
    5CHTO   C93 1781   6.928   2.723   1.928 -0.6595  0.3917  0.1590
    5CHTO  H180 1782   6.934   2.729   2.038 -1.0379 -0.1485  0.2077
    5CHTO   N16 1783   6.900   2.580   1.886 -0.3065  0.4544 -0.3660
    5CHTO  H172 1784   6.853   2.528   1.968  1.1125  1.1822  0.9369
    5CHTO  H173 1785   6.988   2.521   1.864 -2.2193 -2.1421 -1.3268
    5CHTO   C94 1786   6.820   2.831   1.874 -0.7885  0.0327  0.0980
    5CHTO  H181 1787   6.822   2.847   1.766 -2.4813 -1.6235 -0.2012
    5CHTO   O61 1788   6.857   2.964   1.921  0.1548 -0.8728 -0.6669
    5CHTO   C95 1789   6.983   3.020   1.865  0.8896 -0.1827 -0.5325
    5CHTO  H182 1790   6.964   3.039   1.759 -1.9545  0.3543  0.0252
    5CHTO  C106 1791   7.010   3.157   1.934 -0.4053 -0.2985  0.0339
    5CHTO   O69 1792   6.935   3.261   1.865 -0.1497  0.8656  0.0942
    5CHTO  H169 1793   6.843   3.243   1.871  0.2133 -1.6907 -1.1214
    5CHTO   O63 1794   6.681   2.799   1.943 -0.0295 -0.3855 -0.0464
    5CHTO   C96 1795   6.568   2.791   1.838 -0.1018 -0.1315  0.1312
    5CHTO  H183 1796   6.603   2.749   1.744 -0.3619 -0.0539 -0.0009
    5CHTO   C98 1797   6.493   2.927   1.814 -0.1848  0.3973 -0.0810
    5CHTO  H185 1798   6.462   2.971   1.910  0.3154 -2.9783  1.6914
    5CHTO   O67 1799   6.591   3.026   1.767 -0.2219  0.3924  0.0634
    5CHTO  H167 1800   6.654   2.991   1.706  1.0400  0.7623  1.1243
    5CHTO  C102 1801   6.372   2.917   1.706  0.1347 -0.5243  0.2423
    5CHTO  H189 1802   6.416   2.900   1.607 -0.7297  0.8538 -0.3884
    5CHTO   N18 1803   6.282   3.034   1.688  0.2878 -0.2054 -0.4260
    5CHTO  H176 1804   6.340   3.102   1.627 -1.1073 -0.4534 -2.0670
    5CHTO  H177 1805   6.233   3.072   1.776  1.0371  0.4907 -0.3038
    5CHTO  C105 1806   6.286   2.790   1.731  0.3607 -0.3640  0.2451
    5CHTO  H192 1807   6.197   2.810   1.790  0.1488  0.1830 -0.2606
    5CHTO   O65 1808   6.349   2.676   1.797  0.3000 -0.0550 -0.3295
    5CHTO  C100 1809   6.452   2.708   1.896 -0.2616  0.5641 -0.5169
    5CHTO  H187 1810   6.399   2.765   1.974  0.3827  0.5124 -0.0457
    5CHTO  C107 1811   6.507   2.576   1.960  0.0555 -0.3360  0.5702
    5CHTO   O70 1812   6.396   2.493   1.993  0.4046 -0.0047 -0.1359
    5CHTO  H170 1813   6.430   2.406   1.988  0.4062  0.0659 -1.6817
    5CHTO   O57 1814   6.223   2.753   1.573 -0.4817 -0.1609 -0.8163
    5CHTO   C85 1815   6.113   2.666   1.550 -0.2388 -0.1496 -0.7585
    5CHTO  H157 1816   6.029   2.707   1.610  0.1628 -0.2362 -0.1328
    5CHTO   C83 1817   6.153   2.529   1.620  1.0675  0.4550 -0.0537
    5CHTO  H155 1818   6.164   2.550   1.726  0.6059 -0.5002  0.1872
    5CHTO   O56 1819   6.281   2.474   1.583 -0.4966 -0.1272 -0.7767
    5CHTO  H135 1820   6.326   2.426   1.650 -2.0157  0.2629  0.5635
    5CHTO   C81 1821   6.038   2.425   1.602  0.7053 -1.1122 -0.7051
    5CHTO  H153 1822   5.946   2.471   1.639 -0.0881 -2.7936 -0.5668
    5CHTO   N14 1823   6.054   2.314   1.699  0.0519 -0.2182 -0.7067
    5CHTO  H141 1824   5.953   2.284   1.721 -0.5415  1.2569 -1.3160
    5CHTO  H142 1825   6.097   2.352   1.789  0.6456  0.0914 -1.1168
    5CHTO   C79 1826   6.015   2.396   1.455  0.8806  0.1254 -0.5227
    5CHTO  H151 1827   5.934   2.323   1.453 -0.0688  1.0321  2.9769
    5CHTO   O52 1828   5.975   2.525   1.389  0.2055 -0.9948 -0.1125
    5CHTO   C86 1829   6.071   2.636   1.403 -0.5143  0.6221 -0.3512
    5CHTO  H158 1830   6.156   2.625   1.332  1.4860  0.8185  1.9477
    5CHTO   C90 1831   5.988   2.763   1.352 -0.0421  0.2899  0.2936
    5CHTO   O60 1832   5.973   2.754   1.214  0.3481 -0.2302  0.4633
    5CHTO  H138 1833   6.059   2.740   1.179  0.4255  0.9147  0.1523
    5CHTO   O50 1834   6.129   2.341   1.385  0.4482  0.0901  0.1978
    5CHTO   C73 1835   6.164   2.262   1.270  0.5190 -0.2161  0.2840
    5CHTO  H145 1836   6.102   2.293   1.185  1.0119  2.2145  0.7719
    5CHTO   C74 1837   6.125   2.109   1.295 -0.3611 -0.0686  0.7150
    5CHTO  H146 1838   6.017   2.103   1.316 -0.4331  1.5711  0.8803
    5CHTO   O54 1839   6.143   2.027   1.172  0.6806  0.3036 -0.0513
    5CHTO  H133 1840   6.060   2.003   1.136  0.5273  2.6336 -1.3296
    5CHTO   C75 1841   6.212   2.068   1.422 -0.5643  0.5394 -0.1439
    5CHTO  H147 1842   6.193   2.139   1.504  1.1683  1.4486 -0.5227
    5CHTO   N13 1843   6.180   1.933   1.479 -0.5512  0.1863  0.4420
    5CHTO  H139 1844   6.086   1.899   1.437 -0.1431 -1.6936  0.9828
    5CHTO  H140 1845   6.159   1.938   1.585 -0.3496 -1.5128  0.5800
    5CHTO   C76 1846   6.362   2.085   1.378  0.4369 -0.0646 -0.4112
    5CHTO  H148 1847   6.375   2.022   1.290 -0.6912 -1.7264  0.5717
    5CHTO   O49 1848   6.386   2.228   1.339 -0.6364 -0.7528 -0.1833
    5CHTO   C77 1849   6.311   2.266   1.223  0.7348 -0.3686  0.3581
    5CHTO  H149 1850   6.328   2.199   1.139  1.0196  0.3494 -0.1699
    5CHTO   C88 1851   6.342   2.406   1.173  0.2469  0.3365  0.6398
    5CHTO   O58 1852   6.257   2.437   1.032  0.3798  0.2464 -0.5989
    5CHTO  H136 1853   6.173   2.476   1.046 -0.4944 -1.4327 -0.9909
    5CHTO   O51 1854   6.471   2.064   1.495  0.9497 -0.2635  0.2139
    5CHTO   C78 1855   6.619   2.104   1.475  0.5268  0.0399  0.4613
    5CHTO  H150 1856   6.628   2.153   1.376  0.0968 -1.5863 -0.4157
    5CHTO   C80 1857   6.710   1.979   1.481  0.1382 -0.3043  0.0353
    5CHTO  H152 1858   6.717   1.943   1.585  0.3191  1.3237  0.6045
    5CHTO   O55 1859   6.655   1.873   1.396  0.0349 -0.0341 -0.0413
    5CHTO  H134 1860   6.563   1.866   1.408  0.1235 -0.6791  0.2490
    5CHTO   C84 1861   6.861   2.021   1.440  0.6227  0.2890 -0.7954
    5CHTO  H156 1862   6.858   2.065   1.341 -0.9286 -0.6414 -1.1837
    5CHTO   N15 1863   6.953   1.898   1.438 -0.0304  0.2116  0.7073
    5CHTO  H143 1864   6.961   1.855   1.535 -1.8386  0.3193  0.9245
    5CHTO  H144 1865   6.913   1.831   1.364  0.1564  0.1808  0.6314
    5CHTO   C87 1866   6.910   2.126   1.543  0.1335 -0.1583  0.4166
    5CHTO  H159 1867   6.926   2.085   1.643  0.8727 -1.4638 -0.2187
    5CHTO   O53 1868   6.802   2.247   1.557  0.1441  0.4299 -0.1486
    5CHTO   C82 1869   6.669   2.196   1.590  0.4027  0.0659 -0.0280
    5CHTO  H154 1870   6.665   2.143   1.685  0.2818 -0.1214 -0.1357
    5CHTO   C89 1871   6.570   2.313   1.611 -0.3729  0.2237  0.1111
    5CHTO   O59 1872   6.612   2.400   1.715  0.3504  0.0749 -0.2908
    5CHTO  H137 1873   6.551   2.407   1.786  0.7966 -0.6400  0.1667
    5CHTO   O45 1874   7.056   2.194   1.472 -0.0395 -0.0575  0.5598
    5CHTO   C67 1875   7.157   2.230   1.565  0.3130  0.8101 -0.9793
    5CHTO  H124 1876   7.119   2.244   1.666 -0.3586  1.8088 -1.3655
    5CHTO   C65 1877   7.249   2.105   1.578 -0.3344 -0.2257 -0.3062
    5CHTO  H122 1878   7.234   2.042   1.491  0.9871  0.8757 -1.3499
    5CHTO   O44 1879   7.207   2.037   1.700 -0.0061 -0.1230 -0.2887
    5CHTO  H102 1880   7.283   2.004   1.745  0.5303 -1.0148 -1.7816
    5CHTO   C63 1881   7.401   2.152   1.574 -0.8517 -0.3178  0.0925
    5CHTO  H120 1882   7.429   2.202   1.481 -0.4257 -1.4609 -0.3978
    5CHTO   N11 1883   7.498   2.043   1.591  0.1040  0.0861 -0.0085
    5CHTO  H108 1884   7.527   2.041   1.694  0.7043 -0.6242 -0.1869
    5CHTO  H109 1885   7.469   1.948   1.552 -0.9287  0.0512  0.8324
    5CHTO   C61 1886   7.417   2.280   1.670  0.1292 -0.4349  0.1033
    5CHTO  H118 1887   7.519   2.320   1.655 -0.5820  1.8894  1.2587
    5CHTO   O40 1888   7.327   2.386   1.634  0.2638  0.0952 -0.5436
    5CHTO   C68 1889   7.225   2.366   1.536 -0.2827 -0.2083 -0.0174
    5CHTO  H125 1890   7.275   2.364   1.436  2.2839 -1.5044  1.2481
    5CHTO   C72 1891   7.125   2.483   1.531 -0.5593 -1.2450 -0.0340
    5CHTO   O48 1892   7.180   2.614   1.515 -0.4447  0.1011  0.1591
    5CHTO  H105 1893   7.247   2.621   1.580  2.6065 -0.2690 -2.7894
    5CHTO   O38 1894   7.399   2.254   1.813 -0.1163  0.7840 -0.0517
    5CHTO   C55 1895   7.366   2.371   1.900  0.1640 -0.0512  0.7420
    5CHTO  H112 1896   7.295   2.444   1.859  0.0947  1.0490  2.7776
    5CHTO   C56 1897   7.500   2.443   1.946  0.2605  0.0477  0.6270
    5CHTO  H113 1898   7.570   2.361   1.967  0.3903 -0.9322 -3.3042
    5CHTO   O42 1899   7.557   2.510   1.832  0.2784 -0.9726 -0.4139
    5CHTO  H100 1900   7.650   2.498   1.829  0.3792 -0.3740  0.4578
    5CHTO   C57 1901   7.466   2.547   2.065 -0.7995  0.9652  0.0770
    5CHTO  H114 1902   7.414   2.635   2.026 -2.1053  0.7575  1.2868
    5CHTO   N10 1903   7.596   2.590   2.127  0.4232  0.2613  0.0943
    5CHTO  H106 1904   7.566   2.634   2.221  1.9153 -1.3862  1.3745
    5CHTO  H107 1905   7.648   2.665   2.068  0.9690  0.0987  0.3620
    5CHTO   C58 1906   7.379   2.479   2.167  0.3042  0.4495  0.7036
    5CHTO  H115 1907   7.435   2.394   2.211  0.2702 -0.3470 -0.7511
    5CHTO   O37 1908   7.261   2.420   2.108  0.3938 -0.5014 -0.3292
    5CHTO   C59 1909   7.287   2.315   2.017  0.1440  0.2968  0.3757
    5CHTO  H116 1910   7.330   2.231   2.071 -0.5178 -2.0959 -2.6388
    5CHTO   C70 1911   7.152   2.268   1.966  0.4430 -0.1464  0.3666
    5CHTO   O46 1912   7.093   2.168   2.052 -0.3100  0.1978 -0.2097
    5CHTO  H103 1913   7.003   2.168   2.024 -0.5438 -0.7916  0.5108
    5CHTO   O39 1914   7.312   2.585   2.293 -0.5872 -0.0333 -0.1024
    5CHTO   C60 1915   7.183   2.637   2.262  0.1107 -0.0473 -0.0351
    5CHTO  H117 1916   7.157   2.629   2.156  1.4747  0.1111 -0.3883
    5CHTO   C62 1917   7.081   2.557   2.342 -0.2425  0.2680 -0.3594
    5CHTO  H119 1918   7.092   2.452   2.306 -3.4141 -0.3879  0.4903
    5CHTO   O43 1919   7.110   2.564   2.483  0.8198 -0.2839 -0.3925
    5CHTO  H101 1920   7.032   2.530   2.523  1.6349 -2.1841 -0.3345
    5CHTO   C66 1921   6.927   2.597   2.304  0.1180 -0.0959 -0.0785
    5CHTO  H123 1922   6.913   2.568   2.200  1.3370 -3.2701  0.5849
    5CHTO   N12 1923   6.820   2.518   2.381 -0.7756 -0.4964  0.3899
    5CHTO  H110 1924   6.861   2.453   2.457 -1.0470 -2.2996 -0.9531
    5CHTO  H111 1925   6.750   2.465   2.318 -0.1526  1.0667 -1.6839
    5CHTO   C69 1926   6.905   2.746   2.328  0.1302 -0.3145 -0.3296
    5CHTO  H126 1927   6.902   2.765   2.437  1.8750  1.2261 -0.5310
    5CHTO   O41 1928   7.020   2.815   2.252  0.2772  0.3193  0.0004
    5CHTO   C64 1929   7.159   2.781   2.301  0.0926 -0.0335  0.0845
    5CHTO  H121 1930   7.163   2.799   2.411  0.5202  0.8034 -0.0670
    5CHTO   C71 1931   7.265   2.876   2.244  0.0777 -0.0944  0.0090
    5CHTO   O47 1932   7.266   3.013   2.278  0.0770 -0.0022  0.7081
    5CHTO  H104 1933   7.220   3.021   2.359 -2.0363 -1.5242 -0.3034
    5CHTO   O34 1934   6.772   2.820   2.275  0.3068  0.6490 -0.0867
    5CHTO   C49 1935   6.733   2.988   2.273 -0.0623  0.1315 -0.1127
    5CHTO   H91 1936   6.790   3.033   2.193 -0.6586 -0.1171 -0.6851
    5CHTO   C47 1937   6.775   3.053   2.403 -0.0700  0.0182 -0.1369
    5CHTO   H89 1938   6.778   3.163   2.390 -1.3863  0.1163  0.3757
    5CHTO   O33 1939   6.920   3.017   2.424  0.1536 -0.5504 -0.0752
    5CHTO   H70 1940   6.942   3.037   2.513  1.1582  1.2028 -0.7028
    5CHTO   C45 1941   6.695   3.002   2.530  0.3150 -0.0043  0.0554
    5CHTO   H87 1942   6.695   2.893   2.535 -0.2294  0.0979  2.7844
    5CHTO    N8 1943   6.753   3.059   2.652 -0.5781 -0.4430  0.8348
    5CHTO   H75 1944   6.844   3.111   2.627 -0.7040  0.4166  2.0823
    5CHTO   H76 1945   6.681   3.124   2.698 -0.7608 -0.6649  0.8604
    5CHTO   C43 1946   6.542   3.026   2.507  0.3418 -0.0460  0.1392
    5CHTO   H85 1947   6.494   2.969   2.586 -2.7111  0.7812 -1.0100
    5CHTO   O29 1948   6.497   2.983   2.378  0.1316  0.3143 -0.1387
    5CHTO   C50 1949   6.576   3.011   2.259 -0.4580  0.5657  0.2221
    5CHTO   H92 1950   6.530   2.947   2.181 -1.7030  2.0810 -0.3240
    5CHTO   C54 1951   6.539   3.151   2.205 -0.2319 -0.4630 -0.8881
    5CHTO   O36 1952   6.433   3.148   2.110 -0.9423  0.0954 -0.3300
    5CHTO   H72 1953   6.464   3.111   2.029  0.7278  1.6927 -0.4526
    5CHTO   O27 1954   6.495   3.164   2.511  0.1651 -0.0637 -0.4665
    5CHTO   C37 1955   6.393   3.259   2.548  0.5659  0.1832  0.1376
    5CHTO   H79 1956   6.419   3.360   2.513 -1.7846  1.1292  1.0453
    5CHTO   C38 1957   6.257   3.223   2.479  0.6196 -0.2487 -0.5018
    5CHTO   H80 1958   6.228   3.120   2.506  0.8840 -0.8505 -2.4243
    5CHTO   O31 1959   6.264   3.232   2.337  0.8337  0.1663  0.5796
    5CHTO   H68 1960   6.279   3.315   2.295  1.6066 -0.5288 -0.5338
    5CHTO   C39 1961   6.141   3.317   2.537 -0.1438 -0.0774  0.8734
    5CHTO   H81 1962   6.165   3.420   2.512  1.7506 -0.7136 -0.0457
    5CHTO    N7 1963   6.002   3.281   2.488 -0.7361  0.0767  0.2926
    5CHTO   H73 1964   5.920   3.339   2.529 -0.6527 -0.1231  0.7405
    5CHTO   H74 1965   5.988   3.286   2.381 -1.3592 -3.0922  0.1752
    5CHTO   C40 1966   6.147   3.313   2.697 -0.3312  0.5800 -0.3608
    5CHTO   H82 1967   6.112   3.217   2.736 -2.3732  1.1439 -0.7144
    5CHTO   O26 1968   6.277   3.346   2.743  0.0822 -1.1830 -0.2613
    5CHTO   C41 1969   6.382   3.264   2.698 -0.1255 -0.0975  0.0918
    5CHTO   H83 1970   6.378   3.159   2.731 -3.2740 -1.0335 -2.9640
    5CHTO   C52 1971   6.510   3.336   2.754  0.4508  0.1650  0.2089
    5CHTO   O35 1972   6.521   3.321   2.922  0.3000  0.4425  0.3355
    5CHTO   H71 1973   6.599   3.368   2.944 -0.7963  2.0224  0.9530
    5CHTO   O28 1974   6.059   3.420   2.751 -0.1705  0.3612  0.0212
    5CHTO   C42 1975   5.988   3.405   2.881 -0.4325 -0.3847 -0.4172
    5CHTO   H84 1976   5.913   3.483   2.868 -1.2619 -1.3120 -1.2340
    5CHTO   C44 1977   6.067   3.445   3.008  0.6318  0.1157 -0.2043
    5CHTO   H86 1978   6.163   3.486   2.976 -0.3461  0.6293 -2.5645
    5CHTO   O32 1979   6.019   3.577   3.050 -0.1938 -0.3361  0.0859
    5CHTO   H69 1980   6.013   3.593   3.142  0.3927  2.1610 -0.2665
    5CHTO   C48 1981   6.091   3.346   3.126  0.3890  0.5026  0.2419
    5CHTO   H90 1982   6.010   3.360   3.198 -0.1246 -0.5922 -0.1054
    5CHTO    N9 1983   6.217   3.359   3.210  0.0959 -0.4734  0.3750
    5CHTO   H77 1984   6.195   3.292   3.292  0.3247 -0.9658  0.0306
    5CHTO   H78 1985   6.221   3.463   3.240 -1.5192 -0.6921  1.4161
    5CHTO   C51 1986   6.082   3.193   3.074 -0.3594 -0.3440 -0.2129
    5CHTO   H93 1987   6.155   3.182   2.993  0.1298  1.7734 -0.0901
    5CHTO   O30 1988   5.945   3.181   3.030  0.5990 -0.3702 -0.1161
    5CHTO   C46 1989   5.905   3.276   2.902  0.8356  0.2746  0.8845
    5CHTO   H88 1990   5.911   3.208   2.817  0.7768  2.6274 -1.0817
    5CHTO   C53 1991   5.758   3.318   2.923  0.1630 -0.4612  0.4337
    5CHTO   O72 1992   5.675   3.204   2.970 -0.2497 -0.5294 -0.4260
    5CHTO  H199 1993   5.668   3.205   3.063 -1.7856 -0.7227 -0.5285
    5CHTO   O22 1994   6.087   3.093   3.172 -0.1835  0.2210  0.2357
    5CHTO   C31 1995   6.112   2.949   3.135  0.0758  0.0950  0.3790
    5CHTO   H59 1996   6.075   2.890   3.221  0.9047  0.6145  1.0984
    5CHTO   C29 1997   6.039   2.905   3.007  0.2562  0.7945 -0.2186
    5CHTO   H57 1998   6.063   2.982   2.932 -1.8162 -0.5271 -2.3015
    5CHTO   O21 1999   5.900   2.906   3.036 -0.0582  0.1572  0.4286
    5CHTO   H37 2000   5.882   2.998   3.039 -3.9148 -0.4551 -1.0335
    5CHTO   C27 2001   6.090   2.765   2.959 -0.5786 -0.4102 -0.6306
    5CHTO   H55 2002   6.067   2.694   3.039 -2.7235  0.3242 -0.5772
    5CHTO    N5 2003   6.031   2.712   2.838 -0.6796 -0.1315 -0.7682
    5CHTO   H43 2004   6.079   2.754   2.750 -0.0384 -2.3007 -1.4892
    5CHTO   H44 2005   5.926   2.737   2.834 -0.2733  1.6996 -0.3490
    5CHTO   C25 2006   6.244   2.763   2.956 -0.6761  0.3974 -0.1913
    5CHTO   H53 2007   6.286   2.816   2.869  0.7665  0.0518  0.2817
    5CHTO   O17 2008   6.303   2.806   3.083 -0.2604 -0.3409 -0.1276
    5CHTO   C32 2009   6.263   2.937   3.125 -0.7197  0.3585 -0.5865
    5CHTO   H60 2010   6.298   3.012   3.055  1.6157  0.2127  0.3885
    5CHTO   C36 2011   6.325   2.966   3.265  0.5341  0.4951 -0.1544
    5CHTO   O25 2012   6.470   2.958   3.263 -0.1566  0.4245 -0.1695
    5CHTO   H40 2013   6.495   2.993   3.346  0.6310  0.0970 -0.2674
    5CHTO   O15 2014   6.299   2.629   2.940 -0.3105 -0.4562 -0.3022
    5CHTO   C19 2015   6.419   2.557   2.940  0.2105  0.3197  0.2132
    5CHTO   H47 2016   6.479   2.611   3.015  1.5068  0.0487 -0.6282
    5CHTO   C20 2017   6.399   2.409   2.986 -0.1368 -0.4207  0.4986
    5CHTO   H48 2018   6.318   2.361   2.929 -1.7985  1.3304  1.3011
    5CHTO   O19 2019   6.339   2.410   3.121  0.3208 -0.0489  0.0131
    5CHTO   H35 2020   6.248   2.426   3.108  0.7980  3.2218  0.0883
    5CHTO   C21 2021   6.534   2.321   2.981  0.4653 -0.7473 -0.3153
    5CHTO   H49 2022   6.590   2.343   3.072 -2.0380 -0.6204  1.2469
    5CHTO    N4 2023   6.517   2.176   2.984  0.3434  0.0383 -0.5577
    5CHTO   H41 2024   6.494   2.149   3.086 -0.7833  0.8923 -0.5667
    5CHTO   H42 2025   6.426   2.156   2.929  0.0625  0.7598 -0.3549
    5CHTO   C22 2026   6.634   2.362   2.864 -0.7956 -0.4763 -0.4394
    5CHTO   H50 2027   6.629   2.298   2.776  1.8629 -0.3260 -0.7429
    5CHTO   O14 2028   6.632   2.495   2.828 -0.1277  0.1284  0.7614
    5CHTO   C23 2029   6.504   2.559   2.808  0.2155  0.2647  0.2194
    5CHTO   H51 2030   6.455   2.501   2.728 -0.5458 -1.9257  2.2185
    5CHTO   C34 2031   6.542   2.699   2.762 -0.5344  0.1743 -0.0044
    5CHTO   O23 2032   6.592   2.695   2.632  0.1239 -0.1165  0.0358
    5CHTO   H38 2033   6.660   2.632   2.615 -1.7588 -2.1261 -0.2542
    5CHTO   O16 2034   6.768   2.360   2.920 -0.3254  0.1454  0.0105
    5CHTO   C24 2035   6.880   2.301   2.825  0.3555  0.0407 -0.2256
    5CHTO   H52 2036   6.847   2.296   2.722 -1.0801  1.5454  0.1459
    5CHTO   C26 2037   6.928   2.168   2.879  0.4771  1.0009  0.2222
    5CHTO   H54 2038   6.946   2.171   2.988  1.7367 -0.0536  0.0499
    5CHTO   O20 2039   6.808   2.071   2.883 -0.2961 -0.0245 -0.5675
    5CHTO   H36 2040   6.839   1.993   2.925 -0.3337  0.2003 -0.1061
    5CHTO   C30 2041   7.059   2.113   2.810  0.4895  0.0581  0.5071
    5CHTO   H58 2042   7.035   2.079   2.708  1.5868 -0.1326  0.3044
    5CHTO    N6 2043   7.112   1.987   2.874 -0.0947  0.3345 -1.7013
    5CHTO   H45 2044   7.155   2.001   2.972 -1.6276  1.4789 -1.1562
    5CHTO   H46 2045   7.186   1.943   2.809  0.3115 -2.8938  0.8033
    5CHTO   C33 2046   7.163   2.229   2.802 -0.2784  0.6537  0.2894
    5CHTO   H61 2047   7.203   2.257   2.900  0.9451 -1.6899  0.5013
    5CHTO   O18 2048   7.098   2.344   2.741  0.1441  0.5632 -0.5449
    5CHTO   C28 2049   7.005   2.402   2.829  0.4067 -0.1080  0.0989
    5CHTO   H56 2050   7.045   2.407   2.931 -0.7971  2.3024  0.5068
    5CHTO   C35 2051   6.955   2.547   2.790 -0.2044  0.1696  0.3052
    5CHTO   O24 2052   6.905   2.613   2.911 -0.4096  0.5409  0.0618
    5CHTO   H39 2053   6.879   2.698   2.881 -1.7482  0.2554  0.3651
    5CHTO    O9 2054   7.281   2.193   2.722 -0.0012  0.2590  0.1010
    5CHTO   C13 2055   7.249   2.164   2.564  0.1107  0.3827  0.3116
    5CHTO   H26 2056   7.151   2.209   2.539 -0.8000  0.0334  3.0057
    5CHTO   C11 2057   7.249   2.003   2.538 -0.0741 -0.5535  0.2686
    5CHTO   H24 2058   7.157   1.947   2.561 -1.4008  0.5035 -2.2397
    5CHTO    O8 2059   7.349   1.946   2.624  0.9199 -0.0567 -0.6647
    5CHTO    H3 2060   7.361   1.997   2.701  0.9577  0.2061 -0.8466
    5CHTO    C9 2061   7.293   1.980   2.389  0.3342  0.6678 -0.4711
    5CHTO   H22 2062   7.217   2.029   2.327  1.9385  1.3138 -1.9772
    5CHTO    N2 2063   7.275   1.839   2.340  0.4460 -0.3575  0.5460
    5CHTO   H10 2064   7.189   1.793   2.388  0.6316 -1.5216 -0.2025
    5CHTO   H11 2065   7.365   1.785   2.362  0.9938  0.6253  0.7344
    5CHTO    C7 2066   7.433   2.049   2.351 -0.4723 -0.3018 -0.5411
    5CHTO   H20 2067   7.415   2.089   2.249  1.7105  1.6313 -0.2033
    5CHTO    O4 2068   7.461   2.161   2.439 -0.1454  0.0793 -0.4530
    5CHTO   C14 2069   7.350   2.243   2.468 -0.1500  0.1241  0.0194
    5CHTO   H27 2070   7.303   2.271   2.371  0.4685  1.8963  0.2160
    5CHTO   C18 2071   7.395   2.373   2.535  0.3294  0.4164 -0.3709
    5CHTO   O13 2072   7.491   2.440   2.457 -0.1510  0.1635 -0.1995
    5CHTO    H7 2073   7.548   2.380   2.413 -2.2756 -3.0473  1.2178
    5CHTO    O2 2074   7.575   1.944   2.342 -0.2353  0.4089  0.4417
    5CHTO    C1 2075   7.645   1.978   2.216 -0.0443 -0.1158 -0.1308
    5CHTO   H14 2076   7.630   2.086   2.200  1.0528  0.2101  0.9763
    5CHTO    C2 2077   7.584   1.904   2.094 -0.3377 -0.1393 -0.2030
    5CHTO   H15 2078   7.558   1.801   2.120  1.4360 -0.8990 -1.3074
    5CHTO    O6 2079   7.458   1.969   2.055  0.4122  0.2515 -0.1100
    5CHTO    H1 2080   7.388   1.908   2.042  0.0786  0.3186  1.2960
    5CHTO    C3 2081   7.672   1.894   1.966  0.4936 -0.0410 -0.2614
    5CHTO   H16 2082   7.685   1.988   1.911  2.3394 -1.1091 -1.7200
    5CHTO    N1 2083   7.606   1.797   1.868 -0.0534  0.1841 -0.1543
    5CHTO    H8 2084   7.632   1.693   1.881 -0.9387 -0.1177 -0.7220
    5CHTO    H9 2085   7.621   1.820   1.763  1.1152 -0.8717 -0.2263
    5CHTO    C4 2086   7.818   1.847   2.006  0.2932  0.0124 -0.8956
    5CHTO   H17 2087   7.814   1.746   2.047  0.2479  1.4127  2.7719
    5CHTO    O1 2088   7.873   1.937   2.111 -0.8056  0.0948  0.4285
    5CHTO    C5 2089   7.800   1.952   2.238 -0.2395 -0.1434  0.3265
    5CHTO   H18 2090   7.818   1.857   2.288 -0.0075 -1.0223 -1.3714
    5CHTO   C16 2091   7.868   2.067   2.311 -0.4271  0.6723  0.1791
    5CHTO   O11 2092   7.872   2.190   2.235  0.0040 -0.1407  0.2805
    5CHTO    H5 2093   7.898   2.264   2.287 -1.0527  0.6845 -0.3516
    5CHTO    O3 2094   7.912   1.860   1.904 -0.3682 -0.3486  0.2175
    5CHTO    C6 2095   8.027   1.768   1.891 -0.5311  0.2082 -0.0025
    5CHTO   H19 2096   8.056   1.725   1.987 -1.1392  0.3011  0.2213
    5CHTO    C8 2097   7.994   1.653   1.790  0.8460  0.1787 -0.1636
    5CHTO   H21 2098   7.932   1.697   1.712 -1.9980 -1.3821  1.1371
    5CHTO    O7 2099   7.912   1.555   1.861 -0.0612 -0.3987  0.1560
    5CHTO    H2 2100   7.824   1.588   1.861 -0.7563 -2.2443 -0.1467
    5CHTO   C12 2101   8.115   1.579   1.726  0.2396  0.1602 -0.3104
    5CHTO   H25 2102   8.140   1.498   1.797  0.5383  1.4159  1.0528
    5CHTO    N3 2103   8.068   1.502   1.604  0.0369 -0.6770 -0.1651
    5CHTO   H12 2104   8.148   1.447   1.557  1.4838  1.8288 -0.7289
    5CHTO   H13 2105   8.036   1.583   1.540  1.2345  0.1054  0.1992
    5CHTO   C15 2106   8.232   1.679   1.701  0.5001  0.4203  0.4927
    5CHTO   H28 2107   8.210   1.737   1.612 -2.0925  0.0786  0.8665
    5CHTO   O10 2108   8.372   1.600   1.665 -0.7323  0.2585 -0.0029
    5CHTO    H4 2109   8.418   1.652   1.602  1.3422 -1.2156  0.2384
    5CHTO    O5 2110   8.265   1.761   1.814 -0.3275 -0.5961  0.0738
    5CHTO   C10 2111   8.152   1.850   1.846  0.0688  0.2095  0.1408
    5CHTO   H23 2112   8.137   1.910   1.756 -0.8390  1.8293  1.3514
    5CHTO   C17 2113   8.204   1.942   1.965  0.1306 -0.6769  0.3262
    5CHTO   O12 2114   8.300   2.039   1.939 -0.1847 -0.7463  0.1693
    5CHTO    H6 2115   8.354   2.020   1.865 -1.8041 -2.4268 -0.6043
    6CHTO  H203 2116   7.668   4.508   0.346  1.3524  0.4004  1.3319
    6CHTO   O82 2117   7.618   4.523   0.424 -0.3428 -0.4426  0.4311
    6CHTO  C123 2118   7.512   4.616   0.400 -0.0065  0.0297 -0.6072
    6CHTO  H227 2119   7.551   4.703   0.345  0.2654  0.4547  0.2425
    6CHTO   O77 2120   7.405   4.545   0.327 -0.1980  0.3694  0.5355
    6CHTO  C118 2121   7.298   4.628   0.290  0.2673  0.3339  0.3969
    6CHTO  H222 2122   7.336   4.707   0.223  0.4845  0.7567  1.0174
    6CHTO  C125 2123   7.190   4.540   0.200 -0.3444 -0.2827 -0.4145
    6CHTO   O84 2124   7.240   4.493   0.072 -0.0463 -0.2093  0.0225
    6CHTO  H205 2125   7.317   4.442   0.087  0.0592 -0.6521 -1.8855
    6CHTO  C114 2126   7.221   4.688   0.413 -0.4306  0.8857 -0.9799
    6CHTO  H218 2127   7.176   4.603   0.465  0.3156  0.6110 -0.7845
    6CHTO  C116 2128   7.326   4.757   0.507  0.3348 -0.6910  0.0581
    6CHTO  H220 2129   7.355   4.854   0.463  0.9180 -0.6513  0.5195
    6CHTO   O79 2130   7.256   4.791   0.632  0.1083 -0.4420 -0.7740
    6CHTO  H201 2131   7.217   4.875   0.617 -0.9338 -0.9291 -0.8390
    6CHTO  C120 2132   7.457   4.675   0.534  0.2292 -0.0795 -0.6388
    6CHTO  H224 2133   7.420   4.590   0.595 -0.5463  0.6482 -0.0807
    6CHTO   N21 2134   7.566   4.750   0.606 -0.0188  0.1669 -0.0450
    6CHTO  H211 2135   7.535   4.755   0.709 -3.4474 -0.5765 -0.9967
    6CHTO  H212 2136   7.665   4.707   0.609 -1.4286 -3.2399  0.1644
    6CHTO   O75 2137   7.118   4.782   0.366 -0.0816  0.0326  0.3667
    6CHTO  C112 2138   6.967   4.779   0.435 -0.3297 -0.4635  0.3755
    6CHTO  H216 2139   6.977   4.772   0.545  1.5918 -1.8953  0.1346
    6CHTO   O73 2140   6.901   4.664   0.380 -0.0805  0.4466 -0.3387
    6CHTO  C113 2141   6.777   4.639   0.449 -0.2486  0.3995  0.1395
    6CHTO  H217 2142   6.804   4.629   0.556  1.6825  0.3058 -0.3411
    6CHTO  C124 2143   6.708   4.514   0.401 -0.1250  1.0827 -0.3185
    6CHTO   O83 2144   6.773   4.386   0.435 -0.0778 -0.3891  0.0801
    6CHTO  H204 2145   6.723   4.315   0.400 -0.5170 -0.1852  0.2942
    6CHTO  C109 2146   6.678   4.753   0.434  1.0552  0.2994 -0.2195
    6CHTO  H213 2147   6.646   4.753   0.328 -2.2156  0.8533  0.7174
    6CHTO  C110 2148   6.741   4.890   0.469 -0.4603 -0.1717  0.3529
    6CHTO  H214 2149   6.756   4.904   0.576 -0.2195 -1.8418  0.5471
    6CHTO   O78 2150   6.645   4.990   0.424 -0.1586  0.0305  0.4558
    6CHTO  H200 2151   6.648   5.076   0.462  0.0862  1.2371 -2.1700
    6CHTO  C111 2152   6.884   4.912   0.407  0.7231 -0.5011 -0.3053
    6CHTO  H215 2153   6.868   4.921   0.299 -0.7414 -2.9780 -0.3402
    6CHTO   N19 2154   6.968   5.032   0.446 -0.1273 -0.1448 -0.5991
    6CHTO  H207 2155   6.912   5.116   0.409  0.0349 -0.0167 -0.5554
    6CHTO  H208 2156   7.071   5.018   0.418  0.0016  0.2140 -0.3115
    6CHTO   O74 2157   6.548   4.729   0.498  0.3161 -0.0077  0.2054
    6CHTO  C115 2158   6.541   4.679   0.653  0.2025 -0.1996 -0.6993
    6CHTO  H219 2159   6.630   4.619   0.673 -1.2771 -3.5444 -3.7108
    6CHTO   O76 2160   6.541   4.797   0.745  0.3527  0.8977 -0.1524
    6CHTO  C122 2161   6.432   4.884   0.720 -0.2167 -0.7140  0.4018
    6CHTO  H226 2162   6.457   4.930   0.624 -1.8527  2.0406  1.2615
    6CHTO  C126 2163   6.432   5.000   0.827  0.2596 -0.1449  0.6327
    6CHTO   O85 2164   6.447   4.961   0.961  0.4552 -0.9474  0.3617
    6CHTO  H206 2165   6.478   5.030   1.017  1.2475 -0.4578 -0.6693
    6CHTO  C121 2166   6.298   4.805   0.722 -0.6379 -0.6629 -0.1267
    6CHTO  H225 2167   6.243   4.847   0.808  0.6274 -0.8581  0.7999
    6CHTO   O81 2168   6.233   4.830   0.595  0.0627 -0.1781  0.2546
    6CHTO  H202 2169   6.161   4.771   0.587  0.3757 -0.9733  3.0387
    6CHTO  C119 2170   6.311   4.650   0.751  0.5972  0.1655 -0.6357
    6CHTO  H223 2171   6.342   4.633   0.854 -2.4355 -0.4687  0.1956
    6CHTO  C117 2172   6.416   4.583   0.654  0.7826  0.1562  0.4248
    6CHTO  H221 2173   6.372   4.576   0.554 -2.1960  0.1149  1.6963
    6CHTO   N20 2174   6.448   4.438   0.682  0.3999  0.9738  0.6015
    6CHTO  H209 2175   6.372   4.362   0.695  0.4281  0.6909 -0.7638
    6CHTO  H210 2176   6.545   4.412   0.642 -0.7227 -3.5898  0.5229
    6CHTO   O80 2177   6.172   4.575   0.748 -0.2076  0.1845  0.2571
    6CHTO  C103 2178   6.108   4.524   0.864 -0.5632  0.2117 -0.7030
    6CHTO  H190 2179   6.181   4.474   0.929 -2.0748 -0.2084  0.6987
    6CHTO  C101 2180   6.033   4.620   0.964  0.9113 -0.2820  0.1249
    6CHTO  H188 2181   5.956   4.678   0.914  0.5206 -1.5766 -0.8045
    6CHTO   O68 2182   6.138   4.735   1.023 -0.2031 -0.5681  0.1288
    6CHTO  H168 2183   6.113   4.823   1.001 -0.7788 -0.8768 -0.4662
    6CHTO   C99 2184   5.954   4.536   1.082 -0.2986 -0.1978 -0.4627
    6CHTO  H186 2185   6.028   4.492   1.152  3.1643  2.6991 -2.1734
    6CHTO   N17 2186   5.861   4.631   1.165 -1.1591  0.3126  0.2109
    6CHTO  H174 2187   5.784   4.579   1.220 -1.1447  2.2846  2.1409
    6CHTO  H175 2188   5.914   4.702   1.227 -0.2647 -0.6885  0.6138
    6CHTO   C97 2189   5.867   4.418   1.023 -0.0121  0.1093  0.5163
    6CHTO  H184 2190   5.775   4.455   0.976  2.3083  1.2083 -3.3461
    6CHTO   O64 2191   5.950   4.341   0.926  0.5910  0.0148  0.6558
    6CHTO  C104 2192   6.008   4.416   0.817 -0.2180  0.1584 -0.4800
    6CHTO  H191 2193   5.934   4.464   0.753 -0.2015 -0.3409 -0.8750
    6CHTO  C108 2194   6.081   4.307   0.731  0.6651 -0.0403 -0.1238
    6CHTO   O71 2195   5.993   4.255   0.631 -0.5474 -0.1470  0.3555
    6CHTO  H171 2196   5.993   4.305   0.551  1.2774 -1.8873 -0.7930
    6CHTO   O62 2197   5.824   4.330   1.132  0.3547 -0.7906  0.4079
    6CHTO   C91 2198   5.687   4.301   1.162  0.3915 -0.0994  0.2839
    6CHTO  H178 2199   5.634   4.387   1.122 -0.1335 -0.7472 -0.4395
    6CHTO   C92 2200   5.666   4.306   1.321 -0.2017 -0.0161 -0.3604
    6CHTO  H179 2201   5.703   4.402   1.358 -0.3171 -0.9427  2.2239
    6CHTO   O66 2202   5.522   4.320   1.344  0.1429  0.2262  0.6465
    6CHTO  H166 2203   5.458   4.272   1.295  0.8064  1.0425 -1.0529
    6CHTO   C93 2204   5.708   4.173   1.399  0.0082  0.1752  1.2924
    6CHTO  H180 2205   5.638   4.152   1.481 -1.2143  0.5397  0.3611
    6CHTO   N16 2206   5.843   4.182   1.456 -0.0637 -0.0521 -0.1746
    6CHTO  H172 2207   5.905   4.170   1.368 -0.3305 -2.1679 -0.1012
    6CHTO  H173 2208   5.863   4.280   1.497  0.1021  0.6838 -1.9236
    6CHTO   C94 2209   5.705   4.048   1.296 -0.2953 -0.4655 -0.2610
    6CHTO  H181 2210   5.796   4.038   1.236  1.1248 -1.6705  1.9940
    6CHTO   O61 2211   5.599   4.062   1.201  0.4558  0.2649 -0.1315
    6CHTO   C95 2212   5.642   4.162   1.104  0.2751 -1.1413  0.4113
    6CHTO  H182 2213   5.729   4.127   1.047  1.1211  0.5837  0.6253
    6CHTO  C106 2214   5.529   4.183   0.994 -0.3632  0.4204  0.1247
    6CHTO   O69 2215   5.503   4.073   0.907  0.1637 -0.4086  0.1763
    6CHTO  H169 2216   5.484   4.091   0.817 -1.0753 -1.3135  0.2386
    6CHTO   O63 2217   5.677   3.911   1.373  0.1458  0.5117 -0.6381
    6CHTO   C96 2218   5.729   3.777   1.287  0.0164  0.6145  0.1254
    6CHTO  H183 2219   5.794   3.812   1.206 -0.8271 -1.4265 -1.4834
    6CHTO   C98 2220   5.618   3.692   1.219 -0.2395 -0.1982  0.1124
    6CHTO  H185 2221   5.548   3.660   1.297  0.6492 -1.5718  0.3626
    6CHTO   O67 2222   5.543   3.774   1.131 -0.2049 -0.3529  0.8767
    6CHTO  H167 2223   5.578   3.780   1.044  0.3976 -1.7454  0.9975
    6CHTO  C102 2224   5.681   3.561   1.147 -0.0360 -0.2316  0.1045
    6CHTO  H189 2225   5.688   3.587   1.041 -0.7405 -0.2991  0.0376
    6CHTO   N18 2226   5.588   3.450   1.151 -0.3809  0.3249 -0.7288
    6CHTO  H176 2227   5.610   3.384   1.234  1.5945  0.5167 -1.0837
    6CHTO  H177 2228   5.604   3.396   1.059  0.7260  0.8896 -0.8715
    6CHTO  C105 2229   5.826   3.537   1.194 -0.7608  0.2783 -0.2502
    6CHTO  H192 2230   5.854   3.435   1.167 -0.3991  0.3300 -0.0753
    6CHTO   O65 2231   5.852   3.554   1.340 -0.7957  0.0662  0.4822
    6CHTO  C100 2232   5.827   3.690   1.373 -0.1497  0.5128 -0.1642
    6CHTO  H187 2233   5.789   3.687   1.476  0.6738  2.2620  0.2222
    6CHTO  C107 2234   5.968   3.760   1.397  0.1073 -1.0292 -0.5458
    6CHTO   O70 2235   6.031   3.702   1.509  0.7594 -0.1886 -0.2186
    6CHTO  H170 2236   6.052   3.611   1.493 -0.7548 -0.5707 -0.0788
    6CHTO   O57 2237   5.913   3.626   1.103  0.1610  0.6249  0.2622
    6CHTO   C85 2238   6.008   3.572   1.011  0.6554 -0.7424 -0.7237
    6CHTO  H157 2239   5.956   3.501   0.944  1.2943 -2.6032  0.6790
    6CHTO   C83 2240   6.118   3.489   1.080 -0.2814  0.7170  0.5245
    6CHTO  H155 2241   6.079   3.391   1.107  1.9426  0.5415  3.3259
    6CHTO   O56 2242   6.150   3.558   1.208  0.0785 -0.4631 -0.4227
    6CHTO  H135 2243   6.232   3.604   1.212 -0.4861  0.9525 -3.8720
    6CHTO   C81 2244   6.248   3.462   0.995  0.7947  1.1340 -0.4007
    6CHTO  H153 2245   6.221   3.397   0.912  1.0296 -1.2552  1.3463
    6CHTO   N14 2246   6.350   3.383   1.064 -0.3921 -0.0522 -0.3884
    6CHTO  H141 2247   6.370   3.425   1.161  1.7884  0.2725 -0.9515
    6CHTO  H142 2248   6.441   3.365   1.012 -0.2111 -0.4895  0.0736
    6CHTO   C79 2249   6.297   3.603   0.947  0.7406  0.9263 -0.2100
    6CHTO  H151 2250   6.385   3.590   0.883 -0.0902 -1.8162 -0.8759
    6CHTO   O52 2251   6.194   3.661   0.863  0.0040  0.3960 -0.0072
    6CHTO   C86 2252   6.071   3.695   0.928 -0.2961  0.3879  0.7835
    6CHTO  H158 2253   6.102   3.784   0.986 -0.5860  2.6761 -2.4414
    6CHTO   C90 2254   5.970   3.755   0.825 -0.1280  0.3161  0.1481
    6CHTO   O60 2255   5.857   3.819   0.893  0.3976 -0.4628 -0.7408
    6CHTO  H138 2256   5.788   3.823   0.829  0.4859 -1.2377 -0.8954
    6CHTO   O50 2257   6.333   3.697   1.045  0.3729  0.3565 -0.1023
    6CHTO   C73 2258   6.390   3.741   1.173  0.0314  0.3272 -0.5481
    6CHTO  H145 2259   6.378   3.660   1.247  1.1331  0.0777 -0.6293
    6CHTO   C74 2260   6.306   3.865   1.241  0.6237  0.9427  0.6829
    6CHTO  H146 2261   6.199   3.842   1.249  1.0461 -1.4184 -0.0069
    6CHTO   O54 2262   6.363   3.868   1.378  0.3515 -0.0477  0.5354
    6CHTO  H133 2263   6.289   3.846   1.430 -0.1309  0.1492 -0.0643
    6CHTO   C75 2264   6.336   3.999   1.161 -0.7934 -0.0352 -0.4615
    6CHTO  H147 2265   6.285   3.995   1.064 -0.6348 -0.2999 -0.5334
    6CHTO   N13 2266   6.266   4.112   1.229  0.6836 -0.5609 -0.8649
    6CHTO  H139 2267   6.276   4.119   1.337 -0.3201 -0.6238 -0.7688
    6CHTO  H140 2268   6.164   4.137   1.206  0.4531 -0.7517 -0.0915
    6CHTO   C76 2269   6.493   4.022   1.148  0.0901  0.1787  0.6631
    6CHTO  H148 2270   6.534   4.035   1.249  1.1172  0.8628  0.1593
    6CHTO   O49 2271   6.557   3.904   1.096 -0.3678  0.3696  0.6115
    6CHTO   C77 2272   6.542   3.785   1.168 -0.2398 -0.3432 -0.0150
    6CHTO  H149 2273   6.587   3.798   1.267 -0.9036  1.4685  0.0855
    6CHTO   C88 2274   6.627   3.677   1.105  0.8446  0.1750  1.0848
    6CHTO   O58 2275   6.636   3.689   0.974 -0.1370  0.2022 -0.4147
    6CHTO  H136 2276   6.670   3.774   0.951  0.6779  0.2350  0.8929
    6CHTO   O51 2277   6.534   4.137   1.048 -0.1383 -0.1422  0.0640
    6CHTO   C78 2278   6.591   4.260   1.125  0.8247  0.3102 -0.3020
    6CHTO  H150 2279   6.577   4.262   1.235 -1.2331 -0.8801 -0.5275
    6CHTO   C80 2280   6.525   4.386   1.068 -0.4889 -0.2499  0.8948
    6CHTO  H152 2281   6.539   4.379   0.958  1.6519  1.8278  1.0065
    6CHTO   O55 2282   6.387   4.376   1.096  0.4282 -0.0835  0.4537
    6CHTO  H134 2283   6.351   4.346   1.015  3.2442  0.4286 -1.0525
    6CHTO   C84 2284   6.592   4.524   1.119  0.3664  0.5964 -0.3715
    6CHTO  H156 2285   6.562   4.521   1.223 -0.6954 -0.1533 -0.6903
    6CHTO   N15 2286   6.526   4.651   1.065  0.2096 -0.8614  0.8363
    6CHTO  H143 2287   6.438   4.685   1.115  1.6315  0.1841  2.6946
    6CHTO  H144 2288   6.586   4.740   1.056 -0.1246 -0.6111  1.1016
    6CHTO   C87 2289   6.747   4.517   1.096 -0.2513 -0.4533  1.4742
    6CHTO  H159 2290   6.760   4.523   0.988  0.7121 -0.1369  1.6092
    6CHTO   O53 2291   6.799   4.392   1.155 -0.3154 -0.0621  0.0085
    6CHTO   C82 2292   6.745   4.269   1.098  0.1020  0.5195  0.6784
    6CHTO  H154 2293   6.765   4.246   0.994 -0.4160 -1.4521  0.9906
    6CHTO   C89 2294   6.816   4.154   1.183  0.4406 -0.4889  0.1512
    6CHTO   O59 2295   6.768   4.149   1.322 -0.4099  0.5161  0.1956
    6CHTO  H137 2296   6.826   4.187   1.385 -0.1000 -0.5819  0.5852
    6CHTO   O45 2297   6.808   4.641   1.173 -0.6825  0.2344 -0.8178
    6CHTO   C67 2298   6.945   4.686   1.134  0.0763  0.3636  0.4167
    6CHTO  H124 2299   7.009   4.599   1.120 -0.6035 -0.2301  0.9569
    6CHTO   C65 2300   6.938   4.766   0.999 -0.0686  0.2449  0.6036
    6CHTO  H122 2301   6.832   4.779   0.975  0.0165 -0.8774 -0.4085
    6CHTO   O44 2302   6.982   4.686   0.886  0.2899 -0.0309 -0.0321
    6CHTO  H102 2303   6.998   4.742   0.813 -0.0192  3.0380  2.1537
    6CHTO   C63 2304   7.000   4.911   1.020  0.0244 -0.4792  0.7297
    6CHTO  H120 2305   6.940   4.963   1.095 -0.7372  0.0170 -0.2102
    6CHTO   N11 2306   6.983   5.004   0.903 -0.3483  0.1205  0.3189
    6CHTO  H108 2307   6.906   5.076   0.921 -0.8504 -0.3335 -0.0147
    6CHTO  H109 2308   6.957   4.942   0.820 -1.2037 -0.1909  0.8245
    6CHTO   C61 2309   7.137   4.900   1.084 -0.4425  0.1260  0.1583
    6CHTO  H118 2310   7.152   5.006   1.107  0.1388 -0.1219  0.9463
    6CHTO   O40 2311   7.137   4.835   1.207 -0.0686  0.4840 -0.1013
    6CHTO   C68 2312   7.007   4.773   1.255 -0.4229 -0.2771  0.0655
    6CHTO  H125 2313   6.944   4.850   1.304 -0.1769  0.4751 -0.7941
    6CHTO   C72 2314   7.049   4.678   1.369 -0.0287 -0.2439 -0.9465
    6CHTO   O48 2315   7.152   4.718   1.461 -0.0379 -0.0569  0.1052
    6CHTO  H105 2316   7.110   4.777   1.520  0.8267  1.7526 -1.0468
    6CHTO   O38 2317   7.236   4.847   0.993 -0.2607  0.7881  0.2029
    6CHTO   C55 2318   7.381   4.862   1.020  0.5177 -0.0945  0.4262
    6CHTO  H112 2319   7.397   4.898   1.122 -2.5795 -1.3764  1.4312
    6CHTO   C56 2320   7.451   4.959   0.915 -0.3227 -0.0793 -0.0138
    6CHTO  H113 2321   7.455   4.908   0.818  1.3519  1.2697 -0.6835
    6CHTO   O42 2322   7.373   5.079   0.916  0.0810 -0.5653  0.4923
    6CHTO  H100 2323   7.285   5.072   0.885  0.5255  0.4241 -1.0918
    6CHTO   C57 2324   7.597   4.990   0.956 -0.8292  0.0133 -0.3685
    6CHTO  H114 2325   7.607   5.040   1.053 -2.0580 -0.3715 -0.0367
    6CHTO   N10 2326   7.663   5.098   0.877 -0.0021  0.3127  0.1301
    6CHTO  H106 2327   7.620   5.083   0.779  0.1024 -1.2398  0.3089
    6CHTO  H107 2328   7.622   5.190   0.915  1.4723  0.9525  0.1858
    6CHTO   C58 2329   7.676   4.854   0.954 -0.8363  0.4181 -0.2017
    6CHTO  H115 2330   7.686   4.817   0.850 -0.2102  1.9228 -0.6869
    6CHTO   O37 2331   7.595   4.751   1.032  0.8483 -0.1151 -0.1490
    6CHTO   C59 2332   7.455   4.728   1.000 -0.3120 -0.3515 -0.4645
    6CHTO  H116 2333   7.444   4.693   0.898 -0.0260  0.4467 -0.7742
    6CHTO   C70 2334   7.404   4.614   1.088  0.0662 -0.5418 -0.3753
    6CHTO   O46 2335   7.275   4.571   1.049 -0.0477 -0.0262 -0.0013
    6CHTO  H103 2336   7.292   4.551   0.959  3.0897 -1.7098  0.8800
    6CHTO   O39 2337   7.814   4.864   1.030  0.0242 -0.2689 -0.3951
    6CHTO   C60 2338   7.929   4.801   0.972  0.8890 -0.0184  0.0190
    6CHTO  H117 2339   7.899   4.701   0.939  0.9925 -0.0518  0.0260
    6CHTO   C62 2340   7.963   4.867   0.839  0.4098  0.3448 -0.1656
    6CHTO  H119 2341   7.872   4.856   0.776 -0.4680  5.3609  0.0347
    6CHTO   O43 2342   7.989   5.005   0.873  0.2002  0.1814  0.0854
    6CHTO  H101 2343   7.914   5.059   0.887  0.6993  1.1492 -0.8514
    6CHTO   C66 2344   8.084   4.794   0.766  0.4569 -0.1476  0.2894
    6CHTO  H123 2345   8.057   4.692   0.739  1.3526 -0.5440  0.8696
    6CHTO   N12 2346   8.123   4.860   0.642 -0.1370  0.1932  0.7299
    6CHTO  H110 2347   8.146   4.958   0.679 -2.4874  0.5735  1.2970
    6CHTO  H111 2348   8.214   4.815   0.605 -0.0401  1.2598 -0.3439
    6CHTO   C69 2349   8.201   4.799   0.867 -0.3890 -0.2189  0.0443
    6CHTO  H126 2350   8.223   4.905   0.890 -0.7474  0.1248 -1.1646
    6CHTO   O41 2351   8.160   4.722   0.995 -0.4977  0.4523 -0.2264
    6CHTO   C64 2352   8.050   4.788   1.061  0.2879 -0.4653  0.2768
    6CHTO  H121 2353   8.078   4.892   1.086 -0.9361  0.1629 -0.8967
    6CHTO   C71 2354   8.024   4.706   1.185  0.6981  0.0807  0.3619
    6CHTO   O47 2355   7.922   4.756   1.263  0.0895  0.0645  0.3728
    6CHTO  H104 2356   7.938   4.711   1.344  0.3156 -1.6393 -0.6110
    6CHTO   O34 2357   8.338   4.753   0.816 -0.1930 -0.0089 -0.3240
    6CHTO   C49 2358   8.488   4.818   0.840  0.0985  0.2690 -0.7540
    6CHTO   H91 2359   8.542   4.784   0.752 -1.1760 -0.0875 -1.4182
    6CHTO   C47 2360   8.568   4.771   0.962  0.0176  0.5514 -0.5653
    6CHTO   H89 2361   8.674   4.803   0.958  0.6314 -1.4786 -1.7167
    6CHTO   O33 2362   8.565   4.626   0.950 -0.0638 -0.4465 -0.1179
    6CHTO   H70 2363   8.516   4.586   1.019  2.1074 -0.8027  1.2523
    6CHTO   C45 2364   8.506   4.833   1.093  0.5298 -0.0807  0.4329
    6CHTO   H87 2365   8.398   4.812   1.092  0.4364  0.3320 -2.9079
    6CHTO    N8 2366   8.566   4.773   1.212 -0.0720  0.4599  0.3515
    6CHTO   H75 2367   8.666   4.811   1.227  1.3635 -2.4290 -1.4843
    6CHTO   H76 2368   8.587   4.668   1.195  0.2715  0.5783  0.0423
    6CHTO   C43 2369   8.505   4.994   1.093 -0.7031 -0.4213 -0.0417
    6CHTO   H85 2370   8.461   5.036   1.184 -0.3286  2.3324 -1.0968
    6CHTO   O29 2371   8.440   5.040   0.969  0.0428  0.3470  0.6695
    6CHTO   C50 2372   8.479   4.977   0.844  1.0682 -1.0362 -0.0326
    6CHTO   H92 2373   8.406   4.999   0.765  2.4976 -1.8048 -1.5837
    6CHTO   C54 2374   8.604   5.038   0.777 -0.4692  0.0997 -0.2472
    6CHTO   O36 2375   8.578   5.186   0.781 -0.0203  0.4714  0.1262
    6CHTO   H72 2376   8.637   5.226   0.720  0.4276 -0.2620  0.0811
    6CHTO   O27 2377   8.641   5.048   1.104 -0.7450  0.6597  0.1876
    6CHTO   C37 2378   8.714   5.146   1.175  1.5064  0.3382  0.4719
    6CHTO   H79 2379   8.817   5.114   1.196  1.3738  0.6544  1.6203
    6CHTO   C38 2380   8.720   5.280   1.092  0.2301 -0.0092 -0.1825
    6CHTO   H80 2381   8.621   5.322   1.067  0.0057  0.4675  1.4046
    6CHTO   O31 2382   8.788   5.258   0.974  0.2492  0.1662  0.6890
    6CHTO   H68 2383   8.741   5.291   0.900 -0.2357 -2.3186 -0.1498
    6CHTO   C39 2384   8.789   5.403   1.176 -0.5072  0.9883 -0.3605
    6CHTO   H81 2385   8.891   5.371   1.197 -1.2518 -1.8355 -0.7969
    6CHTO    N7 2386   8.800   5.534   1.097  0.9609 -0.2000 -0.0319
    6CHTO   H73 2387   8.811   5.502   0.994  0.4596  0.9411 -0.4440
    6CHTO   H74 2388   8.711   5.592   1.114  1.5196  0.6613 -0.0199
    6CHTO   C40 2389   8.720   5.418   1.312  0.1610 -0.3839 -0.1629
    6CHTO   H82 2390   8.618   5.457   1.298  1.7818  3.2569 -2.8424
    6CHTO   O26 2391   8.723   5.293   1.384  0.6423  0.0108 -0.1908
    6CHTO   C41 2392   8.643   5.181   1.317  0.2123 -0.3270  0.1788
    6CHTO   H83 2393   8.541   5.217   1.300  0.7872  1.5208  0.5235
    6CHTO   C52 2394   8.648   5.061   1.419 -0.3076  0.2087  0.1971
    6CHTO   O35 2395   8.551   5.073   1.524 -0.4428 -0.2119  0.0409
    6CHTO   H71 2396   8.481   5.016   1.498 -0.5216 -0.1199  0.0550
    6CHTO   O28 2397   8.793   5.504   1.396 -0.1567  0.0259  0.0392
    6CHTO   C42 2398   8.732   5.568   1.510  0.3849  0.6883  0.2480
    6CHTO   H84 2399   8.816   5.624   1.552  0.5415  1.7317 -1.4256
    6CHTO   C44 2400   8.677   5.469   1.620  0.3377  0.4190 -0.0223
    6CHTO   H86 2401   8.588   5.421   1.581 -0.5082  1.9880 -0.0480
    6CHTO   O32 2402   8.773   5.369   1.648 -0.0792 -0.3054  0.2630
    6CHTO   H69 2403   8.770   5.312   1.574 -0.7105 -0.3093  0.2898
    6CHTO   C48 2404   8.627   5.543   1.750  0.6399 -0.1571  0.5594
    6CHTO   H90 2405   8.715   5.591   1.792  1.1367 -0.0424 -0.5741
    6CHTO    N9 2406   8.560   5.450   1.846 -0.0942 -0.6125 -0.0288
    6CHTO   H77 2407   8.567   5.495   1.944 -0.0042 -0.1734 -0.2394
    6CHTO   H78 2408   8.464   5.415   1.811  0.4035 -0.5435 -1.5085
    6CHTO   C51 2409   8.537   5.668   1.712  0.2576  0.6943  0.3814
    6CHTO   H93 2410   8.437   5.636   1.683  0.9260 -1.1717  0.0387
    6CHTO   O30 2411   8.603   5.741   1.608 -0.3374  0.0502 -0.3472
    6CHTO   C46 2412   8.626   5.676   1.478 -0.9060  0.4501  0.1183
    6CHTO   H88 2413   8.531   5.633   1.447 -0.0661 -2.3864  1.3481
    6CHTO   C53 2414   8.688   5.783   1.378 -0.1021 -0.3031 -0.2555
    6CHTO   O72 2415   8.581   5.868   1.340 -0.1538 -0.7926  0.0870
    6CHTO  H199 2416   8.594   5.908   1.256  3.4221  0.6066  1.2169
    6CHTO   O22 2417   8.516   5.746   1.828  0.1859  0.3849 -0.4777
    6CHTO   C31 2418   8.425   5.867   1.862  0.7941  0.0828  0.3369
    6CHTO   H59 2419   8.449   5.896   1.966  1.7522 -1.5226  0.5801
    6CHTO   C29 2420   8.448   5.989   1.773  0.5944  0.4678  0.2878
    6CHTO   H57 2421   8.439   5.946   1.672  1.3831  0.8854  0.0326
    6CHTO   O21 2422   8.583   6.034   1.785  0.0397 -0.5450 -0.1426
    6CHTO   H37 2423   8.590   6.067   1.872 -1.4569  1.2893 -0.6749
    6CHTO   C27 2424   8.337   6.105   1.794 -0.5533 -0.0286  0.0011
    6CHTO   H55 2425   8.357   6.153   1.891 -1.3460  0.2521  0.0310
    6CHTO    N5 2426   8.344   6.208   1.694  0.2763 -0.5373 -0.1750
    6CHTO   H43 2427   8.345   6.306   1.740  1.2954 -0.6122 -0.0440
    6CHTO   H44 2428   8.256   6.214   1.630 -1.5119 -1.6086  2.1349
    6CHTO   C25 2429   8.188   6.039   1.801 -0.3522  0.3060 -0.0896
    6CHTO   H53 2430   8.153   5.998   1.705  1.2158 -0.9983 -0.1138
    6CHTO   O17 2431   8.187   5.938   1.901  0.0838  0.1313  0.6419
    6CHTO   C32 2432   8.265   5.823   1.862  0.1847  0.3646 -0.1866
    6CHTO   H60 2433   8.231   5.787   1.765 -0.5630  2.5368 -0.7803
    6CHTO   C36 2434   8.242   5.702   1.964  0.1499  0.1730  1.0364
    6CHTO   O25 2435   8.297   5.716   2.094 -0.2714  0.2696 -0.2723
    6CHTO   H40 2436   8.235   5.724   2.164  1.3834 -2.6030  1.6169
    6CHTO   O15 2437   8.066   6.156   1.826  0.1221 -1.0310 -0.2167
    6CHTO   C19 2438   7.965   6.192   1.931 -0.7584 -0.2674  0.4562
    6CHTO   H47 2439   7.960   6.101   1.993 -1.2589  0.0136  0.8247
    6CHTO   C20 2440   8.010   6.308   2.006 -0.3421 -0.0243 -0.4031
    6CHTO   H48 2441   8.028   6.391   1.936 -0.7930  0.2698 -0.1742
    6CHTO   O19 2442   8.135   6.277   2.060 -0.2658  0.4422  0.1931
    6CHTO   H35 2443   8.194   6.334   2.014  0.1525  1.8578  2.3796
    6CHTO   C21 2444   7.916   6.347   2.122 -0.5078 -0.5751  0.4090
    6CHTO   H49 2445   7.921   6.268   2.197  1.0805 -0.7060  0.1802
    6CHTO    N4 2446   7.952   6.471   2.199 -0.0391 -0.2115  0.2378
    6CHTO   H41 2447   8.027   6.465   2.277  1.4160  1.7328 -0.9686
    6CHTO   H42 2448   7.968   6.560   2.141 -0.7119  1.9495  3.2371
    6CHTO   C22 2449   7.769   6.352   2.067  0.2684  0.1662 -0.3972
    6CHTO   H50 2450   7.753   6.442   2.007 -0.3308  1.3678  1.5371
    6CHTO   O14 2451   7.737   6.241   1.993  0.1087  0.8043 -0.2936
    6CHTO   C23 2452   7.818   6.216   1.883 -0.6083  0.3938 -0.9469
    6CHTO   H51 2453   7.811   6.290   1.802 -0.6700  1.7783  0.3173
    6CHTO   C34 2454   7.759   6.092   1.821 -0.1155  0.2897  0.3478
    6CHTO   O23 2455   7.798   6.060   1.687 -0.2238  0.3680  0.1365
    6CHTO   H38 2456   7.729   6.047   1.625 -0.8014 -0.1891  0.8915
    6CHTO   O16 2457   7.670   6.338   2.174  0.3728 -0.0245  0.1932
    6CHTO   C24 2458   7.536   6.420   2.147  0.1336 -0.0936  0.2787
    6CHTO   H52 2459   7.536   6.468   2.050 -0.1631 -0.5000  0.0771
    6CHTO   C26 2460   7.519   6.536   2.249  0.5315  0.6145 -0.1621
    6CHTO   H54 2461   7.499   6.485   2.346 -0.8871  1.2292 -0.1187
    6CHTO   O20 2462   7.634   6.622   2.256  0.6008  0.8160 -0.1541
    6CHTO   H36 2463   7.699   6.583   2.311 -0.4764 -2.5691 -1.1984
    6CHTO   C30 2464   7.387   6.618   2.222 -0.8072  0.1171 -0.1471
    6CHTO   H58 2465   7.405   6.652   2.119 -2.0720  0.2992 -0.3194
    6CHTO    N6 2466   7.364   6.725   2.317  0.6595  0.3670 -0.5294
    6CHTO   H45 2467   7.404   6.699   2.414 -0.0913 -1.5664 -0.7194
    6CHTO   H46 2468   7.397   6.821   2.282 -0.4674  1.2549  0.8058
    6CHTO   C33 2469   7.268   6.520   2.219 -0.5175  0.7361 -0.0419
    6CHTO   H61 2470   7.250   6.483   2.321 -0.0628  1.3756  0.2726
    6CHTO   O18 2471   7.293   6.409   2.129 -0.2111 -0.3069 -0.1410
    6CHTO   C28 2472   7.414   6.330   2.158  0.5267  0.4084  0.6010
    6CHTO   H56 2473   7.402   6.276   2.252 -0.9902  0.8158  0.6621
    6CHTO   C35 2474   7.418   6.217   2.057  0.3065  0.1287  0.2397
    6CHTO   O24 2475   7.390   6.258   1.916 -0.2886  0.1888 -0.5316
    6CHTO   H39 2476   7.470   6.254   1.868  0.6259  1.1825  0.8739
    6CHTO    O9 2477   7.153   6.587   2.186 -0.6659  0.5530  0.0801
    6CHTO   C13 2478   7.021   6.559   2.260  0.5605  0.4885  0.0156
    6CHTO   H26 2479   7.031   6.604   2.361  0.0476  0.7783 -0.0620
    6CHTO   C11 2480   6.982   6.409   2.257  0.5671  0.4437  0.3685
    6CHTO   H24 2481   7.052   6.350   2.318  0.0078  0.3809  0.9478
    6CHTO    O8 2482   7.003   6.353   2.128 -0.6184 -0.3425  0.4705
    6CHTO    H3 2483   7.087   6.368   2.090 -0.7541 -2.4246 -0.7198
    6CHTO    C9 2484   6.841   6.400   2.315  0.4943 -0.2447  0.5387
    6CHTO   H22 2485   6.839   6.460   2.407  2.3698 -1.1616  1.2085
    6CHTO    N2 2486   6.806   6.262   2.363 -0.0573  1.0442  0.0481
    6CHTO   H10 2487   6.828   6.247   2.468 -1.1124  0.1029  0.1464
    6CHTO   H11 2488   6.708   6.231   2.331  0.2463  1.6109 -1.4525
    6CHTO    C7 2489   6.745   6.464   2.221  0.3705 -0.4458 -0.3804
    6CHTO   H20 2490   6.644   6.463   2.268  0.1023 -2.1943 -0.9701
    6CHTO    O4 2491   6.779   6.601   2.190 -0.3833 -0.0261  0.0408
    6CHTO   C14 2492   6.917   6.647   2.187 -0.6688 -0.9706 -0.3654
    6CHTO   H27 2493   6.920   6.745   2.240 -0.3019  0.4184 -2.8687
    6CHTO   C18 2494   6.956   6.678   2.039 -0.0413  0.2104 -0.3960
    6CHTO   O13 2495   6.896   6.794   1.981 -0.0514 -1.0409 -0.7384
    6CHTO    H7 2496   6.961   6.835   1.927 -0.4560 -0.1456 -0.5561
    6CHTO    O2 2497   6.733   6.382   2.081 -0.1333  0.1058  0.3925
    6CHTO    C1 2498   6.608   6.367   2.015  0.2317  0.2412  0.1773
    6CHTO   H14 2499   6.623   6.332   1.910  0.6929  0.0811  0.2992
    6CHTO    C2 2500   6.514   6.498   2.018  0.3149  0.2329  0.1679
    6CHTO   H15 2501   6.499   6.518   2.126 -0.6920 -1.8515  0.4340
    6CHTO    O6 2502   6.581   6.605   1.951 -0.3213 -0.6824 -0.4409
    6CHTO    H1 2503   6.559   6.692   1.978  0.0937 -0.4697 -0.7872
    6CHTO    C3 2504   6.376   6.459   1.948 -0.1659 -0.1710 -0.8211
    6CHTO   H16 2505   6.389   6.447   1.839 -1.3094  3.5258 -1.4339
    6CHTO    N1 2506   6.277   6.568   1.957  0.0025  0.1657  0.0704
    6CHTO    H8 2507   6.316   6.667   1.934  3.6980 -1.4366 -0.9875
    6CHTO    H9 2508   6.240   6.563   2.058 -1.0505  0.7627 -0.2732
    6CHTO    C4 2509   6.311   6.331   1.998  0.2051  0.0719 -0.6328
    6CHTO   H17 2510   6.274   6.348   2.100  0.1782  0.9546 -0.7889
    6CHTO    O1 2511   6.413   6.230   1.992 -0.1914 -0.7308  0.3141
    6CHTO    C5 2512   6.528   6.250   2.079 -0.0570 -0.0820  0.4302
    6CHTO   H18 2513   6.511   6.279   2.182 -1.1656  0.5204  0.0857
    6CHTO   C16 2514   6.592   6.104   2.080  0.1677  0.1807 -0.0611
    6CHTO   O11 2515   6.624   6.056   1.945 -0.9107 -0.8139 -0.8018
    6CHTO    H5 2516   6.686   5.986   1.952  1.3973  1.3819  2.4428
    6CHTO    O3 2517   6.195   6.286   1.921  0.3058 -0.0648  0.4385
    6CHTO    C6 2518   6.085   6.212   2.001  0.7764  0.1028  0.4554
    6CHTO   H19 2519   6.090   6.217   2.110  0.6729  1.7042  0.3945
    6CHTO    C8 2520   5.948   6.286   1.981  0.1830  0.0872 -0.4245
    6CHTO   H21 2521   5.927   6.291   1.874  1.4102  0.6499 -0.6483
    6CHTO    O7 2522   5.976   6.417   2.035 -0.1373 -0.0416 -0.2198
    6CHTO    H2 2523   5.904   6.439   2.091  0.1502  2.3704 -0.7520
    6CHTO   C12 2524   5.833   6.201   2.050 -0.1574  0.9266 -0.1433
    6CHTO   H25 2525   5.858   6.214   2.158 -0.4301 -1.4791  0.2316
    6CHTO    N3 2526   5.698   6.265   2.027 -0.2545  1.1416  0.0301
    6CHTO   H12 2527   5.717   6.363   1.985 -0.3505  0.4022 -1.7826
    6CHTO   H13 2528   5.654   6.218   1.940 -0.2589  3.1742 -1.0820
    6CHTO   C15 2529   5.842   6.045   2.008  0.0423 -0.2771 -0.4930
    6CHTO   H28 2530   5.818   6.033   1.902 -0.8957 -0.2671 -0.2939
    6CHTO   O10 2531   5.731   5.934   2.097  0.1908 -0.7629  0.5739
    6CHTO    H4 2532   5.697   5.880   2.028 -0.4440  0.2021  0.1185
    6CHTO    O5 2533   5.973   5.994   2.039  0.1320 -0.1092 -0.1488
    6CHTO   C10 2534   6.072   6.067   1.961 -0.6617 -0.1616 -0.8386
    6CHTO   H23 2535   6.030   6.082   1.861  0.1283  0.9641 -1.0160
    6CHTO   C17 2536   6.199   5.986   1.944 -0.2613 -0.6660  0.2348
    6CHTO   O12 2537   6.272   5.985   2.063  0.2890 -0.0409  0.3880
    6CHTO    H6 2538   6.352   6.035   2.062  0.2970 -0.0773 -0.5569
    7CHTO  H203 2539   5.322   2.101   2.152 -0.9549 -1.3722 -0.2398
    7CHTO   O82 2540   5.379   2.041   2.109 -0.2319 -0.7830 -0.1174
    7CHTO  C123 2541   5.508   2.084   2.149  0.6926  0.0212  0.1433
    7CHTO  H227 2542   5.509   2.193   2.165  0.0590  0.0323  0.1240
    7CHTO   O77 2543   5.533   2.008   2.267 -0.6738  0.5242 -0.1905
    7CHTO  C118 2544   5.645   2.062   2.341 -0.1222 -0.2997 -0.7094
    7CHTO  H222 2545   5.641   2.170   2.357  0.2324 -0.2937 -0.6654
    7CHTO  C125 2546   5.651   1.995   2.479  0.5163  0.4483  0.2515
    7CHTO   O84 2547   5.532   2.035   2.554  0.4119 -0.5944 -0.2720
    7CHTO  H205 2548   5.515   1.982   2.629  0.1858 -0.3033 -0.1135
    7CHTO  C114 2549   5.773   2.021   2.264 -1.0240 -0.4100 -0.1441
    7CHTO  H218 2550   5.781   1.912   2.271  0.0192 -0.2748  0.7528
    7CHTO  C116 2551   5.754   2.078   2.116 -0.0235  0.3610 -0.4330
    7CHTO  H220 2552   5.758   2.189   2.112  0.3107  0.3703  0.1173
    7CHTO   O79 2553   5.860   2.024   2.034  0.1875 -0.1357  0.1178
    7CHTO  H201 2554   5.911   2.087   1.987 -0.7263  0.2573 -0.3528
    7CHTO  C120 2555   5.617   2.050   2.044 -0.6795 -0.1564  0.1683
    7CHTO  H224 2556   5.609   1.941   2.023 -0.2059 -0.3764  1.0908
    7CHTO   N21 2557   5.601   2.121   1.919 -0.2686 -0.5797 -0.3791
    7CHTO  H211 2558   5.644   2.220   1.919 -0.0811 -0.6570  0.5966
    7CHTO  H212 2559   5.643   2.065   1.836  1.9824  0.1044  0.2749
    7CHTO   O75 2560   5.888   2.094   2.324 -0.3530  0.1298  0.7018
    7CHTO  C112 2561   6.036   2.033   2.295  0.0217 -0.6492 -0.4972
    7CHTO  H216 2562   6.032   1.965   2.208 -2.8393 -1.1460 -0.0268
    7CHTO   O73 2563   6.079   1.959   2.409  0.0939 -0.2551 -0.1500
    7CHTO  C113 2564   6.205   1.885   2.397 -0.0410 -0.0082  0.2836
    7CHTO  H217 2565   6.205   1.833   2.299 -1.8365 -2.5672  1.5873
    7CHTO  C124 2566   6.228   1.777   2.508  0.1093  0.8721 -0.1425
    7CHTO   O83 2567   6.131   1.674   2.481 -0.2241  0.2105  0.7429
    7CHTO  H204 2568   6.108   1.619   2.554 -1.7350 -2.7866 -1.8611
    7CHTO  C109 2569   6.311   1.989   2.406 -0.5287 -0.2865  0.6682
    7CHTO  H213 2570   6.296   2.042   2.502 -0.3445  1.7322 -0.3994
    7CHTO  C110 2571   6.287   2.086   2.284 -0.5360 -0.6916 -0.5288
    7CHTO  H214 2572   6.321   2.026   2.199  2.5933 -1.1240  0.9903
    7CHTO   O78 2573   6.379   2.194   2.299 -0.1458 -0.2351 -0.0062
    7CHTO  H200 2574   6.392   2.221   2.388  0.8007 -0.0069 -0.2019
    7CHTO  C111 2575   6.141   2.142   2.261 -0.5154  0.3648  0.2444
    7CHTO  H215 2576   6.117   2.219   2.335 -0.6993 -1.2534  1.9166
    7CHTO   N19 2577   6.120   2.203   2.128 -0.6326 -0.2144  0.1313
    7CHTO  H207 2578   6.133   2.130   2.049  0.3968 -0.7863  0.8205
    7CHTO  H208 2579   6.185   2.288   2.121  0.3520 -0.9996 -0.4765
    7CHTO   O74 2580   6.448   1.927   2.401  0.1697  0.0262 -0.4058
    7CHTO  C115 2581   6.563   1.995   2.512 -0.2493 -0.4215  0.1378
    7CHTO  H219 2582   6.562   2.104   2.514  0.7384 -0.3744 -1.0735
    7CHTO   O76 2583   6.529   1.952   2.667  0.3771  0.3626  0.4255
    7CHTO  C122 2584   6.560   1.817   2.709 -1.0772 -0.4065 -0.3343
    7CHTO  H226 2585   6.494   1.753   2.651  0.8529 -0.9213 -2.0339
    7CHTO  C126 2586   6.523   1.788   2.860 -0.0256 -0.3145 -0.3383
    7CHTO   O85 2587   6.380   1.793   2.857 -0.3767 -0.1672  0.1973
    7CHTO  H206 2588   6.362   1.884   2.848 -0.3089 -0.1718  0.0001
    7CHTO  C121 2589   6.713   1.778   2.667  0.3794 -0.0065  0.4893
    7CHTO  H225 2590   6.792   1.843   2.711 -0.9648  0.7817  1.7759
    7CHTO   O81 2591   6.741   1.645   2.708 -0.1003 -0.6508 -0.5088
    7CHTO  H202 2592   6.763   1.642   2.799 -0.0558  1.7424 -0.4041
    7CHTO  C119 2593   6.721   1.786   2.511 -0.5587 -0.4492  0.0826
    7CHTO  H223 2594   6.820   1.755   2.479 -0.3053 -0.8009  1.1922
    7CHTO  C117 2595   6.709   1.941   2.460  0.1470 -0.2873  0.2191
    7CHTO  H221 2596   6.702   1.950   2.352 -0.3412 -0.5153  0.2280
    7CHTO   N20 2597   6.818   2.029   2.503  0.0335 -0.5585 -0.6031
    7CHTO  H209 2598   6.848   2.031   2.607 -1.2007 -0.3074 -0.2411
    7CHTO  H210 2599   6.798   2.133   2.482  0.5016  0.1940  2.4507
    7CHTO   O80 2600   6.629   1.681   2.439  0.4016  0.2446  0.1303
    7CHTO  C103 2601   6.665   1.642   2.287 -0.0238  0.0506 -0.2969
    7CHTO  H190 2602   6.657   1.730   2.223  0.3651 -1.1898 -2.0962
    7CHTO  C101 2603   6.811   1.582   2.268 -0.0082  0.5869  0.6621
    7CHTO  H188 2604   6.835   1.528   2.359 -0.0205 -0.5227  0.0128
    7CHTO   O68 2605   6.915   1.689   2.253 -0.1378 -0.0489 -0.6267
    7CHTO  H168 2606   6.887   1.748   2.186  1.4086 -0.8494 -2.0142
    7CHTO   C99 2607   6.819   1.484   2.137 -0.1346  0.3355  0.1932
    7CHTO  H186 2608   6.803   1.551   2.051  1.2464 -1.2698 -1.3517
    7CHTO   N17 2609   6.953   1.404   2.111 -0.1799 -0.5884  0.1955
    7CHTO  H174 2610   6.947   1.308   2.162  2.3959  0.7294  3.1478
    7CHTO  H175 2611   6.968   1.397   2.004 -2.9542  2.9318 -0.5185
    7CHTO   C97 2612   6.695   1.390   2.142 -0.3573  0.4393 -0.0632
    7CHTO  H184 2613   6.700   1.344   2.242 -0.5785 -1.6373 -0.9651
    7CHTO   O64 2614   6.584   1.476   2.125  0.5828 -0.1796  0.5132
    7CHTO  C104 2615   6.549   1.546   2.246 -0.1482 -0.5656 -0.0802
    7CHTO  H191 2616   6.521   1.487   2.333 -1.6405  1.9822  1.2253
    7CHTO  C108 2617   6.421   1.628   2.217  0.2219 -0.0730  0.5418
    7CHTO   O71 2618   6.312   1.566   2.146 -0.5653 -0.0338  0.1026
    7CHTO  H171 2619   6.231   1.600   2.178  0.2861  0.5317  1.7413
    7CHTO   O62 2620   6.686   1.286   2.039 -0.2320 -0.4131  0.1123
    7CHTO   C91 2621   6.595   1.179   2.039  0.3620  0.4168 -0.3400
    7CHTO  H178 2622   6.628   1.110   1.962  1.4269  1.1505 -0.5556
    7CHTO   C92 2623   6.452   1.227   1.985 -1.1779 -0.0856  0.2263
    7CHTO  H179 2624   6.437   1.327   2.026 -0.6475 -0.2704  0.8748
    7CHTO   O66 2625   6.459   1.226   1.836  0.5589  0.2300  0.3363
    7CHTO  H166 2626   6.385   1.274   1.805  0.5521 -0.6752 -1.0444
    7CHTO   C93 2627   6.334   1.130   2.031  0.3442  0.3377 -0.6634
    7CHTO  H180 2628   6.350   1.034   1.980  1.7822 -0.1293  0.6301
    7CHTO   N16 2629   6.208   1.195   1.994  0.3192  0.0520  0.1962
    7CHTO  H172 2630   6.128   1.136   2.036 -0.8891  0.0120 -2.1239
    7CHTO  H173 2631   6.197   1.208   1.888  0.8781  0.6046  0.2043
    7CHTO   C94 2632   6.341   1.108   2.186  0.1558 -0.2112  0.1976
    7CHTO  H181 2633   6.277   1.177   2.242 -0.5454 -0.5291 -0.2016
    7CHTO   O61 2634   6.471   1.104   2.244 -0.5585 -0.0885  0.2462
    7CHTO   C95 2635   6.594   1.089   2.164  0.7481 -0.7787  0.4354
    7CHTO  H182 2636   6.680   1.105   2.229  1.3829  2.9315 -1.1856
    7CHTO  C106 2637   6.606   0.938   2.125  0.0723 -0.4181  0.2677
    7CHTO   O69 2638   6.620   0.871   2.250 -0.0700 -0.1919 -0.6241
    7CHTO  H169 2639   6.712   0.874   2.268 -0.0198 -0.5601 -0.8154
    7CHTO   O63 2640   6.277   0.974   2.209 -0.0884 -0.0421  0.4545
    7CHTO   C96 2641   6.212   0.944   2.348  0.9433 -0.2794  0.3798
    7CHTO  H183 2642   6.214   1.035   2.407  1.2272  0.3338 -0.5731
    7CHTO   C98 2643   6.295   0.829   2.422  0.0606 -0.3303 -0.2316
    7CHTO  H185 2644   6.338   0.763   2.345  0.7356 -0.1936  0.0225
    7CHTO   O67 2645   6.398   0.889   2.491 -0.2296 -0.3441  0.0961
    7CHTO  H167 2646   6.467   0.828   2.511 -0.9577 -0.7972  1.3366
    7CHTO  C102 2647   6.208   0.730   2.523  0.0555 -0.1661 -0.1078
    7CHTO  H189 2648   6.191   0.786   2.615 -0.4889 -1.9719  0.9218
    7CHTO   N18 2649   6.281   0.606   2.565 -0.9440 -0.7297  0.8090
    7CHTO  H176 2650   6.289   0.533   2.485  1.8433 -0.5711  0.8703
    7CHTO  H177 2651   6.235   0.559   2.651 -1.0570 -2.8133 -0.3495
    7CHTO  C105 2652   6.070   0.704   2.460 -0.3368 -0.4949 -0.8637
    7CHTO  H192 2653   6.078   0.649   2.367  0.9489 -2.5545  0.4288
    7CHTO   O65 2654   5.999   0.828   2.425  0.1958  0.0866 -0.2849
    7CHTO  C100 2655   6.063   0.902   2.319 -0.2025  0.7296  0.0029
    7CHTO  H187 2656   6.062   0.840   2.229 -3.2545  1.5773 -0.6114
    7CHTO  C107 2657   5.976   1.024   2.287  0.3294 -0.0757 -0.6081
    7CHTO   O70 2658   5.851   0.992   2.226  0.3324  0.0269 -0.9530
    7CHTO  H170 2659   5.823   1.063   2.171  0.7519  0.1477 -1.0113
    7CHTO   O57 2660   5.976   0.622   2.572 -0.0639  0.0923 -0.0158
    7CHTO   C85 2661   5.867   0.550   2.519 -0.5100 -1.2262 -0.0407
    7CHTO  H157 2662   5.887   0.550   2.409 -0.3813 -0.6472 -0.0169
    7CHTO   C83 2663   5.732   0.628   2.544  0.1192  0.1987 -0.3740
    7CHTO  H155 2664   5.744   0.728   2.502 -0.4269  2.3687  4.3149
    7CHTO   O56 2665   5.720   0.657   2.687  0.2016  0.7791  0.6885
    7CHTO  H135 2666   5.637   0.699   2.697  0.1932  0.4658  2.1966
    7CHTO   C81 2667   5.613   0.555   2.467 -0.3830  0.1046  0.3311
    7CHTO  H153 2668   5.641   0.549   2.362  0.2228 -1.5827  0.5748
    7CHTO   N14 2669   5.482   0.626   2.472  0.3411  0.4393 -0.1783
    7CHTO  H141 2670   5.409   0.570   2.526 -0.8748  1.2147 -0.9715
    7CHTO  H142 2671   5.437   0.648   2.377  0.4772 -2.7728 -1.0711
    7CHTO   C79 2672   5.606   0.408   2.516  0.1072 -0.2234 -0.2778
    7CHTO  H151 2673   5.535   0.349   2.458 -1.2942  0.7734  0.3924
    7CHTO   O52 2674   5.732   0.339   2.511  0.3127 -0.1367 -0.2217
    7CHTO   C86 2675   5.850   0.404   2.569  0.6906 -0.2213  0.0485
    7CHTO  H158 2676   5.842   0.402   2.680  0.9647  1.3587  0.1100
    7CHTO   C90 2677   5.977   0.314   2.540 -1.0791 -0.3617 -0.0434
    7CHTO   O60 2678   5.983   0.182   2.601 -0.0051 -0.4156  0.1956
    7CHTO  H138 2679   6.039   0.188   2.676 -1.7378  3.6194  1.2969
    7CHTO   O50 2680   5.570   0.404   2.657  0.3813 -0.1356 -0.1303
    7CHTO   C73 2681   5.535   0.293   2.744 -0.4608  0.0613 -0.2801
    7CHTO  H145 2682   5.616   0.219   2.756  0.8960  1.7293  1.0280
    7CHTO   C74 2683   5.414   0.221   2.676  0.3081  1.2202 -0.1541
    7CHTO  H146 2684   5.443   0.198   2.572 -2.5971 -1.7607 -0.4100
    7CHTO   O54 2685   5.389   0.097   2.751  0.8559  0.1918  0.1107
    7CHTO  H133 2686   5.320   0.042   2.720  0.7607  0.7199 -0.6221
    7CHTO   C75 2687   5.293   0.323   2.678 -0.6785 -0.3322  0.0225
    7CHTO  H147 2688   5.322   0.407   2.614  0.0483 -0.6492 -0.0754
    7CHTO   N13 2689   5.169   0.278   2.614  0.0254  0.3993 -0.7853
    7CHTO  H139 2690   5.084   0.342   2.629  0.5463  0.4178  2.2204
    7CHTO  H140 2691   5.143   0.175   2.630 -0.0837 -0.0299 -3.4136
    7CHTO   C76 2692   5.268   0.374   2.832 -0.3930  0.9019  0.4358
    7CHTO  H148 2693   5.241   0.283   2.886 -1.6352  1.0817  0.1274
    7CHTO   O49 2694   5.383   0.445   2.879 -0.0205  0.0584  0.0018
    7CHTO   C77 2695   5.498   0.349   2.883  0.7617 -0.3006  0.5499
    7CHTO  H149 2696   5.473   0.268   2.952 -2.2921  0.7809  0.7720
    7CHTO   C88 2697   5.610   0.429   2.950 -0.2972  0.5981 -0.1147
    7CHTO   O58 2698   5.566   0.446   3.083 -0.4457  0.2957 -0.4835
    7CHTO  H136 2699   5.570   0.365   3.132  0.1663  0.9869  0.6398
    7CHTO   O51 2700   5.167   0.498   2.831  0.1752  0.5562  0.3207
    7CHTO   C78 2701   5.115   0.490   2.986  0.5066 -0.3138  0.5496
    7CHTO  H150 2702   5.183   0.447   3.062 -0.4961 -0.5927  1.2967
    7CHTO   C80 2703   4.981   0.411   2.996  0.3806  0.8384  0.6318
    7CHTO  H152 2704   4.905   0.445   2.924 -1.7029 -0.8986  1.9466
    7CHTO   O55 2705   5.013   0.271   2.961  0.4713 -0.0708 -0.1206
    7CHTO  H134 2706   5.054   0.261   2.877  2.3655  0.0754  0.7544
    7CHTO   C84 2707   4.932   0.420   3.145 -0.0858  0.2911 -0.4576
    7CHTO  H156 2708   5.018   0.406   3.211 -0.9262 -0.5135  0.4933
    7CHTO   N15 2709   4.814   0.331   3.180  0.0666  0.1032  0.1035
    7CHTO  H143 2710   4.851   0.231   3.183  1.9199  0.7658 -0.2888
    7CHTO  H144 2711   4.775   0.350   3.278 -3.0449 -1.1178 -0.8261
    7CHTO   C87 2712   4.921   0.564   3.188  0.4104  0.1766  0.1473
    7CHTO  H159 2713   4.838   0.607   3.133  1.3411 -1.6199 -2.8062
    7CHTO   O53 2714   5.044   0.639   3.156  0.1589 -0.0476  0.2680
    7CHTO   C82 2715   5.095   0.636   3.022  0.4093  0.2695 -0.0987
    7CHTO  H154 2716   5.020   0.674   2.952 -0.8812  0.3058  1.2677
    7CHTO   C89 2717   5.226   0.721   3.006  0.0019 -0.6597 -0.1027
    7CHTO   O59 2718   5.270   0.743   2.874 -0.0757  0.3827  0.3690
    7CHTO  H137 2719   5.194   0.783   2.837  0.3485  0.5691 -0.3168
    7CHTO   O45 2720   4.904   0.554   3.355 -0.2470 -0.5440 -0.1115
    7CHTO   C67 2721   5.001   0.611   3.443  0.8521 -0.1124  0.2470
    7CHTO  H124 2722   5.093   0.625   3.386  1.1379  1.4152  1.0562
    7CHTO   C65 2723   4.944   0.752   3.482 -0.2258  0.1488  0.0862
    7CHTO  H122 2724   4.841   0.733   3.515 -0.8123  0.9467 -1.2816
    7CHTO   O44 2725   4.944   0.822   3.359 -0.1160  0.1799  0.6598
    7CHTO  H102 2726   4.874   0.884   3.356 -1.3932 -1.1680  1.7570
    7CHTO   C63 2727   5.009   0.808   3.610  0.5933 -0.3902 -0.0150
    7CHTO  H120 2728   4.955   0.770   3.697 -0.4331  1.0195 -0.0233
    7CHTO   N11 2729   4.987   0.956   3.636 -0.0268  0.4149 -0.1817
    7CHTO  H108 2730   5.032   1.018   3.561  2.2247 -2.4127 -1.2517
    7CHTO  H109 2731   4.881   0.963   3.630  0.0286  0.9342 -0.5394
    7CHTO   C61 2732   5.156   0.767   3.616 -0.1499  0.1171 -0.3983
    7CHTO  H118 2733   5.197   0.802   3.711  3.0192 -2.7727 -0.6189
    7CHTO   O40 2734   5.164   0.609   3.621 -0.6516 -0.4540 -0.4009
    7CHTO   C68 2735   5.049   0.534   3.568 -0.0658  0.4261  0.4625
    7CHTO  H125 2736   4.973   0.524   3.648  0.0166 -1.9160  0.2953
    7CHTO   C72 2737   5.099   0.395   3.533  0.0020  0.6918  0.7096
    7CHTO   O48 2738   5.144   0.329   3.650 -0.1695  0.0169 -0.2174
    7CHTO  H105 2739   5.195   0.251   3.637  0.3413  0.0774  1.3410
    7CHTO   O38 2740   5.244   0.808   3.508  0.2934 -0.1956 -0.1923
    7CHTO   C55 2741   5.383   0.797   3.542 -0.3731 -0.1532  0.7669
    7CHTO  H112 2742   5.396   0.730   3.628  1.7515 -1.7420 -0.7337
    7CHTO   C56 2743   5.443   0.944   3.569 -0.5627 -0.5065  0.1459
    7CHTO  H113 2744   5.397   1.018   3.501  0.8087 -0.3644 -0.6435
    7CHTO   O42 2745   5.394   0.978   3.699  0.0256 -0.2923 -0.2354
    7CHTO  H100 2746   5.419   1.069   3.707 -1.9091  0.2685 -0.3784
    7CHTO   C57 2747   5.597   0.956   3.567 -0.3645 -0.3148 -0.4296
    7CHTO  H114 2748   5.622   0.911   3.663 -2.2201  0.4847  0.4431
    7CHTO   N10 2749   5.656   1.091   3.565  0.0014  0.0634 -0.0749
    7CHTO  H106 2750   5.587   1.156   3.618  0.8417 -0.1427  1.2975
    7CHTO  H107 2751   5.754   1.101   3.608 -0.2006  0.8964  0.2121
    7CHTO   C58 2752   5.666   0.870   3.459  0.2972  1.0378 -0.1270
    7CHTO  H115 2753   5.661   0.917   3.358  0.4784  0.6739 -0.3085
    7CHTO   O37 2754   5.609   0.733   3.451 -0.3979  0.0950  0.8398
    7CHTO   C59 2755   5.469   0.739   3.421 -0.4770 -0.1911 -0.9587
    7CHTO  H116 2756   5.438   0.796   3.334 -4.5847 -0.8894 -0.0686
    7CHTO   C70 2757   5.418   0.600   3.396 -0.1708  0.3237  0.8403
    7CHTO   O46 2758   5.312   0.602   3.300 -0.2844 -0.4111 -0.0312
    7CHTO  H103 2759   5.298   0.522   3.253  2.7603 -0.8252 -0.3845
    7CHTO   O39 2760   5.820   0.844   3.485 -0.1541 -0.1642  0.3743
    7CHTO   C60 2761   5.898   0.760   3.402  0.5008 -0.0854 -0.7601
    7CHTO  H117 2762   5.891   0.658   3.442 -0.1156  0.9722  1.9607
    7CHTO   C62 2763   5.854   0.766   3.250  0.5004  0.4809 -0.5869
    7CHTO  H119 2764   5.746   0.740   3.243 -0.2551  2.5430  2.1587
    7CHTO   O43 2765   5.860   0.908   3.202 -0.3090 -0.3909 -0.8560
    7CHTO  H101 2766   5.839   0.911   3.111 -0.6295  2.6755 -0.7341
    7CHTO   C66 2767   5.940   0.665   3.157  0.3872 -0.2198 -0.0116
    7CHTO  H123 2768   5.935   0.566   3.204 -0.7970  0.4651  1.3502
    7CHTO   N12 2769   5.898   0.651   3.019 -0.2351 -0.6117 -0.7481
    7CHTO  H110 2770   5.842   0.735   2.981 -0.4018 -0.6698 -0.6338
    7CHTO  H111 2771   5.972   0.613   2.950  1.2333 -0.7641  0.8623
    7CHTO   C69 2772   6.092   0.707   3.171  0.1441  0.3322 -0.3731
    7CHTO  H126 2773   6.105   0.807   3.124  1.2196  0.5654  0.3893
    7CHTO   O41 2774   6.140   0.724   3.341  0.1794 -0.2369  0.3785
    7CHTO   C64 2775   6.046   0.800   3.414 -1.1073 -0.2293 -0.3855
    7CHTO  H121 2776   6.052   0.900   3.367 -1.4435 -1.4555 -3.1219
    7CHTO   C71 2777   6.071   0.811   3.562  0.1778 -0.2018  0.5832
    7CHTO   O47 2778   6.181   0.897   3.586 -0.1552 -0.2402  0.0042
    7CHTO  H104 2779   6.259   0.863   3.626  0.6460  0.6093 -0.8109
    7CHTO   O34 2780   6.186   0.583   3.089 -0.0213 -0.3094  0.7001
    7CHTO   C49 2781   6.281   0.556   3.003  0.4097 -0.5675  1.0272
    7CHTO   H91 2782   6.284   0.643   2.938  0.5399 -3.0822 -2.4284
    7CHTO   C47 2783   6.250   0.421   2.931 -0.1228 -0.3295  0.3027
    7CHTO   H89 2784   6.324   0.409   2.849  0.1126  0.1047  0.4528
    7CHTO   O33 2785   6.123   0.434   2.863  0.3314  0.1461 -0.1232
    7CHTO   H70 2786   6.093   0.523   2.852  1.7376  0.5251 -0.8877
    7CHTO   C45 2787   6.259   0.303   3.042 -0.6499  0.0909 -0.5071
    7CHTO   H87 2788   6.204   0.325   3.134  0.6735 -2.6097  0.9826
    7CHTO    N8 2789   6.205   0.175   2.996 -0.1544  0.0420 -0.3995
    7CHTO   H75 2790   6.272   0.127   2.926  1.1551  0.9412  0.2190
    7CHTO   H76 2791   6.179   0.107   3.076 -0.0004  0.5146  0.0528
    7CHTO   C43 2792   6.404   0.293   3.107  0.3460  0.1901  0.4120
    7CHTO   H85 2793   6.385   0.229   3.193  0.2431  2.6593  2.2650
    7CHTO   O29 2794   6.444   0.425   3.148  0.1195 -0.1064 -0.0585
    7CHTO   C50 2795   6.429   0.538   3.062  0.7283 -0.7657  0.2403
    7CHTO   H92 2796   6.467   0.629   3.109  0.6667  0.0836 -1.2936
    7CHTO   C54 2797   6.533   0.529   2.941 -0.0949 -0.2703 -0.5668
    7CHTO   O36 2798   6.566   0.655   2.893 -0.1944 -0.0533 -0.4898
    7CHTO   H72 2799   6.640   0.640   2.837 -1.4591 -0.1508 -2.1512
    7CHTO   O27 2800   6.510   0.224   3.033  0.2986 -0.0712  0.0330
    7CHTO   C37 2801   6.593   0.126   3.097 -0.8513  0.1240  0.9119
    7CHTO   H79 2802   6.587   0.137   3.206  1.2110  0.9693  0.9781
    7CHTO   C38 2803   6.547  -0.017   3.047 -0.3594 -1.1410 -0.4591
    7CHTO   H80 2804   6.550  -0.012   2.937 -1.3997 -1.8982 -0.5293
    7CHTO   O31 2805   6.418  -0.050   3.094 -0.0787 -0.2921  0.2185
    7CHTO   H68 2806   6.420  -0.080   3.183  1.7326  0.7324  0.5506
    7CHTO   C39 2807   6.661  -0.124   3.097  0.3130  0.2679  0.9240
    7CHTO   H81 2808   6.648  -0.127   3.206 -0.7571  0.3783  0.8053
    7CHTO    N7 2809   6.636  -0.258   3.040  0.0466 -0.3825  0.1710
    7CHTO   H73 2810   6.721  -0.301   2.989  1.0509  1.2732  0.4070
    7CHTO   H74 2811   6.550  -0.272   2.978  0.4043  0.2490 -0.4757
    7CHTO   C40 2812   6.810  -0.071   3.064  0.3931 -0.4217  0.5644
    7CHTO   H82 2813   6.830  -0.070   2.957 -3.9762 -2.1872 -0.3595
    7CHTO   O26 2814   6.824   0.056   3.122 -0.5743 -0.5630 -0.1222
    7CHTO   C41 2815   6.741   0.150   3.052 -0.0579 -0.7767 -0.7200
    7CHTO   H83 2816   6.738   0.149   2.942 -0.3896 -0.7531 -0.7123
    7CHTO   C52 2817   6.794   0.286   3.083  0.0018  0.1881 -0.0297
    7CHTO   O35 2818   6.918   0.308   3.010  0.0764  0.0383 -0.0159
    7CHTO   H71 2819   6.970   0.374   3.052  1.7835 -1.4815  0.3097
    7CHTO   O28 2820   6.913  -0.140   3.133  0.6614 -0.1563  0.9474
    7CHTO   C42 2821   7.052  -0.139   3.084 -0.6469  0.5168  0.2148
    7CHTO   H84 2822   7.115  -0.191   3.156  1.7863  1.6393 -1.0350
    7CHTO   C44 2823   7.117   0.000   3.076  0.0571  0.8074 -0.1933
    7CHTO   H86 2824   7.081   0.055   2.989 -0.7709  1.1207  0.3360
    7CHTO   O32 2825   7.084   0.065   3.198  0.0588 -0.0399  0.2439
    7CHTO   H69 2826   6.996   0.096   3.200 -0.8467 -2.4892 -0.1623
    7CHTO   C48 2827   7.262  -0.013   3.039 -0.5872 -0.1737 -0.0884
    7CHTO   H90 2828   7.302  -0.077   3.118 -2.3428  0.4571  1.3258
    7CHTO    N9 2829   7.342   0.115   3.044  0.0272 -0.1057 -0.0982
    7CHTO   H77 2830   7.294   0.202   3.087  3.9195  2.2390 -0.2576
    7CHTO   H78 2831   7.449   0.112   3.056  0.1617  0.5611 -1.0906
    7CHTO   C51 2832   7.272  -0.088   2.904 -0.4948 -0.0470 -0.4463
    7CHTO   H93 2833   7.220  -0.033   2.825 -0.1633  1.3423  0.2940
    7CHTO   O30 2834   7.223  -0.221   2.912  0.1986 -0.0426 -0.3937
    7CHTO   C46 2835   7.076  -0.214   2.943  1.0149  0.4309 -0.0788
    7CHTO   H88 2836   7.016  -0.174   2.862 -0.4512 -2.2173 -0.3783
    7CHTO   C53 2837   7.030  -0.363   2.948 -0.3940 -0.1785  0.1956
    7CHTO   O72 2838   7.064  -0.426   2.822  0.1412 -0.0341 -0.5221
    7CHTO  H199 2839   7.143  -0.475   2.822  1.9895  2.8077 -0.8159
    7CHTO   O22 2840   7.405  -0.102   2.851  0.3191 -0.1870 -0.0355
    7CHTO   C31 2841   7.432  -0.116   2.704  0.1877  0.6590 -0.8148
    7CHTO   H59 2842   7.538  -0.145   2.695 -0.2487 -1.4716  0.6541
    7CHTO   C29 2843   7.349  -0.226   2.638 -0.2694  0.7538  0.1922
    7CHTO   H57 2844   7.246  -0.191   2.655 -0.4069 -0.1751  1.3284
    7CHTO   O21 2845   7.383  -0.346   2.713  0.5368 -0.2672  1.2073
    7CHTO   H37 2846   7.302  -0.393   2.721 -1.5661  2.2770 -3.2049
    7CHTO   C27 2847   7.391  -0.242   2.485  0.4822  0.2340  0.0538
    7CHTO   H55 2848   7.495  -0.277   2.478  1.4164  2.6184  1.3956
    7CHTO    N5 2849   7.300  -0.342   2.418  0.0255  0.5680  0.5056
    7CHTO   H43 2850   7.327  -0.358   2.315 -3.4009  1.8430 -0.6299
    7CHTO   H44 2851   7.199  -0.306   2.413 -0.3324 -0.7759 -3.0397
    7CHTO   C25 2852   7.382  -0.105   2.410  0.2275 -0.4207  0.1185
    7CHTO   H53 2853   7.276  -0.077   2.402  0.3772  0.3132  0.6809
    7CHTO   O17 2854   7.444   0.001   2.481 -0.0251  0.3728 -0.6781
    7CHTO   C32 2855   7.412   0.022   2.625  0.0055  0.1100 -0.8363
    7CHTO   H60 2856   7.306   0.046   2.640  0.0635 -1.9222  3.8695
    7CHTO   C36 2857   7.498   0.139   2.685  0.2238 -0.0799 -0.3291
    7CHTO   O25 2858   7.485   0.256   2.596 -1.1232  0.2625  0.3686
    7CHTO   H40 2859   7.552   0.256   2.530  0.0495  0.4962  1.5411
    7CHTO   O15 2860   7.444  -0.109   2.256  0.3753  0.0617  0.1184
    7CHTO   C19 2861   7.438   0.000   2.159  0.0177 -0.1742 -0.2125
    7CHTO   H47 2862   7.494  -0.042   2.074  1.7814  0.1765  0.7362
    7CHTO   C20 2863   7.291   0.033   2.117  0.1657 -0.4045 -0.0914
    7CHTO   H48 2864   7.227   0.047   2.205  0.4708 -2.4196  0.4857
    7CHTO   O19 2865   7.248  -0.090   2.052 -0.0193 -0.6048  0.5506
    7CHTO   H35 2866   7.182  -0.071   1.987 -0.9400 -1.8070  1.1241
    7CHTO   C21 2867   7.286   0.149   2.015  0.8707 -0.1934 -0.0835
    7CHTO   H49 2868   7.327   0.116   1.920 -0.6054  1.1415 -1.2022
    7CHTO    N4 2869   7.146   0.182   1.988  0.0631  0.2258  0.5865
    7CHTO   H41 2870   7.092   0.223   2.072  0.9649 -0.0030  1.2937
    7CHTO   H42 2871   7.144   0.250   1.904  2.6813  1.6197  1.5633
    7CHTO   C22 2872   7.366   0.268   2.070  0.2169 -0.4823 -0.2629
    7CHTO   H50 2873   7.319   0.308   2.159 -0.9259 -1.7022 -0.3060
    7CHTO   O14 2874   7.504   0.227   2.098  0.1977  0.2005  0.0934
    7CHTO   C23 2875   7.512   0.130   2.202 -0.9329 -0.6426  0.3336
    7CHTO   H51 2876   7.464   0.181   2.287 -0.4909  2.0225 -0.9667
    7CHTO   C34 2877   7.663   0.116   2.240  0.5649  0.2027 -0.3108
    7CHTO   O23 2878   7.696   0.008   2.322 -0.8840  0.1106 -0.5187
    7CHTO   H38 2879   7.634  -0.063   2.326  1.7262 -2.3805 -2.4670
    7CHTO   O16 2880   7.369   0.377   1.979  0.3078 -0.4035  0.0177
    7CHTO   C24 2881   7.354   0.527   2.046 -0.2964  0.5829  0.2829
    7CHTO   H52 2882   7.372   0.526   2.154  0.6405 -0.0622  0.1290
    7CHTO   C26 2883   7.209   0.580   2.022  0.1709 -0.0868  0.2293
    7CHTO   H54 2884   7.196   0.591   1.913 -0.6608  1.4476  0.4753
    7CHTO   O20 2885   7.114   0.482   2.075  0.0475  0.3824  0.3662
    7CHTO   H36 2886   7.107   0.416   2.009  1.6623  1.4329 -0.9206
    7CHTO   C30 2887   7.202   0.718   2.090 -0.0901 -0.5045 -0.4472
    7CHTO   H58 2888   7.221   0.707   2.198 -2.3591 -0.0739  0.0135
    7CHTO    N6 2889   7.069   0.783   2.081 -0.5980 -0.5245 -0.0603
    7CHTO   H45 2890   7.014   0.754   1.993  1.2012 -1.8172 -0.7982
    7CHTO   H46 2891   7.079   0.890   2.082  0.4619 -0.6109  1.6852
    7CHTO   C33 2892   7.309   0.813   2.034  0.1500  1.4466 -0.5194
    7CHTO   H61 2893   7.293   0.828   1.927  1.2722  0.8070 -0.7891
    7CHTO   O18 2894   7.441   0.748   2.056  0.1907  0.1276 -0.0518
    7CHTO   C28 2895   7.455   0.620   1.988 -0.3077 -0.2694  0.4134
    7CHTO   H56 2896   7.440   0.640   1.882  2.1890  1.8660  0.3879
    7CHTO   C35 2897   7.605   0.579   1.976  0.1947 -0.2895 -0.0654
    7CHTO   O24 2898   7.690   0.642   1.881 -0.2556  0.0235  0.0339
    7CHTO   H39 2899   7.673   0.627   1.790  1.3738  0.6364 -0.3985
    7CHTO    O9 2900   7.309   0.944   2.086 -0.5535 -0.9111 -0.5412
    7CHTO   C13 2901   7.381   1.074   1.996  0.4754  1.1085  0.5776
    7CHTO   H26 2902   7.325   1.088   1.902  0.1392 -2.0763  0.2611
    7CHTO   C11 2903   7.534   1.038   1.965 -0.1174  0.1912 -0.2750
    7CHTO   H24 2904   7.535   0.945   1.906  2.3743 -1.1663  1.7971
    7CHTO    O8 2905   7.614   1.014   2.088 -0.4352  0.5923  0.1300
    7CHTO    H3 2906   7.565   0.961   2.148  0.7405 -0.4056  0.2251
    7CHTO    C9 2907   7.599   1.149   1.884 -0.0550 -0.7807 -0.2437
    7CHTO   H22 2908   7.538   1.163   1.794 -0.5309  0.6814  0.2916
    7CHTO    N2 2909   7.729   1.112   1.826  0.5357 -0.1328  0.7317
    7CHTO   H10 2910   7.806   1.186   1.815 -0.8254  1.4950  2.0022
    7CHTO   H11 2911   7.708   1.064   1.731  1.3544 -1.9572  1.4399
    7CHTO    C7 2912   7.599   1.288   1.969 -0.1572 -0.2762  0.3653
    7CHTO   H20 2913   7.617   1.368   1.894  0.2662 -1.3976 -0.7399
    7CHTO    O4 2914   7.465   1.306   2.024 -0.2679  0.1285  0.5282
    7CHTO   C14 2915   7.378   1.208   2.072 -0.4387  0.5653  0.3900
    7CHTO   H27 2916   7.279   1.256   2.060  0.9764  2.8351 -3.3497
    7CHTO   C18 2917   7.407   1.197   2.221  0.9415 -0.2153  0.6034
    7CHTO   O13 2918   7.316   1.282   2.294  0.2515  0.3285 -0.1358
    7CHTO    H7 2919   7.329   1.369   2.260  2.0256 -0.3509 -1.2456
    7CHTO    O2 2920   7.712   1.276   2.093 -0.5480  0.1464 -0.4285
    7CHTO    C1 2921   7.801   1.393   2.124 -0.2382 -0.1379  0.0984
    7CHTO   H14 2922   7.791   1.463   2.039  0.1022  1.0151  1.0011
    7CHTO    C2 2923   7.952   1.348   2.135 -1.0358  0.1041 -0.5819
    7CHTO   H15 2924   7.956   1.278   2.220  1.0921  0.0058 -0.7380
    7CHTO    O6 2925   7.990   1.274   2.010  0.1570 -0.2097  0.2179
    7CHTO    H1 2926   8.045   1.201   2.033 -0.1996 -0.2316  1.0352
    7CHTO    C3 2927   8.041   1.471   2.164 -0.2102  0.8620  0.5609
    7CHTO   H16 2928   8.031   1.535   2.075  0.7833  1.7113  1.0511
    7CHTO    N1 2929   8.190   1.439   2.166  0.2929  0.7324 -0.1146
    7CHTO    H8 2930   8.244   1.506   2.101  1.5479 -0.6134 -0.4849
    7CHTO    H9 2931   8.219   1.337   2.144  2.0890  0.8275  1.7310
    7CHTO    C4 2932   7.999   1.550   2.297  0.1785  0.1635 -0.0443
    7CHTO   H17 2933   8.035   1.499   2.386  0.8362  3.6770  1.8043
    7CHTO    O1 2934   7.856   1.573   2.295 -0.0166 -0.1459 -0.4691
    7CHTO    C5 2935   7.771   1.463   2.263  0.5892  0.3521  0.0024
    7CHTO   H18 2936   7.783   1.384   2.337  2.3988  0.4265 -0.1867
    7CHTO   C16 2937   7.623   1.512   2.265  0.4685  0.5220 -0.0235
    7CHTO   O11 2938   7.574   1.528   2.397 -0.7270 -0.2391  0.0858
    7CHTO    H5 2939   7.482   1.541   2.409 -0.4258  0.4019  1.8685
    7CHTO    O3 2940   8.042   1.686   2.300  0.0594 -0.4762  0.1902
    7CHTO    C6 2941   8.154   1.719   2.388 -0.1517  0.0347 -0.0049
    7CHTO   H19 2942   8.205   1.626   2.413  0.2602 -0.2150 -1.7019
    7CHTO    C8 2943   8.247   1.817   2.309 -0.2047 -0.2692 -0.8346
    7CHTO   H21 2944   8.187   1.902   2.278 -1.9083 -0.1751  2.5016
    7CHTO    O7 2945   8.305   1.752   2.190 -0.1544  0.3179  0.3714
    7CHTO    H2 2946   8.353   1.673   2.203 -0.3428  0.5223  2.5522
    7CHTO   C12 2947   8.366   1.857   2.413  0.0769  0.0457 -0.1026
    7CHTO   H25 2948   8.427   1.768   2.437 -0.9286  0.1958  3.3539
    7CHTO    N3 2949   8.456   1.959   2.340 -0.3012  0.1766  0.4095
    7CHTO   H12 2950   8.515   2.016   2.411  2.1786 -2.3538  0.4881
    7CHTO   H13 2951   8.399   2.018   2.270 -0.3018  0.1684  0.4036
    7CHTO   C15 2952   8.311   1.918   2.553  0.0744 -0.0422 -0.5954
    7CHTO   H28 2953   8.263   2.016   2.548 -1.7031 -0.9222 -1.4519
    7CHTO   O10 2954   8.426   1.928   2.662 -0.2266 -0.6744  0.4604
    7CHTO    H4 2955   8.479   2.004   2.650 -0.0242 -0.6530  1.4965
    7CHTO    O5 2956   8.217   1.825   2.605 -0.0003  0.9641 -0.2494
    7CHTO   C10 2957   8.103   1.786   2.520  0.0347 -0.5507  0.2236
    7CHTO   H23 2958   8.051   1.879   2.499 -0.0277 -0.6242  0.0478
    7CHTO   C17 2959   8.008   1.705   2.602 -0.1441  0.5662  0.4222
    7CHTO   O12 2960   7.932   1.790   2.687  0.0279 -0.3849 -0.4589
    7CHTO    H6 2961   7.847   1.810   2.651 -1.5539  0.1234  3.3476
    8CHTO  H203 2962   7.468   8.772   1.518 -0.2504 -0.3307  0.7598
    8CHTO   O82 2963   7.462   8.683   1.487 -0.7572 -0.0422  0.0194
    8CHTO  C123 2964   7.342   8.625   1.548 -0.3423 -0.0339  0.1435
    8CHTO  H227 2965   7.355   8.622   1.657  0.7227 -0.3363  0.0211
    8CHTO   O77 2966   7.233   8.718   1.513  0.0921 -0.4674  0.3918
    8CHTO  C118 2967   7.122   8.694   1.595  0.4895  0.4006 -0.4205
    8CHTO  H222 2968   7.147   8.709   1.702 -0.9136  1.0950 -0.1750
    8CHTO  C125 2969   7.017   8.814   1.558 -0.5348 -0.0512 -0.0100
    8CHTO   O84 2970   6.952   8.808   1.433  0.8036 -0.1771  0.3461
    8CHTO  H205 2971   6.892   8.737   1.426  0.8284 -0.1404 -0.3259
    8CHTO  C114 2972   7.060   8.559   1.561  0.5108 -0.0949  0.2787
    8CHTO  H218 2973   7.021   8.572   1.460 -0.6176 -1.7856  0.4767
    8CHTO  C116 2974   7.163   8.448   1.564 -0.1749  0.5949  0.0413
    8CHTO  H220 2975   7.183   8.427   1.671 -1.6558  1.9630  0.5954
    8CHTO   O79 2976   7.097   8.340   1.499  0.2215 -0.0308 -0.6694
    8CHTO  H201 2977   7.022   8.313   1.549  0.8762  0.5583  0.6530
    8CHTO  C120 2978   7.303   8.491   1.492 -0.0576  0.6253 -0.4549
    8CHTO  H224 2979   7.277   8.495   1.385  1.7813 -1.2716 -1.0117
    8CHTO   N21 2980   7.400   8.378   1.510  0.6051  0.3587 -0.1252
    8CHTO  H211 2981   7.498   8.414   1.539 -0.4673  3.5926 -0.3224
    8CHTO  H212 2982   7.357   8.304   1.576 -0.0504  0.9458  0.1137
    8CHTO   O75 2983   6.951   8.537   1.656 -0.0024 -0.8673 -0.5137
    8CHTO  C112 2984   6.815   8.490   1.589 -1.9551  0.0653  0.0190
    8CHTO  H216 2985   6.841   8.427   1.503  0.4163 -1.5544  1.8497
    8CHTO   O73 2986   6.738   8.600   1.551 -0.2725  0.3462  0.5617
    8CHTO  C113 2987   6.602   8.578   1.503  0.0751  0.1864  0.0522
    8CHTO  H217 2988   6.613   8.527   1.405 -0.3500 -1.0364  0.6334
    8CHTO  C124 2989   6.552   8.719   1.464 -0.2684  0.3144 -0.0904
    8CHTO   O83 2990   6.638   8.789   1.372  0.0408 -0.1460  0.4328
    8CHTO  H204 2991   6.641   8.881   1.390  1.9126  0.0578 -0.8128
    8CHTO  C109 2992   6.516   8.502   1.609 -0.2753  0.5300 -0.2691
    8CHTO  H213 2993   6.509   8.572   1.693  0.2639  1.6441 -1.1392
    8CHTO  C110 2994   6.588   8.372   1.653 -0.4566  1.0678 -0.9586
    8CHTO  H214 2995   6.602   8.309   1.565  2.2455 -1.0194  0.8424
    8CHTO   O78 2996   6.516   8.299   1.747  0.3267 -0.2107 -0.8579
    8CHTO  H200 2997   6.518   8.346   1.828 -1.5022 -0.3699 -0.7110
    8CHTO  C111 2998   6.737   8.402   1.695 -0.8958  0.1260 -0.2424
    8CHTO  H215 2999   6.737   8.466   1.785  3.3691  0.2953 -0.2578
    8CHTO   N19 3000   6.820   8.281   1.720 -0.4308 -0.1763 -0.1670
    8CHTO  H207 3001   6.902   8.286   1.790 -0.0338  2.6461 -0.7950
    8CHTO  H208 3002   6.856   8.230   1.631  0.8901 -2.3163  1.5605
    8CHTO   O74 3003   6.383   8.480   1.555  0.8805  0.2486 -0.1777
    8CHTO  C115 3004   6.258   8.466   1.666 -0.1299 -0.8299 -0.5684
    8CHTO  H219 3005   6.231   8.362   1.686 -3.1850  0.0383  0.2336
    8CHTO   O76 3006   6.314   8.519   1.821  0.1806  0.3495  0.0049
    8CHTO  C122 3007   6.221   8.569   1.914 -0.2573 -0.0730 -0.2054
    8CHTO  H226 3008   6.272   8.643   1.976  0.1450 -0.7790  0.3161
    8CHTO  C126 3009   6.164   8.461   2.019  0.2809 -0.3220 -0.0763
    8CHTO   O85 3010   6.105   8.349   1.956  0.5035  0.0412  0.2404
    8CHTO  H206 3011   6.100   8.274   2.011 -3.2999  1.0460  1.4302
    8CHTO  C121 3012   6.096   8.643   1.849 -0.3977  0.6078  0.6620
    8CHTO  H225 3013   5.998   8.592   1.860 -2.1354  3.2905 -1.7439
    8CHTO   O81 3014   6.082   8.773   1.904 -0.0396  0.4518 -0.1659
    8CHTO  H202 3015   6.079   8.771   1.998  1.8881 -0.6889 -0.1088
    8CHTO  C119 3016   6.117   8.678   1.696  0.3209  0.0362  0.0584
    8CHTO  H223 3017   6.024   8.724   1.661 -0.4821 -1.2096  0.4931
    8CHTO  C117 3018   6.140   8.554   1.605 -0.2169 -0.3352 -0.1781
    8CHTO  H221 3019   6.169   8.587   1.506 -0.5797  1.7468  0.3849
    8CHTO   N20 3020   6.021   8.463   1.590  0.4379  0.4249 -0.1012
    8CHTO  H209 3021   5.987   8.424   1.496  0.2875 -0.4932  0.3276
    8CHTO  H210 3022   5.987   8.409   1.677 -0.9580 -0.2155 -1.0264
    8CHTO   O80 3023   6.230   8.797   1.659 -0.5842 -0.2734 -0.2018
    8CHTO  C103 3024   6.178   8.934   1.616 -0.6755 -0.0052  0.0805
    8CHTO  H190 3025   6.069   8.930   1.613 -0.8113  1.7022  1.9001
    8CHTO  C101 3026   6.225   9.055   1.709 -0.1385  0.1676  0.3014
    8CHTO  H188 3027   6.332   9.061   1.730 -0.1986  0.7930  0.4368
    8CHTO   O68 3028   6.148   9.037   1.839 -0.2119  0.1072 -0.0029
    8CHTO  H168 3029   6.203   9.036   1.915 -0.7386 -0.4024  0.3837
    8CHTO   C99 3030   6.176   9.196   1.647  0.3557  0.5223  0.3577
    8CHTO  H186 3031   6.065   9.201   1.644  0.1864 -2.0320  1.5815
    8CHTO   N17 3032   6.226   9.323   1.708 -0.3514 -0.5322 -0.6355
    8CHTO  H174 3033   6.281   9.313   1.800  0.2918  0.4743 -0.8980
    8CHTO  H175 3034   6.268   9.392   1.635 -0.1662  0.3596  0.3052
    8CHTO   C97 3035   6.222   9.199   1.497  0.3785  0.1359  0.0297
    8CHTO  H184 3036   6.331   9.209   1.492  0.4139 -0.3888 -0.3646
    8CHTO   O64 3037   6.175   9.084   1.422  0.1264 -0.0364 -0.0959
    8CHTO  C104 3038   6.234   8.969   1.479 -0.4116  0.3310  0.0245
    8CHTO  H191 3039   6.340   8.990   1.488 -0.3535 -0.5166  1.5431
    8CHTO  C108 3040   6.227   8.852   1.380 -0.2606 -0.3403  0.7559
    8CHTO   O71 3041   6.291   8.881   1.251 -0.0991 -0.1520  0.0588
    8CHTO  H171 3042   6.254   8.957   1.210 -1.7916 -1.3792 -0.7744
    8CHTO   O62 3043   6.155   9.296   1.406  0.1037 -0.3035 -0.6406
    8CHTO   C91 3044   6.218   9.351   1.288  0.8767 -0.5377  0.4050
    8CHTO  H178 3045   6.299   9.281   1.266  0.6024 -1.4402  2.1310
    8CHTO   C92 3046   6.279   9.493   1.322  0.2537 -0.0908  0.0554
    8CHTO  H179 3047   6.204   9.563   1.362  1.4807  1.2788 -0.0090
    8CHTO   O66 3048   6.377   9.473   1.428  0.2747 -0.1865  0.5227
    8CHTO  H166 3049   6.453   9.432   1.391  1.8845  3.3030 -0.2510
    8CHTO   C93 3050   6.340   9.563   1.194  0.4573 -0.1489  0.5556
    8CHTO  H180 3051   6.436   9.516   1.168 -1.1933 -2.0194 -2.5059
    8CHTO   N16 3052   6.366   9.708   1.219 -0.1846 -0.4834  0.8183
    8CHTO  H172 3053   6.415   9.715   1.314  1.5650 -0.2190 -0.0804
    8CHTO  H173 3054   6.279   9.771   1.201 -1.9630 -2.8108  0.9738
    8CHTO   C94 3055   6.249   9.554   1.064 -0.3413  0.7489 -0.3387
    8CHTO  H181 3056   6.155   9.607   1.079 -1.4047 -1.3684  0.8136
    8CHTO   O61 3057   6.203   9.419   1.047 -0.0565 -0.2938 -0.7251
    8CHTO   C95 3058   6.125   9.367   1.161  0.3130 -0.5879 -0.0126
    8CHTO  H182 3059   6.037   9.428   1.177  0.1338 -1.3156  1.9368
    8CHTO  C106 3060   6.056   9.237   1.124 -0.6572  0.5230  0.0010
    8CHTO   O69 3061   5.976   9.258   1.005  0.1323 -0.2284  0.9064
    8CHTO  H169 3062   5.940   9.345   1.005 -0.4363 -0.4525  2.2940
    8CHTO   O63 3063   6.331   9.608   0.924 -0.0359  0.6077 -0.6192
    8CHTO   C96 3064   6.230   9.631   0.781 -0.6277 -0.0414 -0.9526
    8CHTO  H183 3065   6.132   9.595   0.814 -0.8071 -1.1865 -2.6444
    8CHTO   C98 3066   6.280   9.562   0.657 -0.8634 -0.7027 -0.4174
    8CHTO  H185 3067   6.386   9.592   0.650 -0.6531 -1.3844 -0.1530
    8CHTO   O67 3068   6.282   9.416   0.678 -0.0644  0.5163 -0.5316
    8CHTO  H167 3069   6.366   9.383   0.703 -0.8660 -1.4065 -0.2773
    8CHTO  C102 3070   6.206   9.595   0.527  0.3063  0.2437  0.6490
    8CHTO  H189 3071   6.123   9.523   0.526 -1.3105  2.0700  0.0032
    8CHTO   N18 3072   6.283   9.559   0.406  0.6013 -0.3333 -0.1293
    8CHTO  H176 3073   6.314   9.456   0.417  0.5636 -0.3482 -0.1620
    8CHTO  H177 3074   6.373   9.620   0.403  2.0581 -2.5214 -1.9276
    8CHTO  C105 3075   6.148   9.743   0.525  0.1343 -0.1842 -0.2409
    8CHTO  H192 3076   6.220   9.806   0.473  0.6878  0.4109  1.2170
    8CHTO   O65 3077   6.123   9.800   0.651 -0.3887 -0.1979  0.4022
    8CHTO  C100 3078   6.226   9.788   0.749  0.5453 -0.1658  0.6518
    8CHTO  H187 3079   6.327   9.815   0.714 -0.5675  2.2523 -0.8271
    8CHTO  C107 3080   6.186   9.884   0.866 -0.2872  0.2826 -0.2355
    8CHTO   O70 3081   6.229  10.017   0.844 -0.4604 -0.5613  0.1731
    8CHTO  H170 3082   6.205  10.045   0.758  0.4524 -0.7742 -0.1502
    8CHTO   O57 3083   6.014   9.713   0.449 -0.3578 -0.0163 -0.3374
    8CHTO   C85 3084   5.942   9.816   0.388 -0.5708  0.4858 -0.3409
    8CHTO  H157 3085   6.010   9.872   0.321 -1.2218  1.1493 -0.4594
    8CHTO   C83 3086   5.896   9.915   0.492 -0.4315 -0.4164 -0.8415
    8CHTO  H155 3087   5.979   9.970   0.537 -2.1583  1.9054 -0.3536
    8CHTO   O56 3088   5.829   9.848   0.592 -0.1380  0.0068  0.0152
    8CHTO  H135 3089   5.781   9.908   0.645 -0.0382 -0.3353  0.4975
    8CHTO   C81 3090   5.809  10.023   0.421  0.6922 -0.1045 -0.2582
    8CHTO  H153 3091   5.869  10.071   0.345  1.5026  0.5819  0.8059
    8CHTO   N14 3092   5.770  10.136   0.510  0.3614  0.2587  0.2017
    8CHTO  H141 3093   5.791  10.226   0.456  1.0562  0.5465  0.9621
    8CHTO  H142 3094   5.813  10.147   0.607 -0.0489 -1.3381  0.5814
    8CHTO   C79 3095   5.688   9.962   0.352 -0.5769  0.7724 -0.0842
    8CHTO  H151 3096   5.652  10.035   0.279 -1.3921  1.1972  0.7345
    8CHTO   O52 3097   5.721   9.854   0.260  0.4457 -0.3096 -0.2628
    8CHTO   C86 3098   5.824   9.750   0.307 -0.0785  0.3658 -0.8067
    8CHTO  H158 3099   5.774   9.673   0.370  1.5142  2.0836  2.7089
    8CHTO   C90 3100   5.867   9.675   0.179  0.0196 -0.2884 -0.7588
    8CHTO   O60 3101   5.965   9.573   0.204 -0.5917 -0.4850 -0.4496
    8CHTO  H138 3102   5.976   9.523   0.126 -0.3467  0.7677 -1.2238
    8CHTO   O50 3103   5.587   9.922   0.438 -0.1642  0.2468 -0.2834
    8CHTO   C73 3104   5.451   9.891   0.450 -0.0962  0.0023 -0.3831
    8CHTO  H145 3105   5.404   9.858   0.356  1.9653 -0.4428 -1.2792
    8CHTO   C74 3106   5.370  10.006   0.512  0.3749 -0.3240  0.2142
    8CHTO  H146 3107   5.390  10.087   0.440  0.4390  0.3956  1.0317
    8CHTO   O54 3108   5.230   9.967   0.510 -0.6600 -0.4157  0.0975
    8CHTO  H133 3109   5.178  10.031   0.556  1.2313  1.1769  0.0942
    8CHTO   C75 3110   5.434  10.041   0.657  0.4507  0.8569  0.2948
    8CHTO  H147 3111   5.540  10.066   0.644  0.6295  0.5348  1.1003
    8CHTO   N13 3112   5.372  10.157   0.718 -0.0022  0.4790  0.0979
    8CHTO  H139 3113   5.326  10.224   0.647  1.3311 -0.2627 -1.5231
    8CHTO  H140 3114   5.294  10.127   0.787  0.3196  0.5292  0.4856
    8CHTO   C76 3115   5.430   9.907   0.753 -0.6200 -0.2359 -0.2522
    8CHTO  H148 3116   5.327   9.875   0.767 -0.9360  0.8286 -0.0853
    8CHTO   O49 3117   5.503   9.804   0.678 -0.4344  0.4904 -0.7134
    8CHTO   C77 3118   5.443   9.770   0.551  0.2108 -0.8120  0.1325
    8CHTO  H149 3119   5.341   9.735   0.566 -0.6607  1.1311 -1.0951
    8CHTO   C88 3120   5.524   9.647   0.497 -0.3313 -0.1275  0.5668
    8CHTO   O58 3121   5.476   9.597   0.394  0.0861  0.1099  0.1867
    8CHTO  H136 3122   5.521   9.516   0.384 -1.6528 -1.3847  3.6199
    8CHTO   O51 3123   5.509   9.950   0.902 -0.4223  0.5315  0.2370
    8CHTO   C78 3124   5.532   9.837   1.006  0.3444  0.1226 -0.0988
    8CHTO  H150 3125   5.540   9.734   0.964 -2.3423 -0.9460  1.8438
    8CHTO   C80 3126   5.418   9.848   1.108  0.2173 -0.0937 -0.2071
    8CHTO  H152 3127   5.396   9.956   1.126 -1.8683 -0.2689 -1.5396
    8CHTO   O55 3128   5.296   9.806   1.045  0.7857  0.0335 -0.4894
    8CHTO  H134 3129   5.307   9.718   1.016 -1.9414 -0.5287  0.0832
    8CHTO   C84 3130   5.451   9.773   1.245  0.1683 -0.5366 -0.4930
    8CHTO  H156 3131   5.436   9.667   1.226 -0.6338 -0.7424  1.2211
    8CHTO   N15 3132   5.354   9.818   1.347 -0.3456 -0.1360 -0.0421
    8CHTO  H143 3133   5.316   9.734   1.401 -0.0360  0.0065  0.4013
    8CHTO  H144 3134   5.399   9.881   1.421  0.1089  0.8292 -1.1376
    8CHTO   C87 3135   5.593   9.801   1.293 -0.7883  0.1640 -0.7185
    8CHTO  H159 3136   5.608   9.905   1.321 -2.4539  0.1726  0.1780
    8CHTO   O53 3137   5.691   9.769   1.173  0.5905  0.4870  0.4678
    8CHTO   C82 3138   5.675   9.863   1.066 -0.7960  0.1497  0.4210
    8CHTO  H154 3139   5.687   9.964   1.104  1.0064  0.9251 -2.1351
    8CHTO   C89 3140   5.792   9.841   0.964 -0.5200  0.1537  0.5855
    8CHTO   O59 3141   5.908   9.889   1.038 -0.2084 -0.0708  0.2393
    8CHTO  H137 3142   5.981   9.863   0.985 -0.7401  0.6731 -0.8585
    8CHTO   O45 3143   5.626   9.706   1.422 -0.8336 -0.2033 -0.7076
    8CHTO   C67 3144   5.647   9.569   1.392 -0.4187 -0.1167  0.3331
    8CHTO  H124 3145   5.603   9.541   1.296 -0.3617  1.7635 -0.2631
    8CHTO   C65 3146   5.801   9.533   1.388 -0.0194  0.0674 -0.2512
    8CHTO  H122 3147   5.844   9.624   1.345  2.8134  0.4555  3.1545
    8CHTO   O44 3148   5.821   9.409   1.322  0.5811 -0.0993  0.4568
    8CHTO  H102 3149   5.913   9.391   1.318  0.6536 -0.1204  2.1221
    8CHTO   C63 3150   5.856   9.538   1.532  0.1838  1.2971  0.3929
    8CHTO  H120 3151   5.830   9.633   1.578 -1.7522  0.5853  0.8110
    8CHTO   N11 3152   6.003   9.546   1.537 -0.5202  0.2875 -0.0860
    8CHTO  H108 3153   6.029   9.585   1.634 -0.2810  0.2552 -0.1361
    8CHTO  H109 3154   6.041   9.619   1.469 -1.3688  1.9310  1.1789
    8CHTO   C61 3155   5.788   9.426   1.617  0.0422 -0.0706  0.4635
    8CHTO  H118 3156   5.816   9.445   1.722 -0.9836  2.1852  0.3655
    8CHTO   O40 3157   5.645   9.438   1.613 -0.0146 -0.3018  0.8265
    8CHTO   C68 3158   5.569   9.477   1.498 -0.5265  0.8520 -0.0284
    8CHTO  H125 3159   5.480   9.533   1.533 -0.2660  0.1395  1.8527
    8CHTO   C72 3160   5.518   9.344   1.435  0.0330  0.1913  0.2500
    8CHTO   O48 3161   5.387   9.304   1.468  0.3848  0.1950 -0.1705
    8CHTO  H105 3162   5.382   9.245   1.541 -3.0183  0.7416  0.1424
    8CHTO   O38 3163   5.825   9.294   1.568 -0.1330  0.3108 -0.3049
    8CHTO   C55 3164   5.760   9.178   1.619  0.6649 -0.9447  0.1749
    8CHTO  H112 3165   5.653   9.172   1.597  0.8868 -1.0094 -0.9322
    8CHTO   C56 3166   5.790   9.143   1.768 -0.9653  0.5300 -0.4972
    8CHTO  H113 3167   5.899   9.130   1.756 -0.9405 -1.5042  1.5550
    8CHTO   O42 3168   5.767   9.247   1.861  0.0384  0.1281 -0.6255
    8CHTO  H100 3169   5.838   9.309   1.858 -0.3754  0.6443  0.2196
    8CHTO   C57 3170   5.723   9.014   1.809 -0.2081  1.0120  0.0672
    8CHTO  H114 3171   5.619   9.042   1.796 -0.7968 -1.4038 -0.7280
    8CHTO   N10 3172   5.752   8.969   1.947  0.2471  0.1754 -0.0534
    8CHTO  H106 3173   5.660   8.931   1.991  0.2386 -2.9848 -2.5809
    8CHTO  H107 3174   5.827   8.893   1.964 -0.1734 -0.1703  0.2766
    8CHTO   C58 3175   5.752   8.903   1.699 -0.1329 -1.0916 -0.0180
    8CHTO  H115 3176   5.853   8.863   1.723  0.5636  1.1404  0.8409
    8CHTO   O37 3177   5.738   8.940   1.564  0.4440 -0.0774 -0.2220
    8CHTO   C59 3178   5.802   9.058   1.519 -0.1985 -0.2548 -0.2441
    8CHTO  H116 3179   5.909   9.037   1.525  0.6497  3.0990 -1.9879
    8CHTO   C70 3180   5.758   9.081   1.375  0.4404  0.2459 -0.5813
    8CHTO   O46 3181   5.819   8.987   1.288 -0.5584  0.1706  0.9505
    8CHTO  H103 3182   5.771   8.967   1.210 -0.2109 -0.2646  0.8486
    8CHTO   O39 3183   5.651   8.790   1.725  0.2310 -0.0672  0.6656
    8CHTO   C60 3184   5.509   8.814   1.721  0.4766  0.1512  0.2743
    8CHTO  H117 3185   5.480   8.873   1.808 -1.8272 -0.2958 -0.1550
    8CHTO   C62 3186   5.460   8.882   1.590  0.2554  0.0584 -0.7446
    8CHTO  H119 3187   5.511   8.980   1.586  1.9358 -0.7797 -0.1281
    8CHTO   O43 3188   5.509   8.808   1.480 -0.2233  0.2465  0.3885
    8CHTO  H101 3189   5.438   8.753   1.452  0.9174 -1.5676  1.0118
    8CHTO   C66 3190   5.294   8.902   1.589 -0.0722  0.2978  0.6803
    8CHTO  H123 3191   5.258   8.948   1.681  0.7946  0.2032  1.0755
    8CHTO   N12 3192   5.250   8.991   1.478  0.5234  0.0904  0.2798
    8CHTO  H110 3193   5.327   9.057   1.440 -1.2488  0.6651 -2.3817
    8CHTO  H111 3194   5.169   9.053   1.513 -0.8280 -0.9682 -0.9323
    8CHTO   C69 3195   5.231   8.762   1.599 -0.5651  0.9799  0.0016
    8CHTO  H126 3196   5.251   8.703   1.506 -0.4518  0.1994  0.5146
    8CHTO   O41 3197   5.283   8.683   1.722 -0.3644 -0.6516  0.0803
    8CHTO   C64 3198   5.441   8.675   1.743  0.1993  0.7880 -0.0075
    8CHTO  H121 3199   5.485   8.598   1.676  1.0874  1.4535 -0.2044
    8CHTO   C71 3200   5.475   8.623   1.885 -0.4352  0.6193  0.5242
    8CHTO   O47 3201   5.407   8.503   1.923  0.6746 -0.0489 -0.3765
    8CHTO  H104 3202   5.460   8.446   1.976 -0.0751 -1.8641 -1.5095
    8CHTO   O34 3203   5.066   8.773   1.609 -0.4167 -0.3630  0.1308
    8CHTO   C49 3204   4.944   8.799   1.721 -0.8440 -0.1832 -0.1820
    8CHTO   H91 3205   4.953   8.709   1.782  0.2909 -1.1993 -1.8132
    8CHTO   C47 3206   4.814   8.806   1.640 -0.0792  0.3639  0.1320
    8CHTO   H89 3207   4.732   8.826   1.712  1.2539  0.8041  1.5601
    8CHTO   O33 3208   4.788   8.677   1.583  0.1527  0.3150  0.5676
    8CHTO   H70 3209   4.705   8.646   1.613 -0.2405 -0.2504 -1.0753
    8CHTO   C45 3210   4.825   8.920   1.527 -0.1634 -0.0074  0.6954
    8CHTO   H87 3211   4.912   8.901   1.463 -1.5135  0.6606 -1.4193
    8CHTO    N8 3212   4.704   8.937   1.444 -0.7126 -0.2302  0.2757
    8CHTO   H75 3213   4.622   8.867   1.458 -1.4086  0.3878 -0.6125
    8CHTO   H76 3214   4.731   8.953   1.340  2.1461 -0.0315  1.0065
    8CHTO   C43 3215   4.869   9.056   1.603  0.1562 -0.2415 -0.1237
    8CHTO   H85 3216   4.907   9.128   1.531  0.0027  1.4091  1.4141
    8CHTO   O29 3217   4.961   9.040   1.712 -0.0642 -0.1037 -0.2290
    8CHTO   C50 3218   4.958   8.928   1.801 -0.4523  0.3045 -0.2863
    8CHTO   H92 3219   5.047   8.915   1.865 -1.5190 -1.3117  0.9020
    8CHTO   C54 3220   4.850   8.948   1.914  0.1205  0.0747  0.4329
    8CHTO   O36 3221   4.877   9.061   1.999  0.5068 -0.1692  0.1731
    8CHTO   H72 3222   4.834   9.054   2.082 -0.1774  0.6207 -0.1084
    8CHTO   O27 3223   4.758   9.117   1.673  0.5203  0.2403  0.7998
    8CHTO   C37 3224   4.718   9.253   1.687  0.0826 -0.2222  0.1956
    8CHTO   H79 3225   4.650   9.255   1.774 -1.2751 -1.9633 -0.7897
    8CHTO   C38 3226   4.840   9.351   1.714 -0.1030 -0.4120  0.0923
    8CHTO   H80 3227   4.907   9.347   1.627 -1.6146 -0.9873 -1.0602
    8CHTO   O31 3228   4.903   9.316   1.841  0.1635  0.3586  0.0407
    8CHTO   H68 3229   4.862   9.369   1.907  0.6693 -0.1497  0.7652
    8CHTO   C39 3230   4.797   9.504   1.716 -0.2109 -0.3867 -0.4529
    8CHTO   H81 3231   4.725   9.512   1.798 -0.7486  1.9029 -1.1230
    8CHTO    N7 3232   4.913   9.598   1.746  0.6019 -0.6339 -0.5068
    8CHTO   H73 3233   5.004   9.542   1.757  0.4106 -0.7869  0.3226
    8CHTO   H74 3234   4.890   9.661   1.831 -1.8206  0.3333 -1.8234
    8CHTO   C40 3235   4.716   9.538   1.587  0.2325 -0.1805 -0.0610
    8CHTO   H82 3236   4.783   9.539   1.501 -0.1620 -0.2025 -0.3720
    8CHTO   O26 3237   4.609   9.444   1.572  0.0331 -0.0384 -0.0159
    8CHTO   C41 3238   4.639   9.308   1.568  0.0322 -0.7692 -0.0528
    8CHTO   H83 3239   4.699   9.290   1.478 -0.8355  0.6888 -0.9495
    8CHTO   C52 3240   4.510   9.230   1.530 -0.4824 -0.0633  0.1804
    8CHTO   O35 3241   4.463   9.264   1.395 -0.7982  0.4999 -0.4216
    8CHTO   H71 3242   4.412   9.194   1.360 -0.3112 -0.6700  1.1866
    8CHTO   O28 3243   4.656   9.663   1.588 -0.2075  0.0247  0.4422
    8CHTO   C42 3244   4.634   9.737   1.469 -0.6438 -0.1744 -0.0347
    8CHTO   H84 3245   4.607   9.833   1.513 -0.6754 -0.8074  1.3850
    8CHTO   C44 3246   4.511   9.692   1.381  0.2811  0.3501 -0.8954
    8CHTO   H86 3247   4.520   9.584   1.370 -0.5865  0.1827 -0.0088
    8CHTO   O32 3248   4.394   9.697   1.462  0.0502 -0.1835 -0.0855
    8CHTO   H69 3249   4.328   9.761   1.443 -0.1866 -0.1205  0.9407
    8CHTO   C48 3250   4.488   9.774   1.251  0.2898 -0.1161  0.6241
    8CHTO   H90 3251   4.427   9.862   1.273 -1.7922 -1.4840  0.5254
    8CHTO    N9 3252   4.395   9.694   1.166 -0.0435 -0.2577 -0.4149
    8CHTO   H77 3253   4.388   9.745   1.071 -0.6323  0.7958  0.1803
    8CHTO   H78 3254   4.297   9.692   1.211  0.4257  0.6155  0.6883
    8CHTO   C51 3255   4.622   9.804   1.178  0.8654  0.4589 -0.1147
    8CHTO   H93 3256   4.656   9.714   1.126  1.0950  0.5770 -0.1718
    8CHTO   O30 3257   4.719   9.851   1.259  0.2735  0.0053 -0.4221
    8CHTO   C46 3258   4.760   9.759   1.382 -0.4855 -0.5932  0.5862
    8CHTO   H88 3259   4.783   9.666   1.330 -1.7221 -0.1831 -0.7329
    8CHTO   C53 3260   4.878   9.816   1.459  0.4359  0.3554 -0.2263
    8CHTO   O72 3261   4.969   9.871   1.367  0.3336 -0.1317  0.1165
    8CHTO  H199 3262   5.039   9.903   1.421  0.5415 -1.5293  0.7169
    8CHTO   O22 3263   4.604   9.911   1.084 -0.1577 -0.2401  0.0549
    8CHTO   C31 3264   4.675   9.929   0.958 -0.2286  0.9989  0.2235
    8CHTO   H59 3265   4.634  10.021   0.910  0.7994  0.6663 -1.3393
    8CHTO   C29 3266   4.826   9.947   0.969 -0.1791  0.4220 -0.5652
    8CHTO   H57 3267   4.865   9.856   1.017  0.1363 -0.4705 -2.4834
    8CHTO   O21 3268   4.844  10.060   1.051 -0.1671 -0.1118  0.3830
    8CHTO   H37 3269   4.808  10.051   1.137 -0.9604  3.3422  0.4928
    8CHTO   C27 3270   4.888   9.964   0.827 -0.7164  0.0908 -0.6648
    8CHTO   H55 3271   4.848  10.050   0.772 -2.6417 -1.4958 -1.8341
    8CHTO    N5 3272   5.038   9.970   0.831  0.8831  0.0762  0.2236
    8CHTO   H43 3273   5.089   9.942   0.922  0.1692 -1.5346  0.1530
    8CHTO   H44 3274   5.083  10.054   0.782 -0.4473  0.2476 -0.7446
    8CHTO   C25 3275   4.851   9.849   0.728  0.1230  0.3499 -0.1388
    8CHTO   H53 3276   4.891   9.753   0.763  1.0875  0.8362  0.0952
    8CHTO   O17 3277   4.702   9.828   0.727  0.2060 -0.3004  0.8833
    8CHTO   C32 3278   4.641   9.815   0.857 -0.0139 -0.5846  0.0475
    8CHTO   H60 3279   4.671   9.719   0.899 -0.4902 -0.9544 -0.4387
    8CHTO   C36 3280   4.484   9.811   0.837  0.3411 -0.2745 -0.2439
    8CHTO   O25 3281   4.429   9.681   0.816 -0.2276  0.2307 -0.2023
    8CHTO   H40 3282   4.486   9.621   0.772 -1.5398 -0.3628 -1.1342
    8CHTO   O15 3283   4.905   9.850   0.578  0.0672 -0.0864 -0.2837
    8CHTO   C19 3284   4.936   9.781   0.450  0.3693 -0.3714 -0.3459
    8CHTO   H47 3285   4.839   9.736   0.426  0.4017  0.1822 -1.5601
    8CHTO   C20 3286   4.962   9.886   0.342 -0.1485  0.3665 -0.4808
    8CHTO   H48 3287   5.031   9.963   0.379 -0.5311  0.6155 -0.2805
    8CHTO   O19 3288   4.832   9.951   0.314 -0.1413 -0.2475  0.1958
    8CHTO   H35 3289   4.811  10.010   0.384 -1.0235  0.7008 -0.8519
    8CHTO   C21 3290   5.018   9.814   0.212  0.4200  0.7787 -0.1480
    8CHTO   H49 3291   4.930   9.768   0.167  1.9445 -0.9750 -1.4061
    8CHTO    N4 3292   5.068   9.903   0.104 -0.5392 -0.1340 -0.1104
    8CHTO   H41 3293   5.111   9.851   0.020 -0.2345  1.2146 -0.8110
    8CHTO   H42 3294   5.140   9.974   0.142 -0.2557 -0.7234  0.4588
    8CHTO   C22 3295   5.116   9.694   0.243  0.6172 -0.1286 -0.7050
    8CHTO   H50 3296   5.207   9.732   0.289  1.4010 -2.5747 -0.1277
    8CHTO   O14 3297   5.065   9.600   0.337  0.4826  0.0360 -0.0912
    8CHTO   C23 3298   5.045   9.663   0.466  0.5927 -0.2435 -0.3100
    8CHTO   H51 3299   5.139   9.702   0.506 -0.1660  1.6088 -0.2386
    8CHTO   C34 3300   4.995   9.556   0.566  1.2795  0.4018  0.0913
    8CHTO   O23 3301   5.073   9.441   0.574  0.1775 -0.1691 -0.2887
    8CHTO   H38 3302   5.155   9.469   0.611 -0.8353  4.2161 -1.0749
    8CHTO   O16 3303   5.138   9.620   0.123  0.5545  0.0595  0.2291
    8CHTO   C24 3304   5.267   9.534   0.133 -0.4598 -0.2776 -0.7075
    8CHTO   H52 3305   5.293   9.513   0.237  1.4659 -1.1871 -1.3529
    8CHTO   C26 3306   5.384   9.605   0.061  0.8866 -0.3100 -0.1464
    8CHTO   H54 3307   5.344   9.643  -0.035  0.6196  0.4610  0.2634
    8CHTO   O20 3308   5.429   9.720   0.140 -0.6795  0.7136 -0.2234
    8CHTO   H36 3309   5.515   9.739   0.108  0.0065 -2.2461 -0.2683
    8CHTO   C30 3310   5.498   9.506   0.013  0.3087  0.9953 -0.6546
    8CHTO   H58 3311   5.548   9.475   0.106 -2.6087 -2.4081 -0.1304
    8CHTO    N6 3312   5.604   9.575  -0.067  0.2655 -0.2758 -0.0522
    8CHTO   H45 3313   5.677   9.499  -0.090 -1.0504 -1.4634 -0.3662
    8CHTO   H46 3314   5.647   9.656  -0.010  0.4946  0.9581 -1.9325
    8CHTO   C33 3315   5.431   9.383  -0.058 -0.4474 -0.4798 -0.0866
    8CHTO   H61 3316   5.383   9.403  -0.155 -2.3327  0.2289  0.9633
    8CHTO   O18 3317   5.335   9.326   0.031  0.3766 -0.2101  0.1050
    8CHTO   C28 3318   5.224   9.402   0.063  0.0758 -0.0925  0.4751
    8CHTO   H56 3319   5.162   9.428  -0.022 -1.1601 -1.2702  0.9966
    8CHTO   C35 3320   5.134   9.316   0.154  0.1382 -0.7035  0.0293
    8CHTO   O24 3321   5.092   9.188   0.115  0.8576  0.4244  0.5530
    8CHTO   H39 3322   5.029   9.188   0.046 -0.5383  1.8251  1.7917
    8CHTO    O9 3323   5.540   9.291  -0.088  0.2491  0.0355 -0.1270
    8CHTO   C13 3324   5.507   9.168  -0.176  0.1166  0.8975  0.8672
    8CHTO   H26 3325   5.435   9.189  -0.258 -0.0502  0.4414  0.8913
    8CHTO   C11 3326   5.458   9.039  -0.083  0.4900 -0.6104 -0.5532
    8CHTO   H24 3327   5.349   9.039  -0.071  0.4538 -0.2820 -0.9093
    8CHTO    O8 3328   5.512   9.062   0.044  0.3396 -0.5663 -0.1617
    8CHTO    H3 3329   5.573   8.995   0.066 -0.5977 -1.6302 -0.7109
    8CHTO    C9 3330   5.504   8.901  -0.144 -0.2571  0.6390  0.2935
    8CHTO   H22 3331   5.446   8.881  -0.235  2.3210 -3.0101 -0.6950
    8CHTO    N2 3332   5.463   8.789  -0.060 -0.0931 -0.1827  0.0757
    8CHTO   H10 3333   5.364   8.755  -0.087  1.2958 -1.8192 -3.2043
    8CHTO   H11 3334   5.528   8.703  -0.063 -1.5547 -1.4172  1.8518
    8CHTO    C7 3335   5.661   8.908  -0.166  1.2656 -0.4033  0.1220
    8CHTO   H20 3336   5.676   8.861  -0.265  1.3015 -0.6794  0.2560
    8CHTO    O4 3337   5.712   9.038  -0.176  0.0520 -0.5345 -0.3275
    8CHTO   C14 3338   5.634   9.125  -0.257 -0.1130 -0.0746  0.8190
    8CHTO   H27 3339   5.620   9.066  -0.349  0.6780 -0.1165  0.7233
    8CHTO   C18 3340   5.727   9.244  -0.290 -0.0751  0.5611  0.0080
    8CHTO   O13 3341   5.818   9.205  -0.403  0.0928  0.1634  0.0912
    8CHTO    H7 3342   5.883   9.148  -0.367 -1.1919 -1.0025  0.6310
    8CHTO    O2 3343   5.765   8.813  -0.051 -0.0277 -0.0773 -0.4625
    8CHTO    C1 3344   5.902   8.845  -0.045 -0.3160  0.2480  0.6968
    8CHTO   H14 3345   5.912   8.954  -0.062  2.0169 -0.1007 -0.4361
    8CHTO    C2 3346   5.983   8.767  -0.160 -0.2714 -0.6447  0.0104
    8CHTO   H15 3347   5.954   8.662  -0.144 -1.1426 -0.4459 -0.1971
    8CHTO    O6 3348   5.937   8.820  -0.284 -0.8275  0.3227 -0.0532
    8CHTO    H1 3349   5.906   8.909  -0.280 -1.2073  0.1436  1.2988
    8CHTO    C3 3350   6.137   8.791  -0.145 -0.1418  0.1316 -0.7830
    8CHTO   H16 3351   6.155   8.897  -0.168 -0.3206  0.1972 -0.6257
    8CHTO    N1 3352   6.204   8.705  -0.252  0.5878  0.3799  0.0875
    8CHTO    H8 3353   6.166   8.731  -0.350  0.7822 -1.6106 -0.5384
    8CHTO    H9 3354   6.171   8.605  -0.232  0.2547  0.1210 -1.6715
    8CHTO    C4 3355   6.193   8.767   0.000 -0.1559  0.2478 -0.5309
    8CHTO   H17 3356   6.186   8.661   0.021 -0.9966  0.8153  2.1836
    8CHTO    O1 3357   6.109   8.836   0.093  0.5556  0.3110  0.2904
    8CHTO    C5 3358   5.961   8.801   0.095 -0.5364  0.2867 -0.6575
    8CHTO   H18 3359   5.964   8.694   0.115 -0.5829  0.8136  2.5334
    8CHTO   C16 3360   5.891   8.867   0.216  0.6700  0.9015 -0.0632
    8CHTO   O11 3361   5.753   8.841   0.229  0.1901  0.3644  0.4009
    8CHTO    H5 3362   5.719   8.888   0.303 -1.9358  0.4990 -0.6207
    8CHTO    O3 3363   6.329   8.806   0.022 -0.1602  0.0480  0.1303
    8CHTO    C6 3364   6.401   8.717   0.114 -0.8061 -0.0957 -0.5708
    8CHTO   H19 3365   6.333   8.650   0.166 -1.3249  2.2725  1.9574
    8CHTO    C8 3366   6.497   8.634   0.034  0.1650  0.3067 -0.2167
    8CHTO   H21 3367   6.562   8.701  -0.022  1.8225  0.5475  1.9774
    8CHTO    O7 3368   6.425   8.547  -0.060  0.4923  0.3360  0.0178
    8CHTO    H2 3369   6.332   8.546  -0.044  0.0003 -0.4144 -2.7668
    8CHTO   C12 3370   6.594   8.563   0.129  0.5168  0.2682 -0.4727
    8CHTO   H25 3371   6.528   8.492   0.184 -0.8333  0.6584 -1.5506
    8CHTO    N3 3372   6.696   8.488   0.045 -0.2655 -0.6021  0.2179
    8CHTO   H12 3373   6.775   8.547   0.001 -0.2259 -1.3037 -0.6625
    8CHTO   H13 3374   6.732   8.398   0.093  0.4328  0.0737  0.9821
    8CHTO   C15 3375   6.660   8.655   0.236  0.4672  0.1441 -0.5283
    8CHTO   H28 3376   6.724   8.728   0.186  0.9227 -2.0622 -3.2809
    8CHTO   O10 3377   6.727   8.567   0.350 -0.5121 -0.4698 -0.4055
    8CHTO    H4 3378   6.815   8.554   0.322  0.1215 -1.6692  2.0056
    8CHTO    O5 3379   6.556   8.726   0.308 -0.1335 -0.6577  0.4979
    8CHTO   C10 3380   6.471   8.808   0.219 -0.2967  0.1583 -0.6814
    8CHTO   H23 3381   6.521   8.889   0.166  1.0994 -1.1347 -1.3879
    8CHTO   C17 3382   6.365   8.874   0.307  0.4763 -0.3284  0.0918
    8CHTO   O12 3383   6.282   8.778   0.378  0.0617 -0.0345 -0.2686
    8CHTO    H6 3384   6.239   8.714   0.325  0.5676  0.1638 -0.9273
    9CHTO  H203 3385   8.535   3.508   3.887 -0.7144  0.6493 -0.2736
    9CHTO   O82 3386   8.533   3.585   3.941 -0.8726  0.6139 -0.2289
    9CHTO  C123 3387   8.553   3.709   3.869  0.0630 -0.2681 -0.4365
    9CHTO  H227 3388   8.535   3.790   3.941 -0.9919  1.0313 -2.1545
    9CHTO   O77 3389   8.697   3.715   3.825 -0.2020  0.2126  0.1500
    9CHTO  C118 3390   8.737   3.818   3.732  0.5432  0.0850  0.0475
    9CHTO  H222 3391   8.719   3.917   3.778  0.7924  0.8443 -1.4703
    9CHTO  C125 3392   8.890   3.800   3.694  0.0549  0.6246  0.2450
    9CHTO   O84 3393   8.961   3.822   3.816  0.1015 -0.1872  0.8561
    9CHTO  H205 3394   9.035   3.876   3.796  2.1465 -2.4957  2.1178
    9CHTO  C114 3395   8.648   3.804   3.607  0.7248  0.6347  0.3545
    9CHTO  H218 3396   8.668   3.704   3.568 -0.9186  0.1467  0.7220
    9CHTO  C116 3397   8.490   3.818   3.637  0.7984 -0.6027 -0.1040
    9CHTO  H220 3398   8.469   3.917   3.681 -1.5123 -0.8654 -0.5772
    9CHTO   O79 3399   8.418   3.813   3.511  0.3600 -0.2823  0.3178
    9CHTO  H201 3400   8.344   3.871   3.513  0.2097 -0.4907  1.6182
    9CHTO  C120 3401   8.453   3.713   3.743 -0.1002  0.3175  0.3570
    9CHTO  H224 3402   8.458   3.613   3.696  2.6159  1.3495 -1.6622
    9CHTO   N21 3403   8.312   3.708   3.789 -0.0679 -0.2963 -0.3414
    9CHTO  H211 3404   8.255   3.704   3.697  0.3118 -2.1336 -0.5151
    9CHTO  H212 3405   8.276   3.795   3.840  2.1602 -0.2851  1.2793
    9CHTO   O75 3406   8.689   3.903   3.515 -0.6085  0.3223 -0.9053
    9CHTO  C112 3407   8.731   3.858   3.347  0.0008 -0.1108 -1.3151
    9CHTO  H216 3408   8.645   3.853   3.278 -0.6242  0.4413 -0.5890
    9CHTO   O73 3409   8.806   3.734   3.350 -0.0780 -0.2018  0.4267
    9CHTO  C113 3410   8.841   3.684   3.227  0.1828  0.6079  0.6108
    9CHTO  H217 3411   8.758   3.653   3.160  1.7790 -1.2190 -0.6054
    9CHTO  C124 3412   8.912   3.549   3.261  0.5291 -0.3407 -0.5816
    9CHTO   O83 3413   8.816   3.456   3.324  0.3616 -0.3804  0.4036
    9CHTO  H204 3414   8.751   3.511   3.363  1.7555  0.8439  1.0155
    9CHTO  C109 3415   8.929   3.782   3.136 -0.1470  0.7933 -0.3437
    9CHTO  H213 3416   9.026   3.790   3.188  0.2831  1.6617 -1.2467
    9CHTO  C110 3417   8.859   3.925   3.137 -0.6272 -0.5125  0.2152
    9CHTO  H214 3418   8.768   3.917   3.077  0.0528  1.7488 -1.1870
    9CHTO   O78 3419   8.947   4.025   3.079  0.1374  0.3068  0.1911
    9CHTO  H200 3420   8.987   3.997   2.999 -0.6078  0.2837 -0.1788
    9CHTO  C111 3421   8.827   3.965   3.285 -0.3875 -0.7072  0.1313
    9CHTO  H215 3422   8.916   3.959   3.350 -0.3655 -0.4990  0.1198
    9CHTO   N19 3423   8.771   4.106   3.300  0.5848 -0.1511  0.6035
    9CHTO  H207 3424   8.728   4.133   3.204  1.3171 -1.2033 -0.0268
    9CHTO  H208 3425   8.703   4.112   3.384  1.3101 -0.3957  1.2025
    9CHTO   O74 3426   8.948   3.740   2.997 -0.1928  0.2593  0.0626
    9CHTO  C115 3427   9.089   3.713   2.959 -0.2566 -0.0490  0.4131
    9CHTO  H219 3428   9.161   3.760   3.025 -0.8173 -0.0097  1.0031
    9CHTO   O76 3429   9.126   3.544   2.974  0.3409 -0.5448  0.1927
    9CHTO  C122 3430   9.049   3.473   2.872 -0.9338  0.2044 -0.0160
    9CHTO  H226 3431   8.944   3.468   2.900 -0.3883  0.5248  2.2327
    9CHTO  C126 3432   9.101   3.317   2.879  0.1321 -0.3853 -0.5045
    9CHTO   O85 3433   9.028   3.245   2.977  0.7147 -0.8716  0.6994
    9CHTO  H206 3434   9.075   3.169   3.006 -1.8866 -2.3398  1.2591
    9CHTO  C121 3435   9.061   3.535   2.725  0.0967  0.6752  0.1964
    9CHTO  H225 3436   9.161   3.520   2.678 -0.0027  0.8322 -0.0665
    9CHTO   O81 3437   8.974   3.454   2.637 -0.0243  0.4637 -0.1325
    9CHTO  H202 3438   8.884   3.473   2.654  1.0611  2.5001  4.1101
    9CHTO  C119 3439   9.024   3.689   2.714 -0.0285 -0.7192 -0.2896
    9CHTO  H223 3440   9.040   3.719   2.611  0.2770 -2.3909 -0.7355
    9CHTO  C117 3441   9.119   3.765   2.815  0.7030  0.8613  0.4408
    9CHTO  H221 3442   9.093   3.871   2.825 -0.1501  0.8917 -1.7835
    9CHTO   N20 3443   9.257   3.768   2.765  0.3373 -0.2302 -0.0418
    9CHTO  H209 3444   9.320   3.834   2.822 -0.9473 -2.5652  4.3353
    9CHTO  H210 3445   9.293   3.666   2.761  2.0325  0.4294 -2.2021
    9CHTO   O80 3446   8.878   3.726   2.733  0.4697 -0.3735 -0.1591
    9CHTO  C103 3447   8.808   3.862   2.644 -0.6493  0.1824  0.0715
    9CHTO  H190 3448   8.722   3.899   2.701  0.5977  1.0227  1.4657
    9CHTO  C101 3449   8.895   3.986   2.609  0.2930  0.3352  0.1945
    9CHTO  H188 3450   8.989   3.963   2.559  0.7370 -0.8775  1.5354
    9CHTO   O68 3451   8.942   4.052   2.753  0.2232  0.4887  0.0395
    9CHTO  H168 3452   8.882   4.121   2.773  0.7341  0.7239  0.7337
    9CHTO   C99 3453   8.808   4.085   2.511  0.5721 -0.6199  0.1136
    9CHTO  H186 3454   8.717   4.109   2.571 -0.7045  0.2300 -2.1113
    9CHTO   N17 3455   8.871   4.215   2.471  0.1520 -0.1647 -0.0366
    9CHTO  H174 3456   8.949   4.198   2.399 -0.6395 -0.3620 -0.8504
    9CHTO  H175 3457   8.909   4.264   2.560  1.2192  1.6205 -1.4390
    9CHTO   C97 3458   8.761   3.998   2.386 -0.0628  0.2907 -0.6212
    9CHTO  H184 3459   8.845   3.965   2.324 -0.1085 -1.5990  0.3067
    9CHTO   O64 3460   8.687   3.887   2.435 -0.4129  0.2772 -0.2501
    9CHTO  C104 3461   8.754   3.795   2.519 -0.2785  0.0528  0.1615
    9CHTO  H191 3462   8.837   3.757   2.460 -1.5055 -1.5060 -0.5723
    9CHTO  C108 3463   8.666   3.678   2.557 -0.2768 -0.2848  0.2182
    9CHTO   O71 3464   8.631   3.607   2.439  0.7071  0.3861  0.0759
    9CHTO  H171 3465   8.555   3.555   2.457  0.5670 -1.0049 -4.0398
    9CHTO   O62 3466   8.668   4.074   2.300 -0.6254 -0.5638 -0.2256
    9CHTO   C91 3467   8.645   4.025   2.171 -0.6164 -0.5288 -0.4122
    9CHTO  H178 3468   8.720   3.952   2.139 -2.2305 -1.8590 -1.2547
    9CHTO   C92 3469   8.668   4.152   2.091  0.8005  0.5032  0.7199
    9CHTO  H179 3470   8.765   4.189   2.129  1.8623  0.2282 -1.6611
    9CHTO   O66 3471   8.695   4.112   1.962  0.5908 -0.3309  0.2625
    9CHTO  H166 3472   8.779   4.071   1.961  1.2122  0.9176 -1.8596
    9CHTO   C93 3473   8.549   4.259   2.086 -0.0590 -0.7554  0.1261
    9CHTO  H180 3474   8.547   4.318   1.994  0.9646  0.0840  0.6243
    9CHTO   N16 3475   8.561   4.363   2.194  0.2361 -0.6454 -0.2411
    9CHTO  H172 3476   8.575   4.460   2.149  2.2732  0.1907  2.0599
    9CHTO  H173 3477   8.475   4.369   2.259  0.2839  2.1645 -0.4036
    9CHTO   C94 3478   8.417   4.176   2.106 -0.6308  0.0450  0.1757
    9CHTO  H181 3479   8.394   4.156   2.210 -1.0046 -0.2381  0.0392
    9CHTO   O61 3480   8.424   4.043   2.050  0.6540  0.1576 -0.0675
    9CHTO   C95 3481   8.509   3.963   2.136  0.0642  0.6794 -0.3153
    9CHTO  H182 3482   8.450   3.926   2.220 -0.5490  0.4701 -0.8314
    9CHTO  C106 3483   8.532   3.825   2.068  0.2224 -0.5855  0.0576
    9CHTO   O69 3484   8.414   3.743   2.035 -0.1223  0.5295 -0.2249
    9CHTO  H169 3485   8.429   3.658   2.070  3.0706  0.6176 -1.1889
    9CHTO   O63 3486   8.286   4.235   2.035  0.1978  0.6526  0.0534
    9CHTO   C96 3487   8.149   4.203   2.100  0.7599 -0.4667  0.1947
    9CHTO  H183 3488   8.165   4.138   2.186 -0.8655  3.1329  3.3927
    9CHTO   C98 3489   8.045   4.136   2.004 -0.5058 -0.0102 -0.3342
    9CHTO  H185 3490   8.042   4.184   1.905  1.1460  0.0164 -0.3899
    9CHTO   O67 3491   8.092   4.002   1.984  0.2788 -0.0824 -0.0196
    9CHTO  H167 3492   8.071   3.969   1.899 -2.5679 -0.7623  0.9040
    9CHTO  C102 3493   7.899   4.132   2.057 -0.4786  0.6003 -0.1763
    9CHTO  H189 3494   7.898   4.079   2.153  0.9604  1.8719  0.5633
    9CHTO   N18 3495   7.793   4.082   1.974  0.5761  0.1363 -0.7628
    9CHTO  H176 3496   7.823   3.998   1.913 -0.6646 -1.1723  0.3923
    9CHTO  H177 3497   7.702   4.056   2.026  1.9296  1.0948  2.1891
    9CHTO  C105 3498   7.866   4.277   2.104  0.5386 -0.0546  0.3216
    9CHTO  H192 3499   7.858   4.339   2.014 -0.1394  1.7149  1.5764
    9CHTO   O65 3500   7.963   4.329   2.206  0.3032  0.5617 -1.1039
    9CHTO  C100 3501   8.094   4.341   2.158  0.2165  0.2150 -0.1249
    9CHTO  H187 3502   8.094   4.417   2.078  0.3313  0.9384  0.5621
    9CHTO  C107 3503   8.183   4.402   2.271  0.6158 -0.5282  0.5562
    9CHTO   O70 3504   8.156   4.539   2.290  0.1637  0.2645 -0.1686
    9CHTO  H170 3505   8.211   4.589   2.233  0.9283 -0.5795 -0.1805
    9CHTO   O57 3506   7.713   4.292   2.177 -0.1433  0.0077 -0.0204
    9CHTO   C85 3507   7.631   4.398   2.122 -0.4788  0.4407  0.6228
    9CHTO  H157 3508   7.629   4.383   2.012 -0.3840  1.1387  0.5224
    9CHTO   C83 3509   7.700   4.538   2.150 -1.1497  0.1111 -0.0977
    9CHTO  H155 3510   7.778   4.552   2.075  0.3079 -3.4587  0.6725
    9CHTO   O56 3511   7.757   4.536   2.284 -0.1576 -0.0424  0.0463
    9CHTO  H135 3512   7.822   4.471   2.304  1.0467  1.4556  1.1275
    9CHTO   C81 3513   7.600   4.662   2.133  0.0718  0.1831  0.6141
    9CHTO  H153 3514   7.568   4.665   2.029  0.2477 -3.4806  0.3944
    9CHTO   N14 3515   7.659   4.796   2.143  0.6053 -0.1531  0.1280
    9CHTO  H141 3516   7.724   4.798   2.058 -0.9397 -1.0545 -1.1264
    9CHTO  H142 3517   7.579   4.864   2.125  2.3819  1.9035 -0.0914
    9CHTO   C79 3518   7.475   4.642   2.229  0.6635 -0.2302  0.3531
    9CHTO  H151 3519   7.408   4.726   2.209  2.0731  0.9018  0.2721
    9CHTO   O52 3520   7.412   4.522   2.186 -1.3481 -0.0046 -0.7306
    9CHTO   C86 3521   7.489   4.396   2.184  0.1198  0.2631  0.0832
    9CHTO  H158 3522   7.508   4.377   2.292 -0.5070  2.3326  0.5815
    9CHTO   C90 3523   7.412   4.273   2.128  0.0820 -0.1405 -0.5192
    9CHTO   O60 3524   7.303   4.230   2.212 -0.0090  0.0374  0.0319
    9CHTO  H138 3525   7.245   4.175   2.164  0.0576  2.3668 -2.8709
    9CHTO   O50 3526   7.510   4.633   2.367  1.1202 -0.3128 -0.5105
    9CHTO   C73 3527   7.487   4.677   2.507  0.1343 -0.3518  0.1088
    9CHTO  H145 3528   7.388   4.637   2.536  0.0762 -2.4763 -2.7432
    9CHTO   C74 3529   7.499   4.832   2.518 -0.6012  0.2471  0.1981
    9CHTO  H146 3530   7.430   4.884   2.450 -0.1882  1.7495  0.9026
    9CHTO   O54 3531   7.457   4.857   2.653  0.0139 -0.2572  0.5013
    9CHTO  H133 3532   7.373   4.820   2.673 -0.0416 -0.0107  0.7310
    9CHTO   C75 3533   7.652   4.876   2.504  0.1987 -0.6408  0.2057
    9CHTO  H147 3534   7.684   4.843   2.404  1.2134  1.1456 -0.0888
    9CHTO   N13 3535   7.672   5.020   2.514  0.4551  0.4963  0.0511
    9CHTO  H139 3536   7.727   5.042   2.423 -0.5953  3.2159  0.0612
    9CHTO  H140 3537   7.579   5.071   2.529 -0.7106 -1.2109 -1.1253
    9CHTO   C76 3538   7.745   4.787   2.603  0.0770  0.2489  0.0877
    9CHTO  H148 3539   7.723   4.799   2.710  0.7144  1.1745  0.1267
    9CHTO   O49 3540   7.724   4.649   2.565 -0.1582  0.2659 -0.1266
    9CHTO   C77 3541   7.589   4.604   2.598 -0.0783 -0.3507 -0.3640
    9CHTO  H149 3542   7.566   4.627   2.702 -0.0565  0.0289 -0.4465
    9CHTO   C88 3543   7.590   4.450   2.586  0.1815  0.0217  0.4516
    9CHTO   O58 3544   7.674   4.383   2.681 -0.0561 -0.1888  0.4370
    9CHTO  H136 3545   7.764   4.389   2.654 -0.6426 -0.6525 -1.7150
    9CHTO   O51 3546   7.916   4.821   2.581  0.0771  0.4277 -0.0001
    9CHTO   C78 3547   8.001   4.811   2.717  0.4126  0.6627 -0.2729
    9CHTO  H150 3548   7.935   4.808   2.806  2.1200 -2.0255  0.9752
    9CHTO   C80 3549   8.093   4.930   2.726 -0.2703  0.2017  0.4168
    9CHTO  H152 3550   8.145   4.950   2.630 -0.8500  0.9010  0.2403
    9CHTO   O55 3551   8.004   5.039   2.742 -0.2092  0.0804 -0.1579
    9CHTO  H134 3552   8.049   5.121   2.731  2.2313 -1.6321 -3.8510
    9CHTO   C84 3553   8.199   4.919   2.846 -0.1981 -0.6923 -0.7518
    9CHTO  H156 3554   8.158   4.916   2.947 -1.1862  0.5609 -1.1155
    9CHTO   N15 3555   8.301   5.029   2.841  0.2296 -0.1931 -0.3484
    9CHTO  H143 3556   8.329   5.055   2.741  0.1601 -1.3826 -0.6792
    9CHTO  H144 3557   8.269   5.117   2.893  2.5843 -0.2949  1.3794
    9CHTO   C87 3558   8.277   4.786   2.831  0.6812 -0.5214 -0.0497
    9CHTO  H159 3559   8.340   4.795   2.742 -2.1929 -0.0092 -2.0779
    9CHTO   O53 3560   8.172   4.682   2.836  0.1640 -0.2192  0.6305
    9CHTO   C82 3561   8.077   4.677   2.725  0.2450  0.5154  0.1734
    9CHTO  H154 3562   8.134   4.664   2.633 -1.6379 -0.4103 -0.9044
    9CHTO   C89 3563   7.988   4.553   2.734 -0.1424  0.2142 -0.4571
    9CHTO   O59 3564   7.942   4.551   2.861  0.4603 -0.3578 -0.6984
    9CHTO  H137 3565   7.944   4.462   2.892 -1.1410 -0.2677 -0.2701
    9CHTO   O45 3566   8.380   4.753   2.964 -0.4685 -0.0026  0.5881
    9CHTO   C67 3567   8.446   4.628   2.941  0.3489  0.2124 -0.8609
    9CHTO  H124 3568   8.391   4.567   2.869  3.0211 -0.6644 -2.2251
    9CHTO   C65 3569   8.586   4.653   2.874  0.3788 -0.2093  0.2339
    9CHTO  H122 3570   8.622   4.753   2.899 -0.6813  0.3124 -0.2770
    9CHTO   O44 3571   8.564   4.659   2.733  0.7027 -0.1187 -0.3268
    9CHTO  H102 3572   8.510   4.728   2.701  1.0864  0.8659  1.1142
    9CHTO   C63 3573   8.684   4.545   2.933  0.0169 -0.3241  0.0005
    9CHTO  H120 3574   8.716   4.579   3.031  0.6050  0.6479 -0.5287
    9CHTO   N11 3575   8.810   4.542   2.865  0.2485  0.4860  0.4336
    9CHTO  H108 3576   8.789   4.537   2.760 -1.0450 -0.1916  0.7006
    9CHTO  H109 3577   8.882   4.469   2.896  0.2758  0.1513 -0.3983
    9CHTO   C61 3578   8.615   4.404   2.960  0.0398  0.1009  0.2372
    9CHTO  H118 3579   8.692   4.345   3.013 -0.0390 -0.2073  0.0062
    9CHTO   O40 3580   8.506   4.414   3.049 -0.1218  0.1513  0.3292
    9CHTO   C68 3581   8.446   4.546   3.084 -0.7928 -0.0664  0.8798
    9CHTO  H125 3582   8.516   4.584   3.162 -0.3075  0.6122  0.1269
    9CHTO   C72 3583   8.314   4.528   3.154  0.0343  0.2401  0.2947
    9CHTO   O48 3584   8.324   4.458   3.279 -0.1600  0.0753  0.3491
    9CHTO  H105 3585   8.319   4.522   3.348 -1.2863 -0.0867  0.4267
    9CHTO   O38 3586   8.586   4.335   2.837  0.2276  0.1492  0.0492
    9CHTO   C55 3587   8.490   4.230   2.829 -0.5810  0.0168  0.5413
    9CHTO  H112 3588   8.398   4.256   2.883  0.0848  1.3585  1.0720
    9CHTO   C56 3589   8.549   4.094   2.892 -0.1909 -0.1149 -0.2950
    9CHTO  H113 3590   8.639   4.076   2.831 -0.4474 -1.1660 -0.3805
    9CHTO   O42 3591   8.572   4.117   3.033  0.2791  0.4088  0.0664
    9CHTO  H100 3592   8.649   4.069   3.055  0.5902  0.6537 -0.4666
    9CHTO   C57 3593   8.436   3.981   2.873  0.3478 -0.3128  0.0126
    9CHTO  H114 3594   8.354   3.993   2.943 -0.6668  2.7483 -1.6249
    9CHTO   N10 3595   8.490   3.846   2.908  0.4800  0.4388 -0.4626
    9CHTO  H106 3596   8.411   3.772   2.912  0.6608  0.1535 -1.8409
    9CHTO  H107 3597   8.571   3.804   2.850  2.0506 -0.5616  2.3252
    9CHTO   C58 3598   8.376   3.982   2.729 -0.6323  0.7596 -0.2181
    9CHTO  H115 3599   8.453   3.953   2.655 -0.3689 -1.8296  0.9960
    9CHTO   O37 3600   8.332   4.116   2.686 -0.3003 -0.1634  0.2941
    9CHTO   C59 3601   8.438   4.206   2.685  0.5408 -0.6081  0.5414
    9CHTO  H116 3602   8.520   4.165   2.626  0.0294 -1.6664  0.5656
    9CHTO   C70 3603   8.379   4.329   2.615 -0.5658 -0.5192  0.2849
    9CHTO   O46 3604   8.497   4.411   2.588  0.5619 -0.2586  0.2670
    9CHTO  H103 3605   8.503   4.479   2.653 -0.1819 -0.8739  0.9888
    9CHTO   O39 3606   8.249   3.904   2.725 -0.1034 -0.1204 -0.4148
    9CHTO   C60 3607   8.246   3.778   2.660  0.0650  0.7278 -0.5089
    9CHTO  H117 3608   8.346   3.737   2.648 -0.4491 -1.2579  1.6945
    9CHTO   C62 3609   8.161   3.681   2.749  0.1105 -0.3962  0.3334
    9CHTO  H119 3610   8.212   3.694   2.847 -1.6912  0.8005  1.1343
    9CHTO   O43 3611   8.028   3.732   2.774 -0.0608  0.4756 -0.1312
    9CHTO  H101 3612   7.979   3.746   2.694 -1.7996 -0.0796  0.8069
    9CHTO   C66 3613   8.183   3.532   2.692  0.3611 -0.5302  0.2264
    9CHTO  H123 3614   8.290   3.514   2.697 -0.1895 -3.8005  1.8549
    9CHTO   N12 3615   8.126   3.429   2.787 -0.2985 -0.1258 -0.0008
    9CHTO  H110 3616   8.200   3.392   2.856 -0.2998  1.6166  0.9570
    9CHTO  H111 3617   8.038   3.466   2.837 -0.4826 -0.9469  0.2880
    9CHTO   C69 3618   8.127   3.529   2.545 -0.2752 -0.1005 -0.1354
    9CHTO  H126 3619   8.017   3.543   2.548 -0.2706 -0.2784  0.6942
    9CHTO   O41 3620   8.188   3.632   2.464  0.0167  0.1013  0.4464
    9CHTO   C64 3621   8.183   3.781   2.520  0.3866  0.2614  0.3173
    9CHTO  H121 3622   8.079   3.819   2.531  0.3462 -0.1959  1.6165
    9CHTO   C71 3623   8.263   3.855   2.416  0.9993 -0.1407 -0.0717
    9CHTO   O47 3624   8.187   3.881   2.301  0.1453 -0.1075  0.0364
    9CHTO  H104 3625   8.186   3.803   2.249 -0.2500 -2.0729  2.8590
    9CHTO   O34 3626   8.150   3.398   2.488  0.2724 -0.3481  0.1800
    9CHTO   C49 3627   8.218   3.356   2.348 -0.1201  0.0811 -0.7641
    9CHTO   H91 3628   8.179   3.410   2.261 -0.4028 -1.8432 -1.8804
    9CHTO   C47 3629   8.171   3.205   2.339  0.6783  0.3444 -0.1320
    9CHTO   H89 3630   8.192   3.172   2.235 -0.4425  2.0411 -0.9204
    9CHTO   O33 3631   8.030   3.214   2.344 -0.3723  0.4883 -0.1299
    9CHTO   H70 3632   8.000   3.192   2.430 -1.8583 -1.0653 -1.0084
    9CHTO   C45 3633   8.244   3.105   2.458  0.1494 -0.6208  0.6421
    9CHTO   H87 3634   8.167   3.101   2.537 -1.5017 -0.9820 -0.9581
    9CHTO    N8 3635   8.266   2.970   2.400  0.1494 -0.8374  0.3586
    9CHTO   H75 3636   8.224   2.903   2.474  2.3536 -0.7761  1.6893
    9CHTO   H76 3637   8.371   2.950   2.389  0.8672  2.5936  0.3902
    9CHTO   C43 3638   8.372   3.189   2.521 -0.5486 -0.5261  0.4985
    9CHTO   H85 3639   8.330   3.262   2.590 -2.7884  0.8095 -2.1853
    9CHTO   O29 3640   8.436   3.249   2.410 -0.4298 -0.6252 -0.2032
    9CHTO   C50 3641   8.375   3.361   2.351 -0.6580 -0.6127 -0.1320
    9CHTO   H92 3642   8.402   3.456   2.401 -0.7716 -0.9387  0.5457
    9CHTO   C54 3643   8.434   3.386   2.214  0.1576 -0.2714  0.3309
    9CHTO   O36 3644   8.433   3.280   2.117  0.6446 -0.4057  0.5631
    9CHTO   H72 3645   8.510   3.226   2.117 -0.3263 -1.8973 -2.1891
    9CHTO   O27 3646   8.461   3.105   2.597 -0.2597 -0.1967 -0.1346
    9CHTO   C37 3647   8.507   3.117   2.728  0.5682  0.2056  0.1374
    9CHTO   H79 3648   8.576   3.033   2.743  0.5281  0.2061  0.3131
    9CHTO   C38 3649   8.589   3.242   2.767 -0.0791 -1.0401 -0.3975
    9CHTO   H80 3650   8.533   3.332   2.739  1.6683 -0.3421 -1.7629
    9CHTO   O31 3651   8.710   3.244   2.690  0.0733 -0.0102  0.3397
    9CHTO   H68 3652   8.757   3.320   2.719 -3.1839  2.6145 -0.8854
    9CHTO   C39 3653   8.607   3.261   2.924  0.2407 -0.6678  0.1147
    9CHTO   H81 3654   8.681   3.193   2.966  1.5828 -0.3613 -1.6911
    9CHTO    N7 3655   8.668   3.392   2.963 -0.0120  0.0649 -0.0508
    9CHTO   H73 3656   8.608   3.470   2.919  1.0194  1.7478  1.4401
    9CHTO   H74 3657   8.765   3.400   2.914  0.3030 -3.1079 -0.0089
    9CHTO   C40 3658   8.455   3.248   2.990  0.0059 -0.1756 -0.3262
    9CHTO   H82 3659   8.382   3.319   2.951 -0.5913 -0.9143 -0.5625
    9CHTO   O26 3660   8.417   3.114   2.961 -0.3871  0.8504  0.4038
    9CHTO   C41 3661   8.382   3.102   2.823  0.5318  0.3500 -0.3351
    9CHTO   H83 3662   8.299   3.171   2.800 -0.3928 -0.6638 -0.0513
    9CHTO   C52 3663   8.327   2.961   2.811  0.0118  0.4019  0.2253
    9CHTO   O35 3664   8.177   2.938   2.861 -0.5997 -0.6034  0.1241
    9CHTO   H71 3665   8.131   3.011   2.823  1.2656 -0.6537 -2.3494
    9CHTO   O28 3666   8.453   3.249   3.137 -0.3295  0.1652 -0.1668
    9CHTO   C42 3667   8.339   3.310   3.211 -0.6629  0.2079 -0.2001
    9CHTO   H84 3668   8.357   3.268   3.310  0.9455  0.6901 -0.2614
    9CHTO   C44 3669   8.196   3.268   3.166  0.4783  0.2295  0.2074
    9CHTO   H86 3670   8.181   3.299   3.062 -2.0094 -1.0894  0.1273
    9CHTO   O32 3671   8.186   3.130   3.178 -0.2167 -0.0377 -0.3713
    9CHTO   H69 3672   8.187   3.112   3.270  1.1741 -0.8125 -0.5290
    9CHTO   C48 3673   8.080   3.340   3.246  1.0564 -0.0089  0.7666
    9CHTO   H90 3674   8.089   3.309   3.350  2.2396  1.1923  1.0413
    9CHTO    N9 3675   7.938   3.300   3.198 -1.2280  0.0644 -0.5273
    9CHTO   H77 3676   7.917   3.343   3.101  0.5524  0.7663 -0.6034
    9CHTO   H78 3677   7.861   3.332   3.267 -1.1163 -0.2702 -0.2436
    9CHTO   C51 3678   8.114   3.498   3.238  0.1237  0.2999 -0.1809
    9CHTO   H93 3679   8.121   3.532   3.135 -0.2815  0.8126 -0.0466
    9CHTO   O30 3680   8.233   3.519   3.309 -0.0601 -0.0441  0.1250
    9CHTO   C46 3681   8.347   3.468   3.229  0.4198 -0.0508 -0.3386
    9CHTO   H88 3682   8.343   3.524   3.135  0.9909 -0.1248 -0.4106
    9CHTO   C53 3683   8.477   3.501   3.302 -0.0496 -0.3088 -0.3804
    9CHTO   O72 3684   8.488   3.647   3.315 -0.1660 -0.0901  0.3434
    9CHTO  H199 3685   8.413   3.684   3.359  0.1694  1.9443 -0.7275
    9CHTO   O22 3686   8.022   3.580   3.307  0.0375  0.0981  0.0121
    9CHTO   C31 3687   8.004   3.715   3.258  0.2437  1.0872  0.2618
    9CHTO   H59 3688   7.932   3.760   3.330 -1.0496 -3.2468  1.8038
    9CHTO   C29 3689   8.127   3.810   3.255  0.7151 -0.2468 -0.5932
    9CHTO   H57 3690   8.196   3.769   3.180 -0.0089 -0.7576 -0.9854
    9CHTO   O21 3691   8.180   3.807   3.388  0.0940 -0.1932  0.5666
    9CHTO   H37 3692   8.119   3.840   3.452 -2.0457 -1.0514 -0.9657
    9CHTO   C27 3693   8.095   3.961   3.219  0.2364 -0.5644  0.1024
    9CHTO   H55 3694   8.025   4.010   3.289  0.0915  2.1103 -1.8277
    9CHTO    N5 3695   8.217   4.056   3.219  0.3387 -0.4981  0.0589
    9CHTO   H43 3696   8.288   4.002   3.157  0.4121 -1.4671  0.9668
    9CHTO   H44 3697   8.247   4.075   3.321  1.4874 -1.0854 -0.1602
    9CHTO   C25 3698   8.012   3.962   3.086 -0.8954  0.0509  0.3886
    9CHTO   H53 3699   8.083   3.935   3.007 -2.4749 -0.1138 -1.0066
    9CHTO   O17 3700   7.900   3.861   3.088 -0.1761 -0.2773  0.2509
    9CHTO   C32 3701   7.937   3.722   3.115 -0.3427  0.7854 -0.8753
    9CHTO   H60 3702   8.013   3.702   3.039  0.6007  2.9630 -0.5547
    9CHTO   C36 3703   7.822   3.626   3.117  0.0962  0.3716 -0.2132
    9CHTO   O25 3704   7.722   3.639   3.221  0.3386  0.3528  0.2060
    9CHTO   H40 3705   7.754   3.682   3.297  0.6926 -1.3231  1.0402
    9CHTO   O15 3706   7.952   4.104   3.038 -0.3197  0.6124 -0.5711
    9CHTO   C19 3707   7.891   4.158   2.913 -0.4668  0.7988 -0.1012
    9CHTO   H47 3708   7.870   4.265   2.920 -0.1546  0.8233  0.5244
    9CHTO   C20 3709   7.998   4.143   2.801  0.3775  0.2972  0.2123
    9CHTO   H48 3710   8.044   4.044   2.809 -2.5869 -1.1740 -0.3734
    9CHTO   O19 3711   8.102   4.240   2.828  0.3858 -0.1536  0.7808
    9CHTO   H35 3712   8.139   4.218   2.912  1.2918  0.5555  0.5835
    9CHTO   C21 3713   7.939   4.154   2.660 -0.2277 -0.2619  0.5953
    9CHTO   H49 3714   7.906   4.257   2.643  0.4132 -0.3826 -1.5200
    9CHTO    N4 3715   8.030   4.125   2.546  0.1979  0.2834 -0.0857
    9CHTO   H41 3716   8.076   4.216   2.510 -2.4091  1.9670  0.6847
    9CHTO   H42 3717   8.104   4.060   2.589 -1.2654 -1.8224 -0.6727
    9CHTO   C22 3718   7.806   4.073   2.638 -0.0251  0.4166 -0.3345
    9CHTO   H50 3719   7.819   3.965   2.645 -1.3821  0.1262 -2.0708
    9CHTO   O14 3720   7.711   4.101   2.739  0.3198 -0.5975 -0.8218
    9CHTO   C23 3721   7.756   4.081   2.877  0.6281  0.1253  0.0884
    9CHTO   H51 3722   7.763   3.971   2.886 -1.9218  0.0456  1.5781
    9CHTO   C34 3723   7.636   4.113   2.972 -0.5397 -0.1510  0.7168
    9CHTO   O23 3724   7.593   4.248   2.950 -0.2378 -0.1830 -0.7553
    9CHTO   H38 3725   7.512   4.267   2.992 -0.3536  1.5329 -1.7411
    9CHTO   O16 3726   7.746   4.109   2.510  0.2221  0.3474  0.0639
    9CHTO   C24 3727   7.643   3.995   2.464  0.1030  0.7063 -0.2585
    9CHTO   H52 3728   7.620   3.922   2.542  0.9005  0.1667 -0.5283
    9CHTO   C26 3729   7.703   3.915   2.349 -0.5923  0.2306  0.3611
    9CHTO   H54 3730   7.724   3.983   2.263 -3.7350  0.7219 -0.0776
    9CHTO   O20 3731   7.828   3.852   2.379 -0.3193 -0.3128 -0.3902
    9CHTO   H36 3732   7.874   3.841   2.298  1.9096  0.0496  0.7590
    9CHTO   C30 3733   7.604   3.809   2.300 -0.6480 -0.0535  0.1988
    9CHTO   H58 3734   7.584   3.738   2.381 -0.3893  0.8779  1.0862
    9CHTO    N6 3735   7.656   3.726   2.189  0.0254 -0.4861 -0.4741
    9CHTO   H45 3736   7.738   3.670   2.231 -0.5355 -0.0969  1.1411
    9CHTO   H46 3737   7.675   3.772   2.093 -2.2057  1.9004  0.1882
    9CHTO   C33 3738   7.462   3.874   2.273 -0.1460 -0.1889  0.1332
    9CHTO   H61 3739   7.470   3.943   2.187 -1.0679 -0.5651 -0.2633
    9CHTO   O18 3740   7.423   3.955   2.388 -0.0981 -0.6486  0.4974
    9CHTO   C28 3741   7.506   4.064   2.423 -0.1609  0.4534 -0.1794
    9CHTO   H56 3742   7.516   4.130   2.337 -2.3999  1.0454 -0.0213
    9CHTO   C35 3743   7.434   4.111   2.548 -0.2578 -0.3115  0.1796
    9CHTO   O24 3744   7.318   4.188   2.515  0.4926 -0.5488  0.0587
    9CHTO   H39 3745   7.328   4.277   2.543 -0.8379 -0.1342 -0.7015
    9CHTO    O9 3746   7.361   3.772   2.239 -0.2298 -0.1137 -0.2666
    9CHTO   C13 3747   7.209   3.849   2.191  1.2648  0.2547 -0.0639
    9CHTO   H26 3748   7.230   3.912   2.103  2.1597 -0.1979 -0.1875
    9CHTO   C11 3749   7.152   3.928   2.308  0.5370  0.1076  0.2270
    9CHTO   H24 3750   7.209   4.022   2.314 -0.2368  0.6577 -0.9062
    9CHTO    O8 3751   7.166   3.860   2.429  0.9184  0.2403  0.1902
    9CHTO    H3 3752   7.128   3.774   2.430  1.1168  0.1114 -2.2489
    9CHTO    C9 3753   7.002   3.967   2.277  0.0617 -0.0859  0.5477
    9CHTO   H22 3754   7.004   4.017   2.179  0.2588  2.0326  1.6239
    9CHTO    N2 3755   6.939   4.069   2.366 -0.3060  0.4596  0.1738
    9CHTO   H10 3756   6.836   4.044   2.386 -0.8660  0.3851 -2.5883
    9CHTO   H11 3757   6.997   4.091   2.454 -0.1857  1.4493 -0.1508
    9CHTO    C7 3758   6.912   3.833   2.258 -0.0733  0.4568 -0.5732
    9CHTO   H20 3759   6.810   3.868   2.234 -0.6866 -2.1284 -1.8576
    9CHTO    O4 3760   6.970   3.746   2.159 -0.1100 -0.3338 -0.2868
    9CHTO   C14 3761   7.112   3.742   2.122  0.3609  0.9289 -0.3930
    9CHTO   H27 3762   7.123   3.760   2.013  2.1100  2.1093 -0.0444
    9CHTO   C18 3763   7.157   3.591   2.149  0.0439  0.0947 -0.5358
    9CHTO   O13 3764   7.070   3.499   2.082  0.5927  0.4662  0.1901
    9CHTO    H7 3765   7.106   3.415   2.101 -2.8610 -1.2964 -0.7621
    9CHTO    O2 3766   6.902   3.763   2.395  0.3861  0.4380  0.4600
    9CHTO    C1 3767   6.780   3.699   2.439 -0.3433  0.4262  0.1626
    9CHTO   H14 3768   6.803   3.617   2.509  2.1673 -0.0704 -1.1863
    9CHTO    C2 3769   6.692   3.637   2.325  0.0438 -0.1337 -0.0447
    9CHTO   H15 3770   6.671   3.715   2.250  3.2055  0.6715 -0.1572
    9CHTO    O6 3771   6.761   3.533   2.254 -0.2753  0.5432 -0.6132
    9CHTO    H1 3772   6.719   3.496   2.178  1.5598 -0.2145 -1.2986
    9CHTO    C3 3773   6.548   3.583   2.391 -0.4582 -0.0229  0.4973
    9CHTO   H16 3774   6.574   3.502   2.460  1.2618  1.4265  1.5845
    9CHTO    N1 3775   6.460   3.531   2.284  0.3566 -0.0118  0.1063
    9CHTO    H8 3776   6.452   3.424   2.297 -1.2542  0.2761  1.6534
    9CHTO    H9 3777   6.500   3.553   2.186  2.9861 -0.5579  1.0181
    9CHTO    C4 3778   6.481   3.691   2.476  0.2039 -0.2324 -0.4253
    9CHTO   H17 3779   6.455   3.782   2.422 -1.5296  1.0702  2.4779
    9CHTO    O1 3780   6.576   3.728   2.579  0.0775  0.6318 -0.4819
    9CHTO    C5 3781   6.686   3.798   2.517  0.1760  0.1858  0.3368
    9CHTO   H18 3782   6.656   3.879   2.451 -2.2251 -1.4736 -0.6894
    9CHTO   C16 3783   6.775   3.860   2.630  0.1767  0.5113 -0.8052
    9CHTO   O11 3784   6.693   3.946   2.707  0.1739 -0.1284  0.0018
    9CHTO    H5 3785   6.665   4.014   2.649  0.9740 -1.0395 -1.4597
    9CHTO    O3 3786   6.376   3.640   2.555 -0.0261  0.1779 -0.3799
    9CHTO    C6 3787   6.291   3.736   2.622  0.2480  0.1155  0.2596
    9CHTO   H19 3788   6.329   3.838   2.618  0.8273 -0.1623 -2.8120
    9CHTO    C8 3789   6.146   3.734   2.557  0.0098 -0.2841 -0.0417
    9CHTO   H21 3790   6.107   3.633   2.552  0.0928 -0.3996  1.4061
    9CHTO    O7 3791   6.165   3.775   2.424 -0.2629  0.9171  0.7479
    9CHTO    H2 3792   6.082   3.795   2.384 -1.0314  0.9725  2.3418
    9CHTO   C12 3793   6.045   3.834   2.638  0.1268  0.3425 -0.2397
    9CHTO   H25 3794   6.079   3.939   2.630 -1.5762  0.9432  0.1023
    9CHTO    N3 3795   5.906   3.828   2.579 -0.0787  0.0744  0.4074
    9CHTO   H12 3796   5.848   3.766   2.646  0.1114  1.2729  1.7031
    9CHTO   H13 3797   5.870   3.929   2.574  2.2824  0.9078 -0.1993
    9CHTO   C15 3798   6.041   3.796   2.792 -0.8824 -0.7259  0.2234
    9CHTO   H28 3799   5.988   3.702   2.809 -2.7442 -0.0269 -1.5090
    9CHTO   O10 3800   5.988   3.898   2.891  0.3794 -0.5652  0.3786
    9CHTO    H4 3801   5.899   3.908   2.863  1.0567  0.0481 -1.6659
    9CHTO    O5 3802   6.177   3.792   2.837  0.2689  0.2241  0.9908
    9CHTO   C10 3803   6.271   3.701   2.774 -0.0328  1.3327 -0.2713
    9CHTO   H23 3804   6.230   3.600   2.770  0.2988  1.1734  0.3281
    9CHTO   C17 3805   6.403   3.697   2.849 -0.0680 -0.4465 -0.1014
    9CHTO   O12 3806   6.413   3.600   2.955 -0.0991  0.2010  0.1894
    9CHTO    H6 3807   6.501   3.588   2.985 -0.0457  2.1195  0.8666
   10CHTO  H203 3808   5.396   6.245  -0.450  0.2914 -1.0804 -0.2367
   10CHTO   O82 3809   5.342   6.196  -0.391 -0.4155 -0.6018 -0.4749
   10CHTO  C123 3810   5.204   6.244  -0.389 -0.1833 -0.0419  0.3084
   10CHTO  H227 3811   5.172   6.260  -0.493  1.1294 -1.3461 -0.3153
   10CHTO   O77 3812   5.117   6.145  -0.325 -0.0102 -0.4871  0.1367
   10CHTO  C118 3813   4.981   6.175  -0.335  0.5641  0.5384 -0.9877
   10CHTO  H222 3814   4.954   6.179  -0.441  0.3289  0.1305 -0.9462
   10CHTO  C125 3815   4.894   6.066  -0.271  0.2911  0.0476 -0.3344
   10CHTO   O84 3816   4.922   5.951  -0.356  0.0733 -0.5460 -0.0670
   10CHTO  H205 3817   5.011   5.930  -0.336  0.0763  1.0357  1.7455
   10CHTO  C114 3818   4.940   6.309  -0.267  0.3455  0.1665 -0.5819
   10CHTO  H218 3819   4.945   6.299  -0.158 -0.8373 -0.0199 -0.5324
   10CHTO  C116 3820   5.035   6.421  -0.314  0.6568  0.0274 -0.4912
   10CHTO  H220 3821   5.010   6.453  -0.417  0.3104  0.7127 -0.2034
   10CHTO   O79 3822   5.017   6.545  -0.233 -0.7693  0.0554 -0.0693
   10CHTO  H201 3823   4.960   6.606  -0.276 -0.0379  2.4772  2.2681
   10CHTO  C120 3824   5.187   6.378  -0.316 -0.0635  0.4625  0.0883
   10CHTO  H224 3825   5.209   6.357  -0.209 -0.6709  0.6929  0.2576
   10CHTO   N21 3826   5.273   6.492  -0.361  0.2522  0.6049 -0.1987
   10CHTO  H211 3827   5.213   6.565  -0.413 -1.4345 -0.2732  0.4536
   10CHTO  H212 3828   5.324   6.537  -0.277  0.3653  0.4766 -0.1997
   10CHTO   O75 3829   4.798   6.331  -0.291 -0.5137  0.5568  0.0823
   10CHTO  C112 3830   4.704   6.357  -0.164 -0.0671  1.0283 -0.0376
   10CHTO  H216 3831   4.760   6.409  -0.085 -0.0318  0.1011  0.5528
   10CHTO   O73 3832   4.665   6.225  -0.121 -0.0438 -0.1776 -0.0739
   10CHTO  C113 3833   4.599   6.231   0.005  0.2421  0.1587 -0.8680
   10CHTO  H217 3834   4.670   6.269   0.082 -0.0183 -0.6239 -0.2304
   10CHTO  C124 3835   4.568   6.084   0.050 -0.6395  0.1432 -0.1580
   10CHTO   O83 3836   4.677   5.990   0.024 -0.1729  0.3193  0.1984
   10CHTO  H204 3837   4.756   6.039   0.011  0.8014 -0.8974  1.3676
   10CHTO  C109 3838   4.467   6.323   0.011 -0.1772 -0.0241 -0.7319
   10CHTO  H213 3839   4.386   6.269  -0.040 -1.2835  0.8324  0.0710
   10CHTO  C110 3840   4.497   6.463  -0.062  0.2850  0.4656 -0.4577
   10CHTO  H214 3841   4.558   6.522   0.006  1.2147 -0.3938 -0.5234
   10CHTO   O78 3842   4.376   6.539  -0.083  0.2344  0.6263 -0.1064
   10CHTO  H200 3843   4.397   6.622  -0.121 -1.2436  0.8833 -0.4062
   10CHTO  C111 3844   4.576   6.441  -0.198  0.3537 -0.1714 -0.3311
   10CHTO  H215 3845   4.514   6.384  -0.269  0.0568  0.1972 -0.3713
   10CHTO   N19 3846   4.614   6.566  -0.264  0.1330  0.2643 -0.2734
   10CHTO  H207 3847   4.674   6.626  -0.197  0.8923  1.1992 -1.7712
   10CHTO  H208 3848   4.532   6.631  -0.291 -0.4974 -0.1710  0.5669
   10CHTO   O74 3849   4.431   6.350   0.148  0.4223  0.5363 -0.0150
   10CHTO  C115 3850   4.260   6.323   0.179  0.1633  0.4563 -0.9099
   10CHTO  H219 3851   4.198   6.369   0.102  0.4905 -0.0638 -1.4857
   10CHTO   O76 3852   4.226   6.171   0.181  0.0672  0.1260 -0.3074
   10CHTO  C122 3853   4.276   6.119   0.305 -0.5046 -0.2748  0.8790
   10CHTO  H226 3854   4.384   6.132   0.297 -0.6725  0.9051  0.3929
   10CHTO  C126 3855   4.244   5.960   0.308  0.3257  0.4610 -0.2467
   10CHTO   O85 3856   4.310   5.916   0.426  0.8133 -0.5094  0.5428
   10CHTO  H206 3857   4.249   5.883   0.489 -0.8540  1.0596 -0.1912
   10CHTO  C121 3858   4.237   6.192   0.439 -0.3021  0.3623  0.4163
   10CHTO  H225 3859   4.165   6.129   0.494 -2.7965  0.8266 -2.2381
   10CHTO   O81 3860   4.354   6.233   0.515  0.3353 -0.4285 -0.0508
   10CHTO  H202 3861   4.375   6.162   0.572 -0.0569 -0.6446 -0.1752
   10CHTO  C119 3862   4.162   6.315   0.411 -0.3923 -0.2347 -0.4896
   10CHTO  H223 3863   4.070   6.284   0.361 -0.3502  1.2126 -1.4697
   10CHTO  C117 3864   4.238   6.401   0.315 -0.1843 -0.3583  0.1598
   10CHTO  H221 3865   4.339   6.418   0.351 -1.1719  0.2085  2.7673
   10CHTO   N20 3866   4.174   6.540   0.301  0.2360  0.3137 -0.0292
   10CHTO  H209 3867   4.227   6.615   0.358 -0.3911  0.0369  0.9340
   10CHTO  H210 3868   4.068   6.547   0.319  0.3047  1.0583  0.1002
   10CHTO   O80 3869   4.095   6.384   0.562 -0.7042 -0.4745  0.0585
   10CHTO  C103 3870   3.937   6.383   0.586 -0.4870  0.9169  0.1804
   10CHTO  H190 3871   3.909   6.433   0.679  0.4650  0.9858  0.4302
   10CHTO  C101 3872   3.837   6.437   0.459 -0.8287 -0.0364  0.4826
   10CHTO  H188 3873   3.857   6.377   0.370  1.9810 -2.2391  2.5164
   10CHTO   O68 3874   3.866   6.592   0.424  0.1827  0.1832  0.3795
   10CHTO  H168 3875   3.813   6.651   0.474 -2.5306 -2.2926  0.4916
   10CHTO   C99 3876   3.684   6.409   0.502 -0.1827  0.7629 -0.0276
   10CHTO  H186 3877   3.668   6.448   0.605 -1.1714  4.8000 -1.6123
   10CHTO   N17 3878   3.577   6.465   0.407 -0.9672 -0.5116  0.1291
   10CHTO  H174 3879   3.477   6.470   0.445 -1.4651  0.6152 -1.3045
   10CHTO  H175 3880   3.583   6.412   0.313  2.3168 -3.0357  1.6529
   10CHTO   C97 3881   3.670   6.258   0.520 -0.3573  0.1519 -0.6953
   10CHTO  H184 3882   3.695   6.209   0.425  0.3002  1.7029 -1.3408
   10CHTO   O64 3883   3.762   6.218   0.622 -0.6187 -0.3225  0.2777
   10CHTO  C104 3884   3.900   6.234   0.598 -0.0840  0.2567  0.5233
   10CHTO  H191 3885   3.936   6.177   0.512 -0.3773 -1.4722  1.5087
   10CHTO  C108 3886   3.974   6.173   0.718  0.0520 -0.1871 -0.1641
   10CHTO   O71 3887   3.971   6.030   0.708 -0.1589  0.3702 -0.1234
   10CHTO  H171 3888   4.038   5.996   0.764  0.1878  2.2783  0.6462
   10CHTO   O62 3889   3.538   6.217   0.570 -0.3494 -0.3971  0.5046
   10CHTO   C91 3890   3.519   6.078   0.550 -0.6387 -0.3302 -0.1534
   10CHTO  H178 3891   3.565   6.051   0.455  0.9643 -0.8282  0.7447
   10CHTO   C92 3892   3.368   6.042   0.527 -0.6636 -0.2729 -0.4209
   10CHTO  H179 3893   3.321   6.107   0.452  0.7308 -0.6145 -1.6218
   10CHTO   O66 3894   3.357   5.908   0.469 -0.4171 -0.2941 -0.5110
   10CHTO  H166 3895   3.375   5.840   0.531 -0.8257  0.2633  0.2397
   10CHTO   C93 3896   3.284   6.030   0.662 -1.2237  0.0031 -0.4711
   10CHTO  H180 3897   3.196   5.966   0.648 -1.1780  0.4739 -3.1599
   10CHTO   N16 3898   3.225   6.154   0.713  0.0411  0.2505 -0.1260
   10CHTO  H172 3899   3.252   6.182   0.814 -0.9680  1.3308 -0.1442
   10CHTO  H173 3900   3.239   6.235   0.643 -0.7687  1.4064  1.0105
   10CHTO   C94 3901   3.377   5.962   0.768  0.2218 -0.4770 -0.4218
   10CHTO  H181 3902   3.417   6.036   0.837  0.7217 -0.3411 -0.8564
   10CHTO   O61 3903   3.486   5.885   0.713  0.2623  0.5445  0.0695
   10CHTO   C95 3904   3.582   5.969   0.654  0.2598  0.2979 -0.5320
   10CHTO  H182 3905   3.622   6.029   0.736  1.2146 -1.7321  0.5187
   10CHTO  C106 3906   3.692   5.877   0.599  0.0729  0.4632  0.1620
   10CHTO   O69 3907   3.798   5.932   0.520 -0.2549  0.2141  0.0180
   10CHTO  H169 3908   3.842   6.006   0.559  2.0370 -1.6131  0.9770
   10CHTO   O63 3909   3.277   5.849   0.867  0.1531  0.5227  0.1693
   10CHTO   C96 3910   3.346   5.773   0.973 -0.0251 -0.5850 -0.6798
   10CHTO  H183 3911   3.444   5.816   0.992 -1.7513  2.2154  2.4063
   10CHTO   C98 3912   3.349   5.618   0.937 -0.7918 -0.2289 -0.4019
   10CHTO  H185 3913   3.248   5.578   0.920 -0.8611 -1.4088  2.6023
   10CHTO   O67 3914   3.420   5.610   0.814 -0.1878 -0.5734  0.2275
   10CHTO  H167 3915   3.358   5.591   0.746 -1.2480  0.4719  0.8822
   10CHTO  C102 3916   3.427   5.530   1.058  0.1675  0.2882 -0.8654
   10CHTO  H189 3917   3.535   5.549   1.047  0.5296 -0.5124  1.0805
   10CHTO   N18 3918   3.408   5.379   1.054 -0.0664 -0.6395  0.2102
   10CHTO  H176 3919   3.508   5.339   1.040 -0.6609 -1.4535 -1.9444
   10CHTO  H177 3920   3.368   5.328   1.140 -1.4108 -2.3094 -1.3598
   10CHTO  C105 3921   3.400   5.594   1.198 -0.3384  0.3132  1.1051
   10CHTO  H192 3922   3.373   5.518   1.270  1.8261 -0.2042  1.4048
   10CHTO   O65 3923   3.285   5.686   1.204 -0.5729  0.0324 -0.0718
   10CHTO  C100 3924   3.261   5.779   1.100 -0.1362 -0.1103 -0.4131
   10CHTO  H187 3925   3.155   5.770   1.070 -0.1464 -0.2772 -0.3256
   10CHTO  C107 3926   3.266   5.922   1.150  0.5138  0.4393  0.2395
   10CHTO   O70 3927   3.171   5.942   1.261 -1.1945  0.1587 -0.1241
   10CHTO  H170 3928   3.162   6.034   1.279 -2.2746  0.1129 -0.4137
   10CHTO   O57 3929   3.547   5.666   1.242 -0.1137  0.5771  0.3290
   10CHTO   C85 3930   3.571   5.652   1.386  0.6354 -0.1305 -1.0457
   10CHTO  H157 3931   3.497   5.582   1.428 -0.3815  2.2328  1.2512
   10CHTO   C83 3932   3.533   5.790   1.461  0.4099 -0.1303  0.4047
   10CHTO  H155 3933   3.437   5.817   1.419  0.0849  2.6834  2.8280
   10CHTO   O56 3934   3.625   5.894   1.420  0.1804 -0.1710  0.0747
   10CHTO  H135 3935   3.711   5.871   1.448  0.2704 -0.3996 -0.3944
   10CHTO   C81 3936   3.520   5.760   1.612 -0.4703  0.1240 -0.6757
   10CHTO  H153 3937   3.451   5.676   1.622  0.9395 -0.6514  3.0942
   10CHTO   N14 3938   3.459   5.875   1.678 -0.2274 -0.2425  0.2766
   10CHTO  H141 3939   3.354   5.866   1.657 -0.0471  3.1266 -2.6353
   10CHTO  H142 3940   3.473   5.867   1.784 -0.3311 -0.0869  0.3033
   10CHTO   C79 3941   3.656   5.710   1.663  0.5176 -0.1409 -0.0610
   10CHTO  H151 3942   3.640   5.670   1.763  0.4337 -0.7221 -0.3042
   10CHTO   O52 3943   3.718   5.600   1.579  0.2060 -0.2759  0.5648
   10CHTO   C86 3944   3.719   5.621   1.438 -0.6863  0.1209 -0.9916
   10CHTO  H158 3945   3.792   5.699   1.408  0.7330 -0.5606  0.5935
   10CHTO   C90 3946   3.777   5.491   1.375  0.0926  0.0771 -0.1282
   10CHTO   O60 3947   3.915   5.477   1.405  0.0092 -0.2261  0.3278
   10CHTO  H138 3948   3.955   5.416   1.345  0.4550  2.2539 -1.9524
   10CHTO   O50 3949   3.751   5.814   1.677 -0.5387  0.5011  0.2627
   10CHTO   C73 3950   3.871   5.778   1.762  0.3118  0.0204  0.5879
   10CHTO  H145 3951   3.899   5.672   1.746  0.2760 -0.2208  2.0867
   10CHTO   C74 3952   3.837   5.786   1.916 -0.2187  0.0944  0.3305
   10CHTO  H146 3953   3.753   5.725   1.952 -1.8727  1.5105 -1.0557
   10CHTO   O54 3954   3.950   5.741   1.996  0.2224 -0.1072 -0.3377
   10CHTO  H133 3955   3.945   5.773   2.084  1.8130  1.6755 -0.8648
   10CHTO   C75 3956   3.818   5.944   1.948  0.1553 -0.0436  0.0870
   10CHTO  H147 3957   3.739   5.984   1.883  1.0869  0.0639 -0.9802
   10CHTO   N13 3958   3.782   5.983   2.084 -0.1228 -0.2315  0.0930
   10CHTO  H139 3959   3.801   6.086   2.113 -1.1745 -0.5870  2.1942
   10CHTO  H140 3960   3.845   5.919   2.144 -1.7072  0.0918  2.1647
   10CHTO   C76 3961   3.946   6.017   1.904 -0.1409 -0.5073 -0.7367
   10CHTO  H148 3962   4.037   5.983   1.954  0.1793 -0.4843 -1.3003
   10CHTO   O49 3963   3.964   5.997   1.763  0.1688 -0.3809 -0.1805
   10CHTO   C77 3964   3.991   5.868   1.724  0.5948 -0.4822 -0.5138
   10CHTO  H149 3965   4.088   5.829   1.757  0.6484  0.0738 -0.0041
   10CHTO   C88 3966   4.021   5.868   1.570 -0.5566  0.1277 -0.0581
   10CHTO   O58 3967   3.931   5.930   1.482 -0.3894 -0.1625  0.2790
   10CHTO  H136 3968   3.942   6.023   1.485 -2.0203 -0.0075  2.9267
   10CHTO   O51 3969   3.946   6.193   1.924 -0.0044 -0.4347  0.2654
   10CHTO   C78 3970   4.072   6.251   1.944 -0.3197  0.3798 -0.3705
   10CHTO  H150 3971   4.153   6.193   1.894 -0.7952  1.3242 -2.2928
   10CHTO   C80 3972   4.091   6.258   2.098 -0.4476 -0.0644  0.2161
   10CHTO  H152 3973   3.992   6.276   2.144 -1.4927 -1.7780 -1.3012
   10CHTO   O55 3974   4.134   6.132   2.151 -0.1784  0.0131  0.3212
   10CHTO  H134 3975   4.140   6.130   2.244 -2.5113  0.0102  0.5037
   10CHTO   C84 3976   4.191   6.372   2.149  0.6673 -0.2207  0.6353
   10CHTO  H156 3977   4.291   6.333   2.128  0.0158 -0.8698 -1.4499
   10CHTO   N15 3978   4.195   6.392   2.298  0.2373 -0.1373 -0.4327
   10CHTO  H143 3979   4.181   6.294   2.338  0.5815  0.6850  1.7477
   10CHTO  H144 3980   4.109   6.450   2.323 -1.0086 -1.3901 -1.7526
   10CHTO   C87 3981   4.182   6.502   2.069 -0.1883 -0.9930 -0.3417
   10CHTO  H159 3982   4.112   6.578   2.104  1.3319 -0.0505  0.6849
   10CHTO   O53 3983   4.172   6.467   1.927  0.1961 -0.3562 -0.1092
   10CHTO   C82 3984   4.059   6.392   1.886  0.2383 -0.0454 -0.0230
   10CHTO  H154 3985   3.966   6.443   1.913  0.8845  0.2601  1.6921
   10CHTO   C89 3986   4.052   6.385   1.732 -0.5017  0.4818 -0.3052
   10CHTO   O59 3987   4.045   6.513   1.673  0.3432 -0.8160  0.8197
   10CHTO  H137 3988   4.121   6.566   1.682  0.1004  0.0118 -1.7685
   10CHTO   O45 3989   4.327   6.579   2.093  0.0024 -0.5147 -0.5451
   10CHTO   C67 3990   4.325   6.723   2.065  0.7302 -0.0497 -0.1537
   10CHTO  H124 3991   4.239   6.747   2.003 -0.1422 -1.5291  0.4294
   10CHTO   C65 3992   4.310   6.809   2.195 -0.3095  1.0750  0.4036
   10CHTO  H122 3993   4.313   6.730   2.271 -0.1136  1.2273  0.5548
   10CHTO   O44 3994   4.187   6.875   2.190 -0.6164 -0.2182 -0.1946
   10CHTO  H102 3995   4.201   6.949   2.134  1.2865  0.0971  0.6344
   10CHTO   C63 3996   4.436   6.903   2.217 -0.2146  0.1463  0.8094
   10CHTO  H120 3997   4.526   6.841   2.214 -0.7803 -0.5969 -1.4715
   10CHTO   N11 3998   4.439   6.978   2.350 -0.6723 -0.3345  0.0761
   10CHTO  H108 3999   4.540   7.012   2.364 -1.1158 -0.2659  3.4978
   10CHTO  H109 4000   4.361   7.051   2.357 -1.1821 -1.0159  1.8273
   10CHTO   C61 4001   4.450   6.982   2.085  0.6492 -0.7431 -0.2679
   10CHTO  H118 4002   4.554   7.019   2.089  0.4520 -0.3064  0.8228
   10CHTO   O40 4003   4.442   6.903   1.961  0.3285  0.5723 -0.2769
   10CHTO   C68 4004   4.446   6.760   1.986 -0.2211 -0.2618 -0.3969
   10CHTO  H125 4005   4.543   6.733   2.033  0.3231 -1.0266 -1.9329
   10CHTO   C72 4006   4.449   6.697   1.842  0.9302  0.2636  0.1382
   10CHTO   O48 4007   4.546   6.748   1.751  0.4924 -0.0120 -0.0447
   10CHTO  H105 4008   4.511   6.823   1.706 -0.5299 -0.2019  0.4047
   10CHTO   O38 4009   4.341   7.082   2.067  0.4903 -0.0500  0.2379
   10CHTO   C55 4010   4.340   7.214   1.999  0.1864 -0.5265 -0.3166
   10CHTO  H112 4011   4.257   7.211   1.927 -0.4202  0.8288  0.3127
   10CHTO   C56 4012   4.484   7.241   1.927 -0.0257  0.0070 -0.4016
   10CHTO  H113 4013   4.564   7.199   1.989 -0.3242 -0.3039 -0.2197
   10CHTO   O42 4014   4.490   7.163   1.808 -0.6478  0.0164 -0.0143
   10CHTO  H100 4015   4.548   7.091   1.823  1.0586  1.5475  0.8656
   10CHTO   C57 4016   4.509   7.392   1.894  0.7344 -0.4349  0.0837
   10CHTO  H114 4017   4.442   7.405   1.810 -1.0252  0.1724  1.5571
   10CHTO   N10 4018   4.644   7.431   1.857  0.3712  0.3448 -0.3640
   10CHTO  H106 4019   4.707   7.432   1.945 -0.2414 -1.0112  0.0882
   10CHTO  H107 4020   4.693   7.372   1.781 -0.9498 -1.9656  0.5466
   10CHTO   C58 4021   4.457   7.491   2.001 -0.8154 -0.1462 -0.0573
   10CHTO  H115 4022   4.523   7.486   2.090 -1.7775  0.0153  0.6674
   10CHTO   O37 4023   4.319   7.461   2.038  0.3108  0.3236 -0.3585
   10CHTO   C59 4024   4.300   7.334   2.100  0.3979  0.1201  0.3596
   10CHTO  H116 4025   4.355   7.322   2.193 -0.2295  0.7715  0.8178
   10CHTO   C70 4026   4.152   7.310   2.149  0.5491  0.0157 -0.1446
   10CHTO   O46 4027   4.131   7.200   2.240 -0.0981  0.4565 -0.1917
   10CHTO  H103 4028   4.183   7.128   2.210  1.0188  0.9810  0.4496
   10CHTO   O39 4029   4.453   7.637   1.964 -0.1298 -0.4295 -0.1753
   10CHTO   C60 4030   4.454   7.745   2.061 -0.3731  0.2729  0.3182
   10CHTO  H117 4031   4.388   7.710   2.141  1.5700 -1.8706  1.0609
   10CHTO   C62 4032   4.604   7.766   2.106 -0.2923 -0.5905  0.3942
   10CHTO  H119 4033   4.652   7.674   2.146 -0.6044 -0.9438 -0.0280
   10CHTO   O43 4034   4.681   7.800   1.987 -0.2159  0.0367 -0.0799
   10CHTO  H101 4035   4.684   7.727   1.929 -0.5558 -0.7868  0.9195
   10CHTO   C66 4036   4.618   7.889   2.217  0.7737  0.1911  0.6036
   10CHTO  H123 4037   4.543   7.874   2.295  0.5643 -1.8076  0.0549
   10CHTO   N12 4038   4.753   7.898   2.274 -0.5210  0.3625 -0.5799
   10CHTO  H110 4039   4.830   7.901   2.198 -2.0842 -0.8732 -2.2720
   10CHTO  H111 4040   4.767   7.978   2.346  0.3827  0.5293 -0.9334
   10CHTO   C69 4041   4.566   8.020   2.152 -0.4272 -0.0652  0.4182
   10CHTO  H126 4042   4.636   8.043   2.069 -1.4033  0.2385 -0.3336
   10CHTO   O41 4043   4.420   8.006   2.100 -0.0465 -0.1380  0.6242
   10CHTO   C64 4044   4.398   7.875   2.001  0.2578 -0.3164 -0.2301
   10CHTO  H121 4045   4.455   7.898   1.908  1.4801 -1.1234  0.3113
   10CHTO   C71 4046   4.244   7.863   1.981 -1.4928  0.4779  0.1562
   10CHTO   O47 4047   4.204   7.967   1.892  0.4757  0.0275  0.4454
   10CHTO  H104 4048   4.235   8.045   1.935 -0.9277  1.1754 -0.5614
   10CHTO   O34 4049   4.572   8.151   2.252 -0.3614  0.2666  0.1368
   10CHTO   C49 4050   4.627   8.295   2.233 -0.0075 -0.3499  0.2049
   10CHTO   H91 4051   4.723   8.301   2.284  0.2705 -0.8513 -0.2504
   10CHTO   C47 4052   4.529   8.401   2.297 -0.6452 -0.0929 -0.2091
   10CHTO   H89 4053   4.579   8.500   2.289  0.3264 -0.5627 -0.0044
   10CHTO   O33 4054   4.512   8.357   2.436 -0.0212 -0.3321  0.0510
   10CHTO   H70 4055   4.589   8.321   2.474  0.4535 -0.3741 -0.9499
   10CHTO   C45 4056   4.390   8.409   2.204  0.6011 -0.1820 -0.4704
   10CHTO   H87 4057   4.354   8.305   2.195 -0.4964  0.0929  0.4925
   10CHTO    N8 4058   4.273   8.477   2.262 -0.2102  0.4940  0.0373
   10CHTO   H75 4059   4.190   8.426   2.217  0.3828 -2.0883  1.7319
   10CHTO   H76 4060   4.269   8.575   2.218 -1.3502 -0.0749 -1.1501
   10CHTO   C43 4061   4.434   8.461   2.063  0.1918 -0.2380 -0.3868
   10CHTO   H85 4062   4.345   8.465   1.999  0.8565  1.7222 -1.2154
   10CHTO   O29 4063   4.534   8.381   2.008  0.7791 -0.1642  0.0150
   10CHTO   C50 4064   4.646   8.332   2.086  0.1321 -1.1473  0.1097
   10CHTO   H92 4065   4.679   8.239   2.038  2.6768 -0.7046  0.8756
   10CHTO   C54 4066   4.774   8.424   2.066 -0.2378 -0.0242 -0.1623
   10CHTO   O36 4067   4.837   8.409   1.940  0.1115 -0.3118 -0.0506
   10CHTO   H72 4068   4.875   8.490   1.912 -2.9958  0.7448 -1.3492
   10CHTO   O27 4069   4.482   8.596   2.074  0.0975 -0.4085  0.0168
   10CHTO   C37 4070   4.519   8.722   2.015 -0.4448 -0.3947  0.1298
   10CHTO   H79 4071   4.623   8.720   1.978 -0.1972  0.8649  0.7097
   10CHTO   C38 4072   4.429   8.748   1.893 -0.3915  0.3152 -0.4986
   10CHTO   H80 4073   4.323   8.747   1.924  0.0061  0.8665  0.8981
   10CHTO   O31 4074   4.459   8.638   1.801  0.2794 -0.1130  0.1770
   10CHTO   H68 4075   4.482   8.680   1.720 -2.1373  0.3430 -0.2879
   10CHTO   C39 4076   4.461   8.888   1.831  0.1695 -0.4746  0.5226
   10CHTO   H81 4077   4.559   8.872   1.788  0.7107  0.9669  1.2023
   10CHTO    N7 4078   4.370   8.929   1.719  0.3970  0.5811  0.3343
   10CHTO   H73 4079   4.284   8.863   1.716  1.5037 -1.0818  2.8017
   10CHTO   H74 4080   4.416   8.931   1.622 -0.5371 -1.3938 -0.1690
   10CHTO   C40 4081   4.456   9.000   1.946  0.1528 -0.2272  0.7151
   10CHTO   H82 4082   4.351   9.000   1.976 -0.4709  2.4084 -1.2793
   10CHTO   O26 4083   4.541   8.962   2.055  0.5948 -0.2062  0.5276
   10CHTO   C41 4084   4.507   8.844   2.117  0.5031  0.1681 -0.2644
   10CHTO   H83 4085   4.402   8.853   2.147  0.5287  2.4921 -0.7856
   10CHTO   C52 4086   4.593   8.828   2.243 -0.6286 -0.0152  0.2906
   10CHTO   O35 4087   4.714   8.790   2.225  0.3076 -0.3657  0.3847
   10CHTO   H71 4088   4.751   8.778   2.310  1.9879 -1.8706 -0.5250
   10CHTO   O28 4089   4.494   9.128   1.899 -0.5580  0.0271  0.6094
   10CHTO   C42 4090   4.438   9.251   1.949  0.3520 -0.2720  0.0618
   10CHTO   H84 4091   4.364   9.220   2.023  1.0296 -0.9212  0.4742
   10CHTO   C44 4092   4.355   9.331   1.839 -0.5862 -0.0859  0.1850
   10CHTO   H86 4093   4.423   9.347   1.756 -2.6520  3.3048 -0.9608
   10CHTO   O32 4094   4.241   9.244   1.799 -0.1192 -0.2028 -0.2871
   10CHTO   H69 4095   4.245   9.236   1.706 -0.0609  0.2758 -0.3271
   10CHTO   C48 4096   4.318   9.475   1.889  0.0551 -0.0794 -0.6921
   10CHTO   H90 4097   4.251   9.451   1.971 -0.0607 -3.3991 -1.6619
   10CHTO    N9 4098   4.243   9.548   1.777 -0.0591  0.8660  0.4181
   10CHTO   H77 4099   4.259   9.480   1.694 -2.2233 -0.1376  0.8057
   10CHTO   H78 4100   4.139   9.560   1.799 -0.6054  0.2357 -1.6281
   10CHTO   C51 4101   4.446   9.548   1.937  0.7700  0.5527 -0.0343
   10CHTO   H93 4102   4.517   9.558   1.856 -0.7867 -0.0185 -1.4874
   10CHTO   O30 4103   4.481   9.453   2.044 -0.5860  0.2531  0.1804
   10CHTO   C46 4104   4.541   9.340   2.019 -0.0247  0.0557  0.1270
   10CHTO   H88 4105   4.630   9.359   1.960 -0.2316  0.0866 -0.1728
   10CHTO   C53 4106   4.585   9.279   2.155 -0.0875  0.0424  0.3475
   10CHTO   O72 4107   4.707   9.334   2.202 -1.2941  0.3418  0.2687
   10CHTO  H199 4108   4.715   9.427   2.193  0.9956  0.0818 -0.7560
   10CHTO   O22 4109   4.427   9.674   1.994  0.8187 -0.2456  0.3202
   10CHTO   C31 4110   4.532   9.763   2.005  0.1010  0.5839 -0.1984
   10CHTO   H59 4111   4.502   9.841   2.079  0.4621  1.4800 -0.9856
   10CHTO   C29 4112   4.675   9.722   2.044 -0.1128 -0.3687 -0.0976
   10CHTO   H57 4113   4.714   9.648   1.973 -1.1637 -1.0996  0.0724
   10CHTO   O21 4114   4.650   9.644   2.167 -0.0537 -1.0772  0.1186
   10CHTO   H37 4115   4.635   9.706   2.236  0.7137  0.7309 -1.2832
   10CHTO   C27 4116   4.778   9.841   2.059  0.0984  0.0663  0.1222
   10CHTO   H55 4117   4.754   9.902   2.147  1.5718  0.5689  0.1977
   10CHTO    N5 4118   4.913   9.788   2.083 -0.4476 -0.0560  0.1977
   10CHTO   H43 4119   4.909   9.686   2.116 -2.6680 -0.4459 -1.1582
   10CHTO   H44 4120   4.961   9.851   2.157 -0.4998 -2.0069  1.9296
   10CHTO   C25 4121   4.765   9.921   1.924 -0.0700 -0.0565  0.1595
   10CHTO   H53 4122   4.795   9.875   1.829 -0.5377 -0.1317  0.0487
   10CHTO   O17 4123   4.628   9.961   1.896  0.1656 -0.3848  0.2289
   10CHTO   C32 4124   4.540   9.850   1.873 -0.1139  0.4909  0.7256
   10CHTO   H60 4125   4.594   9.796   1.795 -1.2067 -1.6535  1.4248
   10CHTO   C36 4126   4.396   9.900   1.831 -0.0789  0.4976 -0.7561
   10CHTO   O25 4127   4.385   9.969   1.701  0.2533  0.1142  0.0240
   10CHTO   H40 4128   4.432   9.926   1.632  0.4619  0.8781 -0.3142
   10CHTO   O15 4129   4.836  10.063   1.940 -0.1382 -0.6917  0.5746
   10CHTO   C19 4130   4.873  10.159   1.836 -0.1085 -0.3898  0.0150
   10CHTO   H47 4131   4.828  10.120   1.744 -2.5952  2.8794 -0.2476
   10CHTO   C20 4132   4.813  10.301   1.860 -0.2447  0.3591 -0.4936
   10CHTO   H48 4133   4.830  10.333   1.964 -0.8227 -1.6094  0.2233
   10CHTO   O19 4134   4.675  10.292   1.851  0.3863 -0.1517 -0.0243
   10CHTO   H35 4135   4.637  10.232   1.913 -1.1962  0.4742 -0.3645
   10CHTO   C21 4136   4.867  10.406   1.751 -0.0692 -0.4213  0.3484
   10CHTO   H49 4137   4.814  10.393   1.657  3.0289  0.8236 -1.6410
   10CHTO    N4 4138   4.841  10.551   1.784  0.5351  0.0057  0.2932
   10CHTO   H41 4139   4.933  10.607   1.793 -0.3642  1.4123  0.8964
   10CHTO   H42 4140   4.776  10.596   1.710  0.5788 -0.7688 -0.2244
   10CHTO   C22 4141   5.019  10.391   1.708  0.1340  0.3054 -0.1918
   10CHTO   H50 4142   5.089  10.433   1.781  1.2761 -1.2590 -0.3459
   10CHTO   O14 4143   5.051  10.255   1.695 -0.9585  0.2364  0.5982
   10CHTO   C23 4144   5.025  10.171   1.808 -0.6907 -0.4250  0.1411
   10CHTO   H51 4145   5.076  10.218   1.894 -1.1193  0.1212  0.1027
   10CHTO   C34 4146   5.091  10.034   1.797  0.2001  0.4558  0.1621
   10CHTO   O23 4147   5.226  10.048   1.758  0.8169 -0.4403  0.0715
   10CHTO   H38 4148   5.260   9.967   1.726  0.8010 -0.7382  0.8008
   10CHTO   O16 4149   5.047  10.445   1.578  0.5982  0.1862  0.3739
   10CHTO   C24 4150   5.207  10.465   1.541 -0.2221  0.3262  0.2349
   10CHTO   H52 4151   5.274  10.432   1.620  1.2338  0.5775 -0.8721
   10CHTO   C26 4152   5.226  10.617   1.511 -0.6111  0.7261 -0.1804
   10CHTO   H54 4153   5.163  10.647   1.425 -2.4652 -0.4297  0.7513
   10CHTO   O20 4154   5.182  10.693   1.633 -0.3850 -0.2344  0.2061
   10CHTO   H36 4155   5.188  10.643   1.712  0.6385 -1.8764 -0.8936
   10CHTO   C30 4156   5.375  10.649   1.472  0.2554  0.4914 -0.0722
   10CHTO   H58 4157   5.442  10.632   1.557 -0.5778  1.9970  0.9089
   10CHTO    N6 4158   5.386  10.794   1.444 -0.1274 -0.5077 -0.1620
   10CHTO   H45 4159   5.332  10.818   1.354 -3.3146 -2.2694  1.2214
   10CHTO   H46 4160   5.491  10.819   1.432 -0.9153  2.2625 -1.8745
   10CHTO   C33 4161   5.420  10.561   1.349  0.6898  0.1177 -0.2850
   10CHTO   H61 4162   5.371  10.595   1.256  1.0676 -0.5778 -0.7381
   10CHTO   O18 4163   5.387  10.423   1.374 -0.0205 -0.9196 -0.3973
   10CHTO   C28 4164   5.252  10.384   1.418  0.4019  0.5200 -0.1352
   10CHTO   H56 4165   5.187  10.402   1.332  0.4176  0.8740 -0.0726
   10CHTO   C35 4166   5.259  10.228   1.441  0.8393 -0.4856  0.1749
   10CHTO   O24 4167   5.169  10.145   1.357 -0.2978  0.1147 -0.0974
   10CHTO   H39 4168   5.081  10.173   1.341 -0.2207  0.5913  0.2980
   10CHTO    O9 4169   5.562  10.574   1.324 -0.2718 -0.0463  0.0973
   10CHTO   C13 4170   5.618  10.557   1.180 -0.3574 -0.1348  0.2530
   10CHTO   H26 4171   5.552  10.621   1.117 -1.0369  0.5452  1.6185
   10CHTO   C11 4172   5.614  10.402   1.136 -0.3892  0.3866  0.0046
   10CHTO   H24 4173   5.507  10.379   1.122 -0.7204  1.6369  0.4445
   10CHTO    O8 4174   5.653  10.316   1.245 -0.0680  0.2692 -0.4385
   10CHTO    H3 4175   5.661  10.228   1.213 -0.6790 -0.6038  1.7148
   10CHTO    C9 4176   5.700  10.386   1.008  0.0178 -0.1387 -0.5545
   10CHTO   H22 4177   5.660  10.462   0.940  1.9147  0.6576 -0.8199
   10CHTO    N2 4178   5.663  10.256   0.944  0.9825 -0.1595  0.2337
   10CHTO   H10 4179   5.740  10.225   0.874 -0.1131  0.7086 -1.3737
   10CHTO   H11 4180   5.569  10.274   0.894  0.5477 -3.5361 -0.2880
   10CHTO    C7 4181   5.853  10.404   1.048  0.5996 -0.0386 -0.5787
   10CHTO   H20 4182   5.893  10.440   0.951  3.7358 -1.7382  0.0368
   10CHTO    O4 4183   5.873  10.498   1.153  0.0999 -0.1360 -0.0388
   10CHTO   C14 4184   5.777  10.602   1.166 -0.1951 -0.7986  0.1207
   10CHTO   H27 4185   5.785  10.664   1.075 -2.1935  0.2277  0.6031
   10CHTO   C18 4186   5.818  10.691   1.284 -0.2812 -0.0756  0.3705
   10CHTO   O13 4187   5.746  10.816   1.281 -0.4415  0.4718 -0.2071
   10CHTO    H7 4188   5.801  10.892   1.270  1.4327 -0.6347  1.1287
   10CHTO    O2 4189   5.933  10.267   1.081 -0.0909 -0.3224  0.9418
   10CHTO    C1 4190   6.072  10.279   1.118 -0.1931  0.2506 -0.1430
   10CHTO   H14 4191   6.083  10.354   1.199 -1.6679  2.1262 -1.6090
   10CHTO    C2 4192   6.169  10.321   0.997 -0.1821 -0.1852 -0.5747
   10CHTO   H15 4193   6.153  10.246   0.919  2.1832 -0.8670 -0.4433
   10CHTO    O6 4194   6.136  10.453   0.947 -0.1098  0.0844 -0.3738
   10CHTO    H1 4195   6.129  10.465   0.854 -1.8218  1.8631 -0.0604
   10CHTO    C3 4196   6.321  10.329   1.042  0.5565 -0.1797 -0.2203
   10CHTO   H16 4197   6.339  10.408   1.116 -1.8456 -1.3322  1.6602
   10CHTO    N1 4198   6.419  10.361   0.935 -0.2243 -0.8333 -0.3644
   10CHTO    H8 4199   6.475  10.449   0.962 -1.7211 -0.3611  1.3472
   10CHTO    H9 4200   6.376  10.364   0.836  0.8892  0.4436 -0.8184
   10CHTO    C4 4201   6.354  10.193   1.113  0.0212 -0.0150 -0.2036
   10CHTO   H17 4202   6.361  10.114   1.038  2.9964  0.3894 -0.4159
   10CHTO    O1 4203   6.257  10.161   1.214  0.7280  0.3406 -0.0523
   10CHTO    C5 4204   6.119  10.142   1.170 -0.2792 -0.8053  0.1614
   10CHTO   H18 4205   6.127  10.069   1.090  3.1663  0.6284 -0.8967
   10CHTO   C16 4206   6.032  10.084   1.283 -0.0792 -0.0354 -0.0591
   10CHTO   O11 4207   6.088   9.962   1.337  0.4409 -0.0331  0.5268
   10CHTO    H5 4208   6.062   9.971   1.426 -1.6552 -4.6586  0.5241
   10CHTO    O3 4209   6.481  10.214   1.186  0.4938  0.6047  0.3113
   10CHTO    C6 4210   6.569  10.099   1.195  0.1331  0.3910 -0.2770
   10CHTO   H19 4211   6.507  10.010   1.200 -0.0637  0.6286  1.6236
   10CHTO    C8 4212   6.669  10.080   1.080 -0.2171  0.6004 -0.3487
   10CHTO   H21 4213   6.729  10.169   1.061  0.2569 -0.1943 -2.7260
   10CHTO    O7 4214   6.590  10.054   0.961 -0.6316 -0.1890  0.2119
   10CHTO    H2 4215   6.636  10.043   0.879 -0.2775 -1.1666  0.5417
   10CHTO   C12 4216   6.770   9.960   1.112 -0.1431  0.0059 -0.8627
   10CHTO   H25 4217   6.702   9.873   1.122  2.0050 -1.4955  1.0927
   10CHTO    N3 4218   6.869   9.929   1.004 -0.0565 -0.0364 -0.0297
   10CHTO   H12 4219   6.902   9.827   0.998  0.2502 -0.1033  2.2839
   10CHTO   H13 4220   6.953   9.998   1.004  0.5215 -0.7301  0.7103
   10CHTO   C15 4221   6.830   9.997   1.256  0.4341  0.8438 -0.8420
   10CHTO   H28 4222   6.874  10.097   1.259 -0.3826  1.1940 -0.1687
   10CHTO   O10 4223   6.938   9.894   1.307  0.0179  0.6762 -0.0800
   10CHTO    H4 4224   6.903   9.811   1.333  0.4836  0.5726  0.2182
   10CHTO    O5 4225   6.726   9.996   1.352 -0.3488 -0.5770 -0.2680
   10CHTO   C10 4226   6.641  10.111   1.329 -1.1752 -0.7264 -0.4513
   10CHTO   H23 4227   6.696  10.204   1.343 -2.1049 -0.1669 -0.4142
   10CHTO   C17 4228   6.532  10.116   1.444 -0.2065 -0.1330 -0.5607
   10CHTO   O12 4229   6.453   9.998   1.447 -0.8218  0.1205  0.5186
   10CHTO    H6 4230   6.388  10.006   1.514 -1.8556  0.9065 -0.5779
   11CHTO  H203 4231   7.734   4.889   0.249  0.0714 -0.0347  0.5985
   11CHTO   O82 4232   7.749   4.913   0.338  0.0740  0.9588  0.3333
   11CHTO  C123 4233   7.710   5.046   0.343  0.1763 -0.4913  0.2495
   11CHTO  H227 4234   7.743   5.098   0.252  0.9182  0.2110  0.9166
   11CHTO   O77 4235   7.563   5.026   0.345  0.0655 -0.7415 -0.1685
   11CHTO  C118 4236   7.491   5.153   0.339 -0.3216 -0.1551  0.3549
   11CHTO  H222 4237   7.520   5.218   0.255  0.2080  1.3417  1.6404
   11CHTO  C125 4238   7.329   5.118   0.331 -0.0030 -0.2695  0.2710
   11CHTO   O84 4239   7.303   5.059   0.204  0.5138  0.1265  0.2125
   11CHTO  H205 4240   7.333   4.970   0.199  1.0174  0.3080 -0.0184
   11CHTO  C114 4241   7.517   5.220   0.477  0.0137  0.2342 -0.4194
   11CHTO  H218 4242   7.496   5.152   0.559  2.3600 -0.0118  0.0009
   11CHTO  C116 4243   7.673   5.248   0.480 -0.2542 -0.1361  0.0308
   11CHTO  H220 4244   7.700   5.322   0.402  0.3291  1.0223  1.3095
   11CHTO   O79 4245   7.702   5.316   0.601 -0.2793  0.0207  0.2826
   11CHTO  H201 4246   7.652   5.392   0.625  0.7170  0.8506 -0.2098
   11CHTO  C120 4247   7.756   5.120   0.472  0.1376 -0.1695  0.2237
   11CHTO  H224 4248   7.728   5.055   0.558 -0.3416 -1.3709 -0.8308
   11CHTO   N21 4249   7.902   5.137   0.466 -0.7556  0.2736 -0.5038
   11CHTO  H211 4250   7.938   5.163   0.367 -1.4148 -1.7941 -1.3103
   11CHTO  H212 4251   7.929   5.217   0.533  3.0834  0.4056 -2.0663
   11CHTO   O75 4252   7.440   5.341   0.476  0.3062  0.3379 -0.5064
   11CHTO  C112 4253   7.322   5.362   0.584  0.3164 -0.5036  0.1225
   11CHTO  H216 4254   7.303   5.268   0.639  0.4512 -1.1956 -0.9873
   11CHTO   O73 4255   7.206   5.396   0.505 -0.3514 -0.0908 -0.1743
   11CHTO  C113 4256   7.087   5.417   0.580 -0.5242  0.0338  0.1243
   11CHTO  H217 4257   7.073   5.337   0.657 -0.5475  0.3598  0.4618
   11CHTO  C124 4258   6.963   5.404   0.491  0.9201  0.6720 -0.5282
   11CHTO   O83 4259   6.834   5.391   0.555 -0.0831  0.1423  0.3516
   11CHTO  H204 4260   6.819   5.465   0.611 -0.9378  1.4119 -1.4996
   11CHTO  C109 4261   7.111   5.558   0.634  0.0070  0.2904 -0.5099
   11CHTO  H213 4262   7.147   5.619   0.549  1.2318 -2.4170 -2.0204
   11CHTO  C110 4263   7.227   5.544   0.745  0.0496 -1.0567 -0.4582
   11CHTO  H214 4264   7.199   5.474   0.823 -0.4582 -1.0380 -0.6259
   11CHTO   O78 4265   7.250   5.675   0.807 -0.3028  0.1926 -0.0082
   11CHTO  H200 4266   7.260   5.735   0.735  1.9212 -1.1056 -0.8296
   11CHTO  C111 4267   7.357   5.484   0.680  0.2023 -0.0811  0.5158
   11CHTO  H215 4268   7.397   5.561   0.612 -0.9579  1.1564  1.2088
   11CHTO   N19 4269   7.459   5.450   0.776 -1.0926  0.3354  0.1481
   11CHTO  H207 4270   7.441   5.357   0.828  0.5561 -0.7781 -1.1839
   11CHTO  H208 4271   7.466   5.531   0.846  0.1308  1.4024 -1.1765
   11CHTO   O74 4272   6.986   5.614   0.688  0.1236  0.1128  0.1880
   11CHTO  C115 4273   6.947   5.766   0.624 -0.5159 -0.5494 -0.4512
   11CHTO  H219 4274   7.027   5.810   0.565 -0.6148  1.9973  1.2145
   11CHTO   O76 4275   6.817   5.760   0.534 -0.1024  0.7090 -0.2075
   11CHTO  C122 4276   6.694   5.751   0.606  0.0466  0.4816  0.3414
   11CHTO  H226 4277   6.679   5.645   0.630 -1.8623  0.8380  0.8191
   11CHTO  C126 4278   6.577   5.788   0.505  0.5790  0.5387  0.7481
   11CHTO   O85 4279   6.582   5.915   0.437  0.2789 -0.4079  0.3194
   11CHTO  H206 4280   6.528   5.906   0.361  0.0053  0.3679  0.4210
   11CHTO  C121 4281   6.677   5.833   0.736  0.7513  0.0489 -0.3582
   11CHTO  H225 4282   6.581   5.888   0.732  0.3708 -0.5662  0.0910
   11CHTO   O81 4283   6.672   5.749   0.861  0.3310 -0.0076 -0.3754
   11CHTO  H202 4284   6.674   5.802   0.938 -0.7414 -1.5817  0.7621
   11CHTO  C119 4285   6.793   5.932   0.742 -0.4609 -1.0455  0.5030
   11CHTO  H223 4286   6.802   5.990   0.650  0.5971 -0.0214  1.2347
   11CHTO  C117 4287   6.926   5.859   0.756 -0.3043  0.1303  0.2865
   11CHTO  H221 4288   6.935   5.795   0.844  1.5768 -2.7026 -1.8766
   11CHTO   N20 4289   7.051   5.946   0.754  0.6647  0.3585  0.4129
   11CHTO  H209 4290   7.053   5.999   0.848 -1.7397  0.1883  0.5866
   11CHTO  H210 4291   7.056   6.010   0.667  1.2885 -0.7985 -0.4116
   11CHTO   O80 4292   6.767   6.060   0.865  0.0903 -0.2090 -0.3791
   11CHTO  C103 4293   6.719   6.031   1.023  0.1782 -0.2677  0.4090
   11CHTO  H190 4294   6.632   5.965   1.025 -0.2876  0.2495 -1.7644
   11CHTO  C101 4295   6.829   5.971   1.111 -0.7234 -0.4922  0.1583
   11CHTO  H188 4296   6.921   6.029   1.094 -2.7016  2.3739 -1.3225
   11CHTO   O68 4297   6.849   5.828   1.072 -0.3843 -0.5368  0.2725
   11CHTO  H168 4298   6.884   5.827   0.985  1.6933 -0.9773  1.0810
   11CHTO   C99 4299   6.789   5.993   1.265  0.2649  0.3911  0.9116
   11CHTO  H186 4300   6.702   5.931   1.297  0.1534 -0.1627 -0.4169
   11CHTO   N17 4301   6.896   5.960   1.357 -0.2311  0.0003  0.2928
   11CHTO  H174 4302   6.882   5.985   1.461  0.1289  0.3913  0.2461
   11CHTO  H175 4303   6.982   6.007   1.311  0.7198 -0.7989  1.2355
   11CHTO   C97 4304   6.744   6.142   1.291  0.3381  0.0624 -0.2608
   11CHTO  H184 4305   6.827   6.211   1.267  0.3361  0.3380  0.5222
   11CHTO   O64 4306   6.630   6.161   1.200  0.0192  0.0298  0.1911
   11CHTO  C104 4307   6.673   6.169   1.069  0.0818 -0.0065 -0.2077
   11CHTO  H191 4308   6.757   6.239   1.065  1.1949 -1.2154  1.2558
   11CHTO  C108 4309   6.557   6.230   1.000 -0.2696  0.1477 -0.3728
   11CHTO   O71 4310   6.546   6.366   1.027 -0.5049  0.1957 -0.1538
   11CHTO  H171 4311   6.476   6.389   1.086  1.4335  3.4564  1.0018
   11CHTO   O62 4312   6.681   6.174   1.415  0.2391  0.3617  0.2023
   11CHTO   C91 4313   6.680   6.314   1.448  0.5400 -0.0808 -0.0395
   11CHTO  H178 4314   6.681   6.365   1.352 -0.6168  0.4778  0.2268
   11CHTO   C92 4315   6.804   6.352   1.535  0.1867  0.0806  0.8645
   11CHTO  H179 4316   6.798   6.298   1.631 -1.6749  3.0971  2.5387
   11CHTO   O66 4317   6.929   6.304   1.475  0.2026 -0.1328  0.0006
   11CHTO  H166 4318   6.991   6.292   1.544 -0.8318  2.0393  1.3595
   11CHTO   C93 4319   6.811   6.510   1.562 -0.1065 -0.4504  0.0807
   11CHTO  H180 4320   6.861   6.553   1.474 -0.4852  1.4873  0.8045
   11CHTO   N16 4321   6.901   6.533   1.677 -0.3821  0.2693  0.0235
   11CHTO  H172 4322   6.878   6.470   1.762  2.7367 -2.0795 -0.8092
   11CHTO  H173 4323   7.000   6.508   1.642 -0.6250 -0.8579  0.1238
   11CHTO   C94 4324   6.669   6.581   1.594 -0.3692 -0.0305 -0.2837
   11CHTO  H181 4325   6.634   6.565   1.696  0.4977 -1.4980 -0.2073
   11CHTO   O61 4326   6.575   6.525   1.503 -0.0398  0.0465 -0.0183
   11CHTO   C95 4327   6.565   6.380   1.514  0.4465 -0.3471  0.8791
   11CHTO  H182 4328   6.576   6.348   1.617 -1.4481  0.9114  1.5084
   11CHTO  C106 4329   6.420   6.325   1.454 -0.1865 -0.7068 -0.4393
   11CHTO   O69 4330   6.407   6.379   1.322 -0.2098 -0.0730 -0.6275
   11CHTO  H169 4331   6.452   6.318   1.267  0.6934 -0.8768  0.9625
   11CHTO   O63 4332   6.683   6.746   1.561 -0.0309 -0.0201  0.0629
   11CHTO   C96 4333   6.649   6.858   1.672 -0.0419 -0.1432  0.4694
   11CHTO  H183 4334   6.708   6.827   1.758 -0.1281 -0.0340  0.5671
   11CHTO   C98 4335   6.494   6.860   1.697  0.4298 -0.9983 -0.0878
   11CHTO  H185 4336   6.439   6.894   1.608 -0.4088 -0.0151  0.7915
   11CHTO   O67 4337   6.447   6.731   1.730  0.2260  0.2281  0.1971
   11CHTO  H167 4338   6.457   6.668   1.661  1.9047 -0.2060  0.8315
   11CHTO  C102 4339   6.462   6.963   1.815 -1.0676 -0.0772 -0.0925
   11CHTO  H189 4340   6.491   6.908   1.906  1.1812 -2.5157 -2.1932
   11CHTO   N18 4341   6.319   6.999   1.834 -0.1730  0.1664 -0.2127
   11CHTO  H176 4342   6.281   7.054   1.749 -2.8620 -0.7910  0.3402
   11CHTO  H177 4343   6.316   7.056   1.926 -2.2682 -1.4445  0.7351
   11CHTO  C105 4344   6.557   7.091   1.803  0.2414 -0.2483 -0.0321
   11CHTO  H192 4345   6.498   7.181   1.820  0.1022 -0.5359  1.0545
   11CHTO   O65 4346   6.615   7.106   1.671  0.0511  0.4152 -0.6429
   11CHTO  C100 4347   6.692   7.003   1.616 -0.0399  0.0136  0.1194
   11CHTO  H187 4348   6.670   7.006   1.508 -2.4947  0.8440  0.5954
   11CHTO  C107 4349   6.846   7.020   1.631  0.9211  0.3915 -0.5279
   11CHTO   O70 4350   6.883   7.150   1.576 -0.2611  0.2173 -0.3799
   11CHTO  H170 4351   6.969   7.179   1.599 -0.2820  0.1382 -0.2062
   11CHTO   O57 4352   6.680   7.074   1.913 -0.4677  0.0598  0.4994
   11CHTO   C85 4353   6.701   7.170   2.015 -0.3433  0.3507  0.3989
   11CHTO  H157 4354   6.609   7.221   2.049 -0.5626  0.1361  0.1288
   11CHTO   C83 4355   6.781   7.289   1.957  0.7033  0.8241 -0.6182
   11CHTO  H155 4356   6.722   7.343   1.883 -3.0847 -0.9204  1.0056
   11CHTO   O56 4357   6.889   7.224   1.887  0.2992  0.2756 -0.0043
   11CHTO  H135 4358   6.955   7.283   1.856 -0.4762  1.6985  0.9782
   11CHTO   C81 4359   6.824   7.390   2.073 -0.3227 -0.7098  0.0879
   11CHTO  H153 4360   6.735   7.427   2.122  0.5771  1.7535 -0.0367
   11CHTO   N14 4361   6.892   7.519   2.029 -0.2295  0.3383 -0.2659
   11CHTO  H141 4362   6.821   7.579   1.976 -2.0104 -1.0979  0.4595
   11CHTO  H142 4363   6.965   7.494   1.955 -1.4216  0.2859 -1.4436
   11CHTO   C79 4364   6.910   7.313   2.179  0.1274 -0.4171  0.9661
   11CHTO  H151 4365   6.930   7.379   2.263 -0.8842 -0.4556  1.2434
   11CHTO   O52 4366   6.833   7.205   2.229 -0.5343  0.4984  0.0128
   11CHTO   C86 4367   6.777   7.104   2.136 -0.3672  0.1448 -0.5434
   11CHTO  H158 4368   6.867   7.050   2.099  0.4944  0.4308  1.0611
   11CHTO   C90 4369   6.687   6.989   2.212 -0.1913 -0.2229 -1.0894
   11CHTO   O60 4370   6.601   6.913   2.124  0.2414  0.0624  0.1490
   11CHTO  H138 4371   6.641   6.904   2.040 -1.0806 -0.7053 -0.4280
   11CHTO   O50 4372   7.034   7.263   2.136  0.5433  0.1169 -0.0167
   11CHTO   C73 4373   7.127   7.169   2.187  0.5184 -0.4120 -0.5812
   11CHTO  H145 4374   7.080   7.092   2.249  3.7231 -2.0769 -0.0895
   11CHTO   C74 4375   7.231   7.230   2.281  0.5758  0.1489  0.1307
   11CHTO  H146 4376   7.170   7.272   2.364 -0.8004 -1.5760  0.0088
   11CHTO   O54 4377   7.313   7.130   2.341 -0.1940  0.1652  0.6160
   11CHTO  H133 4378   7.399   7.129   2.304 -0.7231  2.0148 -0.7276
   11CHTO   C75 4379   7.315   7.340   2.206  0.4166 -0.2904 -0.3513
   11CHTO  H147 4380   7.243   7.420   2.181  0.0411 -0.9071 -1.2980
   11CHTO   N13 4381   7.416   7.405   2.292 -0.1120 -0.2000  1.0153
   11CHTO  H139 4382   7.402   7.401   2.399 -0.7636  1.2995  1.0081
   11CHTO  H140 4383   7.442   7.505   2.260 -1.3469 -0.2647 -0.2503
   11CHTO   C76 4384   7.371   7.284   2.064  0.5009  0.9241 -0.3636
   11CHTO  H148 4385   7.458   7.224   2.089 -0.4946 -0.0123  0.9571
   11CHTO   O49 4386   7.278   7.196   1.989 -0.0655  0.3082  0.6744
   11CHTO   C77 4387   7.211   7.099   2.076 -0.1891  0.0207  0.4375
   11CHTO  H149 4388   7.284   7.031   2.119 -1.0834 -0.3480  1.3721
   11CHTO   C88 4389   7.122   7.009   1.991 -0.0687 -0.1498 -0.2570
   11CHTO   O58 4390   7.181   6.966   1.886  0.2413  0.0105 -0.5933
   11CHTO  H136 4391   7.141   6.888   1.854  2.8470 -0.5283 -2.6975
   11CHTO   O51 4392   7.404   7.397   1.987 -0.4608 -1.0024  0.2519
   11CHTO   C78 4393   7.543   7.391   1.888 -0.0748  0.1618 -0.1854
   11CHTO  H150 4394   7.603   7.299   1.905  2.3048  1.8470  0.6925
   11CHTO   C80 4395   7.631   7.514   1.926 -1.0051  0.1560 -0.2867
   11CHTO  H152 4396   7.568   7.605   1.928  1.1052  1.6375  0.2350
   11CHTO   O55 4397   7.674   7.494   2.060 -0.4436 -0.7076  0.2818
   11CHTO  H134 4398   7.745   7.549   2.087  0.3049 -0.0740 -2.8399
   11CHTO   C84 4399   7.755   7.533   1.826  0.0301 -0.0718 -0.0179
   11CHTO  H156 4400   7.803   7.437   1.813  0.0079  0.1888 -2.1427
   11CHTO   N15 4401   7.851   7.640   1.866 -0.0974  0.2269  0.0775
   11CHTO  H143 4402   7.913   7.665   1.783 -0.3930  1.1114  0.1155
   11CHTO  H144 4403   7.917   7.603   1.941  2.3244  2.5408 -0.8440
   11CHTO   C87 4404   7.690   7.549   1.690 -0.4483  0.4135 -0.2331
   11CHTO  H159 4405   7.618   7.631   1.685 -0.6629  0.3884  2.0748
   11CHTO   O53 4406   7.620   7.403   1.659  0.2404  0.0798 -0.2132
   11CHTO   C82 4407   7.498   7.394   1.739 -0.1751  0.1526  0.2291
   11CHTO  H154 4408   7.436   7.482   1.718  0.2472  0.6594  1.1085
   11CHTO   C89 4409   7.410   7.272   1.693 -0.2667  0.1376  0.2026
   11CHTO   O59 4410   7.489   7.153   1.702  0.2378  0.5936 -0.5922
   11CHTO  H137 4411   7.438   7.080   1.673  1.1697 -0.0963 -0.5178
   11CHTO   O45 4412   7.792   7.579   1.572  0.1373 -0.0005  0.5377
   11CHTO   C67 4413   7.730   7.590   1.439  0.2975 -0.0394  0.1349
   11CHTO  H124 4414   7.659   7.508   1.435 -0.3945  0.6061 -0.9401
   11CHTO   C65 4415   7.655   7.725   1.409 -0.7001 -0.5711  0.3419
   11CHTO  H122 4416   7.690   7.793   1.486 -0.5990  2.6868 -2.5008
   11CHTO   O44 4417   7.513   7.700   1.436  0.0916 -0.1477 -0.0538
   11CHTO  H102 4418   7.476   7.662   1.359  0.6664 -1.1865  0.1704
   11CHTO   C63 4419   7.695   7.791   1.275  0.3835  0.1672  0.4498
   11CHTO  H120 4420   7.799   7.818   1.288  0.7011  0.2197 -2.0217
   11CHTO   N11 4421   7.626   7.926   1.257 -0.2194 -0.2213 -0.9043
   11CHTO  H108 4422   7.528   7.908   1.219 -0.9282  0.1455  0.7017
   11CHTO  H109 4423   7.686   7.988   1.193  1.2202  1.1012  1.6236
   11CHTO   C61 4424   7.685   7.680   1.166 -0.6516  0.0077 -0.0355
   11CHTO  H118 4425   7.740   7.731   1.085 -1.0751  1.0929  0.3554
   11CHTO   O40 4426   7.771   7.560   1.197  0.1979  0.0952 -0.3437
   11CHTO   C68 4427   7.838   7.562   1.326 -0.1880  0.8503  0.3080
   11CHTO  H125 4428   7.920   7.636   1.336 -1.0609  1.9334 -0.4313
   11CHTO   C72 4429   7.902   7.426   1.343 -0.4255  0.0215  0.3045
   11CHTO   O48 4430   7.995   7.409   1.241  0.2303 -0.5556  0.1970
   11CHTO  H105 4431   7.956   7.341   1.189  0.9124  0.0855 -1.1774
   11CHTO   O38 4432   7.549   7.637   1.124  0.3065  0.4233  0.7165
   11CHTO   C55 4433   7.547   7.528   1.031  0.4347 -0.4422  0.5625
   11CHTO  H112 4434   7.642   7.474   1.023 -1.4086 -3.4619 -2.2167
   11CHTO   C56 4435   7.500   7.588   0.893  0.3241 -0.1636  0.2873
   11CHTO  H113 4436   7.403   7.636   0.909  0.5211  0.1900  0.4266
   11CHTO   O42 4437   7.584   7.693   0.844 -0.0879 -0.0447  0.4794
   11CHTO  H100 4438   7.674   7.670   0.857  0.5711  1.6155 -0.9603
   11CHTO   C57 4439   7.473   7.475   0.786  0.3910  0.1063  0.1312
   11CHTO  H114 4440   7.564   7.428   0.749  1.0820  1.1640  0.4705
   11CHTO   N10 4441   7.403   7.533   0.663 -0.1685  0.3136 -0.1437
   11CHTO  H106 4442   7.344   7.467   0.603 -1.5744  1.3344  0.0967
   11CHTO  H107 4443   7.348   7.623   0.684  0.2017  0.9729 -1.9719
   11CHTO   C58 4444   7.390   7.357   0.847  0.3720  0.2162 -0.1631
   11CHTO  H115 4445   7.286   7.397   0.856  0.1295 -0.1471 -1.2594
   11CHTO   O37 4446   7.435   7.317   0.978  0.0592  0.1279 -0.2087
   11CHTO   C59 4447   7.448   7.418   1.072 -0.7110 -0.5550  0.3233
   11CHTO  H116 4448   7.349   7.464   1.084 -1.4543 -1.9593 -0.3608
   11CHTO   C70 4449   7.503   7.360   1.201 -0.2922  0.3324 -0.1063
   11CHTO   O46 4450   7.426   7.259   1.265  0.3652  0.5419 -0.0466
   11CHTO  H103 4451   7.463   7.243   1.349 -0.1934 -1.4984 -0.1760
   11CHTO   O39 4452   7.389   7.240   0.749  0.2583 -0.4035  0.0429
   11CHTO   C60 4453   7.275   7.151   0.754  0.1584  0.1665 -0.0996
   11CHTO  H117 4454   7.211   7.168   0.840 -0.8511 -3.0044 -0.1667
   11CHTO   C62 4455   7.192   7.172   0.618  0.3935 -0.8993 -0.0458
   11CHTO  H119 4456   7.166   7.280   0.624 -0.4165 -1.1278  0.8144
   11CHTO   O43 4457   7.268   7.153   0.502 -0.3298 -0.0248 -0.4168
   11CHTO  H101 4458   7.315   7.228   0.472  2.1422 -0.9663  0.9337
   11CHTO   C66 4459   7.062   7.084   0.618 -0.2405  0.3669 -0.6028
   11CHTO  H123 4460   7.017   7.094   0.717 -0.6690 -2.0477 -0.5097
   11CHTO   N12 4461   6.962   7.106   0.513 -0.1501  0.3417  0.3069
   11CHTO  H110 4462   7.008   7.116   0.416 -0.2981 -0.1788  0.1812
   11CHTO  H111 4463   6.890   7.025   0.509 -0.1499  0.4273 -2.2887
   11CHTO   C69 4464   7.114   6.933   0.623  0.4587 -0.7496  0.4527
   11CHTO  H126 4465   7.171   6.926   0.528 -0.3059 -2.1853  0.0932
   11CHTO   O41 4466   7.203   6.910   0.755  0.4039  0.2892  0.3244
   11CHTO   C64 4467   7.321   7.002   0.762 -0.7325 -0.4165 -0.2571
   11CHTO  H121 4468   7.388   6.972   0.679 -0.1173  1.7318 -0.5543
   11CHTO   C71 4469   7.402   6.975   0.894  0.1350 -0.5989 -0.3390
   11CHTO   O47 4470   7.314   6.953   1.008 -0.0845 -0.0414 -0.3435
   11CHTO  H104 4471   7.359   6.918   1.083  0.4820  0.7651 -0.3037
   11CHTO   O34 4472   7.001   6.833   0.619 -0.6121  0.4527 -0.1716
   11CHTO   C49 4473   6.931   6.703   0.634 -0.1414  0.3057  0.1872
   11CHTO   H91 4474   7.008   6.627   0.621  0.4831  1.1632 -1.3311
   11CHTO   C47 4475   6.831   6.697   0.509 -1.2072  0.5451  0.0096
   11CHTO   H89 4476   6.791   6.593   0.507 -1.5885  0.6928  0.0098
   11CHTO   O33 4477   6.908   6.714   0.386 -0.0890  0.0959  0.1044
   11CHTO   H70 4478   6.976   6.651   0.373  0.6854  1.2977 -2.0721
   11CHTO   C45 4479   6.714   6.803   0.545  0.4862  0.3994  0.3355
   11CHTO   H87 4480   6.753   6.904   0.564 -1.3112  1.2231 -0.1913
   11CHTO    N8 4481   6.614   6.813   0.438 -0.0710  0.0105  0.3010
   11CHTO   H75 4482   6.568   6.911   0.440 -0.6430 -0.2299 -0.8340
   11CHTO   H76 4483   6.659   6.797   0.341  1.3156 -3.4146  1.4574
   11CHTO   C43 4484   6.641   6.753   0.681  0.3838 -0.5953  0.2266
   11CHTO   H85 4485   6.556   6.818   0.699  0.6767 -0.0169 -0.4000
   11CHTO   O29 4486   6.740   6.757   0.782 -0.0838 -0.2299  0.9625
   11CHTO   C50 4487   6.865   6.682   0.772  0.2763 -0.1218  0.3400
   11CHTO   H92 4488   6.917   6.731   0.854 -1.4436  0.0164  1.3784
   11CHTO   C54 4489   6.853   6.528   0.813 -0.3241 -0.9833 -0.2862
   11CHTO   O36 4490   6.824   6.515   0.954 -0.0632  0.2095 -0.1844
   11CHTO   H72 4491   6.738   6.551   0.965 -0.4198  0.0574 -2.3422
   11CHTO   O27 4492   6.585   6.619   0.654 -0.1502  0.1446 -0.0437
   11CHTO   C37 4493   6.484   6.532   0.715 -0.4291  1.2489  0.2661
   11CHTO   H79 4494   6.523   6.502   0.813  0.0947  1.6840  0.1939
   11CHTO   C38 4495   6.343   6.593   0.729 -0.1765 -0.0915 -0.2609
   11CHTO   H80 4496   6.309   6.633   0.632  1.4688 -0.4636 -1.0076
   11CHTO   O31 4497   6.355   6.703   0.822  0.1726 -0.5828 -0.0873
   11CHTO   H68 4498   6.366   6.789   0.786  2.5132  1.3806  4.7772
   11CHTO   C39 4499   6.239   6.493   0.789  0.4800  0.5223 -0.0880
   11CHTO   H81 4500   6.265   6.464   0.891  1.1317 -2.3990 -1.0063
   11CHTO    N7 4501   6.102   6.547   0.806  0.1030 -0.0681  0.3912
   11CHTO   H73 4502   6.062   6.578   0.711  0.6088 -2.8004 -0.7533
   11CHTO   H74 4503   6.042   6.467   0.848  0.5538 -0.5333  0.1529
   11CHTO   C40 4504   6.242   6.353   0.707 -0.6879  0.1092  0.3910
   11CHTO   H82 4505   6.190   6.361   0.611 -0.3366 -2.0962 -0.0167
   11CHTO   O26 4506   6.385   6.312   0.694  0.1725  0.2826  0.3300
   11CHTO   C41 4507   6.479   6.407   0.630 -0.5291 -0.0756 -0.7697
   11CHTO   H83 4508   6.455   6.434   0.526  0.9722 -0.8915 -1.3456
   11CHTO   C52 4509   6.618   6.338   0.623  0.0721 -0.2028  0.1557
   11CHTO   O35 4510   6.616   6.227   0.534  0.5740  0.0290  0.2826
   11CHTO   H71 4511   6.700   6.219   0.493 -0.0438  1.8107 -1.4314
   11CHTO   O28 4512   6.185   6.242   0.784  0.1695 -0.0633  0.1329
   11CHTO   C42 4513   6.124   6.121   0.725  0.2596 -0.3017  0.2312
   11CHTO   H84 4514   6.168   6.122   0.626 -1.4959  1.8387 -0.5601
   11CHTO   C44 4515   5.972   6.122   0.705 -0.3058  0.1847 -0.7214
   11CHTO   H86 4516   5.927   6.136   0.803  0.4722 -0.4506 -0.2707
   11CHTO   O32 4517   5.938   6.241   0.630  0.2515  0.5372 -0.0402
   11CHTO   H69 4518   5.856   6.240   0.585 -0.4858 -1.2353  1.2832
   11CHTO   C48 4519   5.912   5.986   0.644  0.4063 -0.0359 -0.5641
   11CHTO   H90 4520   5.924   5.971   0.537 -1.2418 -2.9729 -0.3815
   11CHTO    N9 4521   5.762   5.977   0.651  0.3339 -0.1338  0.3767
   11CHTO   H77 4522   5.718   6.075   0.642 -1.1362 -0.7292  1.0069
   11CHTO   H78 4523   5.732   5.936   0.746  0.7876  1.3910  1.1951
   11CHTO   C51 4524   5.973   5.865   0.729 -0.6578  0.4485 -0.0825
   11CHTO   H93 4525   5.940   5.870   0.833  2.6884  0.6312  1.0060
   11CHTO   O30 4526   6.115   5.874   0.725  0.2123 -0.1398 -0.7642
   11CHTO   C46 4527   6.163   5.979   0.797  0.4891 -0.0014  0.3784
   11CHTO   H88 4528   6.119   5.986   0.896 -0.5716 -1.2682  0.0121
   11CHTO   C53 4529   6.310   5.970   0.809 -0.7099 -0.6147 -0.1272
   11CHTO   O72 4530   6.337   5.857   0.897 -0.1544  0.6690  0.5643
   11CHTO  H199 4531   6.413   5.871   0.950  0.2979  1.3485 -0.2649
   11CHTO   O22 4532   5.948   5.738   0.675  0.1611  0.1955  0.3598
   11CHTO   C31 4533   5.950   5.618   0.761 -0.0431 -0.4319  0.1200
   11CHTO   H59 4534   5.998   5.649   0.856 -2.5218  0.7880  1.0197
   11CHTO   C29 4535   5.805   5.574   0.790 -0.1121 -0.4964  0.2878
   11CHTO   H57 4536   5.765   5.550   0.690  1.4487 -2.8855  0.1946
   11CHTO   O21 4537   5.724   5.684   0.847  0.2502  0.4297  0.0994
   11CHTO   H37 4538   5.751   5.754   0.790  2.6112 -1.3920 -1.1221
   11CHTO   C27 4539   5.791   5.454   0.881  0.1596 -0.6232 -0.5274
   11CHTO   H55 4540   5.837   5.489   0.974 -0.9802 -0.0796 -0.1590
   11CHTO    N5 4541   5.650   5.411   0.905 -0.8435  0.0017 -0.1064
   11CHTO   H43 4542   5.601   5.372   0.817 -1.7620  1.9183 -0.4782
   11CHTO   H44 4543   5.635   5.360   0.999  0.0761  0.4034  0.2626
   11CHTO   C25 4544   5.894   5.342   0.836  0.1543 -0.6246  0.2294
   11CHTO   H53 4545   5.857   5.289   0.747  1.3765  1.2708 -1.4488
   11CHTO   O17 4546   6.025   5.391   0.799 -0.6540 -0.4296 -0.1008
   11CHTO   C32 4547   6.026   5.496   0.707 -0.2042 -0.1115 -0.2377
   11CHTO   H60 4548   5.968   5.459   0.623  1.4285 -2.9180 -0.1763
   11CHTO   C36 4549   6.159   5.551   0.660 -0.0577  0.0190  0.1844
   11CHTO   O25 4550   6.236   5.465   0.575 -0.2469  0.4357  0.4718
   11CHTO   H40 4551   6.321   5.503   0.565 -0.3502  0.5165 -0.1245
   11CHTO   O15 4552   5.926   5.230   0.960 -0.3879  0.2205 -0.0120
   11CHTO   C19 4553   5.864   5.097   0.999 -0.1181 -0.0005 -0.6630
   11CHTO   H47 4554   5.949   5.046   1.045 -0.4344 -0.2964 -0.4029
   11CHTO   C20 4555   5.742   5.100   1.102 -0.0082  0.4089  0.3049
   11CHTO   H48 4556   5.669   5.179   1.079 -2.5923 -1.0220  3.1259
   11CHTO   O19 4557   5.807   5.111   1.232  0.3520 -0.6405 -0.0653
   11CHTO   H35 4558   5.786   5.192   1.275 -0.3271 -0.3518 -0.9161
   11CHTO   C21 4559   5.655   4.966   1.103  0.3139  0.7570  0.4046
   11CHTO   H49 4560   5.711   4.891   1.159 -0.4686 -0.2649 -0.1944
   11CHTO    N4 4561   5.526   4.989   1.177  0.0234  0.0924  0.1188
   11CHTO   H41 4562   5.503   5.087   1.216  0.7034 -0.1676  1.1905
   11CHTO   H42 4563   5.442   4.945   1.125 -1.9102  2.8755  0.7276
   11CHTO   C22 4564   5.631   4.914   0.957  0.2376  0.6314 -0.3395
   11CHTO   H50 4565   5.582   4.990   0.897 -0.0131 -0.9594 -2.1971
   11CHTO   O14 4566   5.760   4.891   0.897 -0.0663  0.3594 -0.2903
   11CHTO   C23 4567   5.828   5.012   0.871  0.4335 -0.0521 -0.8085
   11CHTO   H51 4568   5.762   5.068   0.803  0.4316 -1.1095 -1.7003
   11CHTO   C34 4569   5.955   4.974   0.798 -0.8291  0.0559 -1.2014
   11CHTO   O23 4570   5.940   4.886   0.683  0.2446 -0.2298 -0.1278
   11CHTO   H38 4571   6.023   4.843   0.670  0.6233  0.2353  0.7275
   11CHTO   O16 4572   5.568   4.778   0.951 -0.0593  0.4934  0.5233
   11CHTO   C24 4573   5.451   4.761   0.838  0.0960 -0.5156 -0.0016
   11CHTO   H52 4574   5.452   4.845   0.768 -0.5302 -0.8677 -0.4375
   11CHTO   C26 4575   5.305   4.764   0.892 -0.1678 -0.3673 -0.7361
   11CHTO   H54 4576   5.290   4.671   0.950  1.5338 -0.2186 -0.0018
   11CHTO   O20 4577   5.281   4.882   0.975 -0.4450 -0.2694 -0.3209
   11CHTO   H36 4578   5.226   4.861   1.048  0.4994 -0.8092  0.2530
   11CHTO   C30 4579   5.203   4.754   0.776 -0.6817  0.0945  0.0244
   11CHTO   H58 4580   5.204   4.837   0.704  1.4882  0.2003  0.1332
   11CHTO    N6 4581   5.060   4.741   0.821  0.3866 -0.5040  0.3614
   11CHTO   H45 4582   5.028   4.763   0.921 -0.6348  1.4726 -0.3768
   11CHTO   H46 4583   4.992   4.674   0.771  0.5854 -0.6314  0.2590
   11CHTO   C33 4584   5.245   4.641   0.673  0.2885  0.0409 -0.3474
   11CHTO   H61 4585   5.211   4.548   0.721  2.4246  0.3473  1.9085
   11CHTO   O18 4586   5.386   4.630   0.654  0.0173 -0.1660 -0.1781
   11CHTO   C28 4587   5.471   4.636   0.761 -0.0413 -0.7015  0.3322
   11CHTO   H56 4588   5.461   4.554   0.832 -0.4705 -0.8937  0.0519
   11CHTO   C35 4589   5.615   4.631   0.692 -0.6998 -0.4894 -0.2919
   11CHTO   O24 4590   5.673   4.508   0.656 -0.3051  0.5981  0.4393
   11CHTO   H39 4591   5.763   4.528   0.637 -0.0520 -0.6179  0.3183
   11CHTO    O9 4592   5.178   4.641   0.548 -0.8437  0.3077  0.1541
   11CHTO   C13 4593   5.235   4.748   0.437 -0.2663 -0.1146  0.1018
   11CHTO   H26 4594   5.313   4.808   0.490  0.4597 -1.7550  0.9104
   11CHTO   C11 4595   5.116   4.836   0.391  0.3083  0.5600 -0.6752
   11CHTO   H24 4596   5.076   4.874   0.486  0.8720 -3.7701  1.4124
   11CHTO    O8 4597   5.022   4.749   0.321 -0.2880 -0.6102  0.1193
   11CHTO    H3 4598   4.942   4.798   0.326 -1.1535 -1.7633 -1.7165
   11CHTO    C9 4599   5.174   4.959   0.316 -0.3248  0.7178 -0.4546
   11CHTO   H22 4600   5.220   5.011   0.402 -0.8644  1.0012 -0.3355
   11CHTO    N2 4601   5.073   5.049   0.269 -0.5872 -0.2802 -0.0289
   11CHTO   H10 4602   5.112   5.099   0.182 -1.6181  0.3305 -0.1503
   11CHTO   H11 4603   4.971   5.013   0.262 -1.0421  1.3091 -2.5625
   11CHTO    C7 4604   5.284   4.914   0.212  0.2092  0.5209 -0.6111
   11CHTO   H20 4605   5.373   4.931   0.274 -0.9830  0.1051  1.2505
   11CHTO    O4 4606   5.283   4.773   0.185  0.5126 -0.2056 -0.0373
   11CHTO   C14 4607   5.314   4.693   0.304  0.3435  0.2213  0.1697
   11CHTO   H27 4608   5.423   4.693   0.327  0.4803  0.5708 -0.4675
   11CHTO   C18 4609   5.286   4.542   0.280 -1.0850 -0.0242  0.2969
   11CHTO   O13 4610   5.380   4.472   0.201  0.0540 -0.2619  0.2455
   11CHTO    H7 4611   5.344   4.482   0.115 -0.3389  0.5835  0.4978
   11CHTO    O2 4612   5.289   5.005   0.060 -0.2477 -0.1729 -0.0048
   11CHTO    C1 4613   5.408   5.086   0.046  0.4152  0.4773 -0.7162
   11CHTO   H14 4614   5.491   5.049   0.109 -0.2787  0.1059 -0.0139
   11CHTO    C2 4615   5.383   5.237   0.077 -0.9619  0.7211 -0.1552
   11CHTO   H15 4616   5.303   5.276   0.012 -1.5754  0.0377  0.1922
   11CHTO    O6 4617   5.349   5.249   0.221  0.3613 -0.2855 -0.0993
   11CHTO    H1 4618   5.261   5.220   0.239  0.7573 -0.5474  1.5121
   11CHTO    C3 4619   5.520   5.314   0.050  0.2803 -0.3659  0.0672
   11CHTO   H16 4620   5.587   5.284   0.132  1.9582  2.5977 -0.1362
   11CHTO    N1 4621   5.497   5.460   0.052 -0.0930  0.7128 -0.3387
   11CHTO    H8 4622   5.588   5.515   0.070 -0.1763  0.2773  1.4831
   11CHTO    H9 4623   5.427   5.499   0.125 -1.7319 -1.0418 -0.9473
   11CHTO    C4 4624   5.590   5.275  -0.087 -0.3068  0.4327  0.0002
   11CHTO   H17 4625   5.553   5.337  -0.168  0.4326 -1.5088 -1.8599
   11CHTO    O1 4626   5.582   5.138  -0.130  0.0883  0.5768  0.0526
   11CHTO    C5 4627   5.467   5.062  -0.100  0.2657  0.0747  0.2868
   11CHTO   H18 4628   5.390   5.091  -0.172  0.4409 -0.5471 -0.1508
   11CHTO   C16 4629   5.487   4.913  -0.108 -0.7800 -1.1454  0.0197
   11CHTO   O11 4630   5.576   4.858  -0.011  0.2367 -0.4588 -0.2648
   11CHTO    H5 4631   5.666   4.877  -0.029  0.2407  0.6574  0.8095
   11CHTO    O3 4632   5.728   5.301  -0.079  0.3590  0.4827  0.7298
   11CHTO    C6 4633   5.794   5.333  -0.207  0.1598  0.6660  0.5967
   11CHTO   H19 4634   5.749   5.293  -0.298  1.1148  0.5567  0.1677
   11CHTO    C8 4635   5.799   5.484  -0.221 -0.7664 -0.2321  0.1607
   11CHTO   H21 4636   5.851   5.522  -0.133 -0.1359 -2.7230  0.9211
   11CHTO    O7 4637   5.660   5.522  -0.239  0.4087 -0.2868 -0.7190
   11CHTO    H2 4638   5.614   5.529  -0.158  0.0404 -1.0062 -0.8641
   11CHTO   C12 4639   5.890   5.514  -0.351  0.4176 -0.1485 -0.0716
   11CHTO   H25 4640   5.831   5.475  -0.437 -2.0257 -0.0460  1.4985
   11CHTO    N3 4641   5.913   5.654  -0.393 -0.4375 -0.3113  0.3754
   11CHTO   H12 4642   5.824   5.715  -0.392  1.4242  2.5386 -0.7757
   11CHTO   H13 4643   5.949   5.657  -0.495 -0.0348  3.4969  0.5577
   11CHTO   C15 4644   6.030   5.436  -0.337  0.7066 -0.3681  0.2863
   11CHTO   H28 4645   6.086   5.477  -0.253  0.4919  0.3824  0.0677
   11CHTO   O10 4646   6.117   5.440  -0.467 -0.4711  0.3873 -0.5146
   11CHTO    H4 4647   6.067   5.476  -0.537  0.8532  2.0218 -0.6502
   11CHTO    O5 4648   5.999   5.300  -0.321 -0.5350 -0.0912  0.2903
   11CHTO   C10 4649   5.931   5.268  -0.203  0.3893  0.0836 -0.2175
   11CHTO   H23 4650   5.984   5.305  -0.115 -0.6556 -0.4308  0.6308
   11CHTO   C17 4651   5.939   5.112  -0.187 -0.5020  0.0351 -0.7459
   11CHTO   O12 4652   6.073   5.048  -0.186 -0.1464  0.1346  0.5299
   11CHTO    H6 4653   6.108   5.049  -0.273 -0.1956  1.2768  0.5188
   12CHTO  H203 4654   5.676  11.814  -0.496 -0.8842 -0.1873 -0.7333
   12CHTO   O82 4655   5.698  11.725  -0.512 -0.2735 -0.2555  0.4096
   12CHTO  C123 4656   5.679  11.646  -0.387  0.1347  0.1887 -0.1449
   12CHTO  H227 4657   5.738  11.691  -0.306 -2.6074 -1.8062  3.1278
   12CHTO   O77 4658   5.539  11.666  -0.351 -0.4166 -0.0209  0.1028
   12CHTO  C118 4659   5.484  11.600  -0.235  0.3162 -0.2308  0.0690
   12CHTO  H222 4660   5.536  11.636  -0.145 -2.3109  1.3495  1.0070
   12CHTO  C125 4661   5.324  11.634  -0.227  0.0221  0.0121 -0.0854
   12CHTO   O84 4662   5.262  11.603  -0.103 -0.2447  0.2962 -0.0549
   12CHTO  H205 4663   5.327  11.609  -0.035 -1.6865  1.1322  1.2931
   12CHTO  C114 4664   5.501  11.446  -0.248 -0.3297  0.4544  0.1270
   12CHTO  H218 4665   5.444  11.412  -0.335 -0.1917  1.9450 -0.5698
   12CHTO  C116 4666   5.651  11.410  -0.286 -0.3248  0.8869 -1.2660
   12CHTO  H220 4667   5.714  11.420  -0.195 -0.5671 -1.0522 -0.8470
   12CHTO   O79 4668   5.665  11.267  -0.321  0.3908 -0.0637  0.2068
   12CHTO  H201 4669   5.753  11.237  -0.307  0.6832  0.6012 -0.1718
   12CHTO  C120 4670   5.718  11.494  -0.401  0.2319 -0.4228  0.1583
   12CHTO  H224 4671   5.671  11.463  -0.497 -0.7413 -0.0368  0.5052
   12CHTO   N21 4672   5.866  11.479  -0.425  0.0058  0.7100 -0.0374
   12CHTO  H211 4673   5.876  11.390  -0.485  1.0823 -0.0897  1.3129
   12CHTO  H212 4674   5.904  11.563  -0.481  1.3483 -0.5142 -0.9790
   12CHTO   O75 4675   5.468  11.377  -0.122 -0.2302 -0.0839  0.3240
   12CHTO  C112 4676   5.373  11.239  -0.143  0.0247 -0.0271  0.1237
   12CHTO  H216 4677   5.399  11.193  -0.239  0.4957 -1.6949  1.0321
   12CHTO   O73 4678   5.239  11.285  -0.139 -0.9129  0.3889 -0.2227
   12CHTO  C113 4679   5.146  11.179  -0.168 -0.0572 -0.5719  0.4940
   12CHTO  H217 4680   5.168  11.132  -0.266  2.6850 -0.3047  0.9452
   12CHTO  C124 4681   5.018  11.259  -0.184 -0.3201 -0.1151 -0.2255
   12CHTO   O83 4682   4.951  11.327  -0.071  0.2446  0.4089  0.4737
   12CHTO  H204 4683   4.895  11.393  -0.108  1.2950  1.1123  0.1023
   12CHTO  C109 4684   5.140  11.061  -0.074 -0.5495 -0.5884  0.4351
   12CHTO  H213 4685   5.094  11.102   0.017 -1.3685  0.3758 -0.4080
   12CHTO  C110 4686   5.288  11.013  -0.049 -0.5592 -0.6252 -0.6699
   12CHTO  H214 4687   5.315  10.947  -0.132  2.5471 -0.6657  0.3120
   12CHTO   O78 4688   5.285  10.931   0.062 -0.5573 -0.1465  0.3369
   12CHTO  H200 4689   5.303  10.840   0.048 -1.7195 -0.3317 -0.0049
   12CHTO  C111 4690   5.389  11.133  -0.031 -0.1151  0.1009 -0.1342
   12CHTO  H215 4691   5.370  11.178   0.068 -2.3516  1.6307 -1.2057
   12CHTO   N19 4692   5.535  11.088  -0.031 -0.3467  0.1404  0.6524
   12CHTO  H207 4693   5.593  11.144   0.041  1.8924 -0.8980 -0.2908
   12CHTO  H208 4694   5.566  11.089  -0.134 -1.8071 -0.4834  0.2006
   12CHTO   O74 4695   5.059  10.948  -0.128 -0.1604 -0.1003 -0.8203
   12CHTO  C115 4696   4.987  10.860   0.005  0.3659 -0.9447 -0.6898
   12CHTO  H219 4697   5.054  10.854   0.090 -0.4726  1.3475  0.1622
   12CHTO   O76 4698   4.861  10.932   0.056  0.1264 -0.1133  1.1685
   12CHTO  C122 4699   4.795  10.876   0.171  0.3613  0.4085 -0.1344
   12CHTO  H226 4700   4.695  10.921   0.170  0.4997  0.7147 -0.2431
   12CHTO  C126 4701   4.859  10.924   0.305  0.4420  0.0474  0.3725
   12CHTO   O85 4702   4.821  11.052   0.358  0.6316  0.3922 -0.1571
   12CHTO  H206 4703   4.745  11.073   0.308  0.0078 -2.5639 -0.5472
   12CHTO  C121 4704   4.778  10.720   0.158  0.2885  0.0055 -0.6355
   12CHTO  H225 4705   4.751  10.682   0.259 -2.0828  1.8645 -0.5334
   12CHTO   O81 4706   4.653  10.702   0.088 -0.2597  0.6470  0.2195
   12CHTO  H202 4707   4.636  10.612   0.069 -0.1772  0.7910 -0.5434
   12CHTO  C119 4708   4.902  10.643   0.104  0.5652  0.2715  0.4748
   12CHTO  H223 4709   4.982  10.659   0.176  0.4737  2.3214  0.1284
   12CHTO  C117 4710   4.946  10.714  -0.031 -0.4431  0.0901  0.1911
   12CHTO  H221 4711   4.879  10.714  -0.117 -1.0699  0.2987  0.6713
   12CHTO   N20 4712   5.077  10.645  -0.076 -0.5274  0.1065  0.8697
   12CHTO  H209 4713   5.162  10.674  -0.017 -0.6551  0.3055  0.9549
   12CHTO  H210 4714   5.071  10.540  -0.051 -1.4057  0.1136  0.6864
   12CHTO   O80 4715   4.886  10.481   0.104  0.1715 -0.4728 -0.2797
   12CHTO  C103 4716   4.766  10.405   0.015  0.4353  0.1261  0.1535
   12CHTO  H190 4717   4.670  10.456   0.010 -0.6341 -1.9277 -0.4133
   12CHTO  C101 4718   4.822  10.356  -0.123  0.4691 -0.5514 -0.1104
   12CHTO  H188 4719   4.924  10.323  -0.104  0.9974  1.3966  0.4999
   12CHTO   O68 4720   4.829  10.488  -0.217 -0.0840 -0.0600 -0.4986
   12CHTO  H168 4721   4.812  10.455  -0.303  2.1725 -0.6779 -0.7226
   12CHTO   C99 4722   4.738  10.233  -0.186 -0.2568  0.1934  0.5585
   12CHTO  H186 4723   4.642  10.282  -0.213  0.5680  0.5469 -1.8490
   12CHTO   N17 4724   4.794  10.171  -0.312 -0.8581 -0.9388 -0.5151
   12CHTO  H174 4725   4.740  10.087  -0.353  0.2623 -1.7654 -0.3229
   12CHTO  H175 4726   4.901  10.158  -0.301 -1.1172 -1.5790  1.5627
   12CHTO   C97 4727   4.706  10.130  -0.074  0.4540 -1.0368  0.3366
   12CHTO  H184 4728   4.803  10.089  -0.042  1.4432  0.8175 -0.1852
   12CHTO   O64 4729   4.643  10.198   0.029  0.0765  0.3126 -0.5283
   12CHTO  C104 4730   4.739  10.280   0.101 -0.1582 -0.1648 -0.1165
   12CHTO  H191 4731   4.834  10.231   0.120 -0.4888 -1.8653 -2.5839
   12CHTO  C108 4732   4.673  10.305   0.237 -0.0318  0.1154  0.1288
   12CHTO   O71 4733   4.656  10.185   0.313 -0.2929  0.3156 -0.8742
   12CHTO  H171 4734   4.575  10.195   0.360  0.0289 -2.4176  0.3778
   12CHTO   O62 4735   4.609  10.032  -0.106  0.2479  0.1396 -0.3398
   12CHTO   C91 4736   4.616   9.913  -0.022  0.0185  0.0806 -0.8281
   12CHTO  H178 4737   4.684   9.944   0.057  0.6979 -1.7922 -0.6521
   12CHTO   C92 4738   4.670   9.790  -0.110 -0.1881  0.3311  0.5851
   12CHTO  H179 4739   4.602   9.780  -0.196  1.0391 -1.5668 -0.1916
   12CHTO   O66 4740   4.797   9.817  -0.165  0.2280 -0.6274  0.5206
   12CHTO  H166 4741   4.863   9.822  -0.099  1.0025 -1.4685 -0.1845
   12CHTO   C93 4742   4.669   9.648  -0.028  0.5253 -0.3485 -0.0148
   12CHTO  H180 4743   4.756   9.645   0.039  0.0008 -0.7141  0.6513
   12CHTO   N16 4744   4.686   9.532  -0.114  0.2041 -0.0042  0.5552
   12CHTO  H172 4745   4.773   9.545  -0.175 -0.2301 -0.1673 -0.1031
   12CHTO  H173 4746   4.690   9.448  -0.046  0.8704  1.8047  2.8090
   12CHTO   C94 4747   4.539   9.638   0.058 -0.5526 -0.0046 -0.0116
   12CHTO  H181 4748   4.452   9.634  -0.008 -0.5918  1.1329 -0.0364
   12CHTO   O61 4749   4.528   9.758   0.127 -0.4850  0.8605  0.3049
   12CHTO   C95 4750   4.490   9.869   0.046 -0.2026  0.1561  0.1717
   12CHTO  H182 4751   4.416   9.839  -0.028 -0.2015  0.6897 -0.0518
   12CHTO  C106 4752   4.422   9.989   0.131  0.0143 -0.5491  0.4746
   12CHTO   O69 4753   4.333   9.929   0.229 -0.5827 -0.3122  0.4359
   12CHTO  H169 4754   4.338   9.982   0.306 -0.8410 -2.6108  2.0473
   12CHTO   O63 4755   4.533   9.515   0.161  0.4128 -0.2174 -0.0292
   12CHTO   C96 4756   4.636   9.483   0.264 -0.0345 -0.5663  0.1157
   12CHTO  H183 4757   4.716   9.556   0.247  0.1023 -0.5265  0.9225
   12CHTO   C98 4758   4.673   9.329   0.259 -0.7625  0.5963 -1.0899
   12CHTO  H185 4759   4.583   9.267   0.269  0.3450 -0.7657  0.9104
   12CHTO   O67 4760   4.734   9.300   0.132 -0.4113  0.4389 -0.1924
   12CHTO  H167 4761   4.719   9.208   0.122 -3.9876  0.9408 -0.1740
   12CHTO  C102 4762   4.773   9.280   0.374 -0.4267 -0.1210  0.3212
   12CHTO  H189 4763   4.858   9.349   0.360  1.6359 -3.0625 -2.4683
   12CHTO   N18 4764   4.830   9.141   0.365  0.0841  0.5185  0.4276
   12CHTO  H176 4765   4.779   9.080   0.291 -1.1183  1.1969  0.6854
   12CHTO  H177 4766   4.937   9.138   0.351 -0.2192 -1.1758 -1.8152
   12CHTO  C105 4767   4.688   9.309   0.506 -0.1127  0.9577 -0.2602
   12CHTO  H192 4768   4.594   9.255   0.495  0.8199 -0.6192 -0.6223
   12CHTO   O65 4769   4.666   9.450   0.510 -0.2138 -0.5704 -0.2217
   12CHTO  C100 4770   4.577   9.508   0.410  0.2528 -0.0384  0.1475
   12CHTO  H187 4771   4.483   9.452   0.423  0.0295  0.0018 -1.2661
   12CHTO  C107 4772   4.554   9.647   0.459 -0.3151  0.1892 -0.5404
   12CHTO   O70 4773   4.467   9.725   0.384 -0.1655  0.2395  0.1614
   12CHTO  H170 4774   4.436   9.787   0.447  1.9472  0.6447  0.8570
   12CHTO   O57 4775   4.773   9.265   0.631 -0.4881  0.3519 -0.2185
   12CHTO   C85 4776   4.702   9.209   0.745 -0.2886 -0.3805  0.5565
   12CHTO  H157 4777   4.621   9.157   0.690 -0.1790  1.6474 -1.5986
   12CHTO   C83 4778   4.646   9.311   0.844 -0.0512  0.2504 -0.3106
   12CHTO  H155 4779   4.574   9.378   0.798 -0.1833  2.2518  2.6882
   12CHTO   O56 4780   4.750   9.402   0.874  0.5228  0.3401  0.6899
   12CHTO  H135 4781   4.813   9.364   0.933 -1.7759  1.3043  3.8459
   12CHTO   C81 4782   4.573   9.237   0.961  0.1032 -0.3442 -0.3130
   12CHTO  H153 4783   4.510   9.157   0.922 -0.5855 -1.2738  2.5773
   12CHTO   N14 4784   4.484   9.331   1.036 -0.2866  0.5407 -0.1785
   12CHTO  H141 4785   4.402   9.353   0.971  1.6653  2.7458 -1.9631
   12CHTO  H142 4786   4.446   9.279   1.121 -3.2575  2.0473 -0.5312
   12CHTO   C79 4787   4.689   9.174   1.047  1.0831  0.2104 -0.2959
   12CHTO  H151 4788   4.644   9.117   1.129  1.8751 -1.6401 -1.1259
   12CHTO   O52 4789   4.756   9.075   0.961  0.2391  0.6977  0.6222
   12CHTO   C86 4790   4.799   9.118   0.828  0.3311 -0.8059 -0.4600
   12CHTO  H158 4791   4.892   9.177   0.843  0.5129 -0.8717 -1.2583
   12CHTO   C90 4792   4.843   8.998   0.747  0.4114 -0.6160  0.0352
   12CHTO   O60 4793   4.946   8.920   0.805 -0.4976  0.3423 -0.2593
   12CHTO  H138 4794   5.024   8.971   0.793 -0.2414  0.4160  1.6094
   12CHTO   O50 4795   4.791   9.264   1.086 -0.0992  0.6709  0.2797
   12CHTO   C73 4796   4.869   9.273   1.202  0.2229 -0.4381  0.2294
   12CHTO  H145 4797   4.815   9.243   1.293  2.3478  1.6250  2.2387
   12CHTO   C74 4798   4.897   9.426   1.232 -0.1637 -0.2661  0.5279
   12CHTO  H146 4799   4.797   9.471   1.241 -0.1690 -0.4618  1.4878
   12CHTO   O54 4800   4.959   9.447   1.359 -0.4118  0.5236  0.7973
   12CHTO  H133 4801   5.052   9.451   1.350 -0.5171  0.2791 -0.5097
   12CHTO   C75 4802   4.978   9.479   1.110  0.0868 -0.8039  0.4050
   12CHTO  H147 4803   4.916   9.464   1.021 -3.3110 -1.5383  2.8076
   12CHTO   N13 4804   5.015   9.626   1.120  0.1430 -0.2989  0.0267
   12CHTO  H139 4805   4.977   9.676   1.032  2.1114 -1.1036 -1.3238
   12CHTO  H140 4806   4.970   9.670   1.208 -0.2399  2.1110 -1.3249
   12CHTO   C76 4807   5.113   9.397   1.084  0.1433  0.0300  0.6262
   12CHTO  H148 4808   5.178   9.401   1.172  0.6175 -0.4623  0.3029
   12CHTO   O49 4809   5.069   9.260   1.071 -0.6585 -0.3236 -0.2602
   12CHTO   C77 4810   5.006   9.203   1.183 -0.6158  0.7377  0.0201
   12CHTO  H149 4811   5.068   9.219   1.271 -1.2820 -1.0495  0.8487
   12CHTO   C88 4812   4.997   9.043   1.167  0.5826  0.5468 -0.7384
   12CHTO   O58 4813   5.137   8.971   1.163  0.0918 -0.3240  0.0086
   12CHTO  H136 4814   5.184   9.003   1.237 -0.9547  0.0322  0.5167
   12CHTO   O51 4815   5.190   9.423   0.940  0.1670  0.2867  0.2456
   12CHTO   C78 4816   5.315   9.330   0.929 -0.1495 -0.2879 -0.3290
   12CHTO  H150 4817   5.306   9.236   0.988  1.3341 -0.7365 -0.7899
   12CHTO   C80 4818   5.442   9.405   0.975  0.2521 -0.4032  0.2666
   12CHTO  H152 4819   5.459   9.490   0.906  0.9973 -2.1719 -1.7902
   12CHTO   O55 4820   5.415   9.431   1.114 -0.3638  0.3822  0.5169
   12CHTO  H134 4821   5.491   9.470   1.155 -0.5480  1.0917  0.1879
   12CHTO   C84 4822   5.576   9.321   0.957  0.5869  0.1018 -0.8438
   12CHTO  H156 4823   5.560   9.229   1.012  2.1215  0.4936  0.2714
   12CHTO   N15 4824   5.700   9.399   1.012  0.1870 -0.6827 -0.3276
   12CHTO  H143 4825   5.746   9.340   1.088  0.1106  1.8926  1.8063
   12CHTO  H144 4826   5.661   9.489   1.055  1.0073 -1.2749  1.7278
   12CHTO   C87 4827   5.577   9.279   0.812 -0.1703 -0.0127  0.1670
   12CHTO  H159 4828   5.574   9.377   0.765  0.7673  0.4761  1.0989
   12CHTO   O53 4829   5.448   9.200   0.774  0.0541 -0.4951 -0.1986
   12CHTO   C82 4830   5.333   9.281   0.780  0.3585 -0.5123 -0.3062
   12CHTO  H154 4831   5.340   9.370   0.716 -2.5391  0.0953  0.1307
   12CHTO   C89 4832   5.206   9.206   0.728 -0.5644 -0.2176 -0.6660
   12CHTO   O59 4833   5.231   9.166   0.593 -0.3051 -0.2750 -0.2144
   12CHTO  H137 4834   5.178   9.217   0.535 -1.9574  0.1195  1.5930
   12CHTO   O45 4835   5.732   9.177   0.784  0.3415  0.1245  0.5196
   12CHTO   C67 4836   5.788   9.202   0.651 -0.4992 -0.3745 -0.0260
   12CHTO  H124 4837   5.890   9.162   0.647 -0.2621  0.2092  0.0980
   12CHTO   C65 4838   5.701   9.130   0.544  0.2884 -0.0092 -0.1093
   12CHTO  H122 4839   5.604   9.103   0.585  0.7880 -2.5580 -0.5319
   12CHTO   O44 4840   5.778   9.012   0.508 -0.1505 -0.1467  0.4661
   12CHTO  H102 4841   5.763   8.945   0.572 -1.1201 -0.9886 -0.6170
   12CHTO   C63 4842   5.663   9.223   0.426 -0.4751 -0.3280 -0.4802
   12CHTO  H120 4843   5.596   9.299   0.466  2.4013  2.2990 -0.4422
   12CHTO   N11 4844   5.574   9.164   0.327 -0.0628  0.0874 -0.0060
   12CHTO  H108 4845   5.553   9.239   0.254 -0.0748 -2.1813 -2.4009
   12CHTO  H109 4846   5.623   9.080   0.283 -0.6620 -1.5657  2.3733
   12CHTO   C61 4847   5.793   9.296   0.379  0.1297  0.8023  0.1830
   12CHTO  H118 4848   5.768   9.362   0.295 -2.3188 -1.7511 -1.1937
   12CHTO   O40 4849   5.858   9.372   0.480 -0.7215  0.2527 -0.1468
   12CHTO   C68 4850   5.813   9.354   0.619  0.0941 -0.2394  0.3843
   12CHTO  H125 4851   5.725   9.420   0.634  1.5567  1.1398  3.5280
   12CHTO   C72 4852   5.931   9.413   0.714  0.3893  0.4996 -0.3095
   12CHTO   O48 4853   5.919   9.552   0.731 -0.0828 -0.0685 -0.0387
   12CHTO  H105 4854   6.001   9.589   0.705 -0.1731  1.1937  1.4109
   12CHTO   O38 4855   5.884   9.194   0.326 -0.1277 -0.1526  0.4953
   12CHTO   C55 4856   5.996   9.242   0.247 -0.2743  0.4663 -0.1967
   12CHTO  H112 4857   6.015   9.347   0.274 -1.3004  1.6944 -3.9231
   12CHTO   C56 4858   5.967   9.227   0.085  0.1107  0.6441 -0.1627
   12CHTO  H113 4859   5.923   9.128   0.063  0.4931  0.3746  0.2866
   12CHTO   O42 4860   5.866   9.322   0.043 -0.0811  0.5307 -0.1318
   12CHTO  H100 4861   5.903   9.407   0.032  0.3856  0.6118  1.8366
   12CHTO   C57 4862   6.095   9.245  -0.013  0.5522 -0.3102 -0.4508
   12CHTO  H114 4863   6.101   9.354  -0.012 -1.2313 -0.1598  3.1077
   12CHTO   N10 4864   6.084   9.203  -0.152 -0.1824  0.2693  0.1241
   12CHTO  H106 4865   6.160   9.141  -0.198  0.5957  1.3176 -0.0198
   12CHTO  H107 4866   6.071   9.287  -0.218  1.1718 -1.1089 -1.9871
   12CHTO   C58 4867   6.222   9.186   0.058 -0.5981  0.0128 -0.2939
   12CHTO  H115 4868   6.223   9.075   0.052 -1.9126 -0.1419  1.8869
   12CHTO   O37 4869   6.230   9.216   0.192  0.1908 -0.2805  0.5890
   12CHTO   C59 4870   6.125   9.160   0.277  0.2439  0.6594 -0.3956
   12CHTO  H116 4871   6.111   9.053   0.262 -3.4679  1.3580 -2.5634
   12CHTO   C70 4872   6.166   9.174   0.426  0.3946 -0.6236 -0.1882
   12CHTO   O46 4873   6.113   9.080   0.522 -0.0436 -0.0100 -0.3625
   12CHTO  H103 4874   6.096   8.998   0.479 -1.0122 -0.6699  1.2360
   12CHTO   O39 4875   6.354   9.247  -0.011  0.0176 -0.2534  0.1425
   12CHTO   C60 4876   6.466   9.156   0.005 -0.2115 -0.0301  0.9495
   12CHTO  H117 4877   6.453   9.097   0.096 -3.2596  0.6444  1.0332
   12CHTO   C62 4878   6.473   9.061  -0.118 -0.4252  0.9238 -0.0810
   12CHTO  H119 4879   6.389   8.988  -0.124 -1.2890  2.0141 -2.2732
   12CHTO   O43 4880   6.463   9.125  -0.248 -0.0910  0.0428  0.1838
   12CHTO  H101 4881   6.527   9.193  -0.248 -2.1981  2.0815  0.6666
   12CHTO   C66 4882   6.613   8.977  -0.111 -0.3111 -1.0475  0.0222
   12CHTO  H123 4883   6.611   8.913  -0.022  0.3390 -1.9071 -0.5721
   12CHTO   N12 4884   6.624   8.879  -0.222  0.5158 -0.1233 -0.2026
   12CHTO  H110 4885   6.535   8.870  -0.282  0.6541  1.0998 -0.6029
   12CHTO  H111 4886   6.660   8.782  -0.191  2.7436 -0.7793 -4.3817
   12CHTO   C69 4887   6.730   9.072  -0.106 -0.5511 -0.1544 -0.0014
   12CHTO  H126 4888   6.730   9.136  -0.197 -2.8222 -0.1031 -0.0083
   12CHTO   O41 4889   6.710   9.162   0.021 -0.1792  0.3044 -0.6442
   12CHTO   C64 4890   6.591   9.246   0.019 -0.0730  0.1782 -0.7852
   12CHTO  H121 4891   6.581   9.311  -0.071 -2.1646 -1.1771 -1.5621
   12CHTO   C71 4892   6.597   9.328   0.156  0.0703  0.0975 -0.1112
   12CHTO   O47 4893   6.516   9.447   0.151  0.1119 -0.4081  0.0729
   12CHTO  H104 4894   6.517   9.494   0.233  0.8275  1.6387 -1.0736
   12CHTO   O34 4895   6.852   8.997  -0.087  0.3020  0.6191  0.3691
   12CHTO   C49 4896   6.999   9.021  -0.071  0.5211 -1.1459  0.3919
   12CHTO   H91 4897   7.027   9.059  -0.168  0.5239 -1.2566  0.3488
   12CHTO   C47 4898   7.081   8.897  -0.036 -0.0385 -0.0364  0.6322
   12CHTO   H89 4899   7.185   8.933  -0.046  0.2294 -0.6032  1.3724
   12CHTO   O33 4900   7.060   8.801  -0.139 -0.2804 -0.5909 -0.0004
   12CHTO   H70 4901   7.128   8.738  -0.150  0.3838  0.2745 -0.9290
   12CHTO   C45 4902   7.047   8.835   0.106 -0.9041 -0.4131  0.1684
   12CHTO   H87 4903   6.980   8.749   0.088  0.4897 -2.0373  2.4895
   12CHTO    N8 4904   7.170   8.791   0.168  0.2175  0.0208 -0.3624
   12CHTO   H75 4905   7.179   8.845   0.262 -0.6618  0.3322 -0.4571
   12CHTO   H76 4906   7.158   8.686   0.189  1.9618  0.2004  1.7914
   12CHTO   C43 4907   6.965   8.945   0.200  0.0299 -0.1490 -0.3636
   12CHTO   H85 4908   6.862   8.939   0.166  0.1746  1.2783 -1.1031
   12CHTO   O29 4909   7.023   9.079   0.182 -0.0002  0.3777  0.0430
   12CHTO   C50 4910   7.028   9.125   0.045 -0.3568  0.7753 -0.3309
   12CHTO   H92 4911   6.955   9.205   0.029 -3.0789 -1.2761  1.3381
   12CHTO   C54 4912   7.162   9.201   0.030  0.3823  0.6415  0.1213
   12CHTO   O36 4913   7.178   9.258  -0.099 -0.0888  0.0072 -0.2162
   12CHTO   H72 4914   7.111   9.324  -0.099 -0.6573 -0.5595 -1.3964
   12CHTO   O27 4915   6.961   8.920   0.336 -0.0975 -0.1389 -0.2735
   12CHTO   C37 4916   6.899   8.965   0.461  0.2554 -0.3023  0.0374
   12CHTO   H79 4917   6.981   8.990   0.530 -0.0009 -2.0162  0.9854
   12CHTO   C38 4918   6.806   9.093   0.461 -0.8338 -0.4268  0.5029
   12CHTO   H80 4919   6.759   9.109   0.363  0.3280  1.5087  0.2411
   12CHTO   O31 4920   6.895   9.204   0.474 -0.2537  0.0434  0.4063
   12CHTO   H68 4921   6.968   9.213   0.415  1.3550  0.8440  2.4483
   12CHTO   C39 4922   6.707   9.096   0.585  0.1817  0.3915  0.2199
   12CHTO   H81 4923   6.764   9.126   0.673 -1.4072  3.2737  0.3108
   12CHTO    N7 4924   6.604   9.212   0.571 -0.1957 -0.4707  0.5444
   12CHTO   H73 4925   6.579   9.241   0.470  1.1608  0.1062  0.3660
   12CHTO   H74 4926   6.637   9.289   0.639 -0.8176  0.0005  0.3257
   12CHTO   C40 4927   6.636   8.966   0.617  0.3048 -0.3322  0.3050
   12CHTO   H82 4928   6.575   8.941   0.530 -1.3207  1.8273  0.7928
   12CHTO   O26 4929   6.741   8.875   0.636  0.5332  0.2547  0.0641
   12CHTO   C41 4930   6.829   8.839   0.518  0.0426 -0.3529  0.1806
   12CHTO   H83 4931   6.764   8.794   0.443 -0.4329  0.3429  0.1710
   12CHTO   C52 4932   6.935   8.733   0.555  0.2003 -0.4736 -0.0770
   12CHTO   O35 4933   6.873   8.609   0.610  0.2080  0.3202  0.0023
   12CHTO   H71 4934   6.859   8.551   0.538 -0.1993 -1.4491  1.4684
   12CHTO   O28 4935   6.556   8.971   0.739 -0.5318  0.3958  0.1794
   12CHTO   C42 4936   6.444   8.881   0.773  0.1996  0.5225 -0.4475
   12CHTO   H84 4937   6.453   8.861   0.879  0.6115 -1.4424 -0.8362
   12CHTO   C44 4938   6.443   8.737   0.698 -0.4490  1.0473 -0.1475
   12CHTO   H86 4939   6.440   8.756   0.591 -1.5728 -0.2163 -0.3581
   12CHTO   O32 4940   6.569   8.670   0.723  0.3997 -1.2113 -0.7289
   12CHTO   H69 4941   6.577   8.644   0.813  1.1938 -0.8310 -0.6865
   12CHTO   C48 4942   6.318   8.655   0.745  1.0399  0.2340  0.5337
   12CHTO   H90 4943   6.332   8.630   0.850  0.3827 -0.8880  0.3594
   12CHTO    N9 4944   6.304   8.524   0.669 -0.0094  0.3652  0.4419
   12CHTO   H77 4945   6.285   8.434   0.725 -0.3656 -0.4318 -0.9296
   12CHTO   H78 4946   6.224   8.537   0.597 -0.6394  1.0253  1.2474
   12CHTO   C51 4947   6.188   8.737   0.744  0.4229 -0.1960 -0.5645
   12CHTO   H93 4948   6.159   8.754   0.640  1.1310 -1.1746 -0.9232
   12CHTO   O30 4949   6.207   8.858   0.816 -0.6151 -0.1441 -0.0601
   12CHTO   C46 4950   6.307   8.958   0.758  0.2468  0.1531 -0.4433
   12CHTO   H88 4951   6.297   8.971   0.651 -0.0685  0.7446 -0.3461
   12CHTO   C53 4952   6.317   9.085   0.842  0.0031 -0.1974  0.5117
   12CHTO   O72 4953   6.200   9.169   0.805 -0.4356  0.4429 -0.0853
   12CHTO  H199 4954   6.217   9.255   0.771 -0.2756  1.2169  1.8806
   12CHTO   O22 4955   6.081   8.672   0.816 -0.0521  0.0906  0.3254
   12CHTO   C31 4956   5.935   8.691   0.803  0.4018 -0.0205  0.4517
   12CHTO   H59 4957   5.885   8.600   0.843  0.2598  0.0110  0.3428
   12CHTO   C29 4958   5.884   8.812   0.880  0.0097  0.9603 -0.0937
   12CHTO   H57 4959   5.924   8.900   0.826 -1.4661  1.4720 -0.3835
   12CHTO   O21 4960   5.934   8.807   1.014 -0.0947 -0.6078  0.0540
   12CHTO   H37 4961   5.959   8.892   1.045 -3.0929  0.7166 -0.9820
   12CHTO   C27 4962   5.723   8.817   0.893 -0.8555 -0.2592  0.2760
   12CHTO   H55 4963   5.692   8.723   0.940 -1.1683 -0.9997 -1.3552
   12CHTO    N5 4964   5.657   8.933   0.965  0.6522  0.1462 -0.7115
   12CHTO   H43 4965   5.734   8.971   1.030  1.5012 -0.2199 -1.4934
   12CHTO   H44 4966   5.625   9.016   0.903  1.1523 -1.1897 -2.8144
   12CHTO   C25 4967   5.667   8.805   0.744  0.3822 -0.6289  0.0453
   12CHTO   H53 4968   5.687   8.899   0.691 -1.4025 -1.6299 -2.5202
   12CHTO   O17 4969   5.741   8.712   0.660 -0.1782 -0.0637  0.1916
   12CHTO   C32 4970   5.888   8.705   0.661  0.4835 -0.6371  0.1301
   12CHTO   H60 4971   5.920   8.800   0.617 -0.3964 -1.3695 -2.1309
   12CHTO   C36 4972   5.932   8.578   0.580  0.6056 -0.0181 -0.3871
   12CHTO   O25 4973   5.855   8.568   0.458 -0.4563 -0.2153 -0.3877
   12CHTO   H40 4974   5.886   8.493   0.412  1.9145 -1.0782  2.4542
   12CHTO   O15 4975   5.534   8.758   0.744  0.0991 -0.4234  0.1398
   12CHTO   C19 4976   5.415   8.782   0.666 -0.1734 -0.0179  0.2397
   12CHTO   H47 4977   5.419   8.892   0.658  1.8247 -0.1352 -0.7687
   12CHTO   C20 4978   5.415   8.714   0.522 -0.5582 -0.5684 -0.6450
   12CHTO   H48 4979   5.401   8.605   0.531  0.4046 -0.8714 -2.5598
   12CHTO   O19 4980   5.532   8.736   0.446  0.7760  0.2251 -0.6943
   12CHTO   H35 4981   5.519   8.828   0.434  2.4429  0.5163 -0.3611
   12CHTO   C21 4982   5.287   8.766   0.446 -0.7055 -0.2095 -0.0899
   12CHTO   H49 4983   5.300   8.872   0.421 -0.4511 -0.1662  0.2183
   12CHTO    N4 4984   5.268   8.706   0.314 -0.5966 -0.0949  0.3001
   12CHTO   H41 4985   5.342   8.629   0.296  0.1222  0.7126 -0.1978
   12CHTO   H42 4986   5.287   8.786   0.245  0.3414 -0.5243  0.0542
   12CHTO   C22 4987   5.154   8.743   0.529  0.3901  0.1501  0.3568
   12CHTO   H50 4988   5.151   8.635   0.538  1.7319  0.0317 -0.5428
   12CHTO   O14 4989   5.173   8.799   0.664 -0.5545 -0.5048  0.1100
   12CHTO   C23 4990   5.285   8.750   0.736  0.2473 -0.2351  0.3162
   12CHTO   H51 4991   5.272   8.641   0.745  1.9822 -0.5836 -1.2442
   12CHTO   C34 4992   5.267   8.812   0.876  0.4905 -0.8182 -0.0982
   12CHTO   O23 4993   5.190   8.722   0.952 -0.1104 -0.0978 -0.4643
   12CHTO   H38 4994   5.187   8.744   1.043  1.1306 -1.5654 -0.0330
   12CHTO   O16 4995   5.030   8.805   0.486  0.4263 -0.0881 -0.3403
   12CHTO   C24 4996   4.939   8.707   0.424 -0.5352  0.1478 -0.5925
   12CHTO   H52 4997   4.993   8.616   0.398  2.4213  1.5453  0.5218
   12CHTO   C26 4998   4.890   8.761   0.288  0.1158 -0.3431 -0.0278
   12CHTO   H54 4999   4.817   8.844   0.302 -0.4745 -0.6852 -1.0254
   12CHTO   O20 5000   5.006   8.813   0.210  0.5863 -0.6290  0.1682
   12CHTO   H36 5001   5.060   8.740   0.186  0.7225 -0.5859  0.3505
   12CHTO   C30 5002   4.817   8.643   0.216 -0.4250 -0.0846  0.0521
   12CHTO   H58 5003   4.889   8.561   0.203  1.2922  1.1766  1.4828
   12CHTO    N6 5004   4.768   8.680   0.080  0.1000 -0.1205  0.4730
   12CHTO   H45 5005   4.845   8.680   0.004 -2.0082  0.5816 -1.7267
   12CHTO   H46 5006   4.713   8.773   0.077  0.6584  0.2784  1.9352
   12CHTO   C33 5007   4.696   8.585   0.301  0.0091  0.1865  0.2854
   12CHTO   H61 5008   4.615   8.659   0.300 -1.5820 -1.4965  1.3645
   12CHTO   O18 5009   4.742   8.563   0.434 -0.1378 -0.4696 -0.1083
   12CHTO   C28 5010   4.811   8.667   0.509 -0.2173 -0.2918 -0.4408
   12CHTO   H56 5011   4.742   8.752   0.513  1.3964  1.0192  0.3689
   12CHTO   C35 5012   4.851   8.609   0.649  0.1707 -0.7714 -0.6106
   12CHTO   O24 5013   4.934   8.493   0.643 -0.7616  0.3799 -0.0456
   12CHTO   H39 5014   4.883   8.426   0.683 -0.8363  0.0771 -0.6306
   12CHTO    O9 5015   4.653   8.462   0.243 -0.1826 -0.1590  0.4353
   12CHTO   C13 5016   4.746   8.334   0.273 -0.4330  0.5573  0.1527
   12CHTO   H26 5017   4.845   8.368   0.308 -0.3818 -1.3454  1.9662
   12CHTO   C11 5018   4.755   8.235   0.149  0.5588 -0.2531  0.2352
   12CHTO   H24 5019   4.822   8.287   0.079  0.1230 -0.3023 -0.2174
   12CHTO    O8 5020   4.619   8.225   0.086 -0.1759  0.5570 -0.0583
   12CHTO    H3 5021   4.627   8.164   0.015 -0.7779 -0.7765  0.9967
   12CHTO    C9 5022   4.804   8.099   0.198  0.4877  0.1605  0.5497
   12CHTO   H22 5023   4.902   8.123   0.240  1.3781  1.4254 -2.1173
   12CHTO    N2 5024   4.838   8.014   0.082 -0.4449 -0.8506  0.1691
   12CHTO   H10 5025   4.788   8.034  -0.012 -0.0546  0.3323  0.2143
   12CHTO   H11 5026   4.945   8.006   0.073 -0.4670  0.3748 -1.2957
   12CHTO    C7 5027   4.717   8.031   0.305  0.3122  0.3311 -0.8696
   12CHTO   H20 5028   4.766   7.933   0.325  2.1803  1.7313  1.5964
   12CHTO    O4 5029   4.712   8.126   0.419 -0.4844  0.5048 -0.0112
   12CHTO   C14 5030   4.677   8.261   0.392  0.0294  0.3381 -0.1106
   12CHTO   H27 5031   4.718   8.309   0.483 -1.3847  0.9019  0.2314
   12CHTO   C18 5032   4.526   8.273   0.402 -0.1541  0.4800  0.4281
   12CHTO   O13 5033   4.484   8.235   0.530  0.5633  0.0849 -0.3798
   12CHTO    H7 5034   4.446   8.306   0.578  0.2468 -1.7132  2.1816
   12CHTO    O2 5035   4.568   7.990   0.267  0.3505  0.4211 -0.1347
   12CHTO    C1 5036   4.514   7.859   0.260  0.1949  0.5332  0.4928
   12CHTO   H14 5037   4.575   7.795   0.327  0.2927 -0.6085 -0.6527
   12CHTO    C2 5038   4.516   7.795   0.118  0.4974 -0.2825 -1.3058
   12CHTO   H15 5039   4.477   7.868   0.046  1.7373  1.3155 -0.3862
   12CHTO    O6 5040   4.652   7.760   0.080 -0.2174  0.6897  0.1033
   12CHTO    H1 5041   4.709   7.835   0.081  2.0330 -0.9949  2.1266
   12CHTO    C3 5042   4.432   7.661   0.112 -0.2729  0.1507  0.0296
   12CHTO   H16 5043   4.490   7.583   0.164 -0.4757 -1.0861 -1.5457
   12CHTO    N1 5044   4.416   7.618  -0.033  0.1879 -0.1607 -0.2513
   12CHTO    H8 5045   4.373   7.684  -0.106 -2.3640 -0.5736  0.8143
   12CHTO    H9 5046   4.346   7.535  -0.030  0.1872 -0.1584 -0.1956
   12CHTO    C4 5047   4.291   7.664   0.192 -0.1905 -0.0618  0.1535
   12CHTO   H17 5048   4.225   7.737   0.144 -2.5120 -1.9109  0.4980
   12CHTO    O1 5049   4.317   7.719   0.320 -0.4302  0.3707 -0.3497
   12CHTO    C5 5050   4.367   7.859   0.319  0.0676  0.4334 -0.9465
   12CHTO   H18 5051   4.295   7.914   0.259  0.1625 -0.1930 -1.6405
   12CHTO   C16 5052   4.363   7.918   0.463 -0.2412  0.2832 -0.2837
   12CHTO   O11 5053   4.437   7.836   0.557  0.6082 -0.8706  0.0407
   12CHTO    H5 5054   4.454   7.887   0.634 -1.3372  0.8057 -0.5853
   12CHTO    O3 5055   4.239   7.529   0.199 -0.1531 -0.2200  0.1944
   12CHTO    C6 5056   4.173   7.487   0.323  0.4986 -0.3705 -0.3379
   12CHTO   H19 5057   4.225   7.520   0.413  1.3100  2.3558 -1.7552
   12CHTO    C8 5058   4.027   7.529   0.347 -0.0867 -0.6660 -0.5434
   12CHTO   H21 5059   3.971   7.500   0.258  0.5347  1.6836 -1.7150
   12CHTO    O7 5060   4.021   7.671   0.350 -0.0891  0.3884  0.1997
   12CHTO    H2 5061   3.981   7.699   0.270 -1.5801 -2.9076 -0.2665
   12CHTO   C12 5062   3.964   7.456   0.480  0.3286  0.1719  0.7864
   12CHTO   H25 5063   4.033   7.488   0.561 -1.9099  0.0641  2.8293
   12CHTO    N3 5064   3.824   7.493   0.525  0.0037 -0.3238  0.4368
   12CHTO   H12 5065   3.783   7.427   0.600  1.6794  3.0726  4.6186
   12CHTO   H13 5066   3.756   7.495   0.442 -0.5425 -2.5833  0.8043
   12CHTO   C15 5067   3.977   7.297   0.457 -0.5618 -0.0811 -0.5161
   12CHTO   H28 5068   3.908   7.254   0.384 -1.1358  2.4775 -1.5733
   12CHTO   O10 5069   3.964   7.226   0.596 -0.5623  0.0312 -0.3822
   12CHTO    H4 5070   3.888   7.258   0.642 -0.2501 -0.0982  0.2262
   12CHTO    O5 5071   4.116   7.267   0.436 -0.5332 -0.5205 -0.0829
   12CHTO   C10 5072   4.182   7.330   0.328 -0.0483  0.4455 -0.0587
   12CHTO   H23 5073   4.146   7.294   0.232  0.4764  3.1513 -1.3284
   12CHTO   C17 5074   4.325   7.278   0.346 -0.0431  0.2269 -0.4156
   12CHTO   O12 5075   4.414   7.300   0.239 -0.1123 -0.0221  0.3037
   12CHTO    H6 5076   4.421   7.392   0.219 -2.3436  0.2530  0.6001
   13CHTO  H203 5077   8.695   4.347   1.811 -0.5841  2.8107 -0.7528
   13CHTO   O82 5078   8.710   4.318   1.723 -0.3482 -0.4514  0.3163
   13CHTO  C123 5079   8.629   4.408   1.643 -0.1627  0.2089  0.4296
   13CHTO  H227 5080   8.639   4.377   1.537 -2.3032  0.7863  0.0348
   13CHTO   O77 5081   8.491   4.395   1.684  0.0159  0.2991 -0.3943
   13CHTO  C118 5082   8.407   4.490   1.608  1.0759 -0.1681  0.2358
   13CHTO  H222 5083   8.421   4.450   1.506  0.4469 -2.0938  0.8892
   13CHTO  C125 5084   8.259   4.464   1.657 -0.4382  0.2076  0.1636
   13CHTO   O84 5085   8.246   4.506   1.795 -0.0610  0.1017 -0.0814
   13CHTO  H205 5086   8.153   4.502   1.810 -0.2954 -0.3460 -1.6301
   13CHTO  C114 5087   8.444   4.641   1.604  0.2168 -0.2520  0.0178
   13CHTO  H218 5088   8.423   4.685   1.702 -0.6859 -1.7117  0.4849
   13CHTO  C116 5089   8.593   4.661   1.580 -0.5950  0.8062  0.6730
   13CHTO  H220 5090   8.613   4.637   1.473  1.6048  1.4742  0.9156
   13CHTO   O79 5091   8.621   4.799   1.613  0.1332  0.0328 -0.4723
   13CHTO  H201 5092   8.666   4.846   1.546 -1.0563  1.9308  0.0397
   13CHTO  C120 5093   8.678   4.563   1.665  0.1830 -0.5328 -0.1382
   13CHTO  H224 5094   8.656   4.594   1.769  1.0776 -1.6297  0.3887
   13CHTO   N21 5095   8.824   4.584   1.644  0.6578  0.0291 -0.6991
   13CHTO  H211 5096   8.849   4.640   1.555  0.6108 -0.3612 -0.9591
   13CHTO  H212 5097   8.887   4.498   1.661  1.4009  0.9368  1.2945
   13CHTO   O75 5098   8.353   4.698   1.503  0.2299 -0.2557 -0.3272
   13CHTO  C112 5099   8.248   4.814   1.587 -0.3177 -0.0253  0.1197
   13CHTO  H216 5100   8.310   4.882   1.647  0.7124 -1.9559  1.2684
   13CHTO   O73 5101   8.153   4.742   1.662  0.0515 -0.5240 -0.1681
   13CHTO  C113 5102   8.072   4.831   1.739 -0.5308 -0.2942  0.4624
   13CHTO  H217 5103   8.144   4.901   1.787 -0.9407 -0.8750  1.9418
   13CHTO  C124 5104   7.997   4.747   1.843  0.0063 -0.3990 -0.0599
   13CHTO   O83 5105   8.049   4.713   1.967  0.4286  0.9569  0.1365
   13CHTO  H204 5106   8.141   4.699   1.970  0.2242 -0.2346  0.8687
   13CHTO  C109 5107   7.974   4.908   1.655  0.2786 -0.3491  0.6554
   13CHTO  H213 5108   7.894   4.841   1.619  0.5762 -0.7011  0.6484
   13CHTO  C110 5109   8.051   4.972   1.536 -1.2885  0.0540  0.4762
   13CHTO  H214 5110   8.085   5.071   1.567 -0.3116 -0.1356  0.0275
   13CHTO   O78 5111   7.950   4.998   1.432  0.2910  0.0956 -0.3764
   13CHTO  H200 5112   7.916   5.085   1.427  1.6387  0.6950  0.4622
   13CHTO  C111 5113   8.169   4.892   1.479 -0.3061  0.3924  0.0730
   13CHTO  H215 5114   8.124   4.817   1.411  0.9761  0.4244 -0.8345
   13CHTO   N19 5115   8.261   4.974   1.392 -0.5160 -0.5286  0.1740
   13CHTO  H207 5116   8.257   5.080   1.414 -3.0222  0.0356 -2.6030
   13CHTO  H208 5117   8.247   4.958   1.286 -0.0255 -0.1056  0.0415
   13CHTO   O74 5118   7.897   5.012   1.734 -0.8190  0.2185  0.0036
   13CHTO  C115 5119   7.752   5.093   1.683  0.3849  0.2946  0.1381
   13CHTO  H219 5120   7.763   5.201   1.675 -0.4165  0.5828  2.3022
   13CHTO   O76 5121   7.705   5.035   1.534  0.3484 -0.0751 -0.0234
   13CHTO  C122 5122   7.615   4.918   1.545  0.2560  0.1520 -0.4889
   13CHTO  H226 5123   7.683   4.837   1.570  0.4410  0.4661  0.0270
   13CHTO  C126 5124   7.559   4.895   1.402 -0.1419  0.2115  0.3097
   13CHTO   O85 5125   7.483   4.775   1.398  0.1952  0.0701  0.1457
   13CHTO  H206 5126   7.427   4.778   1.322  1.2936  2.2594 -0.6264
   13CHTO  C121 5127   7.493   4.925   1.653 -0.0448 -0.7702 -0.5165
   13CHTO  H225 5128   7.400   4.929   1.592 -0.3980 -0.8838  0.0091
   13CHTO   O81 5129   7.486   4.803   1.726 -0.2895 -0.0472  0.0266
   13CHTO  H202 5130   7.474   4.724   1.677  2.6975 -0.3664 -0.3317
   13CHTO  C119 5131   7.498   5.043   1.753 -0.5601  0.2096  0.2686
   13CHTO  H223 5132   7.470   5.133   1.698 -0.2699  0.5022  0.5947
   13CHTO  C117 5133   7.648   5.064   1.800 -0.2644  0.2621 -0.1785
   13CHTO  H221 5134   7.695   4.982   1.854  0.3749  2.2937  2.4801
   13CHTO   N20 5135   7.658   5.176   1.898  0.3930  0.0933 -0.7086
   13CHTO  H209 5136   7.580   5.178   1.972 -0.0902 -0.4368 -1.1979
   13CHTO  H210 5137   7.750   5.174   1.954  2.3154  1.3184 -3.6582
   13CHTO   O80 5138   7.378   5.041   1.863  0.1529  0.5268  0.3267
   13CHTO  C103 5139   7.249   5.096   1.818  0.4769  0.1819 -0.4015
   13CHTO  H190 5140   7.197   5.138   1.904  0.9744 -0.8771  0.4253
   13CHTO  C101 5141   7.240   5.207   1.699 -0.1779 -0.6962 -0.0412
   13CHTO  H188 5142   7.293   5.164   1.614  0.1184 -2.5321  1.0460
   13CHTO   O68 5143   7.316   5.342   1.738 -0.3339 -0.2662 -0.5369
   13CHTO  H168 5144   7.252   5.403   1.770  0.9384  0.5043  0.6221
   13CHTO   C99 5145   7.081   5.233   1.668  0.4955 -0.3940  0.3322
   13CHTO  H186 5146   7.024   5.271   1.755 -2.0073  2.0761 -2.3149
   13CHTO   N17 5147   7.048   5.323   1.551 -0.4578 -0.5751 -0.1845
   13CHTO  H174 5148   7.074   5.266   1.463  1.4822 -0.1882  0.1076
   13CHTO  H175 5149   6.945   5.353   1.548 -0.3740 -0.3848 -1.7591
   13CHTO   C97 5150   7.015   5.098   1.640 -0.1537  0.6004 -0.4836
   13CHTO  H184 5151   7.066   5.064   1.549 -0.1606  2.8995 -1.3628
   13CHTO   O64 5152   7.031   5.002   1.752  0.2872  0.3365  0.4625
   13CHTO  C104 5153   7.168   4.969   1.781 -0.0637 -0.2055  0.6331
   13CHTO  H191 5154   7.215   4.923   1.694  0.4769 -0.2969  0.9773
   13CHTO  C108 5155   7.151   4.853   1.885 -0.3206 -0.2086  0.0612
   13CHTO   O71 5156   7.127   4.725   1.819  0.1575  0.5370 -0.3047
   13CHTO  H171 5157   7.142   4.650   1.874 -0.0301 -0.2836 -1.3680
   13CHTO   O62 5158   6.874   5.096   1.646  0.0212  0.4106  0.7371
   13CHTO   C91 5159   6.803   4.995   1.563 -0.7130 -0.6799 -1.2901
   13CHTO  H178 5160   6.878   4.929   1.520 -2.1157 -2.4803 -1.0558
   13CHTO   C92 5161   6.732   5.076   1.442 -0.2415  0.1287 -0.5517
   13CHTO  H179 5162   6.677   5.162   1.484  0.8575  0.8516 -0.5625
   13CHTO   O66 5163   6.850   5.129   1.369 -0.0588  0.7038  0.4887
   13CHTO  H166 5164   6.846   5.222   1.356  2.1060  1.0804  2.2628
   13CHTO   C93 5165   6.633   4.996   1.349  0.3845 -0.0188  0.6158
   13CHTO  H180 5166   6.693   4.923   1.294  0.4876  1.1618 -0.8422
   13CHTO   N16 5167   6.570   5.067   1.235 -0.1272 -0.3601 -0.0509
   13CHTO  H172 5168   6.642   5.144   1.213  0.6161 -1.1837 -0.5486
   13CHTO  H173 5169   6.477   5.107   1.271 -0.1427 -0.1269 -0.3432
   13CHTO   C94 5170   6.534   4.916   1.436 -0.0446  0.0788 -1.0370
   13CHTO  H181 5171   6.463   4.982   1.487  0.3751  1.0036 -1.6246
   13CHTO   O61 5172   6.604   4.842   1.537 -0.0775 -0.2625  0.0658
   13CHTO   C95 5173   6.682   4.914   1.634 -1.1610 -0.5456  0.1247
   13CHTO  H182 5174   6.616   4.981   1.688 -2.0371 -0.7116 -0.7170
   13CHTO  C106 5175   6.729   4.811   1.747 -0.1445  0.3566 -0.1646
   13CHTO   O69 5176   6.826   4.721   1.688  0.2041 -0.4341 -0.0933
   13CHTO  H169 5177   6.888   4.718   1.758 -1.1407  2.6096  1.3197
   13CHTO   O63 5178   6.454   4.811   1.349 -0.4292 -0.6752  0.0196
   13CHTO   C96 5179   6.316   4.765   1.398 -0.6637 -0.5710  0.0471
   13CHTO  H183 5180   6.279   4.699   1.320  0.6864  0.3852 -1.4487
   13CHTO   C98 5181   6.216   4.881   1.416 -0.4814  0.8322  0.0045
   13CHTO  H185 5182   6.261   4.969   1.463 -0.9000  0.3282  1.3837
   13CHTO   O67 5183   6.190   4.917   1.277 -0.1280  0.6950 -0.6502
   13CHTO  H167 5184   6.151   5.002   1.277 -0.1797  0.6826  0.6606
   13CHTO  C102 5185   6.075   4.841   1.483 -0.5481  0.5258 -0.4818
   13CHTO  H189 5186   6.037   4.757   1.422 -0.9606  0.8982 -0.7381
   13CHTO   N18 5187   5.964   4.944   1.486 -0.2588 -0.5714  0.0239
   13CHTO  H176 5188   5.941   4.968   1.384  0.2799 -0.4615 -0.0689
   13CHTO  H177 5189   5.976   5.033   1.545  2.1067 -0.1872 -1.0144
   13CHTO  C105 5190   6.115   4.775   1.618 -0.1776  0.3076 -0.3436
   13CHTO  H192 5191   6.177   4.844   1.676  0.4131  0.2539 -0.9131
   13CHTO   O65 5192   6.183   4.657   1.593 -0.5009  0.5368  0.1083
   13CHTO  C100 5193   6.312   4.682   1.538 -0.5299 -0.7057 -0.1928
   13CHTO  H187 5194   6.371   4.746   1.606  1.4316 -0.3576 -2.1649
   13CHTO  C107 5195   6.387   4.540   1.516 -0.3437  0.1116 -0.4756
   13CHTO   O70 5196   6.301   4.440   1.458  0.2248  0.0176 -0.7887
   13CHTO  H170 5197   6.246   4.477   1.391 -0.2877  0.9447  0.1425
   13CHTO   O57 5198   5.982   4.755   1.721 -0.2857 -0.1338 -0.2681
   13CHTO   C85 5199   5.900   4.641   1.699 -0.7553 -0.2587 -0.2437
   13CHTO  H157 5200   5.948   4.570   1.628  0.9413 -1.3064  1.8795
   13CHTO   C83 5201   5.774   4.690   1.619 -0.1419  1.2038  0.2742
   13CHTO  H155 5202   5.812   4.718   1.521  2.3970  0.1100  0.8864
   13CHTO   O56 5203   5.707   4.806   1.676 -0.0268  0.2075 -0.1735
   13CHTO  H135 5204   5.684   4.786   1.765 -1.9626  2.7042 -0.0604
   13CHTO   C81 5205   5.680   4.569   1.595 -0.3144  0.0691 -0.6143
   13CHTO  H153 5206   5.738   4.490   1.548  0.2819 -1.1938  2.1573
   13CHTO   N14 5207   5.569   4.597   1.501  0.2054 -0.8130  0.6316
   13CHTO  H141 5208   5.478   4.541   1.512 -0.2291 -0.5161 -1.1848
   13CHTO  H142 5209   5.605   4.594   1.400  1.2278  1.9948  0.8845
   13CHTO   C79 5210   5.628   4.518   1.734 -0.4664 -0.0216  0.3470
   13CHTO  H151 5211   5.570   4.428   1.714 -0.4035  0.0510 -0.1590
   13CHTO   O52 5212   5.739   4.473   1.813  0.0140 -0.1280  0.1178
   13CHTO   C86 5213   5.857   4.567   1.827  0.5332  0.4250  0.0666
   13CHTO  H158 5214   5.815   4.643   1.896  2.4622  2.9904 -1.5249
   13CHTO   C90 5215   5.975   4.495   1.897  0.3100  0.0118 -0.5585
   13CHTO   O60 5216   6.033   4.398   1.811  0.0806  0.3667  0.3014
   13CHTO  H138 5217   6.118   4.429   1.784  1.1283  0.5866  3.6138
   13CHTO   O50 5218   5.541   4.609   1.802 -0.2325 -0.1407  0.6652
   13CHTO   C73 5219   5.403   4.610   1.845 -0.5287 -0.1497  0.4115
   13CHTO  H145 5220   5.351   4.526   1.795  0.1421 -0.3588  0.0634
   13CHTO   C74 5221   5.331   4.749   1.812  0.0695 -0.1961  0.0508
   13CHTO  H146 5222   5.339   4.760   1.703  1.6818 -1.0179  0.0777
   13CHTO   O54 5223   5.191   4.735   1.846  0.5203 -0.3209  0.0326
   13CHTO  H133 5224   5.155   4.821   1.834 -0.1972 -0.7802 -1.2399
   13CHTO   C75 5225   5.411   4.860   1.886  0.5744  0.1697 -0.3956
   13CHTO  H147 5226   5.517   4.853   1.856  0.2238 -0.6312 -1.5033
   13CHTO   N13 5227   5.369   4.997   1.862  0.3532 -0.3415  0.3893
   13CHTO  H139 5228   5.270   5.005   1.903  0.6619  0.3952  0.9935
   13CHTO  H140 5229   5.432   5.062   1.920 -1.8594  1.1593  1.1413
   13CHTO   C76 5230   5.410   4.832   2.036 -0.0906 -0.0597 -0.4934
   13CHTO  H148 5231   5.309   4.817   2.075  0.8651 -1.3864  1.5243
   13CHTO   O49 5232   5.465   4.696   2.059  0.4704 -0.1348 -0.8629
   13CHTO   C77 5233   5.389   4.592   2.000  0.2451  0.1613  0.1402
   13CHTO  H149 5234   5.284   4.597   2.029  0.4515  0.1169  0.8974
   13CHTO   C88 5235   5.453   4.466   2.061  0.0791  0.1409  0.0909
   13CHTO   O58 5236   5.423   4.339   1.980  0.0299  0.0999 -0.0675
   13CHTO  H136 5237   5.336   4.333   1.944  0.5193  0.3104 -1.3073
   13CHTO   O51 5238   5.505   4.946   2.128 -0.2107  0.2417  0.6128
   13CHTO   C78 5239   5.660   5.000   2.100 -0.4040  0.2300  0.2253
   13CHTO  H150 5240   5.684   5.052   2.195 -2.2100 -0.2886  0.9861
   13CHTO   C80 5241   5.681   5.103   1.985  0.0280  0.2320  0.3012
   13CHTO  H152 5242   5.627   5.066   1.895  0.8967  0.8489 -0.4848
   13CHTO   O55 5243   5.603   5.213   2.014 -0.1000 -0.3204 -0.1329
   13CHTO  H134 5244   5.607   5.265   1.936 -0.8095  0.2658  0.2145
   13CHTO   C84 5245   5.835   5.136   1.951  0.2698 -0.2129 -0.3664
   13CHTO  H156 5246   5.873   5.184   2.042 -0.8957  0.9426 -0.4755
   13CHTO   N15 5247   5.868   5.234   1.835  0.2786 -0.1559 -0.0243
   13CHTO  H143 5248   5.836   5.331   1.868  0.1945 -0.5563  1.0660
   13CHTO  H144 5249   5.816   5.209   1.745  0.4948 -0.9418  0.0678
   13CHTO   C87 5250   5.928   5.017   1.939  0.1885 -0.3771  0.0729
   13CHTO  H159 5251   5.909   4.974   1.841 -2.2136 -0.0415  0.3592
   13CHTO   O53 5252   5.890   4.912   2.056 -0.2511 -0.5415 -0.6327
   13CHTO   C82 5253   5.756   4.877   2.088 -0.0418  0.6330  0.0968
   13CHTO  H154 5254   5.716   4.816   2.007 -0.6447 -1.5162  1.9620
   13CHTO   C89 5255   5.754   4.804   2.217  0.1448 -0.4254  0.2703
   13CHTO   O59 5256   5.835   4.688   2.220 -0.3355 -0.4640  0.3233
   13CHTO  H137 5257   5.833   4.659   2.309  0.4437 -3.0194 -0.4542
   13CHTO   O45 5258   6.097   5.068   1.950  0.1887 -0.3936 -0.5243
   13CHTO   C67 5259   6.181   4.954   1.954 -0.1942  0.4118  0.8339
   13CHTO  H124 5260   6.130   4.865   1.917  0.3046 -0.4966  2.2668
   13CHTO   C65 5261   6.310   4.991   1.868 -0.0244 -0.5042  0.0469
   13CHTO  H122 5262   6.270   5.013   1.769 -0.6441  0.5126  0.5134
   13CHTO   O44 5263   6.394   4.875   1.853  0.1257 -0.3523 -0.5683
   13CHTO  H102 5264   6.418   4.841   1.938  1.9572 -0.3874 -1.0827
   13CHTO   C63 5265   6.385   5.125   1.932  0.3096  0.4804 -0.8048
   13CHTO  H120 5266   6.318   5.210   1.920  0.4690  0.7148 -0.0464
   13CHTO   N11 5267   6.496   5.168   1.851  0.2505 -0.0352  0.8467
   13CHTO  H108 5268   6.526   5.265   1.886 -0.0567  0.2781  0.2644
   13CHTO  H109 5269   6.579   5.102   1.862  0.5252 -0.1146 -1.3548
   13CHTO   C61 5270   6.415   5.100   2.086  0.0400  1.1110  0.3997
   13CHTO  H118 5271   6.429   5.198   2.133  1.8957  2.0751 -2.0892
   13CHTO   O40 5272   6.305   5.031   2.156  1.0829  0.0648 -0.1623
   13CHTO   C68 5273   6.219   4.924   2.105 -0.7298  0.3187  0.2146
   13CHTO  H125 5274   6.123   4.933   2.161  0.0413  1.4523  1.3947
   13CHTO   C72 5275   6.283   4.780   2.134  0.6806 -0.0606  0.0672
   13CHTO   O48 5276   6.189   4.675   2.098 -0.1478  0.3546  0.0970
   13CHTO  H105 5277   6.102   4.693   2.128  0.1106 -0.5559  1.3884
   13CHTO   O38 5278   6.522   5.006   2.114 -0.0402  0.2960  0.7190
   13CHTO   C55 5279   6.620   5.015   2.217 -0.3792  0.8821 -0.5620
   13CHTO  H112 5280   6.678   4.921   2.213  1.2881  1.8827 -0.6358
   13CHTO   C56 5281   6.548   5.034   2.358  0.4135  0.5576  0.0488
   13CHTO  H113 5282   6.493   5.129   2.348  0.1842  0.8798  3.5287
   13CHTO   O42 5283   6.454   4.919   2.376 -0.0919  0.2735 -0.2550
   13CHTO  H100 5284   6.429   4.907   2.466 -2.6898 -1.6929 -1.1820
   13CHTO   C57 5285   6.651   5.051   2.471  0.7687  0.0714 -0.7389
   13CHTO  H114 5286   6.696   4.951   2.476 -0.4314 -0.4116  0.8767
   13CHTO   N10 5287   6.599   5.082   2.605 -0.1656  0.4884 -0.6326
   13CHTO  H106 5288   6.669   5.057   2.683 -1.1623 -2.0474 -0.5030
   13CHTO  H107 5289   6.502   5.039   2.627 -1.1826  1.8735 -2.2585
   13CHTO   C58 5290   6.757   5.160   2.430  0.5491  0.4154  0.5068
   13CHTO  H115 5291   6.712   5.261   2.437 -1.9607 -0.6639  0.2961
   13CHTO   O37 5292   6.809   5.138   2.296  0.1685 -0.7169  0.8005
   13CHTO   C59 5293   6.716   5.129   2.190 -0.0016  0.4327  0.2302
   13CHTO  H116 5294   6.673   5.228   2.174  1.7177  0.9334 -1.4240
   13CHTO   C70 5295   6.802   5.102   2.064  0.0538  0.0490  0.4347
   13CHTO   O46 5296   6.923   5.175   2.048  0.1004  0.0171 -0.2220
   13CHTO  H103 5297   6.927   5.244   2.111  0.8631  0.9020 -1.2228
   13CHTO   O39 5298   6.891   5.139   2.527 -0.5654 -0.0536 -0.4069
   13CHTO   C60 5299   6.977   5.255   2.529 -0.0552 -0.5515 -0.3125
   13CHTO  H117 5300   6.978   5.301   2.431 -2.0764 -1.6034 -0.8539
   13CHTO   C62 5301   6.922   5.348   2.639 -0.2241  0.1773  0.1738
   13CHTO  H119 5302   6.818   5.360   2.603 -0.5391  0.4273  1.1652
   13CHTO   O43 5303   6.928   5.276   2.765  0.1919 -0.2566  1.2852
   13CHTO  H101 5304   6.914   5.343   2.829  3.0882  1.9524 -0.2775
   13CHTO   C66 5305   7.007   5.483   2.646 -0.2492 -0.3561  0.0177
   13CHTO  H123 5306   6.998   5.525   2.546 -1.8007 -1.2397 -0.2319
   13CHTO   N12 5307   6.954   5.576   2.750 -0.5257  0.0055 -0.6043
   13CHTO  H110 5308   6.960   5.521   2.843  2.8728  0.5289 -0.4421
   13CHTO  H111 5309   7.018   5.662   2.748 -1.9836  1.1832  1.6719
   13CHTO   C69 5310   7.154   5.457   2.673 -0.4435  0.5584 -0.4612
   13CHTO  H126 5311   7.166   5.402   2.769  0.2381  0.4935 -0.5804
   13CHTO   O41 5312   7.202   5.352   2.562 -0.7095 -0.6429  0.1362
   13CHTO   C64 5313   7.124   5.221   2.566  0.8480  0.0408  0.0548
   13CHTO  H121 5314   7.129   5.170   2.664 -4.9443 -0.1115  0.4052
   13CHTO   C71 5315   7.181   5.133   2.453 -0.5964 -0.5433  0.2889
   13CHTO   O47 5316   7.123   5.001   2.463  0.0853  0.2773  0.2647
   13CHTO  H104 5317   7.186   4.933   2.462 -2.0204 -1.7367  0.3174
   13CHTO   O34 5318   7.255   5.589   2.671 -0.0224  0.3709 -0.2038
   13CHTO   C49 5319   7.380   5.684   2.722  0.1367  0.7045  0.2156
   13CHTO   H91 5320   7.467   5.619   2.717 -0.8534 -0.6038 -0.5142
   13CHTO   C47 5321   7.348   5.722   2.872 -0.0528  0.5162 -0.1171
   13CHTO   H89 5322   7.442   5.771   2.907 -0.0735  0.2500  0.3124
   13CHTO   O33 5323   7.328   5.612   2.953 -0.7158  0.1238  0.3334
   13CHTO   H70 5324   7.391   5.548   2.925  0.0644 -0.0408  2.3678
   13CHTO   C45 5325   7.227   5.827   2.881  0.5497  0.1369  0.1804
   13CHTO   H87 5326   7.130   5.775   2.892  2.0108 -2.4658  1.3252
   13CHTO    N8 5327   7.253   5.916   2.995  0.0472  0.5204  0.5925
   13CHTO   H75 5328   7.157   5.947   3.033  0.1703  0.2601  1.1182
   13CHTO   H76 5329   7.308   6.003   2.962  2.0727 -1.0837 -0.3494
   13CHTO   C43 5330   7.197   5.900   2.747  0.3923 -0.2061  0.1136
   13CHTO   H85 5331   7.138   5.829   2.688  0.7056 -0.3093 -0.0758
   13CHTO   O29 5332   7.319   5.934   2.685 -0.2535 -0.3530 -1.0303
   13CHTO   C50 5333   7.393   5.820   2.639 -0.0564  0.0086 -0.0029
   13CHTO   H92 5334   7.348   5.803   2.540  0.8148 -1.4397 -0.1628
   13CHTO   C54 5335   7.542   5.860   2.621  0.7031  0.3469  0.0473
   13CHTO   O36 5336   7.581   5.966   2.529  0.6668  0.3583  0.1429
   13CHTO   H72 5337   7.623   5.923   2.457  0.9015 -1.1589  1.1492
   13CHTO   O27 5338   7.110   6.014   2.750 -0.1638 -0.2115  0.4580
   13CHTO   C37 5339   7.084   6.153   2.768 -0.2245  0.2558 -0.0904
   13CHTO   H79 5340   7.080   6.165   2.877  0.8823  0.2192 -0.0473
   13CHTO   C38 5341   7.197   6.245   2.709  0.6996  0.0221  0.6156
   13CHTO   H80 5342   7.228   6.214   2.608 -1.3254  1.7868 -0.5895
   13CHTO   O31 5343   7.309   6.230   2.794 -0.2855  0.5823  0.0010
   13CHTO   H68 5344   7.341   6.142   2.804  4.8807  2.2146 -0.5126
   13CHTO   C39 5345   7.160   6.402   2.714  0.0062 -0.3593 -0.6378
   13CHTO   H81 5346   7.176   6.421   2.820  1.0912 -1.3706 -0.6094
   13CHTO    N7 5347   7.257   6.504   2.645 -0.3377 -0.1619  0.3819
   13CHTO   H73 5348   7.347   6.455   2.613  0.5167  0.0396  2.4199
   13CHTO   H74 5349   7.214   6.544   2.554  0.4587  1.7613  0.8267
   13CHTO   C40 5350   7.007   6.431   2.679 -0.5391  0.1773  0.0582
   13CHTO   H82 5351   6.992   6.424   2.571 -1.0643 -0.1320  0.1514
   13CHTO   O26 5352   6.924   6.335   2.750 -0.3088 -0.3526  0.0157
   13CHTO   C41 5353   6.944   6.203   2.723  0.0951 -0.7220 -0.1385
   13CHTO   H83 5354   6.930   6.183   2.616 -3.4901 -3.1471  0.6903
   13CHTO   C52 5355   6.840   6.118   2.802 -0.3305 -0.9292  0.3275
   13CHTO   O35 5356   6.709   6.141   2.758  0.4676 -0.0410 -0.3760
   13CHTO   H71 5357   6.681   6.230   2.769  1.1549 -0.0691  1.7485
   13CHTO   O28 5358   6.978   6.563   2.716 -0.1830 -0.3875  0.2572
   13CHTO   C42 5359   6.892   6.654   2.632 -0.3606  0.4002 -0.0499
   13CHTO   H84 5360   6.882   6.610   2.532 -2.7807  1.7604 -0.4389
   13CHTO   C44 5361   6.963   6.791   2.611  0.4173 -0.1354 -0.1174
   13CHTO   H86 5362   6.985   6.829   2.711 -2.7585 -0.6442  0.8516
   13CHTO   O32 5363   7.086   6.766   2.540 -0.1982 -0.3369  0.1196
   13CHTO   H69 5364   7.156   6.811   2.584  0.8670  1.2069 -3.0038
   13CHTO   C48 5365   6.868   6.902   2.545 -0.3473  0.2124 -0.6083
   13CHTO   H90 5366   6.869   6.873   2.440  0.2825 -2.4820  0.1044
   13CHTO    N9 5367   6.929   7.045   2.558  0.1818  0.5244 -0.1453
   13CHTO   H77 5368   7.019   7.037   2.618  0.0852  2.9100  0.3578
   13CHTO   H78 5369   6.943   7.085   2.459 -0.8518 -3.1398 -1.8895
   13CHTO   C51 5370   6.726   6.898   2.615  0.3863 -0.2567 -0.2810
   13CHTO   H93 5371   6.731   6.929   2.719  1.7750 -2.6182  0.4021
   13CHTO   O30 5372   6.674   6.765   2.604  0.3208 -0.8947  0.3330
   13CHTO   C46 5373   6.750   6.666   2.689  0.7762 -0.3755 -0.3212
   13CHTO   H88 5374   6.740   6.703   2.791  1.1644  2.7024 -1.3354
   13CHTO   C53 5375   6.680   6.526   2.675  0.2376  0.6856 -0.2968
   13CHTO   O72 5376   6.662   6.487   2.537 -0.2133  0.0193  0.1719
   13CHTO  H199 5377   6.579   6.522   2.512  0.1657  0.2405 -0.7849
   13CHTO   O22 5378   6.632   6.986   2.544  0.3241  0.0715 -1.2091
   13CHTO   C31 5379   6.488   7.008   2.587  0.3637 -0.3829 -0.1680
   13CHTO   H59 5380   6.454   7.104   2.542 -4.3628  0.3873  4.6030
   13CHTO   C29 5381   6.389   6.899   2.541 -0.2869  0.1732 -0.0783
   13CHTO   H57 5382   6.420   6.811   2.599 -1.1637  0.5670  1.0028
   13CHTO   O21 5383   6.420   6.870   2.408 -0.1958  0.0508  0.4939
   13CHTO   H37 5384   6.399   6.946   2.357 -0.8078  0.1712  0.9226
   13CHTO   C27 5385   6.238   6.919   2.569  0.2097 -0.2968 -0.6298
   13CHTO   H55 5386   6.206   7.007   2.511 -0.0305  0.4406  0.5992
   13CHTO    N5 5387   6.146   6.809   2.533  0.3679 -0.3083  0.1210
   13CHTO   H43 5388   6.081   6.783   2.616  0.7274  0.1837  0.5632
   13CHTO   H44 5389   6.194   6.715   2.510  0.0537 -0.5748  0.5281
   13CHTO   C25 5390   6.227   6.974   2.715  0.3159  0.5504  0.0360
   13CHTO   H53 5391   6.227   6.883   2.778 -0.4722  1.4892  1.4124
   13CHTO   O17 5392   6.317   7.079   2.738  0.2935  0.0868 -0.3936
   13CHTO   C32 5393   6.452   7.034   2.739 -0.1073 -0.1062 -0.1716
   13CHTO   H60 5394   6.463   6.938   2.790  1.0992  0.2654  0.2680
   13CHTO   C36 5395   6.543   7.144   2.797 -0.4736 -0.0553  0.1408
   13CHTO   O25 5396   6.521   7.178   2.935  0.4124 -0.6087 -0.0465
   13CHTO   H40 5397   6.576   7.252   2.954  1.3497 -0.6777 -2.2619
   13CHTO   O15 5398   6.081   7.041   2.734 -0.0937  0.5122  0.1939
   13CHTO   C19 5399   5.973   7.121   2.669 -0.3382  0.2892  0.0975
   13CHTO   H47 5400   5.936   7.178   2.756 -0.8619 -1.8441  1.3200
   13CHTO   C20 5401   6.007   7.216   2.554 -0.0920 -0.3475 -0.1350
   13CHTO   H48 5402   6.048   7.165   2.466 -0.5837  0.7669 -1.0254
   13CHTO   O19 5403   6.102   7.311   2.606  0.2348 -0.1152  0.7916
   13CHTO   H35 5404   6.166   7.349   2.548 -2.4731  0.7710 -1.7158
   13CHTO   C21 5405   5.878   7.292   2.506  0.2851 -0.1883 -0.1042
   13CHTO   H49 5406   5.840   7.359   2.583  1.0161  0.4895 -0.3247
   13CHTO    N4 5407   5.899   7.387   2.398 -0.2349  0.4747  0.3709
   13CHTO   H41 5408   5.977   7.356   2.331  1.6619 -0.9212  3.1218
   13CHTO   H42 5409   5.806   7.406   2.346  0.6720  0.8950 -1.1071
   13CHTO   C22 5410   5.755   7.194   2.492 -0.0070 -0.3708 -0.0846
   13CHTO   H50 5411   5.768   7.142   2.397 -4.6054  1.7011 -2.0036
   13CHTO   O14 5412   5.739   7.110   2.605 -0.1888  0.7443 -0.2800
   13CHTO   C23 5413   5.860   7.031   2.628  0.0323 -0.2999 -0.2534
   13CHTO   H51 5414   5.886   6.979   2.535 -0.5501  0.4989 -0.8754
   13CHTO   C34 5415   5.820   6.915   2.719  0.5118  0.0162 -0.0931
   13CHTO   O23 5416   5.710   6.838   2.671 -1.0581 -0.2415  0.1315
   13CHTO   H38 5417   5.726   6.781   2.598 -0.6648 -1.2271  0.9820
   13CHTO   O16 5418   5.634   7.266   2.474 -0.0285  0.2587 -0.7982
   13CHTO   C24 5419   5.486   7.191   2.494  0.3880  0.1709  0.6562
   13CHTO   H52 5420   5.478   7.138   2.588 -1.2156 -3.9622 -1.6853
   13CHTO   C26 5421   5.461   7.090   2.380 -0.7693 -0.7004 -0.0174
   13CHTO   H54 5422   5.466   7.142   2.282  0.7937 -1.9097 -0.6101
   13CHTO   O20 5423   5.562   6.985   2.391  0.8171 -0.7498  0.2954
   13CHTO   H36 5424   5.648   7.022   2.385  0.1389  0.5667 -1.6891
   13CHTO   C30 5425   5.313   7.033   2.387  0.3405  0.0976 -0.0711
   13CHTO   H58 5426   5.299   6.964   2.470  2.5078  1.0878  1.1710
   13CHTO    N6 5427   5.285   6.951   2.260  0.1245 -0.0368  1.0260
   13CHTO   H45 5428   5.333   6.976   2.166 -1.0417 -0.3588  0.3311
   13CHTO   H46 5429   5.310   6.848   2.279  0.2114 -0.3955 -0.8738
   13CHTO   C33 5430   5.202   7.141   2.406 -0.8403  0.7159 -0.4534
   13CHTO   H61 5431   5.190   7.196   2.312  1.5005  0.1991 -1.0988
   13CHTO   O18 5432   5.245   7.235   2.503 -0.0765 -0.2073 -0.3103
   13CHTO   C28 5433   5.373   7.300   2.491 -0.4514  0.4484 -0.9796
   13CHTO   H56 5434   5.381   7.358   2.400  2.1483 -1.2845 -1.9064
   13CHTO   C35 5435   5.389   7.391   2.615  0.4856 -0.8694 -0.6816
   13CHTO   O24 5436   5.267   7.466   2.632  0.0284  0.1541  0.4338
   13CHTO   H39 5437   5.268   7.509   2.716 -0.1340  0.2495  0.3856
   13CHTO    O9 5438   5.075   7.075   2.441 -0.0782  0.7147 -0.1715
   13CHTO   C13 5439   5.065   6.984   2.597  0.0509  0.1779 -0.8050
   13CHTO   H26 5440   5.169   6.969   2.633 -0.1518  0.2873 -0.1635
   13CHTO   C11 5441   4.999   6.843   2.567 -0.0413  0.5796 -0.2470
   13CHTO   H24 5442   5.070   6.784   2.508 -1.1253  1.9971 -3.0320
   13CHTO    O8 5443   4.875   6.843   2.492  0.4397  0.0866  0.1656
   13CHTO    H3 5444   4.804   6.891   2.530 -1.1859 -0.2938 -2.3079
   13CHTO    C9 5445   4.975   6.772   2.704 -0.3509  0.2781  0.9669
   13CHTO   H22 5446   5.075   6.759   2.748 -0.0576  2.6988  1.0987
   13CHTO    N2 5447   4.937   6.631   2.678  0.9930  0.1054 -0.1575
   13CHTO   H10 5448   5.022   6.567   2.659  0.8016  0.5209 -2.5319
   13CHTO   H11 5449   4.862   6.582   2.740  1.3708 -2.2429 -1.4921
   13CHTO    C7 5450   4.882   6.858   2.803 -0.0704  0.2408  0.4908
   13CHTO   H20 5451   4.937   6.858   2.900  0.2779 -3.0017  0.3252
   13CHTO    O4 5452   4.867   6.993   2.753  0.7250 -0.1760 -0.5259
   13CHTO   C14 5453   4.982   7.066   2.703 -0.5044  0.0973  0.1482
   13CHTO   H27 5454   5.050   7.091   2.787 -1.9187 -0.1567  1.4062
   13CHTO   C18 5455   4.934   7.199   2.648  0.2865  0.6053  0.1075
   13CHTO   O13 5456   4.853   7.277   2.739  0.5345 -1.0340 -0.0317
   13CHTO    H7 5457   4.902   7.296   2.817 -0.2333  0.5154  0.0729
   13CHTO    O2 5458   4.738   6.795   2.813  0.3920  0.1019 -0.0319
   13CHTO    C1 5459   4.665   6.813   2.936 -0.1535 -0.2228 -1.1311
   13CHTO   H14 5460   4.675   6.919   2.969  1.6135 -0.6146 -0.3399
   13CHTO    C2 5461   4.709   6.722   3.059 -0.0877 -0.5827  0.0108
   13CHTO   H15 5462   4.694   6.616   3.032 -0.7182 -0.2342 -1.0465
   13CHTO    O6 5463   4.847   6.746   3.101 -0.1658  0.2209  0.2771
   13CHTO    H1 5464   4.903   6.676   3.070  0.2965  0.2008  1.1593
   13CHTO    C3 5465   4.610   6.743   3.180 -0.0140  0.3568  0.0335
   13CHTO   H16 5466   4.616   6.843   3.224  1.1654  0.9340 -1.3891
   13CHTO    N1 5467   4.635   6.654   3.301 -0.1925 -0.2151  0.0589
   13CHTO    H8 5468   4.653   6.551   3.275 -0.5382 -0.4674  0.8175
   13CHTO    H9 5469   4.725   6.690   3.350 -0.0233 -0.7518  0.1471
   13CHTO    C4 5470   4.460   6.727   3.135  0.5607 -0.3733  0.2629
   13CHTO   H17 5471   4.436   6.624   3.112 -0.1488  0.1478 -1.3604
   13CHTO    O1 5472   4.433   6.805   3.014  0.0215 -0.4694 -0.6683
   13CHTO    C5 5473   4.523   6.780   2.902  0.3467  0.6669  0.2996
   13CHTO   H18 5474   4.519   6.676   2.873 -1.3026  0.8416 -0.1826
   13CHTO   C16 5475   4.474   6.869   2.788 -0.2865 -0.1676 -0.1543
   13CHTO   O11 5476   4.351   6.825   2.728 -0.7373 -0.3326  0.7163
   13CHTO    H5 5477   4.330   6.881   2.655  0.3316 -0.5260  0.2589
   13CHTO    O3 5478   4.368   6.777   3.232  0.6392 -0.0063 -0.1125
   13CHTO    C6 5479   4.253   6.690   3.263 -0.3907  0.8159  0.3402
   13CHTO   H19 5480   4.237   6.614   3.187  3.2430  1.5729 -1.2531
   13CHTO    C8 5481   4.253   6.620   3.401  0.1634 -0.7539  0.3381
   13CHTO   H21 5482   4.280   6.696   3.474 -3.0611  1.0567 -0.2487
   13CHTO    O7 5483   4.349   6.514   3.396  0.5094 -0.1834 -0.2476
   13CHTO    H2 5484   4.436   6.540   3.373  1.5466 -3.0290  0.3215
   13CHTO   C12 5485   4.104   6.570   3.437  0.0121 -0.0307  0.6293
   13CHTO   H25 5486   4.080   6.487   3.367 -0.2124  0.1252  0.5217
   13CHTO    N3 5487   4.100   6.505   3.572 -0.3296  0.2214 -0.8550
   13CHTO   H12 5488   4.129   6.401   3.560  1.3248  0.5143  0.4760
   13CHTO   H13 5489   4.153   6.558   3.650 -0.2056  1.6167 -1.8726
   13CHTO   C15 5490   3.997   6.685   3.420 -0.2248 -0.2436  0.1404
   13CHTO   H28 5491   4.013   6.772   3.483 -0.6102 -0.1286  0.0821
   13CHTO   O10 5492   3.851   6.624   3.433 -0.5237  0.0138  0.6178
   13CHTO    H4 5493   3.829   6.550   3.380  0.2895  0.4160 -0.2765
   13CHTO    O5 5494   4.011   6.739   3.287  0.3138 -0.0871 -0.0674
   13CHTO   C10 5495   4.138   6.794   3.248  0.3844  0.8679  0.3758
   13CHTO   H23 5496   4.151   6.866   3.329 -0.1957  1.9891 -0.5014
   13CHTO   C17 5497   4.130   6.860   3.107  0.3077  0.3286  0.0487
   13CHTO   O12 5498   4.081   6.988   3.129  0.1499 -0.6823 -0.4578
   13CHTO    H6 5499   4.062   7.042   3.054  0.2227  0.5307  0.3750
   14CHTO  H203 5500   7.234   4.552   2.319 -0.7286 -1.8706 -2.1439
   14CHTO   O82 5501   7.148   4.586   2.338  0.6110  0.0129  0.9012
   14CHTO  C123 5502   7.069   4.600   2.219  0.1873  0.2922  0.3507
   14CHTO  H227 5503   7.121   4.668   2.149  1.2159 -3.4026 -2.6646
   14CHTO   O77 5504   7.068   4.462   2.160 -0.5191 -0.1188  0.2511
   14CHTO  C118 5505   6.978   4.458   2.053 -0.0290 -0.4884 -0.1604
   14CHTO  H222 5506   7.001   4.547   1.992 -0.3222 -1.1282 -1.2061
   14CHTO  C125 5507   6.986   4.318   1.967 -0.2778  0.1630  0.1840
   14CHTO   O84 5508   6.915   4.327   1.842  0.0527  0.3124 -0.1414
   14CHTO  H205 5509   6.944   4.395   1.785  0.3505 -0.2232 -0.6338
   14CHTO  C114 5510   6.833   4.480   2.104  0.4675  0.0706 -0.2308
   14CHTO  H218 5511   6.808   4.402   2.176 -0.5419  1.6294  1.1240
   14CHTO  C116 5512   6.806   4.619   2.157 -0.8151 -1.0603  0.1154
   14CHTO  H220 5513   6.782   4.695   2.079  0.1001 -0.1006  0.7626
   14CHTO   O79 5514   6.684   4.612   2.229 -0.1704  0.5824 -0.0442
   14CHTO  H201 5515   6.663   4.688   2.282 -1.6619  2.2165 -2.8685
   14CHTO  C120 5516   6.929   4.664   2.250 -0.2363  0.5133  0.2715
   14CHTO  H224 5517   6.899   4.628   2.350 -0.7946 -1.0312 -0.4294
   14CHTO   N21 5518   6.927   4.808   2.276 -0.6669 -0.5104 -0.1779
   14CHTO  H211 5519   6.945   4.826   2.381  0.8417 -1.0206 -0.3478
   14CHTO  H212 5520   7.003   4.854   2.216  1.2114 -1.3978  1.4679
   14CHTO   O75 5521   6.754   4.467   1.982  0.1197  0.0776  0.2333
   14CHTO  C112 5522   6.616   4.373   2.009  0.4196 -0.3623  0.7878
   14CHTO  H216 5523   6.575   4.402   2.108 -0.0527  1.5051  0.0777
   14CHTO   O73 5524   6.660   4.238   2.000 -0.1649 -0.6110  0.7327
   14CHTO  C113 5525   6.558   4.140   2.026 -0.8295  0.0044 -0.5598
   14CHTO  H217 5526   6.521   4.149   2.131 -0.4621  0.5420 -0.4705
   14CHTO  C124 5527   6.623   3.995   2.030  0.0599 -0.1168 -0.0456
   14CHTO   O83 5528   6.545   3.909   2.116  0.1625  0.0103 -0.7367
   14CHTO  H204 5529   6.576   3.821   2.107 -1.7552 -0.6498 -1.1972
   14CHTO  C109 5530   6.443   4.141   1.921  0.3010 -0.2548 -0.1818
   14CHTO  H213 5531   6.489   4.115   1.825 -1.5372  1.5825 -1.5995
   14CHTO  C110 5532   6.385   4.285   1.921  0.1085  0.4123  0.7823
   14CHTO  H214 5533   6.332   4.309   2.012 -0.7139  0.2430  0.3565
   14CHTO   O78 5534   6.292   4.278   1.807 -0.4089 -0.0811 -0.5284
   14CHTO  H200 5535   6.258   4.363   1.785 -0.9874  0.3457  1.9076
   14CHTO  C111 5536   6.500   4.387   1.895  0.1135 -0.2846  0.9358
   14CHTO  H215 5537   6.539   4.366   1.795  1.6839  1.1747  1.2152
   14CHTO   N19 5538   6.447   4.527   1.891 -0.3342 -0.1981 -0.0895
   14CHTO  H207 5539   6.387   4.538   1.802 -1.6489  0.5683  0.8763
   14CHTO  H208 5540   6.416   4.560   1.989  2.4966 -2.7494  1.7496
   14CHTO   O74 5541   6.338   4.046   1.952  0.5649 -0.2327  0.9275
   14CHTO  C115 5542   6.279   3.967   1.831  0.0992 -1.0004  0.1311
   14CHTO  H219 5543   6.319   3.999   1.735 -0.9572  0.2975  0.1154
   14CHTO   O76 5544   6.319   3.803   1.842 -0.4128  0.1457 -0.1579
   14CHTO  C122 5545   6.262   3.736   1.961 -0.6293  0.0244 -0.1643
   14CHTO  H226 5546   6.347   3.733   2.029  1.1144 -1.0725 -2.3137
   14CHTO  C126 5547   6.239   3.588   1.924 -0.7392 -0.1235  0.1395
   14CHTO   O85 5548   6.221   3.498   2.036  0.5099  0.3154 -0.6322
   14CHTO  H206 5549   6.306   3.459   2.037  0.2968 -0.1602 -1.1170
   14CHTO  C121 5550   6.123   3.807   2.014  0.0339  0.8104  0.0276
   14CHTO  H225 5551   6.063   3.725   2.059 -0.5240  1.4251  0.4065
   14CHTO   O81 5552   6.146   3.902   2.113 -0.1056 -0.3921  0.0515
   14CHTO  H202 5553   6.068   3.951   2.126  0.5606  0.6185  0.2961
   14CHTO  C119 5554   6.055   3.856   1.890 -0.0705  0.0271  0.3203
   14CHTO  H223 5555   6.066   3.778   1.814 -0.3323 -0.2563  0.5725
   14CHTO  C117 5556   6.126   3.983   1.822 -0.2031 -0.0411 -0.3054
   14CHTO  H221 5557   6.108   4.074   1.880  0.6065  0.2407 -0.4934
   14CHTO   N20 5558   6.068   3.997   1.683 -0.0729 -0.5844  0.4798
   14CHTO  H209 5559   6.140   3.962   1.610 -0.0881 -1.6234  0.9571
   14CHTO  H210 5560   5.976   3.943   1.671  0.6846 -1.6852 -0.5088
   14CHTO   O80 5561   5.898   3.848   1.925  0.1204  0.3844  0.1595
   14CHTO  C103 5562   5.780   3.860   1.804 -0.4107 -0.2389 -0.1422
   14CHTO  H190 5563   5.817   3.894   1.708  1.7191 -1.8080  0.0823
   14CHTO  C101 5564   5.711   3.720   1.774  0.3341  0.5560 -0.2697
   14CHTO  H188 5565   5.671   3.683   1.869  1.5411  1.8246  0.7588
   14CHTO   O68 5566   5.831   3.625   1.728 -0.1556 -0.6561 -0.0436
   14CHTO  H168 5567   5.900   3.613   1.791  0.3397  2.8851  0.1386
   14CHTO   C99 5568   5.603   3.738   1.669  0.8531 -1.1496 -1.0922
   14CHTO  H186 5569   5.633   3.782   1.572 -1.0866 -0.1810 -1.2824
   14CHTO   N17 5570   5.541   3.608   1.626  0.2614  0.0445 -0.1554
   14CHTO  H174 5571   5.500   3.634   1.530 -0.0732 -0.2376 -0.0864
   14CHTO  H175 5572   5.458   3.584   1.691 -1.2702  1.5054 -1.5124
   14CHTO   C97 5573   5.499   3.834   1.733 -0.0640  0.0440 -0.1772
   14CHTO  H184 5574   5.450   3.785   1.819 -1.6635 -0.2301 -1.2231
   14CHTO   O64 5575   5.552   3.963   1.766 -0.4816  0.4399  0.2858
   14CHTO  C104 5576   5.672   3.961   1.850  0.6397 -0.6754  0.6608
   14CHTO  H191 5577   5.647   3.929   1.951  3.4193 -2.7582  0.7427
   14CHTO  C108 5578   5.732   4.102   1.867 -0.2396  0.4702  1.4716
   14CHTO   O71 5579   5.830   4.100   1.972  0.2658 -0.2908  0.0371
   14CHTO  H171 5580   5.803   4.129   2.057  0.0725  0.6792 -0.3445
   14CHTO   O62 5581   5.410   3.895   1.640 -0.4961  0.6406  0.1331
   14CHTO   C91 5582   5.270   3.889   1.671 -0.2167  0.4233  0.4128
   14CHTO  H178 5583   5.256   3.798   1.730 -0.5873  1.1047  1.3949
   14CHTO   C92 5584   5.195   3.869   1.534  0.0103  0.3021  0.2668
   14CHTO  H179 5585   5.243   3.786   1.479  0.6073  1.2922 -0.7234
   14CHTO   O66 5586   5.067   3.811   1.555 -0.1386  0.0924 -0.5432
   14CHTO  H166 5587   5.080   3.718   1.551 -0.2425  0.0375  0.2036
   14CHTO   C93 5588   5.189   4.004   1.453  0.1675  0.0138  0.3559
   14CHTO  H180 5589   5.100   3.988   1.390  1.3530  0.1697 -1.3728
   14CHTO   N16 5590   5.300   4.026   1.357  0.4480  0.7188  0.7129
   14CHTO  H172 5591   5.399   4.040   1.399 -0.0302  1.9058  1.4972
   14CHTO  H173 5592   5.302   3.947   1.284 -0.5539  2.7254 -1.5866
   14CHTO   C94 5593   5.164   4.130   1.546  0.4283  0.1463  0.3118
   14CHTO  H181 5594   5.252   4.193   1.553  1.0222 -0.4655 -1.5485
   14CHTO   O61 5595   5.124   4.096   1.674 -0.0859 -0.0252 -0.2992
   14CHTO   C95 5596   5.226   4.020   1.744  0.6867 -0.1079 -0.0265
   14CHTO  H182 5597   5.319   4.076   1.756  0.8450  0.0179 -1.7072
   14CHTO  C106 5598   5.182   3.984   1.896  0.0217  0.4352 -0.1805
   14CHTO   O69 5599   5.289   3.921   1.969 -0.3152 -0.3093 -0.2062
   14CHTO  H169 5600   5.309   3.841   1.925  1.1575 -0.4438  0.6808
   14CHTO   O63 5601   5.060   4.211   1.496 -0.4517  0.3649  0.6516
   14CHTO   C96 5602   5.083   4.374   1.465 -0.4204 -0.1906 -0.3110
   14CHTO  H183 5603   4.985   4.410   1.432 -1.0421 -0.9570  0.6678
   14CHTO   C98 5604   5.192   4.432   1.371 -0.0046  0.1337  0.6480
   14CHTO  H185 5605   5.292   4.401   1.406 -0.4631  0.0373  1.8780
   14CHTO   O67 5606   5.165   4.359   1.250  0.1548  0.7888 -0.1289
   14CHTO  H167 5607   5.181   4.267   1.261 -1.9494  0.4691  0.3753
   14CHTO  C102 5608   5.187   4.592   1.353  0.0755  0.1625  0.1672
   14CHTO  H189 5609   5.090   4.615   1.306  0.6077 -1.1309 -1.6135
   14CHTO   N18 5610   5.289   4.650   1.258  0.3357 -0.0724 -0.1328
   14CHTO  H176 5611   5.250   4.740   1.212 -2.2659 -0.2773  1.5717
   14CHTO  H177 5612   5.384   4.672   1.303  1.2396 -0.2572 -1.8928
   14CHTO  C105 5613   5.190   4.648   1.500 -0.1839  0.3678  0.6549
   14CHTO  H192 5614   5.281   4.613   1.549  0.2272  1.3269  0.5919
   14CHTO   O65 5615   5.089   4.589   1.579 -0.3054  0.4775  0.1935
   14CHTO  C100 5616   5.109   4.450   1.600  0.3369 -0.0338 -0.2397
   14CHTO  H187 5617   5.211   4.418   1.629  0.1645 -0.7308 -0.3990
   14CHTO  C107 5618   5.011   4.408   1.717 -1.5118 -0.4858 -0.3144
   14CHTO   O70 5619   4.878   4.436   1.693 -0.0100 -0.4586 -0.0227
   14CHTO  H170 5620   4.823   4.381   1.747 -0.0205  0.3707  0.8237
   14CHTO   O57 5621   5.190   4.802   1.506 -0.2877 -0.1903 -0.0665
   14CHTO   C85 5622   5.078   4.883   1.479 -0.7230  0.3992 -0.2542
   14CHTO  H157 5623   5.003   4.809   1.445  0.1567 -0.3232 -0.6669
   14CHTO   C83 5624   5.098   4.979   1.360  0.1275  0.3814 -0.0447
   14CHTO  H155 5625   5.122   4.923   1.269 -1.1702 -0.5496  0.1574
   14CHTO   O56 5626   5.215   5.059   1.385  0.4287  0.2235 -0.3322
   14CHTO  H135 5627   5.222   5.098   1.470  1.9843  0.5490 -0.5901
   14CHTO   C81 5628   4.980   5.070   1.332  0.1902 -0.0101 -0.0109
   14CHTO  H153 5629   4.892   5.006   1.321  0.1967  0.3192 -2.1062
   14CHTO   N14 5630   5.000   5.155   1.213  0.5283  0.3707 -0.2285
   14CHTO  H141 5631   4.952   5.251   1.217  0.4255  0.4737 -2.6639
   14CHTO  H142 5632   4.967   5.107   1.123 -2.6406  0.4291  0.8461
   14CHTO   C79 5633   4.955   5.165   1.463  0.1686 -0.1751  0.2769
   14CHTO  H151 5634   4.861   5.220   1.452 -0.4405 -1.2244  0.1185
   14CHTO   O52 5635   4.940   5.078   1.586  0.7237 -0.0187 -0.1062
   14CHTO   C86 5636   5.027   4.965   1.601 -0.1839  0.7079  0.0393
   14CHTO  H158 5637   5.114   5.012   1.650 -1.3520  1.6292  1.2900
   14CHTO   C90 5638   4.955   4.882   1.707  0.9062  0.0349 -0.6783
   14CHTO   O60 5639   4.955   4.941   1.836  0.2625  0.1128  0.3860
   14CHTO  H138 5640   4.910   5.023   1.829  0.4586  0.1992  0.1820
   14CHTO   O50 5641   5.056   5.263   1.489  0.3374  0.3185 -0.0241
   14CHTO   C73 5642   5.057   5.399   1.534 -0.8357 -0.6623  0.4438
   14CHTO  H145 5643   4.969   5.418   1.598 -0.5411 -0.1864  0.7110
   14CHTO   C74 5644   5.054   5.496   1.410 -0.1290  0.2023 -0.5333
   14CHTO  H146 5645   4.966   5.484   1.346 -0.4710 -0.7294  0.1033
   14CHTO   O54 5646   5.053   5.620   1.477  0.0089 -0.1870  0.1541
   14CHTO  H133 5647   4.974   5.622   1.527 -1.2846  0.0825 -1.8532
   14CHTO   C75 5648   5.190   5.478   1.330 -0.4096 -0.6661  0.9527
   14CHTO  H147 5649   5.197   5.376   1.291 -0.6803 -0.9878  1.7280
   14CHTO   N13 5650   5.198   5.557   1.204 -0.4969  0.7360 -0.9132
   14CHTO  H139 5651   5.193   5.498   1.113 -0.7829  0.2557 -0.5909
   14CHTO  H140 5652   5.143   5.650   1.198  1.0402  1.6984 -0.2859
   14CHTO   C76 5653   5.308   5.503   1.431  0.0256 -0.2828 -0.2592
   14CHTO  H148 5654   5.323   5.608   1.457  0.4089 -1.0041  2.6513
   14CHTO   O49 5655   5.304   5.421   1.556  0.6648  0.2414 -0.8937
   14CHTO   C77 5656   5.178   5.420   1.628  0.1002  0.6003 -0.1701
   14CHTO  H149 5657   5.166   5.514   1.683  2.6493 -0.4927  2.3829
   14CHTO   C88 5658   5.195   5.313   1.735 -0.3361  0.4866 -0.0435
   14CHTO   O58 5659   5.053   5.290   1.810  0.3799  0.5811  0.3820
   14CHTO  H136 5660   5.049   5.221   1.874 -2.2157 -1.7343 -2.1142
   14CHTO   O51 5661   5.440   5.448   1.352  0.4263 -0.1052 -0.3721
   14CHTO   C78 5662   5.562   5.484   1.379 -0.4815  0.2996  0.2749
   14CHTO  H150 5663   5.571   5.540   1.474 -0.3413 -1.0911  1.1022
   14CHTO   C80 5664   5.627   5.560   1.268  0.1861 -0.9449  0.2194
   14CHTO  H152 5665   5.613   5.509   1.171 -0.3171 -1.6234  0.6440
   14CHTO   O55 5666   5.538   5.672   1.258 -0.0251 -0.1114 -0.0721
   14CHTO  H134 5667   5.559   5.727   1.185 -0.9213  1.0991  0.5569
   14CHTO   C84 5668   5.778   5.602   1.280 -0.4131 -0.5918 -0.1414
   14CHTO  H156 5669   5.787   5.680   1.356  1.2798  2.7629 -3.6467
   14CHTO   N15 5670   5.831   5.676   1.165 -0.2412  0.0629 -0.8580
   14CHTO  H143 5671   5.819   5.622   1.073 -1.2842  0.5697 -1.0241
   14CHTO  H144 5672   5.798   5.777   1.158 -0.2012  0.2041  0.8267
   14CHTO   C87 5673   5.858   5.468   1.306  0.1454  0.0103 -0.3477
   14CHTO  H159 5674   5.869   5.405   1.218  1.5468  0.7951 -0.7451
   14CHTO   O53 5675   5.781   5.378   1.434  0.1687 -0.6757 -0.5403
   14CHTO   C82 5676   5.641   5.356   1.414 -0.1685 -0.0274  0.5607
   14CHTO  H154 5677   5.625   5.285   1.333  1.1596  1.1699 -0.7730
   14CHTO   C89 5678   5.580   5.294   1.548  0.5444 -0.4174  0.1394
   14CHTO   O59 5679   5.631   5.160   1.565 -0.0879 -0.2066  0.3462
   14CHTO  H137 5680   5.693   5.140   1.633  0.1542  0.1215  0.2236
   14CHTO   O45 5681   6.012   5.505   1.357  0.3591  0.4862  0.0052
   14CHTO   C67 5682   6.105   5.396   1.329  0.1597  0.4660 -0.4448
   14CHTO  H124 5683   6.041   5.309   1.343 -0.5005  0.7600 -1.5981
   14CHTO   C65 5684   6.159   5.407   1.188  0.3511  0.3612  0.2824
   14CHTO  H122 5685   6.074   5.440   1.129 -1.1093  0.3031  2.3100
   14CHTO   O44 5686   6.215   5.281   1.146 -0.1618  0.1098  0.2755
   14CHTO  H102 5687   6.305   5.273   1.171 -0.2600  0.4634  0.7593
   14CHTO   C63 5688   6.254   5.530   1.175 -0.0228  1.0151  0.4629
   14CHTO  H120 5689   6.195   5.621   1.190  0.8580  1.4743  1.2372
   14CHTO   N11 5690   6.298   5.566   1.036  0.1818  0.3432  0.1109
   14CHTO  H108 5691   6.388   5.624   1.038 -0.0130  0.7202 -1.3383
   14CHTO  H109 5692   6.320   5.471   0.992  2.2077  0.5085  0.7575
   14CHTO   C61 5693   6.371   5.523   1.284 -0.3146 -0.4326 -0.0467
   14CHTO  H118 5694   6.408   5.626   1.298 -0.2399 -0.6929  1.8132
   14CHTO   O40 5695   6.320   5.484   1.415  0.3417 -0.0656 -0.8025
   14CHTO   C68 5696   6.213   5.395   1.437  0.1131  0.8141  0.6969
   14CHTO  H125 5697   6.156   5.424   1.527  0.3954  1.0477  0.8016
   14CHTO   C72 5698   6.254   5.246   1.450  0.0256 -0.0288 -0.5678
   14CHTO   O48 5699   6.331   5.216   1.569  0.0697  0.1527 -0.2726
   14CHTO  H105 5700   6.386   5.143   1.549  0.4888 -0.0055  1.3850
   14CHTO   O38 5701   6.477   5.433   1.240  0.1143 -0.2461  0.2575
   14CHTO   C55 5702   6.610   5.474   1.200  0.4208  0.0885  0.2722
   14CHTO  H112 5703   6.610   5.583   1.184  1.2181  0.0255 -0.1901
   14CHTO   C56 5704   6.653   5.395   1.063  0.3488 -0.1235  1.0143
   14CHTO  H113 5705   6.651   5.286   1.079 -1.1185 -0.2386  0.1129
   14CHTO   O42 5706   6.564   5.420   0.954 -0.3496 -0.5729  0.2342
   14CHTO  H100 5707   6.579   5.504   0.915 -0.2950 -1.1075 -0.9101
   14CHTO   C57 5708   6.796   5.435   1.017 -0.4877 -1.0206 -0.6388
   14CHTO  H114 5709   6.789   5.537   0.979 -0.0910 -0.9070 -0.4098
   14CHTO   N10 5710   6.863   5.366   0.905  0.5341  0.2057  0.1670
   14CHTO  H106 5711   6.931   5.429   0.850  0.5777 -0.0191 -0.0427
   14CHTO  H107 5712   6.918   5.283   0.948 -1.3162 -0.7002  0.8621
   14CHTO   C58 5713   6.892   5.430   1.144  0.4040 -0.3569  0.0394
   14CHTO  H115 5714   6.908   5.326   1.181  2.5521 -0.1394 -0.2067
   14CHTO   O37 5715   6.833   5.505   1.250 -0.3706  0.2013 -0.3254
   14CHTO   C59 5716   6.711   5.450   1.308  0.1781 -0.1352  0.4863
   14CHTO  H116 5717   6.721   5.343   1.329 -0.0896  0.0444  1.5403
   14CHTO   C70 5718   6.680   5.528   1.439 -0.1711 -0.6641  0.2118
   14CHTO   O46 5719   6.614   5.439   1.531 -0.1528 -0.6351 -0.5757
   14CHTO  H103 5720   6.589   5.483   1.611  0.6351  0.9365 -1.1681
   14CHTO   O39 5721   7.039   5.502   1.108 -0.0181 -0.0283 -0.4432
   14CHTO   C60 5722   7.152   5.485   1.198 -0.0654 -0.6104 -0.5154
   14CHTO  H117 5723   7.118   5.519   1.296 -1.3560  0.2948 -1.2600
   14CHTO   C62 5724   7.196   5.336   1.196 -0.2474 -0.6717 -0.0434
   14CHTO  H119 5725   7.128   5.279   1.264  1.8155 -1.0052  1.8081
   14CHTO   O43 5726   7.196   5.273   1.061  0.4650  0.3572  0.6510
   14CHTO  H101 5727   7.208   5.181   1.076 -0.1027  0.2289  0.3274
   14CHTO   C66 5728   7.346   5.324   1.262  0.6935  0.0340  0.8781
   14CHTO  H123 5729   7.335   5.344   1.369  1.1657 -2.0289  1.3376
   14CHTO   N12 5730   7.399   5.186   1.253 -0.4432 -0.6093  0.2452
   14CHTO  H110 5731   7.393   5.135   1.158 -1.5272 -0.4237  0.1982
   14CHTO  H111 5732   7.482   5.177   1.320  0.1554  0.7479 -0.2945
   14CHTO   C69 5733   7.448   5.416   1.194  0.3296  0.0762  0.3315
   14CHTO  H126 5734   7.454   5.392   1.085  0.7504 -1.6734  0.7133
   14CHTO   O41 5735   7.395   5.547   1.218 -0.2013  0.9163  0.3594
   14CHTO   C64 5736   7.262   5.582   1.155  0.6358 -0.4082  1.1251
   14CHTO  H121 5737   7.273   5.579   1.044 -1.1307 -3.0867  0.9727
   14CHTO   C71 5738   7.214   5.730   1.192  0.0209 -0.4776  0.0952
   14CHTO   O47 5739   7.321   5.828   1.177 -0.2962 -0.0226  0.0411
   14CHTO  H104 5740   7.304   5.876   1.256 -0.6707  0.9317 -0.6219
   14CHTO   O34 5741   7.602   5.405   1.270 -0.3861  0.0927  0.2076
   14CHTO   C49 5742   7.726   5.470   1.246 -0.6358  0.0640  0.6920
   14CHTO   H91 5743   7.764   5.436   1.150 -0.4969  0.2720  0.6737
   14CHTO   C47 5744   7.823   5.426   1.357 -0.0494 -0.7980 -0.8284
   14CHTO   H89 5745   7.926   5.455   1.329  0.3942 -0.4811  1.0310
   14CHTO   O33 5746   7.819   5.282   1.373 -0.1729  0.2680  0.0195
   14CHTO   H70 5747   7.874   5.241   1.309 -0.5071 -1.7702  0.9985
   14CHTO   C45 5748   7.777   5.490   1.499  0.1285  0.2723  0.4810
   14CHTO   H87 5749   7.709   5.422   1.553  0.3134 -0.9894 -0.8589
   14CHTO    N8 5750   7.900   5.505   1.576 -0.6062 -0.0231 -0.8160
   14CHTO   H75 5751   7.909   5.444   1.664 -1.3292 -1.0904 -1.4599
   14CHTO   H76 5752   7.899   5.608   1.607  2.3671  0.4112 -2.0580
   14CHTO   C43 5753   7.686   5.631   1.474  0.2936 -0.4929 -0.3683
   14CHTO   H85 5754   7.590   5.584   1.456 -1.4658  2.4975  0.8395
   14CHTO   O29 5755   7.732   5.700   1.354 -0.2795 -0.3761  0.2985
   14CHTO   C50 5756   7.724   5.622   1.233 -0.0122 -0.2213  0.3088
   14CHTO   H92 5757   7.631   5.651   1.181 -1.4205 -1.5990  1.9907
   14CHTO   C54 5758   7.842   5.673   1.138 -0.3778 -0.9266 -0.1760
   14CHTO   O36 5759   7.837   5.816   1.131 -0.3414  1.0590  0.0893
   14CHTO   H72 5760   7.925   5.848   1.133 -0.1432  0.7140 -1.9375
   14CHTO   O27 5761   7.668   5.712   1.594  0.3068  0.6875  0.3532
   14CHTO   C37 5762   7.572   5.785   1.663 -0.1411  0.7072  0.1137
   14CHTO   H79 5763   7.619   5.848   1.740  2.0441 -0.5646 -0.1574
   14CHTO   C38 5764   7.498   5.880   1.566  0.2939  0.0877 -0.5466
   14CHTO   H80 5765   7.456   5.820   1.485 -0.2226 -1.5011  0.8721
   14CHTO   O31 5766   7.596   5.969   1.504  0.0671  0.0107  0.3316
   14CHTO   H68 5767   7.677   5.922   1.497  0.2130 -0.5562  4.3001
   14CHTO   C39 5768   7.371   5.942   1.638  0.7795  0.3172 -0.4062
   14CHTO   H81 5769   7.409   6.001   1.721  1.2799 -1.4885  0.6663
   14CHTO    N7 5770   7.288   6.031   1.547  0.2149 -0.5846 -0.3001
   14CHTO   H73 5771   7.243   6.114   1.598 -1.3125 -0.3218 -2.0231
   14CHTO   H74 5772   7.204   5.993   1.491 -0.0916 -0.2386 -0.0741
   14CHTO   C40 5773   7.286   5.838   1.710  0.3188 -0.3581  0.1720
   14CHTO   H82 5774   7.240   5.775   1.633 -0.0152 -0.2788  0.3077
   14CHTO   O26 5775   7.371   5.760   1.803  0.1071 -0.0802 -0.2182
   14CHTO   C41 5776   7.473   5.684   1.731  0.3256 -0.8154 -0.6475
   14CHTO   H83 5777   7.427   5.631   1.646 -1.8294  2.1630 -1.4205
   14CHTO   C52 5778   7.533   5.590   1.838  0.2320  0.2504  0.2274
   14CHTO   O35 5779   7.598   5.499   1.777 -0.3032 -0.5589 -0.3229
   14CHTO   H71 5780   7.662   5.452   1.827  0.1797  0.5143  0.0793
   14CHTO   O28 5781   7.196   5.899   1.801  0.4668 -0.2735 -0.0317
   14CHTO   C42 5782   7.059   5.853   1.826  1.0375  0.4296 -0.1613
   14CHTO   H84 5783   7.048   5.866   1.934 -0.2892 -0.6640 -0.1487
   14CHTO   C44 5784   7.023   5.706   1.789  0.3677 -0.0431  0.2706
   14CHTO   H86 5785   7.017   5.697   1.681  0.4456  3.5151 -0.0975
   14CHTO   O32 5786   7.128   5.618   1.845  0.0203  0.4785 -0.0343
   14CHTO   H69 5787   7.128   5.624   1.939 -3.8713  1.4352 -0.0143
   14CHTO   C48 5788   6.881   5.679   1.843  0.1843  0.8893 -0.3101
   14CHTO   H90 5789   6.870   5.689   1.951 -1.0390 -2.4895 -0.0422
   14CHTO    N9 5790   6.842   5.535   1.816 -0.5513 -0.3408  0.6726
   14CHTO   H77 5791   6.796   5.530   1.719  1.1395  0.2849 -0.1782
   14CHTO   H78 5792   6.933   5.477   1.819 -0.5035 -0.2335  1.2704
   14CHTO   C51 5793   6.780   5.781   1.778  0.3771  0.4426  0.4784
   14CHTO   H93 5794   6.786   5.758   1.672  1.4085  0.5270  0.5112
   14CHTO   O30 5795   6.823   5.911   1.806  0.1496 -0.5080  0.4729
   14CHTO   C46 5796   6.958   5.943   1.757  0.3987 -0.9677  0.3287
   14CHTO   H88 5797   6.960   5.940   1.648  0.0310 -0.5081  0.3090
   14CHTO   C53 5798   6.976   6.094   1.802 -0.1591 -0.8283 -0.2030
   14CHTO   O72 5799   6.965   6.118   1.944 -0.1619  0.4964 -0.2749
   14CHTO  H199 5800   6.878   6.098   1.971 -0.2536  0.9773 -0.1978
   14CHTO   O22 5801   6.653   5.765   1.831  0.2086  0.1041 -0.0529
   14CHTO   C31 5802   6.528   5.739   1.764  0.5010  0.5476  0.4670
   14CHTO   H59 5803   6.555   5.678   1.675  1.0668 -0.1730  1.1244
   14CHTO   C29 5804   6.426   5.654   1.847 -0.6355  0.2244 -0.1854
   14CHTO   H57 5805   6.382   5.723   1.921  0.5006 -2.2423  2.9182
   14CHTO   O21 5806   6.492   5.553   1.924 -0.2367  0.1333 -0.3592
   14CHTO   H37 5807   6.472   5.576   2.012  1.4908  1.4514 -0.3060
   14CHTO   C27 5808   6.313   5.598   1.756 -0.3484  0.0846  0.3780
   14CHTO   H55 5809   6.363   5.541   1.676  0.6252  0.3593  0.7853
   14CHTO    N5 5810   6.214   5.510   1.828 -0.0275 -0.5414  0.1590
   14CHTO   H43 5811   6.210   5.429   1.757  0.8979  0.0183 -0.5456
   14CHTO   H44 5812   6.251   5.473   1.922  0.2812 -2.4578 -0.6949
   14CHTO   C25 5813   6.240   5.721   1.695 -0.1613 -0.0263  0.7955
   14CHTO   H53 5814   6.181   5.777   1.769 -0.2496  1.4313 -0.3621
   14CHTO   O17 5815   6.330   5.824   1.648  0.0139 -0.6987 -0.1896
   14CHTO   C32 5816   6.459   5.865   1.707  0.0827  0.2526 -0.2460
   14CHTO   H60 5817   6.454   5.942   1.784  0.9637  2.4672 -2.3249
   14CHTO   C36 5818   6.547   5.933   1.603  0.2717  0.5399 -0.9649
   14CHTO   O25 5819   6.556   5.861   1.477 -0.2820 -0.6212 -0.5134
   14CHTO   H40 5820   6.471   5.865   1.439 -1.0975 -2.0619  1.0908
   14CHTO   O15 5821   6.145   5.684   1.592 -0.2098  0.4195  0.1062
   14CHTO   C19 5822   6.014   5.750   1.573  0.1827  0.5771  0.5913
   14CHTO   H47 5823   5.970   5.709   1.481  0.8763 -0.8789  0.8789
   14CHTO   C20 5824   5.908   5.732   1.687 -0.7393 -0.0865 -0.3640
   14CHTO   H48 5825   5.947   5.765   1.785  0.9358 -2.0647 -0.3259
   14CHTO   O19 5826   5.893   5.591   1.704  0.5817  0.7400  0.1128
   14CHTO   H35 5827   5.917   5.563   1.790  1.4249 -1.8649 -0.9168
   14CHTO   C21 5828   5.773   5.800   1.652  0.3994  0.0360  0.0772
   14CHTO   H49 5829   5.735   5.758   1.559  0.5673 -2.6298  1.1503
   14CHTO    N4 5830   5.662   5.780   1.749 -0.3746 -0.1363 -0.0911
   14CHTO   H41 5831   5.695   5.743   1.845 -1.3702 -1.1489 -0.1327
   14CHTO   H42 5832   5.575   5.725   1.718 -0.6820 -0.4132  1.2250
   14CHTO   C22 5833   5.797   5.950   1.624  0.4813  0.3776 -0.5109
   14CHTO   H50 5834   5.827   6.013   1.708 -0.9122  1.3964 -0.7630
   14CHTO   O14 5835   5.903   5.962   1.517  0.2948  0.1359 -0.2380
   14CHTO   C23 5836   6.034   5.904   1.542  0.3613 -0.5614  0.0029
   14CHTO   H51 5837   6.076   5.958   1.628 -1.7747  0.1850  0.6107
   14CHTO   C34 5838   6.121   5.937   1.422  0.4244  0.5039 -0.0069
   14CHTO   O23 5839   6.161   6.076   1.437 -0.3686  0.0647  0.3213
   14CHTO   H38 5840   6.130   6.122   1.362  2.0202 -0.1388 -0.8080
   14CHTO   O16 5841   5.700   6.023   1.546  0.1455 -0.2134  0.3913
   14CHTO   C24 5842   5.642   6.168   1.561 -0.4170 -0.0625 -0.2580
   14CHTO   H52 5843   5.614   6.215   1.467 -0.5090 -1.1966 -0.8108
   14CHTO   C26 5844   5.735   6.268   1.639  0.0448 -0.7749 -0.3569
   14CHTO   H54 5845   5.756   6.228   1.741 -0.6802 -0.3546 -0.0409
   14CHTO   O20 5846   5.865   6.243   1.575 -0.0607 -0.1381  0.3738
   14CHTO   H36 5847   5.912   6.322   1.560  0.4525 -0.5364 -0.1235
   14CHTO   C30 5848   5.685   6.417   1.637  0.1491  0.2459  0.8660
   14CHTO   H58 5849   5.667   6.445   1.532  0.8682 -2.3782  0.0159
   14CHTO    N6 5850   5.770   6.523   1.704 -0.6872  0.4106 -0.0127
   14CHTO   H45 5851   5.870   6.483   1.711 -0.3113  1.4635  0.7110
   14CHTO   H46 5852   5.776   6.613   1.646 -1.3706  0.6768  0.3186
   14CHTO   C33 5853   5.549   6.407   1.712 -0.5850  1.1493  0.1712
   14CHTO   H61 5854   5.573   6.384   1.817 -0.3029 -0.1799 -0.1815
   14CHTO   O18 5855   5.458   6.302   1.662 -0.2163 -0.5105 -0.7714
   14CHTO   C28 5856   5.509   6.166   1.644  0.2177  0.6505 -0.4057
   14CHTO   H56 5857   5.521   6.118   1.741 -0.5071 -2.7155 -1.9077
   14CHTO   C35 5858   5.404   6.098   1.557 -0.0225 -0.0975  0.2879
   14CHTO   O24 5859   5.410   5.955   1.531 -0.3093  0.0838  0.5021
   14CHTO   H39 5860   5.324   5.928   1.503 -0.9161 -0.0634  2.4447
   14CHTO    O9 5861   5.482   6.532   1.723  0.2367  0.5310  0.7647
   14CHTO   C13 5862   5.373   6.536   1.840 -0.4298 -0.2217  0.0699
   14CHTO   H26 5863   5.403   6.463   1.918 -1.3792 -0.2655  0.4032
   14CHTO   C11 5864   5.224   6.513   1.793  0.2620  0.4329  0.2124
   14CHTO   H24 5865   5.207   6.404   1.794 -1.2116  0.6521  1.9485
   14CHTO    O8 5866   5.205   6.575   1.662  0.5571 -0.1887 -0.1771
   14CHTO    H3 5867   5.117   6.557   1.637  0.4100  0.6493 -0.2716
   14CHTO    C9 5868   5.127   6.568   1.894  0.2250  0.3603  0.1677
   14CHTO   H22 5869   5.152   6.518   1.989  0.8527 -0.9065 -0.6632
   14CHTO    N2 5870   4.987   6.519   1.879 -0.4827  0.3882 -0.1005
   14CHTO   H10 5871   4.988   6.412   1.863 -2.7444  0.2993  0.1646
   14CHTO   H11 5872   4.923   6.564   1.953 -0.6788 -1.6921  1.0394
   14CHTO    C7 5873   5.146   6.723   1.917  0.3205  0.1461  0.2387
   14CHTO   H20 5874   5.142   6.732   2.027  0.1153  0.6157  0.1913
   14CHTO    O4 5875   5.278   6.764   1.882 -0.3132  0.0561 -0.1940
   14CHTO   C14 5876   5.389   6.672   1.920  0.8462 -1.0153  0.1087
   14CHTO   H27 5877   5.389   6.657   2.030  1.0468 -1.2127  0.0812
   14CHTO   C18 5878   5.520   6.752   1.882  0.0230  0.6552  0.2953
   14CHTO   O13 5879   5.633   6.697   1.947  0.1112  0.2775  0.0778
   14CHTO    H7 5880   5.645   6.604   1.942 -1.8496 -0.0020  0.3294
   14CHTO    O2 5881   5.027   6.824   1.834 -0.7279  0.1184 -0.4617
   14CHTO    C1 5882   5.003   6.955   1.880  0.2798  0.5737 -0.0392
   14CHTO   H14 5883   4.920   6.996   1.818 -0.7844 -2.4988 -0.7463
   14CHTO    C2 5884   5.129   7.057   1.865 -0.0824  0.5699  0.0978
   14CHTO   H15 5885   5.208   7.018   1.930  1.4777  3.5056 -0.0012
   14CHTO    O6 5886   5.170   7.049   1.731 -0.0386 -0.3457  0.8097
   14CHTO    H1 5887   5.128   7.117   1.682 -1.3704  0.0287  2.4325
   14CHTO    C3 5888   5.092   7.204   1.917  0.0725  0.4850 -0.6227
   14CHTO   H16 5889   5.016   7.250   1.852 -0.7352  0.3960  0.2553
   14CHTO    N1 5890   5.211   7.292   1.911  0.3341  0.3942  0.1446
   14CHTO    H8 5891   5.203   7.354   1.823 -0.8205 -1.1656 -0.9032
   14CHTO    H9 5892   5.302   7.236   1.924 -0.0814 -0.4968 -0.6799
   14CHTO    C4 5893   5.021   7.198   2.060  0.2832 -0.8327 -0.5498
   14CHTO   H17 5894   5.093   7.200   2.141 -0.2309 -1.0454 -0.0851
   14CHTO    O1 5895   4.920   7.101   2.072 -0.2110 -0.4611  0.0650
   14CHTO    C5 5896   4.956   6.967   2.031 -0.6122 -0.3135 -0.2869
   14CHTO   H18 5897   5.039   6.935   2.092 -2.1430 -0.7340  1.6143
   14CHTO   C16 5898   4.843   6.874   2.060 -0.0223 -0.1353  0.1864
   14CHTO   O11 5899   4.812   6.862   2.200 -0.0378  0.2148  0.2265
   14CHTO    H5 5900   4.890   6.838   2.245 -0.0516 -1.0344 -0.3853
   14CHTO    O3 5901   4.944   7.317   2.088  0.3833  0.2529 -0.3280
   14CHTO    C6 5902   4.944   7.377   2.225  0.3938 -0.3216 -0.3415
   14CHTO   H19 5903   5.001   7.318   2.298 -1.4929  1.4631  2.7031
   14CHTO    C8 5904   5.012   7.519   2.234 -0.3818  0.4732 -0.0977
   14CHTO   H21 5905   4.952   7.587   2.173 -1.9287 -0.1864  0.6623
   14CHTO    O7 5906   5.152   7.493   2.192 -0.0626  0.0188 -0.6038
   14CHTO    H2 5907   5.177   7.567   2.141  2.9171  0.0654  0.7972
   14CHTO   C12 5908   5.005   7.578   2.382  0.1193 -0.2842 -0.2999
   14CHTO   H25 5909   5.075   7.516   2.442 -1.5716 -0.0632  1.9629
   14CHTO    N3 5910   5.051   7.724   2.393  0.1390  0.2462  0.4260
   14CHTO   H12 5911   5.158   7.730   2.382  0.0502  2.2703  0.5381
   14CHTO   H13 5912   5.027   7.757   2.493  0.5567 -3.4603  1.8240
   14CHTO   C15 5913   4.854   7.547   2.440  0.1408 -0.0944 -0.4612
   14CHTO   H28 5914   4.785   7.622   2.401  0.8021 -0.7227 -2.9142
   14CHTO   O10 5915   4.853   7.540   2.585  0.0593  0.2893  0.6124
   14CHTO    H4 5916   4.881   7.625   2.615 -1.8759  0.9886  0.5224
   14CHTO    O5 5917   4.791   7.418   2.416  0.6238  0.0772  0.2398
   14CHTO   C10 5918   4.792   7.385   2.274  0.2454  0.1553  0.3836
   14CHTO   H23 5919   4.742   7.460   2.212 -0.8093 -1.0220 -0.2096
   14CHTO   C17 5920   4.717   7.252   2.254 -0.0658  0.2061  0.1014
   14CHTO   O12 5921   4.754   7.131   2.320  0.5982 -0.9930  0.4474
   14CHTO    H6 5922   4.809   7.158   2.391 -0.3831 -1.2665  1.3287
   15CHTO  H203 5923   7.763   4.610   1.806 -2.1363  0.2468  1.0648
   15CHTO   O82 5924   7.754   4.519   1.826  0.7442 -0.3570 -0.0686
   15CHTO  C123 5925   7.697   4.457   1.715 -0.4251  0.1920 -0.2560
   15CHTO  H227 5926   7.722   4.350   1.714 -2.0263 -0.1970 -1.5535
   15CHTO   O77 5927   7.559   4.480   1.740  0.3895 -0.2968 -0.0512
   15CHTO  C118 5928   7.467   4.419   1.647  0.0901 -0.5286  0.0700
   15CHTO  H222 5929   7.480   4.310   1.650 -2.2489 -0.8517 -0.5348
   15CHTO  C125 5930   7.319   4.461   1.693 -0.1942  0.1263  0.3620
   15CHTO   O84 5931   7.307   4.427   1.826  0.0708 -0.2939 -0.1456
   15CHTO  H205 5932   7.319   4.503   1.879  1.4953 -0.1661 -0.6173
   15CHTO  C114 5933   7.491   4.484   1.507  0.0662  0.2296  0.8639
   15CHTO  H218 5934   7.472   4.590   1.523 -0.7781  0.2337 -0.0950
   15CHTO  C116 5935   7.640   4.462   1.465  0.9731  0.3495  0.4739
   15CHTO  H220 5936   7.654   4.355   1.441 -3.4860  0.1688 -1.9839
   15CHTO   O79 5937   7.658   4.519   1.328 -0.0360 -0.4623  0.0298
   15CHTO  H201 5938   7.659   4.457   1.258  0.7559  0.3699 -0.7122
   15CHTO  C120 5939   7.737   4.524   1.575 -0.1868  0.2089  0.4042
   15CHTO  H224 5940   7.718   4.633   1.585 -0.1181  0.1943  0.6916
   15CHTO   N21 5941   7.883   4.498   1.554  0.5788  0.3645 -0.1805
   15CHTO  H211 5942   7.890   4.396   1.521  1.1465  0.5249 -0.5710
   15CHTO  H212 5943   7.918   4.556   1.470 -2.9130  0.7522 -1.4135
   15CHTO   O75 5944   7.397   4.435   1.411  0.3631 -0.1850 -0.1307
   15CHTO  C112 5945   7.374   4.258   1.410  0.1581  0.0022 -0.3043
   15CHTO  H216 5946   7.343   4.225   1.510  0.3825 -0.6709 -0.4501
   15CHTO   O73 5947   7.490   4.194   1.366 -0.3862 -0.2123 -0.3655
   15CHTO  C113 5948   7.478   4.050   1.363 -0.0519  0.3007 -0.4685
   15CHTO  H217 5949   7.449   4.012   1.463  2.0993 -0.4719 -0.0945
   15CHTO  C124 5950   7.616   3.990   1.342  0.0365  0.1565  0.2882
   15CHTO   O83 5951   7.706   4.007   1.446  0.3537 -0.1867 -0.2934
   15CHTO  H204 5952   7.709   4.099   1.464  1.7889 -0.7775  2.7714
   15CHTO  C109 5953   7.378   3.999   1.256 -0.4021 -0.7738  0.3891
   15CHTO  H213 5954   7.413   4.023   1.155 -1.1438 -0.4234  0.2132
   15CHTO  C110 5955   7.237   4.064   1.292 -0.0363 -1.3326  0.8379
   15CHTO  H214 5956   7.203   4.021   1.387 -1.0267  1.8826  1.9889
   15CHTO   O78 5957   7.144   4.038   1.190  0.4938  0.1366  0.0710
   15CHTO  H200 5958   7.149   3.947   1.166  0.1386 -0.2629  1.4928
   15CHTO  C111 5959   7.251   4.223   1.306 -0.0934 -0.2835 -0.5645
   15CHTO  H215 5960   7.266   4.271   1.208  2.9842  1.7691  0.8130
   15CHTO   N19 5961   7.132   4.284   1.361 -0.0515 -0.4153  0.2397
   15CHTO  H207 5962   7.068   4.313   1.279  0.6517 -1.0189 -0.5329
   15CHTO  H208 5963   7.075   4.203   1.404  1.9683 -0.5787  2.7263
   15CHTO   O74 5964   7.367   3.855   1.262  0.7210 -0.1844  0.2388
   15CHTO  C115 5965   7.308   3.761   1.144  0.0179 -0.2477 -0.1887
   15CHTO  H219 5966   7.258   3.823   1.069 -1.2206  1.1218  1.7500
   15CHTO   O76 5967   7.411   3.693   1.079  0.3192 -0.3086  0.2920
   15CHTO  C122 5968   7.483   3.611   1.169  0.0681 -0.0015 -0.0269
   15CHTO  H226 5969   7.520   3.670   1.252  2.0439 -1.4423  0.1391
   15CHTO  C126 5970   7.612   3.557   1.096 -0.0249  0.4921  0.2433
   15CHTO   O85 5971   7.714   3.654   1.085 -0.2939 -0.1190  0.8093
   15CHTO  H206 5972   7.787   3.618   1.038 -1.0118  1.1462 -1.3810
   15CHTO  C121 5973   7.397   3.493   1.240 -0.2650 -0.0335  0.4494
   15CHTO  H225 5974   7.437   3.397   1.203 -3.1785 -1.5186  1.0572
   15CHTO   O81 5975   7.414   3.496   1.382 -0.9193  0.0377 -0.4479
   15CHTO  H202 5976   7.502   3.523   1.399  0.3393 -2.9603 -1.8452
   15CHTO  C119 5977   7.250   3.511   1.200  0.3182  0.5111  0.0187
   15CHTO  H223 5978   7.251   3.484   1.094 -0.4894  1.8580 -0.3468
   15CHTO  C117 5979   7.203   3.661   1.207  0.2620 -0.1833  0.0451
   15CHTO  H221 5980   7.186   3.702   1.306 -3.4147  1.7719 -1.3066
   15CHTO   N20 5981   7.073   3.673   1.140 -0.0227  0.2542  0.0496
   15CHTO  H209 5982   7.078   3.656   1.033  2.0585  0.2307  0.1216
   15CHTO  H210 5983   7.009   3.753   1.171  0.5437  1.2805 -1.3586
   15CHTO   O80 5984   7.160   3.397   1.259  0.6721 -0.1734  0.1553
   15CHTO  C103 5985   7.105   3.281   1.165 -0.1423 -0.6896 -0.0839
   15CHTO  H190 5986   7.048   3.215   1.230  3.3776 -2.0482  1.7500
   15CHTO  C101 5987   7.013   3.331   1.045 -0.4637  0.3067 -0.0100
   15CHTO  H188 5988   7.060   3.410   0.988  0.2920 -1.3190 -1.6964
   15CHTO   O68 5989   6.881   3.392   1.122 -0.4399 -0.2079 -0.3960
   15CHTO  H168 5990   6.847   3.458   1.064  1.5121  2.5584  1.5081
   15CHTO   C99 5991   6.976   3.212   0.949  0.0616  0.1265 -0.2464
   15CHTO  H186 5992   6.912   3.143   1.007 -0.2903 -1.2114 -2.1897
   15CHTO   N17 5993   6.894   3.251   0.830 -0.5480 -0.0215  0.2585
   15CHTO  H174 5994   6.870   3.162   0.774 -0.7786  0.6950 -0.8128
   15CHTO  H175 5995   6.957   3.310   0.764 -1.0869 -0.7416 -0.9211
   15CHTO   C97 5996   7.106   3.137   0.910  0.2225  0.6251 -0.3157
   15CHTO  H184 5997   7.167   3.199   0.843  0.4494  2.0211  1.1561
   15CHTO   O64 5998   7.178   3.094   1.030 -0.0578  0.6547  0.4263
   15CHTO  C104 5999   7.227   3.193   1.111  0.6355  0.7273 -0.1010
   15CHTO  H191 6000   7.302   3.259   1.067  1.0521 -0.3148 -0.9721
   15CHTO  C108 6001   7.297   3.120   1.232  0.2880  0.3222 -0.1972
   15CHTO   O71 6002   7.389   3.022   1.181 -0.1873 -0.8075  0.2567
   15CHTO  H171 6003   7.434   2.994   1.259 -0.4271  2.7768  1.7812
   15CHTO   O62 6004   7.074   3.007   0.843 -0.3886  0.0566  0.0509
   15CHTO   C91 6005   7.179   2.956   0.762 -0.4903 -0.2718 -0.4121
   15CHTO  H178 6006   7.271   3.016   0.765  0.2472 -1.4461  0.9055
   15CHTO   C92 6007   7.135   2.959   0.613 -0.1527 -0.7225 -0.6947
   15CHTO  H179 6008   7.103   3.062   0.592 -2.6060 -0.5084  3.4803
   15CHTO   O66 6009   7.248   2.943   0.527 -0.1096  0.4316 -0.0123
   15CHTO  H166 6010   7.220   2.937   0.438  1.2543  0.5480 -0.4476
   15CHTO   C93 6011   7.027   2.854   0.582  0.2425  0.4204  0.4241
   15CHTO  H180 6012   7.038   2.822   0.477 -0.5724  0.6368  0.2680
   15CHTO   N16 6013   6.886   2.898   0.590  0.7034  0.2475  0.0496
   15CHTO  H172 6014   6.827   2.870   0.504 -0.8781 -1.1479  1.5409
   15CHTO  H173 6015   6.848   2.844   0.676  2.9128 -0.4530  0.6087
   15CHTO   C94 6016   7.051   2.729   0.668  0.0255  0.5340 -0.0607
   15CHTO  H181 6017   6.992   2.729   0.760 -0.5944  0.5477 -0.4539
   15CHTO   O61 6018   7.187   2.715   0.716  0.6473  0.1930 -0.1499
   15CHTO   C95 6019   7.223   2.813   0.811 -0.6900  0.2889 -0.3511
   15CHTO  H182 6020   7.169   2.798   0.905 -0.3383  1.0546 -0.0213
   15CHTO  C106 6021   7.378   2.789   0.852 -0.1709 -0.1890  0.4621
   15CHTO   O69 6022   7.410   2.879   0.954  0.2835  0.4490  0.3926
   15CHTO  H169 6023   7.504   2.881   0.957  0.3951 -0.3578 -1.5988
   15CHTO   O63 6024   7.014   2.602   0.584  0.4223  0.0422 -0.4172
   15CHTO   C96 6025   6.961   2.488   0.687 -0.2334  0.0656 -0.3484
   15CHTO  H183 6026   6.965   2.529   0.788  0.1881  0.8303 -0.6801
   15CHTO   C98 6027   7.050   2.362   0.673 -0.6914 -0.0210  0.3794
   15CHTO  H185 6028   7.071   2.345   0.567  3.2020 -0.1630  1.1016
   15CHTO   O67 6029   7.175   2.393   0.739  0.3142 -0.4543 -0.3907
   15CHTO  H167 6030   7.235   2.323   0.724  2.8033  1.4781  0.1975
   15CHTO  C102 6031   6.976   2.227   0.728  0.1239 -0.5813 -0.5301
   15CHTO  H189 6032   6.960   2.246   0.835  1.2620 -1.0937 -0.2651
   15CHTO   N18 6033   7.034   2.093   0.718  0.7791 -0.1078  0.6713
   15CHTO  H176 6034   6.998   2.022   0.791 -1.0845 -1.3866 -1.4401
   15CHTO  H177 6035   7.142   2.095   0.726  0.7722 -1.7434  1.4832
   15CHTO  C105 6036   6.827   2.223   0.667 -0.0010 -1.1873  0.5749
   15CHTO  H192 6037   6.832   2.240   0.559  1.4566 -0.2664  0.7665
   15CHTO   O65 6038   6.757   2.333   0.716 -0.1807  0.5962  0.0977
   15CHTO  C100 6039   6.811   2.453   0.657  0.3913 -0.0542 -0.2849
   15CHTO  H187 6040   6.802   2.447   0.547  1.1025  0.3716 -0.3724
   15CHTO  C107 6041   6.714   2.567   0.713  0.3598 -0.3173 -0.3524
   15CHTO   O70 6042   6.577   2.551   0.668  0.3192 -0.2936  0.2018
   15CHTO  H170 6043   6.578   2.563   0.575  0.3344  0.0436  0.2428
   15CHTO   O57 6044   6.738   2.086   0.697 -0.4818 -0.1343 -0.0538
   15CHTO   C85 6045   6.703   2.064   0.838  0.5394 -0.6216  0.3559
   15CHTO  H157 6046   6.761   2.140   0.896  1.7652 -1.4172  0.1857
   15CHTO   C83 6047   6.750   1.931   0.884  0.7867  0.0933 -0.1587
   15CHTO  H155 6048   6.859   1.937   0.879  1.1074 -1.6969  3.1275
   15CHTO   O56 6049   6.713   1.830   0.788  0.2689 -0.7018 -0.4727
   15CHTO  H135 6050   6.741   1.856   0.703  1.5740 -2.7995 -0.7315
   15CHTO   C81 6051   6.707   1.922   1.033  0.7756 -0.0768 -0.7118
   15CHTO  H153 6052   6.757   2.001   1.090 -1.9402  1.4423 -0.3463
   15CHTO   N14 6053   6.768   1.806   1.094  0.2033 -0.0047 -0.4745
   15CHTO  H141 6054   6.728   1.788   1.191  1.2258  0.8306  0.1140
   15CHTO  H142 6055   6.767   1.716   1.036  0.9237 -0.0494 -0.4280
   15CHTO   C79 6056   6.554   1.939   1.061  0.3877  0.4417  0.4734
   15CHTO  H151 6057   6.543   1.950   1.168 -1.2645 -0.5861  0.4256
   15CHTO   O52 6058   6.502   2.061   1.000  0.3057  0.6260 -0.9123
   15CHTO   C86 6059   6.544   2.077   0.862  0.0096 -0.6765  0.9560
   15CHTO  H158 6060   6.491   1.992   0.815  0.9680  0.4081 -2.1825
   15CHTO   C90 6061   6.485   2.206   0.800 -0.1971  0.2167 -0.1749
   15CHTO   O60 6062   6.343   2.188   0.805  0.4330  0.0868 -0.4014
   15CHTO  H138 6063   6.303   2.262   0.763  1.0538  1.6766  1.7456
   15CHTO   O50 6064   6.489   1.823   1.008  0.3772 -0.9361 -0.4549
   15CHTO   C73 6065   6.369   1.741   1.022 -0.1204 -0.0731  0.7858
   15CHTO  H145 6066   6.280   1.790   0.981  0.3282 -0.0986 -0.2154
   15CHTO   C74 6067   6.353   1.709   1.177 -0.6099  0.1089  0.0140
   15CHTO  H146 6068   6.332   1.798   1.238 -0.4927 -0.1195  0.3923
   15CHTO   O54 6069   6.230   1.635   1.173  0.4567 -0.5303 -0.3487
   15CHTO  H133 6070   6.195   1.637   1.259 -3.6252  2.7373 -1.9276
   15CHTO   C75 6071   6.478   1.626   1.232  0.5653  0.3497  0.8057
   15CHTO  H147 6072   6.561   1.697   1.244 -0.8949  2.1818  0.2273
   15CHTO   N13 6073   6.442   1.557   1.358  0.1410 -0.4045 -0.4844
   15CHTO  H139 6074   6.365   1.482   1.346  0.1332 -0.3447 -0.8247
   15CHTO  H140 6075   6.528   1.514   1.408  1.0835  0.5978 -1.2270
   15CHTO   C76 6076   6.522   1.506   1.116  0.3028  0.3913  0.5943
   15CHTO  H148 6077   6.455   1.420   1.120  0.1113  0.4199 -1.5742
   15CHTO   O49 6078   6.523   1.560   0.979  0.4188 -0.0887 -0.1189
   15CHTO   C77 6079   6.395   1.615   0.943  0.0551  0.3478 -0.5170
   15CHTO  H149 6080   6.314   1.545   0.960 -1.5610  2.2293 -0.1960
   15CHTO   C88 6081   6.395   1.639   0.789  0.6036 -0.4283 -0.3152
   15CHTO   O58 6082   6.289   1.619   0.732 -0.0496 -0.7071 -0.2656
   15CHTO  H136 6083   6.269   1.701   0.691  0.0547  0.7091  2.3812
   15CHTO   O51 6084   6.674   1.451   1.141  0.3622 -0.4624  0.4754
   15CHTO   C78 6085   6.719   1.337   1.063 -0.4777 -0.3349 -0.2465
   15CHTO  H150 6086   6.642   1.318   0.985 -0.0007  1.0191 -1.0633
   15CHTO   C80 6087   6.736   1.214   1.156 -0.1081 -0.2088 -0.5706
   15CHTO  H152 6088   6.788   1.246   1.248 -0.4554  2.5497 -1.2864
   15CHTO   O55 6089   6.608   1.177   1.204  0.3362 -0.2690  0.3794
   15CHTO  H134 6090   6.587   1.213   1.288 -3.6311  0.9077 -0.9858
   15CHTO   C84 6091   6.798   1.094   1.086  0.0635  0.5445 -0.1181
   15CHTO  H156 6092   6.741   1.071   0.996  0.7731 -1.3389 -0.1150
   15CHTO   N15 6093   6.819   0.981   1.182  0.3378  0.1439 -0.0593
   15CHTO  H143 6094   6.857   0.901   1.123 -0.4728 -0.6577  0.4998
   15CHTO  H144 6095   6.720   0.953   1.209  1.3927 -2.6986  1.0445
   15CHTO   C87 6096   6.939   1.146   1.032 -0.2474 -0.0616  0.0178
   15CHTO  H159 6097   6.998   1.190   1.112  0.7439 -0.3053 -0.5697
   15CHTO   O53 6098   6.907   1.253   0.936 -0.1450  0.1692  0.1187
   15CHTO   C82 6099   6.857   1.371   0.997  0.3579  0.3938 -0.4797
   15CHTO  H154 6100   6.927   1.413   1.069 -0.6768 -0.5718  1.1058
   15CHTO   C89 6101   6.851   1.466   0.881 -0.0620  0.5090 -0.7785
   15CHTO   O59 6102   6.981   1.526   0.849 -0.6774  0.0120 -0.0921
   15CHTO  H137 6103   7.008   1.591   0.912  0.7842 -0.6966  0.0337
   15CHTO   O45 6104   7.020   1.059   0.944  0.4039  0.1544  0.5596
   15CHTO   C67 6105   7.168   1.061   0.969  0.1851  0.0363  0.3528
   15CHTO  H124 6106   7.189   1.165   0.992  2.0808  0.4586 -2.8852
   15CHTO   C65 6107   7.214   0.961   1.079  0.4232  0.2040  0.3328
   15CHTO  H122 6108   7.138   0.883   1.072  0.0827  0.5725 -0.0900
   15CHTO   O44 6109   7.193   1.018   1.206  0.6281  0.3147 -1.0201
   15CHTO  H102 6110   7.110   1.060   1.216  0.1563 -1.0623  1.0203
   15CHTO   C63 6111   7.357   0.891   1.044 -0.0836 -0.0575 -0.5509
   15CHTO  H120 6112   7.339   0.808   0.976 -2.7793 -0.7755  0.9671
   15CHTO   N11 6113   7.410   0.812   1.162 -0.4376  0.2796  0.2720
   15CHTO  H108 6114   7.387   0.708   1.147 -0.3074  0.3470 -0.3930
   15CHTO  H109 6115   7.515   0.822   1.174 -0.5870  1.6072  0.5713
   15CHTO   C61 6116   7.448   1.001   0.976 -0.7685 -0.2933  0.3985
   15CHTO  H118 6117   7.531   0.939   0.939  0.1798  1.7934 -1.1124
   15CHTO   O40 6118   7.390   1.057   0.856 -0.1306  0.2258 -0.1683
   15CHTO   C68 6119   7.247   1.038   0.836  0.2588  0.4010  0.2006
   15CHTO  H125 6120   7.226   0.934   0.802  2.5482 -0.0766  0.2059
   15CHTO   C72 6121   7.200   1.140   0.725  0.2765 -0.4886 -0.5545
   15CHTO   O48 6122   7.160   1.276   0.765  0.7742 -0.0353  0.0818
   15CHTO  H105 6123   7.125   1.276   0.852 -1.1452  1.9377 -0.6500
   15CHTO   O38 6124   7.481   1.109   1.076 -0.0477  0.2720  0.0047
   15CHTO   C55 6125   7.587   1.193   1.024 -0.7527 -0.6029  0.5178
   15CHTO  H112 6126   7.602   1.177   0.916 -0.4923 -1.1118  0.6291
   15CHTO   C56 6127   7.728   1.157   1.099  0.1021  0.1552  0.9619
   15CHTO  H113 6128   7.716   1.161   1.208 -2.1935 -1.8596  0.8323
   15CHTO   O42 6129   7.761   1.024   1.061  0.1584 -0.2538 -0.0586
   15CHTO  H100 6130   7.852   1.005   1.074  1.0104  1.5316 -2.9229
   15CHTO   C57 6131   7.836   1.261   1.051  0.2102 -0.6092 -0.3611
   15CHTO  H114 6132   7.860   1.252   0.945 -0.2303 -1.6237 -0.3781
   15CHTO   N10 6133   7.967   1.240   1.122 -0.2373 -0.2836 -0.0151
   15CHTO  H106 6134   8.056   1.253   1.062 -0.2953  3.9953  0.7146
   15CHTO  H107 6135   7.977   1.291   1.217 -3.7066  0.8541 -0.1983
   15CHTO   C58 6136   7.785   1.405   1.072  0.0222  0.7089 -0.8045
   15CHTO  H115 6137   7.759   1.419   1.179 -0.5307  2.3660 -1.1466
   15CHTO   O37 6138   7.661   1.435   1.005  0.8012  0.5239 -0.1545
   15CHTO   C59 6139   7.545   1.349   1.030 -0.3795  0.7495 -0.5094
   15CHTO  H116 6140   7.491   1.371   1.122 -1.2274  1.0404 -1.0631
   15CHTO   C70 6141   7.445   1.381   0.922  0.1733 -0.1445  0.3478
   15CHTO   O46 6142   7.391   1.510   0.944  0.2334 -0.0872 -0.4237
   15CHTO  H103 6143   7.451   1.572   0.908 -0.2467  0.7071  0.1402
   15CHTO   O39 6144   7.915   1.525   1.036 -0.0428  0.1824  0.4116
   15CHTO   C60 6145   7.892   1.582   0.906  0.3079  0.1534 -0.0332
   15CHTO  H117 6146   7.846   1.507   0.841  1.4400 -0.1941 -0.4457
   15CHTO   C62 6147   7.803   1.715   0.930  0.6847 -0.3508 -0.6295
   15CHTO  H119 6148   7.712   1.682   0.984  0.4643  0.2171 -0.6471
   15CHTO   O43 6149   7.873   1.807   1.019  0.4272  0.2893 -0.7248
   15CHTO  H101 6150   7.940   1.859   0.980  1.5470  1.6541  2.8466
   15CHTO   C66 6151   7.761   1.783   0.792  0.0226  0.8254  0.0382
   15CHTO  H123 6152   7.712   1.707   0.731  0.8072  0.8323 -0.6034
   15CHTO   N12 6153   7.680   1.904   0.801 -0.2262  0.3891  0.1921
   15CHTO  H110 6154   7.590   1.892   0.742 -0.3759  2.1859  0.0288
   15CHTO  H111 6155   7.660   1.939   0.901 -0.3937 -0.0844  0.3250
   15CHTO   C69 6156   7.890   1.814   0.719 -0.2817 -0.4799  0.4466
   15CHTO  H126 6157   7.947   1.892   0.772  0.6046 -1.2830  0.6878
   15CHTO   O41 6158   7.979   1.667   0.715 -0.3337 -0.4464  0.2201
   15CHTO   C64 6159   8.021   1.628   0.835 -0.0729 -0.3871 -0.9421
   15CHTO  H121 6160   8.058   1.718   0.887 -1.0835  0.3011 -1.4012
   15CHTO   C71 6161   8.130   1.520   0.827 -0.3675 -0.0967 -0.2684
   15CHTO   O47 6162   8.262   1.563   0.812  0.4510  0.1872  0.4415
   15CHTO  H104 6163   8.267   1.596   0.724 -0.8482 -0.1997  0.2094
   15CHTO   O34 6164   7.861   1.877   0.560 -0.1521  0.1967  0.2081
   15CHTO   C49 6165   7.879   1.966   0.413 -0.1561 -0.1104  0.0245
   15CHTO   H91 6166   7.943   1.907   0.348 -0.5313 -1.3771  0.7896
   15CHTO   C47 6167   7.958   2.097   0.454  0.1907  1.2371  0.2952
   15CHTO   H89 6168   7.982   2.161   0.367 -1.4286 -1.7804 -2.4919
   15CHTO   O33 6169   8.079   2.052   0.521  0.4324 -0.0029  0.7425
   15CHTO   H70 6170   8.128   2.130   0.537 -0.7424  0.3302  2.8471
   15CHTO   C45 6171   7.861   2.180   0.558 -0.3740 -0.2681  1.0992
   15CHTO   H87 6172   7.837   2.117   0.646 -2.2349 -1.5195 -0.2651
   15CHTO    N8 6173   7.925   2.305   0.608  0.2435 -0.5187  0.2457
   15CHTO   H75 6174   7.967   2.353   0.521 -3.7350 -0.1439 -1.6105
   15CHTO   H76 6175   7.854   2.372   0.653  1.3086  0.9595 -0.2561
   15CHTO   C43 6176   7.718   2.203   0.480 -0.2872  0.5308 -0.5166
   15CHTO   H85 6177   7.660   2.249   0.560  2.2867 -1.5536  2.6962
   15CHTO   O29 6178   7.654   2.083   0.428 -0.1041 -0.3505  0.8688
   15CHTO   C50 6179   7.744   2.005   0.347  0.2716  0.5570 -0.2231
   15CHTO   H92 6180   7.696   1.907   0.334 -2.5769  2.0444 -1.1939
   15CHTO   C54 6181   7.763   2.064   0.201  0.7260  0.1438 -0.0298
   15CHTO   O36 6182   7.635   2.054   0.127 -0.3158  0.0344 -0.2856
   15CHTO   H72 6183   7.592   1.971   0.119 -2.9725  1.4453 -1.4596
   15CHTO   O27 6184   7.718   2.303   0.376 -0.5225  0.1038  0.4116
   15CHTO   C37 6185   7.627   2.386   0.304  0.2217 -0.7435 -0.0790
   15CHTO   H79 6186   7.575   2.329   0.225 -0.3982 -0.2433 -0.0394
   15CHTO   C38 6187   7.516   2.443   0.393 -0.0885  0.6574 -0.5253
   15CHTO   H80 6188   7.566   2.497   0.475 -0.5180  2.2328 -1.2830
   15CHTO   O31 6189   7.434   2.333   0.443  0.5061 -0.2556 -0.3534
   15CHTO   H68 6190   7.360   2.327   0.386  1.1041  0.2587 -1.1867
   15CHTO   C39 6191   7.424   2.539   0.316  0.5295 -0.4734  0.5851
   15CHTO   H81 6192   7.359   2.472   0.259 -2.6444 -0.7221  4.3032
   15CHTO    N7 6193   7.324   2.605   0.406  0.1314  0.1738  0.4277
   15CHTO   H73 6194   7.304   2.711   0.398 -0.3708  0.0665  0.2152
   15CHTO   H74 6195   7.333   2.579   0.511  2.8469 -0.1823  0.1389
   15CHTO   C40 6196   7.496   2.635   0.214  0.5359  0.4781 -0.5099
   15CHTO   H82 6197   7.525   2.724   0.271  2.0234  0.4021 -1.1296
   15CHTO   O26 6198   7.603   2.573   0.150  0.4586  0.4826 -0.1439
   15CHTO   C41 6199   7.699   2.504   0.230  0.2795  0.1644  0.2483
   15CHTO   H83 6200   7.736   2.577   0.304 -0.1701 -1.3138  1.9795
   15CHTO   C52 6201   7.813   2.446   0.144  0.3827 -0.5556 -0.3718
   15CHTO   O35 6202   7.899   2.554   0.075 -0.3114  0.4191  0.5704
   15CHTO   H71 6203   7.984   2.525   0.102 -1.4863 -1.9012  1.9484
   15CHTO   O28 6204   7.409   2.683   0.114  0.1593  0.6469  0.4235
   15CHTO   C42 6205   7.419   2.801   0.023 -0.0599  0.7977  0.6174
   15CHTO   H84 6206   7.367   2.784  -0.071  0.7440  2.1073 -0.0840
   15CHTO   C44 6207   7.563   2.831  -0.019 -0.4862 -0.3906 -0.3655
   15CHTO   H86 6208   7.622   2.840   0.072 -3.1612  0.0378  1.3843
   15CHTO   O32 6209   7.609   2.715  -0.091  0.4083  0.1042 -0.1055
   15CHTO   H69 6210   7.577   2.711  -0.179  0.8628  0.4477 -0.2933
   15CHTO   C48 6211   7.579   2.955  -0.117 -0.3752  0.7738  0.7743
   15CHTO   H90 6212   7.549   2.917  -0.214  0.5759  0.7902  0.4683
   15CHTO    N9 6213   7.724   2.991  -0.134 -0.4814 -0.4530 -0.1549
   15CHTO   H77 6214   7.732   3.089  -0.179 -0.2517  0.7717  2.4501
   15CHTO   H78 6215   7.775   2.980  -0.040 -1.6024  0.5519  0.5951
   15CHTO   C51 6216   7.499   3.082  -0.055 -0.0617 -0.2468 -0.4450
   15CHTO   H93 6217   7.549   3.124   0.032  2.1319  0.3002 -1.9201
   15CHTO   O30 6218   7.365   3.039  -0.030 -0.0418 -0.2917 -0.2246
   15CHTO   C46 6219   7.359   2.927   0.089  0.3404 -0.1726  0.3961
   15CHTO   H88 6220   7.425   2.948   0.174 -1.3523 -0.5879  1.8292
   15CHTO   C53 6221   7.215   2.908   0.124 -0.6775 -0.2469  0.3928
   15CHTO   O72 6222   7.169   3.031   0.191 -0.1920  0.6553 -0.3207
   15CHTO  H199 6223   7.150   3.097   0.127 -2.9304 -0.3310 -0.5741
   15CHTO   O22 6224   7.492   3.189  -0.156  0.1660 -0.0662  0.2218
   15CHTO   C31 6225   7.432   3.324  -0.124 -0.6233 -0.4019  0.6199
   15CHTO   H59 6226   7.443   3.385  -0.217 -0.2773 -1.6612 -0.1885
   15CHTO   C29 6227   7.279   3.334  -0.081 -0.1060 -0.1619  0.2415
   15CHTO   H57 6228   7.262   3.267   0.004 -2.1423 -0.0748 -0.0832
   15CHTO   O21 6229   7.204   3.285  -0.196  0.0103 -0.0464 -0.4664
   15CHTO   H37 6230   7.244   3.324  -0.271 -0.5619  1.2085 -0.1254
   15CHTO   C27 6231   7.228   3.478  -0.045 -0.1507 -0.0808 -0.4991
   15CHTO   H55 6232   7.243   3.551  -0.126 -3.1869  1.7008  0.5022
   15CHTO    N5 6233   7.091   3.480   0.006  0.7963 -0.4350 -0.6534
   15CHTO   H43 6234   7.054   3.384   0.038 -2.8106  1.0342 -0.1221
   15CHTO   H44 6235   7.086   3.550   0.088 -1.1475 -0.3656 -0.8129
   15CHTO   C25 6236   7.327   3.536   0.064 -0.0601  0.1017  0.6239
   15CHTO   H53 6237   7.314   3.467   0.149  0.9730  0.1082  0.7966
   15CHTO   O17 6238   7.464   3.524   0.015 -0.2063  0.2180 -0.0248
   15CHTO   C32 6239   7.515   3.394  -0.017 -0.5453 -0.3806  0.1021
   15CHTO   H60 6240   7.521   3.325   0.067 -0.9662 -0.5880 -0.0392
   15CHTO   C36 6241   7.658   3.423  -0.072  0.1888 -0.0224 -0.1773
   15CHTO   O25 6242   7.740   3.475   0.028 -0.1812  0.0171 -0.8370
   15CHTO   H40 6243   7.817   3.500  -0.020 -0.0961  1.2654 -0.0755
   15CHTO   O15 6244   7.298   3.661   0.100  0.2730  0.3500  0.4322
   15CHTO   C19 6245   7.320   3.772   0.200 -0.5581 -0.1450  0.6224
   15CHTO   H47 6246   7.377   3.845   0.140 -0.0227  0.6106  2.0398
   15CHTO   C20 6247   7.181   3.821   0.252 -0.2246 -0.4639 -0.5762
   15CHTO   H48 6248   7.137   3.747   0.321 -1.0684 -2.2597 -2.9637
   15CHTO   O19 6249   7.101   3.848   0.137 -0.4467  0.1326 -0.2834
   15CHTO   H35 6250   7.031   3.788   0.123  0.1858 -0.3787 -1.3587
   15CHTO   C21 6251   7.207   3.965   0.321 -0.2115  0.4278 -0.2596
   15CHTO   H49 6252   7.277   4.019   0.257 -0.2896  1.2081  0.3042
   15CHTO    N4 6253   7.087   4.055   0.341  0.0866 -0.2500  0.2844
   15CHTO   H41 6254   7.003   3.990   0.318 -0.0709 -0.1707  0.6246
   15CHTO   H42 6255   7.070   4.099   0.438  0.9882 -1.4833  1.0273
   15CHTO   C22 6256   7.288   3.917   0.444 -1.0919 -0.2832 -0.2482
   15CHTO   H50 6257   7.218   3.851   0.496 -3.7618  1.8044 -1.0402
   15CHTO   O14 6258   7.415   3.849   0.404 -0.2670 -0.4268 -0.5342
   15CHTO   C23 6259   7.406   3.738   0.318  0.3077  0.1395 -0.2230
   15CHTO   H51 6260   7.371   3.649   0.372  0.0433  0.9217  0.9118
   15CHTO   C34 6261   7.554   3.692   0.278  0.1126  0.8470  0.4935
   15CHTO   O23 6262   7.604   3.779   0.182 -0.2364  0.0115  0.4847
   15CHTO   H38 6263   7.625   3.857   0.229 -0.8827  1.3267 -1.3566
   15CHTO   O16 6264   7.332   4.025   0.532  0.2351  0.7419  0.0671
   15CHTO   C24 6265   7.341   3.990   0.684  0.0969  0.1014  0.4441
   15CHTO   H52 6266   7.308   3.887   0.700  2.0711 -0.6973 -0.5480
   15CHTO   C26 6267   7.244   4.090   0.751  0.0899  0.1457  0.1406
   15CHTO   H54 6268   7.145   4.092   0.701 -0.2724  0.5755  0.8734
   15CHTO   O20 6269   7.203   4.027   0.873 -0.1514  0.5786  0.4671
   15CHTO   H36 6270   7.115   4.052   0.893  0.2270  1.2199  1.3362
   15CHTO   C30 6271   7.293   4.238   0.762  0.7489 -0.1070  0.2568
   15CHTO   H58 6272   7.254   4.287   0.852  0.4385 -0.9828  0.6082
   15CHTO    N6 6273   7.245   4.331   0.653 -0.1749  0.1470 -0.2675
   15CHTO   H45 6274   7.282   4.316   0.553  0.8366  0.4925  0.0554
   15CHTO   H46 6275   7.138   4.320   0.645 -0.2911  1.3910 -0.4624
   15CHTO   C33 6276   7.451   4.252   0.774  0.8219 -0.3723  0.5767
   15CHTO   H61 6277   7.503   4.269   0.679  1.8151  1.9005  1.4977
   15CHTO   O18 6278   7.509   4.131   0.827 -0.4825  0.0238  0.1447
   15CHTO   C28 6279   7.483   4.010   0.745 -0.1248  0.1962 -0.3549
   15CHTO   H56 6280   7.554   4.014   0.663 -0.4946  0.2326 -0.6767
   15CHTO   C35 6281   7.524   3.878   0.812  0.4391 -1.3217  0.4634
   15CHTO   O24 6282   7.664   3.866   0.839  0.1437  0.4243 -1.0311
   15CHTO   H39 6283   7.682   3.890   0.928  3.1019 -4.7932  0.0022
   15CHTO    O9 6284   7.484   4.372   0.857 -0.4421 -0.3588 -0.3592
   15CHTO   C13 6285   7.641   4.435   0.859  0.2249 -0.1562 -0.1232
   15CHTO   H26 6286   7.624   4.544   0.847 -0.9510 -0.4078 -0.7679
   15CHTO   C11 6287   7.743   4.381   0.747  0.2588 -1.2779  0.4035
   15CHTO   H24 6288   7.683   4.396   0.657  1.0743 -0.6461 -0.0458
   15CHTO    O8 6289   7.764   4.242   0.754 -0.2202 -0.2766 -0.1988
   15CHTO    H3 6290   7.705   4.204   0.817 -1.8057 -0.2123 -1.6265
   15CHTO    C9 6291   7.876   4.462   0.745  0.5682 -0.5981 -0.4820
   15CHTO   H22 6292   7.847   4.567   0.737  3.1231  0.0929 -0.9496
   15CHTO    N2 6293   7.966   4.436   0.628  0.0637  0.3207  0.1095
   15CHTO   H10 6294   8.065   4.422   0.668  0.5193  2.0059 -0.4224
   15CHTO   H11 6295   7.937   4.358   0.558  0.4920  2.0761 -2.0511
   15CHTO    C7 6296   7.941   4.444   0.898 -0.0394  0.4622  0.4585
   15CHTO   H20 6297   8.028   4.513   0.903  1.7857 -1.7861  0.5915
   15CHTO    O4 6298   7.846   4.476   0.997  0.4091 -0.2192  0.1988
   15CHTO   C14 6299   7.711   4.429   1.007 -0.3341  0.2808  1.0787
   15CHTO   H27 6300   7.651   4.498   1.070 -2.4178 -1.9102  1.5954
   15CHTO   C18 6301   7.714   4.292   1.078 -0.0894 -0.5206  0.5123
   15CHTO   O13 6302   7.583   4.244   1.101 -0.1527  0.2472  0.5114
   15CHTO    H7 6303   7.523   4.243   1.029  1.6168 -0.4537 -0.9753
   15CHTO    O2 6304   8.024   4.285   0.923  0.2983 -0.4670 -0.1890
   15CHTO    C1 6305   8.093   4.276   1.047 -0.8412  0.4031 -0.1358
   15CHTO   H14 6306   8.034   4.333   1.122 -1.2117  0.2649 -0.3204
   15CHTO    C2 6307   8.243   4.329   1.044  0.5409  0.6562  0.1459
   15CHTO   H15 6308   8.300   4.258   0.981 -0.9592  1.4217 -2.1118
   15CHTO    O6 6309   8.247   4.463   0.980 -0.3314  0.4352 -1.0468
   15CHTO    H1 6310   8.281   4.451   0.893 -0.7619  0.1332 -1.1756
   15CHTO    C3 6311   8.304   4.328   1.197  0.3419 -0.0519 -0.3279
   15CHTO   H16 6312   8.236   4.399   1.248 -2.6874 -0.1574 -4.0118
   15CHTO    N1 6313   8.443   4.381   1.206 -0.1839  0.0154 -0.3998
   15CHTO    H8 6314   8.461   4.442   1.293 -1.0160  2.5448 -1.9493
   15CHTO    H9 6315   8.461   4.435   1.114  0.1241  0.5605 -0.0223
   15CHTO    C4 6316   8.278   4.189   1.264  0.3430 -0.2843  0.3271
   15CHTO   H17 6317   8.356   4.122   1.228  0.4243  0.1160 -0.2508
   15CHTO    O1 6318   8.150   4.136   1.235 -0.8987  0.1561  0.2073
   15CHTO    C5 6319   8.113   4.126   1.097  0.5885  0.4838  0.1973
   15CHTO   H18 6320   8.192   4.079   1.038  0.9766  0.3501  0.8187
   15CHTO   C16 6321   7.985   4.036   1.084 -0.5753  0.0613  0.3125
   15CHTO   O11 6322   7.963   4.002   0.946  0.9368  0.2486 -0.7712
   15CHTO    H5 6323   7.877   3.971   0.929  1.1601 -0.0731 -1.3327
   15CHTO    O3 6324   8.272   4.200   1.410  0.0369 -0.4121  0.1339
   15CHTO    C6 6325   8.271   4.082   1.489  0.3670 -0.5244 -0.0033
   15CHTO   H19 6326   8.236   3.999   1.427 -0.8666  0.1529 -0.2316
   15CHTO    C8 6327   8.411   4.040   1.544  0.2488  0.5578  0.0573
   15CHTO   H21 6328   8.447   4.121   1.608 -1.7301  0.0121  1.9250
   15CHTO    O7 6329   8.501   4.023   1.429 -0.2144 -0.0054 -0.0220
   15CHTO    H2 6330   8.473   3.948   1.381 -0.1506  0.6435 -1.0832
   15CHTO   C12 6331   8.400   3.909   1.627  0.6793  0.1712 -0.2977
   15CHTO   H25 6332   8.362   3.830   1.559  2.4572 -0.8562 -0.1391
   15CHTO    N3 6333   8.534   3.862   1.680 -0.2731 -0.9702  0.7238
   15CHTO   H12 6334   8.569   3.941   1.745 -0.5998  1.1273 -1.5981
   15CHTO   H13 6335   8.517   3.771   1.737 -0.3517 -1.5283 -0.1913
   15CHTO   C15 6336   8.299   3.932   1.742  0.2232  1.3987  0.5729
   15CHTO   H28 6337   8.330   4.016   1.804 -0.0085  0.6264  1.7629
   15CHTO   O10 6338   8.253   3.801   1.811 -0.3491 -0.1893 -0.7693
   15CHTO    H4 6339   8.324   3.748   1.841  0.6779  0.6583 -1.6861
   15CHTO    O5 6340   8.173   3.970   1.678 -0.0462  0.2099  0.0403
   15CHTO   C10 6341   8.168   4.094   1.598 -0.7102  0.5671 -0.2660
   15CHTO   H23 6342   8.185   4.175   1.670  2.7805 -1.1500  0.9806
   15CHTO   C17 6343   8.027   4.103   1.536 -0.4787  0.1173 -0.2863
   15CHTO   O12 6344   7.919   4.100   1.639 -0.7537 -0.2421  0.0517
   15CHTO    H6 6345   7.925   4.179   1.687  1.5288 -0.3833  0.0463
   16CHTO  H203 6346   6.162   4.149   0.256  0.9609  0.2137  0.1385
   16CHTO   O82 6347   6.209   4.072   0.284  0.2045 -0.2509  0.1528
   16CHTO  C123 6348   6.298   4.116   0.387  0.0079 -0.2591 -0.1970
   16CHTO  H227 6349   6.253   4.203   0.437 -0.3997 -0.3966 -0.3274
   16CHTO   O77 6350   6.299   4.003   0.480 -0.0361  0.3454  0.0768
   16CHTO  C118 6351   6.391   3.996   0.593  0.2756  0.1158 -0.6864
   16CHTO  H222 6352   6.369   4.070   0.671  1.1322 -1.4334  1.0653
   16CHTO  C125 6353   6.357   3.855   0.645  0.2974 -0.8521  0.4947
   16CHTO   O84 6354   6.395   3.855   0.783 -0.0857  0.4830 -0.0494
   16CHTO  H205 6355   6.337   3.901   0.840  0.6059 -0.7783  1.7393
   16CHTO  C114 6356   6.536   3.999   0.532  0.4945 -0.4974 -0.7064
   16CHTO  H218 6357   6.545   3.913   0.465  0.6748 -1.4657  0.5443
   16CHTO  C116 6358   6.555   4.123   0.444  0.9250 -0.8985  0.1896
   16CHTO  H220 6359   6.564   4.214   0.507 -0.7229  0.1609 -1.0447
   16CHTO   O79 6360   6.684   4.116   0.378  0.1641  0.7523  0.4524
   16CHTO  H201 6361   6.718   4.202   0.363  0.3768  0.4899 -0.6224
   16CHTO  C120 6362   6.447   4.138   0.333 -0.1639 -1.0502  0.0020
   16CHTO  H224 6363   6.460   4.060   0.256 -2.7345  0.0998 -1.6590
   16CHTO   N21 6364   6.451   4.264   0.258  0.4759  0.0855  0.7045
   16CHTO  H211 6365   6.489   4.255   0.157 -2.7481  2.1672 -0.7760
   16CHTO  H212 6366   6.373   4.338   0.266 -0.7042 -1.1043  0.2347
   16CHTO   O75 6367   6.621   3.987   0.647 -0.3840  0.1118 -0.1439
   16CHTO  C112 6368   6.771   3.916   0.623  0.6603  0.7797  0.5979
   16CHTO  H216 6369   6.837   3.986   0.570  0.0940 -0.6571 -2.0716
   16CHTO   O73 6370   6.747   3.799   0.547  0.0070  0.1069  0.1206
   16CHTO  C113 6371   6.867   3.731   0.514 -0.3691 -0.5579 -0.1663
   16CHTO  H217 6372   6.929   3.796   0.450 -1.1276 -1.1693 -1.5367
   16CHTO  C124 6373   6.822   3.618   0.419 -0.1353 -0.5244  0.2291
   16CHTO   O83 6374   6.734   3.518   0.478 -1.2768  0.5615 -0.1160
   16CHTO  H204 6375   6.676   3.479   0.415  0.1824 -0.5070 -0.8195
   16CHTO  C109 6376   6.950   3.683   0.637 -0.0521  0.0441  0.4498
   16CHTO  H213 6377   6.893   3.602   0.686 -1.6836  1.8719  1.6578
   16CHTO  C110 6378   6.969   3.807   0.728 -0.2277  0.0924  0.1407
   16CHTO  H214 6379   7.046   3.873   0.688  0.7232  0.3035  2.2202
   16CHTO   O78 6380   7.032   3.769   0.859  0.7278  0.0610  0.3427
   16CHTO  H200 6381   7.049   3.843   0.914 -0.4752 -0.1563  1.0337
   16CHTO  C111 6382   6.837   3.879   0.758  0.5092  0.3271  0.0463
   16CHTO  H215 6383   6.771   3.812   0.814 -0.0617 -0.3039 -1.3611
   16CHTO   N19 6384   6.855   4.005   0.836 -0.1488  0.8785 -0.2276
   16CHTO  H207 6385   6.780   4.076   0.806  0.4347  1.6100  0.0428
   16CHTO  H208 6386   6.953   4.048   0.845 -1.5409  4.0131  0.5196
   16CHTO   O74 6387   7.079   3.628   0.596 -0.1369 -0.3530  0.5340
   16CHTO  C115 6388   7.108   3.503   0.645 -0.4221  0.4896 -0.8290
   16CHTO  H219 6389   7.061   3.489   0.742 -1.2456 -0.9955 -1.4212
   16CHTO   O76 6390   7.058   3.389   0.552 -0.0326  0.0840 -0.7376
   16CHTO  C122 6391   7.117   3.372   0.425  0.7563 -0.3835  0.1521
   16CHTO  H226 6392   7.113   3.467   0.373 -0.6803 -2.1549 -3.0868
   16CHTO  C126 6393   7.036   3.271   0.333  0.2983  0.6467 -0.2072
   16CHTO   O85 6394   6.888   3.269   0.306  0.0709 -0.1874  0.0800
   16CHTO  H206 6395   6.849   3.234   0.384  0.5397  0.2836  0.5284
   16CHTO  C121 6396   7.262   3.321   0.448  0.9606 -0.1688  0.9695
   16CHTO  H225 6397   7.261   3.213   0.423  0.1805 -0.0881  0.6570
   16CHTO   O81 6398   7.349   3.384   0.356  0.1972 -0.5772 -0.1371
   16CHTO  H202 6399   7.332   3.475   0.342  1.1911 -0.2332  0.8884
   16CHTO  C119 6400   7.308   3.340   0.600 -0.2318  0.0391 -0.4939
   16CHTO  H223 6401   7.261   3.263   0.660  0.8787 -0.0287  0.3022
   16CHTO  C117 6402   7.271   3.483   0.646 -0.4536 -0.7013 -0.0300
   16CHTO  H221 6403   7.310   3.570   0.593  1.0806  0.1936  2.4616
   16CHTO   N20 6404   7.316   3.506   0.788  0.0882 -0.3616 -0.0365
   16CHTO  H209 6405   7.391   3.435   0.821 -2.3226 -2.1212  1.8366
   16CHTO  H210 6406   7.310   3.612   0.810  4.0848 -0.5297  2.4101
   16CHTO   O80 6407   7.467   3.298   0.621 -0.7869  0.0193  0.0179
   16CHTO  C103 6408   7.511   3.155   0.620  0.2059  0.0426 -0.1800
   16CHTO  H190 6409   7.420   3.096   0.630  0.4282 -0.5016 -1.2609
   16CHTO  C101 6410   7.586   3.100   0.488  0.2064  0.6463  0.0772
   16CHTO  H188 6411   7.670   3.165   0.466  1.1576 -0.8028 -0.7003
   16CHTO   O68 6412   7.489   3.087   0.364  0.5167  0.5877  0.0473
   16CHTO  H168 6413   7.452   3.000   0.367  3.4000 -0.7266 -0.5508
   16CHTO   C99 6414   7.640   2.951   0.519  0.4641  0.4063 -0.6992
   16CHTO  H186 6415   7.554   2.883   0.533  0.3527  0.8791  1.0626
   16CHTO   N17 6416   7.724   2.896   0.410  0.2660 -0.1965  0.3526
   16CHTO  H174 6417   7.667   2.832   0.344  0.4685  0.6269 -0.6299
   16CHTO  H175 6418   7.787   2.968   0.361  0.4038 -0.8471 -0.4398
   16CHTO   C97 6419   7.712   2.944   0.661 -0.6671 -0.2240  0.1950
   16CHTO  H184 6420   7.811   2.989   0.649 -0.0089 -1.5697  0.4670
   16CHTO   O64 6421   7.638   2.995   0.774 -0.7561 -0.9793  0.3777
   16CHTO  C104 6422   7.599   3.133   0.755  0.1061  0.1631  0.0898
   16CHTO  H191 6423   7.684   3.202   0.754  0.4810 -0.2910 -3.1947
   16CHTO  C108 6424   7.512   3.174   0.876 -0.0897  0.3654 -0.8121
   16CHTO   O71 6425   7.578   3.160   1.000 -0.2880 -0.3101 -0.6350
   16CHTO  H171 6426   7.637   3.228   1.026 -1.4942  0.4923  0.0638
   16CHTO   O62 6427   7.740   2.802   0.691 -0.6608  0.0883 -0.5349
   16CHTO   C91 6428   7.841   2.769   0.793  0.5431 -0.0738  0.5970
   16CHTO  H178 6429   7.927   2.807   0.738  1.5017 -3.4953 -0.3807
   16CHTO   C92 6430   7.870   2.614   0.800  0.0792  0.5354  0.7538
   16CHTO  H179 6431   7.894   2.583   0.697  1.0078  1.9553  0.5344
   16CHTO   O66 6432   7.986   2.588   0.878 -0.1693 -0.7827 -0.1250
   16CHTO  H166 6433   7.976   2.638   0.957 -0.2355  0.4393 -0.8842
   16CHTO   C93 6434   7.753   2.532   0.870  0.4480 -0.9540  0.3901
   16CHTO  H180 6435   7.796   2.431   0.886  1.1246 -0.5902  0.8800
   16CHTO   N16 6436   7.634   2.511   0.780 -0.2688  0.0557  0.4015
   16CHTO  H172 6437   7.544   2.477   0.829 -0.1818  0.4078  0.8193
   16CHTO  H173 6438   7.628   2.595   0.712 -0.1840 -0.4643 -0.2502
   16CHTO   C94 6439   7.723   2.607   1.006  0.1658 -0.3311  0.0012
   16CHTO  H181 6440   7.623   2.652   1.007  0.2253 -0.1961  1.4848
   16CHTO   O61 6441   7.813   2.714   1.041 -0.3064 -0.0800  0.6632
   16CHTO   C95 6442   7.804   2.821   0.944 -0.3486 -1.0457 -0.1137
   16CHTO  H182 6443   7.703   2.863   0.946  0.2163  0.3082  0.8084
   16CHTO  C106 6444   7.903   2.935   0.991 -0.4326 -0.1361  0.1399
   16CHTO   O69 6445   7.918   3.044   0.895 -0.3829  0.2777 -0.1452
   16CHTO  H169 6446   8.000   3.027   0.853 -0.7174  1.4987 -1.3117
   16CHTO   O63 6447   7.735   2.504   1.120 -0.2058 -0.1848  0.0794
   16CHTO   C96 6448   7.589   2.438   1.172  0.0116  0.0383  0.1343
   16CHTO  H183 6449   7.619   2.365   1.247  1.7835  1.0478  0.4468
   16CHTO   C98 6450   7.496   2.364   1.064 -0.1415 -0.6150 -0.1203
   16CHTO  H185 6451   7.490   2.420   0.970  0.7183  0.2750  0.3468
   16CHTO   O67 6452   7.575   2.250   1.033  0.4444  0.3299  0.0041
   16CHTO  H167 6453   7.534   2.215   0.956 -0.7876 -1.2121  1.3594
   16CHTO  C102 6454   7.345   2.329   1.113  0.3029  0.2803 -0.5837
   16CHTO  H189 6455   7.363   2.275   1.208  0.8492 -0.5389 -1.1410
   16CHTO   N18 6456   7.267   2.234   1.029 -0.4519 -0.3300 -0.0474
   16CHTO  H176 6457   7.309   2.139   1.058  0.6358 -0.1382 -0.9558
   16CHTO  H177 6458   7.164   2.238   1.059 -0.1877 -0.9372  0.9449
   16CHTO  C105 6459   7.279   2.459   1.153  0.1152 -0.8006  0.3494
   16CHTO  H192 6460   7.293   2.530   1.071  0.6508  0.2678  1.3484
   16CHTO   O65 6461   7.355   2.513   1.262  0.8187  0.0766 -0.6804
   16CHTO  C100 6462   7.491   2.544   1.244 -0.4167 -0.5607 -1.1027
   16CHTO  H187 6463   7.497   2.632   1.178  2.9646 -0.4216 -0.7174
   16CHTO  C107 6464   7.532   2.585   1.394 -0.4513  0.5578  0.1963
   16CHTO   O70 6465   7.671   2.629   1.396  0.4161 -0.0351  0.0122
   16CHTO  H170 6466   7.689   2.635   1.488  1.3284 -1.3085 -0.0634
   16CHTO   O57 6467   7.133   2.445   1.200 -0.0628  0.4207  0.0945
   16CHTO   C85 6468   7.023   2.505   1.123 -0.2576 -0.4653 -0.6745
   16CHTO  H157 6469   7.054   2.482   1.019  0.0713 -5.0678  0.3394
   16CHTO   C83 6470   7.022   2.662   1.139 -0.6973 -0.1411  0.0469
   16CHTO  H155 6471   7.114   2.694   1.089 -2.0938  0.7307 -2.0240
   16CHTO   O56 6472   7.035   2.707   1.281  0.1443 -0.1154  0.8467
   16CHTO  H135 6473   6.963   2.670   1.328  0.2845 -1.1020  0.3010
   16CHTO   C81 6474   6.904   2.716   1.057  0.0310  0.2016  0.1428
   16CHTO  H153 6475   6.917   2.695   0.951 -1.3010  1.4998 -0.3024
   16CHTO   N14 6476   6.904   2.866   1.060 -0.6633  0.4195  0.4591
   16CHTO  H141 6477   7.001   2.910   1.056 -0.3170 -0.4463 -0.9136
   16CHTO  H142 6478   6.851   2.906   0.976 -0.2014 -0.8589 -0.4491
   16CHTO   C79 6479   6.764   2.646   1.092  0.3092 -0.0623  0.5133
   16CHTO  H151 6480   6.688   2.687   1.026  1.0121 -0.5520 -0.6133
   16CHTO   O52 6481   6.766   2.504   1.086 -0.0409 -0.4334 -0.0457
   16CHTO   C86 6482   6.885   2.444   1.157  0.1397 -0.3707  0.5442
   16CHTO  H158 6483   6.861   2.468   1.262 -0.2742  2.5644 -0.1789
   16CHTO   C90 6484   6.874   2.293   1.126 -0.0881 -0.0340  0.0128
   16CHTO   O60 6485   6.758   2.238   1.191 -0.4628  0.2491  0.1367
   16CHTO  H138 6486   6.784   2.151   1.213 -1.2306 -0.3102 -1.1304
   16CHTO   O50 6487   6.728   2.684   1.226 -0.6733  0.4740  0.2363
   16CHTO   C73 6488   6.607   2.687   1.302  0.0126  0.2048 -0.1116
   16CHTO  H145 6489   6.588   2.585   1.338  0.9519 -0.2639 -0.9486
   16CHTO   C74 6490   6.479   2.752   1.238 -0.0780  0.3846  0.4384
   16CHTO  H146 6491   6.458   2.704   1.141 -2.5859  0.9328  0.6816
   16CHTO   O54 6492   6.362   2.725   1.314 -0.0321 -0.5434  0.4310
   16CHTO  H133 6493   6.366   2.637   1.346 -0.5759 -0.9116 -0.5072
   16CHTO   C75 6494   6.501   2.908   1.218  0.4395  0.2350  0.8130
   16CHTO  H147 6495   6.573   2.924   1.137 -1.2584  2.6385 -0.2821
   16CHTO   N13 6496   6.381   2.979   1.162  0.7317  0.2907  0.0922
   16CHTO  H139 6497   6.356   3.071   1.213 -2.1725  0.4117 -1.4129
   16CHTO  H140 6498   6.292   2.917   1.163  1.0503 -0.1676  0.7042
   16CHTO   C76 6499   6.548   2.977   1.351 -0.3485  0.2168 -0.0512
   16CHTO  H148 6500   6.474   2.982   1.431  2.3080 -0.5527  2.5751
   16CHTO   O49 6501   6.667   2.905   1.380  0.4719 -0.7682  0.5388
   16CHTO   C77 6502   6.647   2.773   1.428 -0.2255 -0.5493 -0.2850
   16CHTO  H149 6503   6.563   2.771   1.498  0.4740 -1.1564  0.5552
   16CHTO   C88 6504   6.776   2.739   1.509  0.6667 -0.1961 -0.3224
   16CHTO   O58 6505   6.764   2.631   1.554  0.5202 -0.0959  0.1243
   16CHTO  H136 6506   6.791   2.574   1.485  1.8601 -0.4148  0.8930
   16CHTO   O51 6507   6.589   3.126   1.327  0.5787  0.2245 -0.1250
   16CHTO   C78 6508   6.578   3.221   1.452  0.2767  0.4937 -0.1083
   16CHTO  H150 6509   6.564   3.155   1.540 -1.0086 -1.7469 -1.9332
   16CHTO   C80 6510   6.459   3.318   1.431  0.2938 -0.3776 -0.0904
   16CHTO  H152 6511   6.474   3.372   1.335  0.3765  0.2394  0.2689
   16CHTO   O55 6512   6.335   3.249   1.441  0.0039  0.5008  0.2553
   16CHTO  H134 6513   6.340   3.164   1.402 -0.3440  0.5032  0.2041
   16CHTO   C84 6514   6.455   3.432   1.545 -0.5870  0.0714  0.4385
   16CHTO  H156 6515   6.433   3.392   1.644 -2.0636 -2.3103 -0.8278
   16CHTO   N15 6516   6.356   3.542   1.512 -0.4185 -0.0013  0.7683
   16CHTO  H143 6517   6.255   3.508   1.499 -0.5552 -0.0484  1.9268
   16CHTO  H144 6518   6.388   3.594   1.424  1.3764 -1.7440  0.3397
   16CHTO   C87 6519   6.591   3.504   1.550 -0.2030 -0.0449 -0.5549
   16CHTO  H159 6520   6.608   3.544   1.450  1.8258 -0.1946 -0.2926
   16CHTO   O53 6521   6.704   3.387   1.578  0.1065  0.2091 -0.5371
   16CHTO   C82 6522   6.715   3.291   1.468  0.0822  0.1996  0.1438
   16CHTO  H154 6523   6.755   3.336   1.378 -0.6510  0.9240  0.1811
   16CHTO   C89 6524   6.815   3.191   1.521  0.4729 -0.9379  0.5592
   16CHTO   O59 6525   6.876   3.116   1.413  0.4260  0.3650  0.4087
   16CHTO  H137 6526   6.962   3.084   1.434  1.6326  2.1944 -1.4760
   16CHTO   O45 6527   6.613   3.620   1.672 -0.2256  0.0282  0.1616
   16CHTO   C67 6528   6.737   3.682   1.673 -0.2832 -0.0855  0.2038
   16CHTO  H124 6529   6.816   3.622   1.627  0.6887  0.7265  0.7852
   16CHTO   C65 6530   6.725   3.822   1.601 -0.7201 -0.6666 -0.1047
   16CHTO  H122 6531   6.622   3.848   1.576 -1.1135 -2.1760 -0.0739
   16CHTO   O44 6532   6.787   3.810   1.475  0.5374 -0.7527  0.1914
   16CHTO  H102 6533   6.880   3.801   1.474  0.9363  2.1120 -3.7928
   16CHTO   C63 6534   6.780   3.937   1.689 -0.3950 -0.3267 -0.4672
   16CHTO  H120 6535   6.706   3.950   1.769  0.2634 -1.4576  0.3426
   16CHTO   N11 6536   6.775   4.076   1.632  0.1844  0.4604  0.1426
   16CHTO  H108 6537   6.681   4.123   1.652 -0.0938  0.9936 -2.1467
   16CHTO  H109 6538   6.856   4.142   1.658 -0.8190  1.3965  0.9177
   16CHTO   C61 6539   6.917   3.894   1.750  0.7642 -0.2280 -0.2655
   16CHTO  H118 6540   6.961   3.974   1.811  1.0511 -0.1891 -0.5216
   16CHTO   O40 6541   6.899   3.785   1.839  0.0038  0.3961  0.3882
   16CHTO   C68 6542   6.773   3.703   1.824  0.0558 -0.2910  0.4053
   16CHTO  H125 6543   6.691   3.759   1.875  0.9261  1.4488 -0.0838
   16CHTO   C72 6544   6.790   3.568   1.900  0.5460  0.0588 -0.1898
   16CHTO   O48 6545   6.673   3.497   1.943  0.1396  0.1800 -0.3909
   16CHTO  H105 6546   6.712   3.436   2.003 -0.3491  0.2414 -0.0079
   16CHTO   O38 6547   7.019   3.871   1.656 -0.0000 -0.1254 -0.2864
   16CHTO   C55 6548   7.155   3.846   1.708  0.4173 -0.2428  0.0056
   16CHTO  H112 6549   7.156   3.802   1.808  2.3072  1.3979  0.7393
   16CHTO   C56 6550   7.252   3.971   1.704  0.2848  0.2470 -0.1691
   16CHTO  H113 6551   7.269   4.006   1.602  1.9331  0.9115  0.3209
   16CHTO   O42 6552   7.193   4.078   1.777 -0.5680  0.0803 -0.1170
   16CHTO  H100 6553   7.246   4.155   1.785 -0.1005 -0.0680 -1.7527
   16CHTO   C57 6554   7.387   3.924   1.766  0.3053  0.6902  0.5104
   16CHTO  H114 6555   7.376   3.895   1.871 -2.3015  0.8122  0.3047
   16CHTO   N10 6556   7.492   4.032   1.772 -0.2045 -0.3443 -0.5154
   16CHTO  H106 6557   7.436   4.124   1.784 -0.5294 -0.7810  1.4378
   16CHTO  H107 6558   7.565   4.025   1.851  0.6082  1.8204 -1.0183
   16CHTO   C58 6559   7.437   3.802   1.681 -0.2319  0.2821  0.0042
   16CHTO  H115 6560   7.455   3.838   1.577 -1.2187 -0.0790 -0.2890
   16CHTO   O37 6561   7.338   3.698   1.674 -0.1248  0.0163 -0.2290
   16CHTO   C59 6562   7.214   3.737   1.622 -0.0226  0.3412  0.4082
   16CHTO  H116 6563   7.227   3.763   1.517 -0.9957 -0.2060  0.1368
   16CHTO   C70 6564   7.125   3.607   1.635  0.2923 -0.3203 -0.4602
   16CHTO   O46 6565   7.140   3.513   1.526  0.8629  0.2498  0.0583
   16CHTO  H103 6566   7.199   3.443   1.546 -1.7649 -1.6671  1.3702
   16CHTO   O39 6567   7.570   3.740   1.744  0.1094  0.4842 -0.1875
   16CHTO   C60 6568   7.636   3.647   1.660  0.0896  0.6440 -0.5048
   16CHTO  H117 6569   7.578   3.624   1.571  0.5830 -0.8195 -0.4632
   16CHTO   C62 6570   7.767   3.716   1.607  0.3074  0.3579 -0.6854
   16CHTO  H119 6571   7.737   3.804   1.546 -0.5789 -0.5607 -1.6064
   16CHTO   O43 6572   7.850   3.758   1.719  0.0515 -0.0473 -0.1981
   16CHTO  H101 6573   7.881   3.676   1.753  0.6992  1.2004  2.3692
   16CHTO   C66 6574   7.835   3.616   1.511 -0.1125 -0.6461 -0.4849
   16CHTO  H123 6575   7.762   3.591   1.435 -0.0544  1.0888 -1.1434
   16CHTO   N12 6576   7.953   3.681   1.440  0.3581 -0.1216 -0.2005
   16CHTO  H110 6577   8.043   3.628   1.466 -0.5273 -1.7767 -0.4820
   16CHTO  H111 6578   7.945   3.676   1.332  3.1826 -0.8831 -0.4276
   16CHTO   C69 6579   7.865   3.486   1.597  0.3698  0.2492 -0.7323
   16CHTO  H126 6580   7.926   3.520   1.683 -0.6994 -1.8740  0.9165
   16CHTO   O41 6581   7.733   3.429   1.645 -0.4395  0.0606  0.2165
   16CHTO   C64 6582   7.659   3.517   1.732  0.0247  0.1172  0.4951
   16CHTO  H121 6583   7.712   3.538   1.828 -0.5035  3.0907  0.2009
   16CHTO   C71 6584   7.525   3.444   1.767  0.5112  0.1273 -0.0030
   16CHTO   O47 6585   7.444   3.388   1.665 -0.5278  0.5022  0.4526
   16CHTO  H104 6586   7.380   3.336   1.709  1.0416 -1.2879  0.6868
   16CHTO   O34 6587   7.948   3.359   1.503 -0.0094 -0.0990  0.0462
   16CHTO   C49 6588   7.940   3.331   1.348  0.0818  0.2921  0.6637
   16CHTO   H91 6589   7.932   3.426   1.296  0.5750  0.3691  0.7247
   16CHTO   C47 6590   7.807   3.253   1.323  0.4533 -0.0539  0.3844
   16CHTO   H89 6591   7.799   3.237   1.214 -1.8920 -1.3630  0.7066
   16CHTO   O33 6592   7.699   3.349   1.353  0.5132 -0.3505  0.1000
   16CHTO   H70 6593   7.717   3.434   1.317 -1.8523 -0.9651 -2.7287
   16CHTO   C45 6594   7.806   3.117   1.405 -0.0565  0.2055 -0.3670
   16CHTO   H87 6595   7.788   3.128   1.513  0.4385 -0.6870 -0.1901
   16CHTO    N8 6596   7.706   3.014   1.346  0.1581 -0.0443 -0.3190
   16CHTO   H75 6597   7.607   3.057   1.348 -0.2941 -1.0052 -1.7892
   16CHTO   H76 6598   7.718   2.915   1.386 -0.5887  0.6576  1.7386
   16CHTO   C43 6599   7.960   3.061   1.415 -0.3448 -0.1123 -0.7688
   16CHTO   H85 6600   8.005   3.103   1.506  0.6904 -4.1163  0.6550
   16CHTO   O29 6601   8.031   3.098   1.295 -0.0836 -0.1772 -0.0999
   16CHTO   C50 6602   8.051   3.236   1.287  0.1085 -0.0227 -0.1622
   16CHTO   H92 6603   8.144   3.242   1.344  0.8907 -0.6149 -1.3495
   16CHTO   C54 6604   8.096   3.298   1.142  0.0637  0.2956  0.1093
   16CHTO   O36 6605   7.996   3.292   1.045 -0.4126 -0.3100 -0.0467
   16CHTO   H72 6606   8.025   3.251   0.966 -3.5428 -1.2851 -0.7607
   16CHTO   O27 6607   7.969   2.917   1.431  0.2259  0.1359 -0.4243
   16CHTO   C37 6608   8.029   2.794   1.464 -0.3050  0.6995  0.3201
   16CHTO   H79 6609   8.133   2.814   1.494  1.0415 -3.8583 -0.8326
   16CHTO   C38 6610   7.959   2.735   1.585 -1.0494  0.7758  0.3512
   16CHTO   H80 6611   7.850   2.750   1.576 -1.3026 -1.2797 -0.4543
   16CHTO   O31 6612   7.995   2.813   1.697  0.3996  0.0918 -0.0986
   16CHTO   H68 6613   7.999   2.902   1.667  1.6165  0.6097  1.4967
   16CHTO   C39 6614   7.978   2.583   1.618  0.0722 -0.4866  0.4700
   16CHTO   H81 6615   8.079   2.583   1.658 -0.2428  2.0657  1.3316
   16CHTO    N7 6616   7.883   2.530   1.726 -0.0508 -0.1978  0.0583
   16CHTO   H73 6617   7.905   2.431   1.763 -0.3980 -0.8267 -1.3806
   16CHTO   H74 6618   7.781   2.531   1.692 -0.3605  1.2704  0.9649
   16CHTO   C40 6619   7.986   2.497   1.482  0.3110 -0.1932 -0.0379
   16CHTO   H82 6620   7.888   2.490   1.436  0.3262  1.1318 -0.2859
   16CHTO   O26 6621   8.081   2.563   1.390  0.3781  0.4381 -0.8197
   16CHTO   C41 6622   8.030   2.692   1.339  0.2043  0.1734  0.0305
   16CHTO   H83 6623   7.930   2.673   1.298 -0.2349 -0.2870  1.2840
   16CHTO   C52 6624   8.139   2.741   1.235 -0.0059 -0.1145  0.0152
   16CHTO   O35 6625   8.148   2.632   1.121  0.7012 -0.3068  0.2503
   16CHTO   H71 6626   8.060   2.599   1.126  0.7857 -0.8732 -1.5746
   16CHTO   O28 6627   8.047   2.369   1.512  0.2536  0.2208  0.7894
   16CHTO   C42 6628   7.997   2.251   1.436 -0.1262  0.6300 -0.0914
   16CHTO   H84 6629   8.084   2.186   1.433  0.7985  1.9489 -2.6520
   16CHTO   C44 6630   7.957   2.277   1.281 -0.0227 -0.3767  0.4201
   16CHTO   H86 6631   7.874   2.347   1.276  0.7025  0.4534 -0.1341
   16CHTO   O32 6632   8.072   2.328   1.208  0.1574  0.4442  0.1689
   16CHTO   H69 6633   8.050   2.345   1.119  0.1918 -1.5657 -0.2591
   16CHTO   C48 6634   7.907   2.152   1.195  0.7862 -0.2682 -0.0614
   16CHTO   H90 6635   7.983   2.074   1.183  0.8035  0.0106 -1.8775
   16CHTO    N9 6636   7.879   2.179   1.048 -0.1955 -0.0925  0.2056
   16CHTO   H77 6637   7.783   2.224   1.031  0.0248  0.9736  1.6426
   16CHTO   H78 6638   7.877   2.084   0.996 -0.1622 -0.4480  0.8417
   16CHTO   C51 6639   7.789   2.090   1.270  0.1770 -0.1706 -0.3383
   16CHTO   H93 6640   7.698   2.149   1.281 -0.2768 -0.6668 -1.3438
   16CHTO   O30 6641   7.845   2.049   1.397 -0.2817  0.0969  0.3786
   16CHTO   C46 6642   7.879   2.168   1.503  0.4818 -0.3727  0.1036
   16CHTO   H88 6643   7.793   2.235   1.501 -0.8117 -1.9984 -0.0439
   16CHTO   C53 6644   7.910   2.104   1.646  0.7276 -0.3114  0.4788
   16CHTO   O72 6645   7.928   2.198   1.748  0.4615  0.5154 -0.3496
   16CHTO  H199 6646   8.018   2.217   1.762  0.7987 -0.4348 -1.1999
   16CHTO   O22 6647   7.757   1.954   1.230  0.3125  0.0719 -0.1740
   16CHTO   C31 6648   7.637   1.896   1.281  0.3906  0.8370 -0.2105
   16CHTO   H59 6649   7.624   1.945   1.379  2.2567 -0.0842  0.5306
   16CHTO   C29 6650   7.504   1.892   1.201 -0.6969 -0.1363 -0.1745
   16CHTO   H57 6651   7.524   1.865   1.096  0.2739 -0.4774  0.0944
   16CHTO   O21 6652   7.458   2.028   1.197 -0.3201 -0.6899  0.0141
   16CHTO   H37 6653   7.364   2.037   1.195 -0.3564 -0.4475  1.8634
   16CHTO   C27 6654   7.392   1.793   1.261  0.0422 -0.1237  0.1071
   16CHTO   H55 6655   7.351   1.841   1.351 -1.4465  1.1532 -1.2208
   16CHTO    N5 6656   7.277   1.761   1.173  0.0196  0.2809  0.3006
   16CHTO   H43 6657   7.181   1.787   1.215  0.4045  1.3856  0.5140
   16CHTO   H44 6658   7.290   1.792   1.071  0.2058  2.0436  0.8412
   16CHTO   C25 6659   7.459   1.657   1.297  0.0681  0.4906  0.1623
   16CHTO   H53 6660   7.501   1.612   1.206  0.8710 -0.5156  1.0073
   16CHTO   O17 6661   7.574   1.674   1.377  0.0782 -0.1684 -0.1440
   16CHTO   C32 6662   7.682   1.751   1.316 -0.2212  0.0153 -0.3823
   16CHTO   H60 6663   7.699   1.691   1.227  0.5031  0.0426 -0.2599
   16CHTO   C36 6664   7.805   1.734   1.411  0.0786 -0.0312 -0.0023
   16CHTO   O25 6665   7.778   1.782   1.548 -0.0956 -0.2736 -0.8220
   16CHTO   H40 6666   7.821   1.733   1.616  0.8294  1.3994 -0.1831
   16CHTO   O15 6667   7.358   1.553   1.378  0.3035  0.0140  0.2374
   16CHTO   C19 6668   7.275   1.514   1.493  0.2764  0.5002  0.2025
   16CHTO   H47 6669   7.285   1.404   1.493 -3.0403  0.1474  1.7981
   16CHTO   C20 6670   7.320   1.572   1.635 -0.2842  0.2323  0.5149
   16CHTO   H48 6671   7.344   1.679   1.631 -0.3509  0.2386  0.2491
   16CHTO   O19 6672   7.443   1.514   1.667 -0.1702  0.0788 -0.3605
   16CHTO   H35 6673   7.437   1.421   1.677 -2.0792  0.0267 -1.7015
   16CHTO   C21 6674   7.217   1.561   1.755 -0.0722 -0.3420 -0.4955
   16CHTO   H49 6675   7.208   1.454   1.775  1.2949 -0.5015 -0.6515
   16CHTO    N4 6676   7.270   1.632   1.880  1.0990  0.9682 -0.3045
   16CHTO   H41 6677   7.187   1.640   1.948  0.1654  0.2407 -1.3355
   16CHTO   H42 6678   7.352   1.577   1.922 -0.7447 -1.1968  0.5381
   16CHTO   C22 6679   7.076   1.605   1.703 -0.5510  0.1511 -0.0753
   16CHTO   H50 6680   7.087   1.710   1.674 -0.3921 -0.5196 -2.6034
   16CHTO   O14 6681   7.037   1.522   1.586 -0.0376  0.1439 -0.4967
   16CHTO   C23 6682   7.125   1.542   1.469 -0.1061  0.1180  0.2939
   16CHTO   H51 6683   7.112   1.646   1.439  1.3699 -0.0632 -1.0783
   16CHTO   C34 6684   7.080   1.463   1.345  0.0636  0.1335  0.2937
   16CHTO   O23 6685   7.071   1.325   1.372  0.0953 -0.2792 -0.8021
   16CHTO   H38 6686   7.134   1.294   1.434 -0.0024 -0.5565 -0.8391
   16CHTO   O16 6687   6.972   1.581   1.797 -0.3006  0.2389 -0.6842
   16CHTO   C24 6688   6.851   1.681   1.779 -0.0380 -0.3885 -0.0703
   16CHTO   H52 6689   6.857   1.733   1.683  0.1246 -2.2159 -1.0708
   16CHTO   C26 6690   6.850   1.784   1.898 -0.3244  0.0477  0.2988
   16CHTO   H54 6691   6.872   1.733   1.994 -1.8429  0.7821  1.0568
   16CHTO   O20 6692   6.959   1.880   1.876 -0.3908  0.4693 -0.6088
   16CHTO   H36 6693   7.038   1.832   1.893 -1.2787 -0.5863  0.6374
   16CHTO   C30 6694   6.721   1.869   1.912  0.0919  0.6990  0.6839
   16CHTO   H58 6695   6.723   1.960   1.851  2.4084  1.1095  1.3082
   16CHTO    N6 6696   6.709   1.940   2.044 -0.2539 -0.4935 -0.5295
   16CHTO   H45 6697   6.692   1.868   2.123  0.2335  1.2207  1.1738
   16CHTO   H46 6698   6.792   2.003   2.073 -2.2484  2.1473 -0.3373
   16CHTO   C33 6699   6.591   1.778   1.886 -0.4022 -0.5606  0.2987
   16CHTO   H61 6700   6.571   1.725   1.980  1.3594  0.2926  1.1890
   16CHTO   O18 6701   6.604   1.683   1.776  0.0210 -0.1828 -0.0270
   16CHTO   C28 6702   6.723   1.599   1.783  0.0147 -0.0814 -0.3950
   16CHTO   H56 6703   6.715   1.544   1.877 -0.9455  0.0270 -0.4054
   16CHTO   C35 6704   6.721   1.493   1.667 -0.5906  0.3968 -0.2026
   16CHTO   O24 6705   6.610   1.412   1.672  0.4166  0.0372 -0.4793
   16CHTO   H39 6706   6.642   1.335   1.715  1.1055  0.0413 -0.9789
   16CHTO    O9 6707   6.477   1.862   1.861  0.1719  0.4702 -0.4362
   16CHTO   C13 6708   6.323   1.804   1.903  0.1507 -0.0772 -0.1703
   16CHTO   H26 6709   6.338   1.773   2.009  0.4694  0.3730 -0.0811
   16CHTO   C11 6710   6.279   1.687   1.813 -0.3332  0.6134  0.3006
   16CHTO   H24 6711   6.342   1.600   1.833 -0.2183  0.6400  0.0568
   16CHTO    O8 6712   6.301   1.723   1.677  0.4090 -0.3607  0.4126
   16CHTO    H3 6713   6.368   1.670   1.638  0.6596 -1.9107  2.8889
   16CHTO    C9 6714   6.133   1.645   1.855  0.7811  0.8230  0.3949
   16CHTO   H22 6715   6.142   1.618   1.962 -1.1817  1.8927  0.8561
   16CHTO    N2 6716   6.087   1.517   1.798  1.0890 -0.3147  0.3694
   16CHTO   H10 6717   6.073   1.437   1.870  1.2980  0.5336  1.3700
   16CHTO   H11 6718   5.992   1.532   1.749  1.4157  1.0413  0.1496
   16CHTO    C7 6719   6.030   1.761   1.845  0.3997  0.7013 -0.2339
   16CHTO   H20 6720   5.972   1.757   1.940  0.5702 -1.0805 -0.1822
   16CHTO    O4 6721   6.103   1.884   1.819  0.8547 -0.0493  0.1298
   16CHTO   C14 6722   6.212   1.915   1.908 -0.7760 -0.5294  0.3114
   16CHTO   H27 6723   6.179   1.934   2.012  0.3297 -1.2760  0.8182
   16CHTO   C18 6724   6.268   2.047   1.848  0.3369  0.2213  0.4898
   16CHTO   O13 6725   6.384   2.098   1.913 -0.1744 -0.4198  0.7035
   16CHTO    H7 6726   6.401   2.180   1.870  0.0445 -0.3218  0.9729
   16CHTO    O2 6727   5.926   1.738   1.707 -0.3547 -0.4415  0.1850
   16CHTO    C1 6728   5.787   1.781   1.727  0.0259  0.4923 -0.4121
   16CHTO   H14 6729   5.783   1.839   1.822  2.0132  0.6628 -0.4042
   16CHTO    C2 6730   5.690   1.649   1.737  0.5337 -0.1247  0.1663
   16CHTO   H15 6731   5.696   1.595   1.642  0.0805  0.8654 -0.4297
   16CHTO    O6 6732   5.744   1.567   1.841 -0.0914  0.3088 -0.0642
   16CHTO    H1 6733   5.675   1.510   1.867 -0.2298  0.4692 -0.0752
   16CHTO    C3 6734   5.538   1.686   1.760 -0.2595  0.1854  0.1354
   16CHTO   H16 6735   5.533   1.740   1.856  1.0882  0.5192  0.0249
   16CHTO    N1 6736   5.443   1.577   1.772 -0.0830 -0.5777  0.0723
   16CHTO    H8 6737   5.468   1.517   1.859 -2.0026 -0.9840  0.3730
   16CHTO    H9 6738   5.344   1.612   1.794  0.3866  0.0893  1.1904
   16CHTO    C4 6739   5.494   1.790   1.646  0.4975  0.1340 -0.1589
   16CHTO   H17 6740   5.478   1.732   1.555 -0.4316  0.3096 -0.1134
   16CHTO    O1 6741   5.589   1.899   1.622  0.2359 -0.2947 -0.2656
   16CHTO    C5 6742   5.732   1.867   1.611 -0.2592 -0.3567  0.0840
   16CHTO   H18 6743   5.760   1.820   1.518  0.2259  2.7123 -1.3911
   16CHTO   C16 6744   5.812   2.003   1.618  0.2043 -0.0636 -0.7123
   16CHTO   O11 6745   5.761   2.082   1.520 -0.1477  0.3108 -0.3249
   16CHTO    H5 6746   5.756   2.029   1.443 -0.3855  0.5589 -0.4842
   16CHTO    O3 6747   5.368   1.856   1.678 -0.2098 -0.0913  0.3286
   16CHTO    C6 6748   5.283   1.893   1.560 -0.4772  0.4541  0.8028
   16CHTO   H19 6749   5.341   1.917   1.471 -1.0193 -0.0197  0.3148
   16CHTO    C8 6750   5.185   1.775   1.532  0.2627  0.0658 -0.4794
   16CHTO   H21 6751   5.136   1.746   1.625  0.6578  0.1804 -0.2351
   16CHTO    O7 6752   5.263   1.672   1.472  0.3667  0.0956 -0.2395
   16CHTO    H2 6753   5.288   1.610   1.538 -0.1678  1.0674  0.8898
   16CHTO   C12 6754   5.072   1.833   1.430  0.4159  1.3475  0.5828
   16CHTO   H25 6755   5.115   1.846   1.329  0.9292  1.8648  0.8627
   16CHTO    N3 6756   4.962   1.737   1.408  0.1430  0.1861  0.3205
   16CHTO   H12 6757   4.993   1.663   1.335  0.4146 -0.8758  1.4898
   16CHTO   H13 6758   4.936   1.699   1.505  1.8890 -0.7053  0.4640
   16CHTO   C15 6759   5.011   1.972   1.476 -0.6311  0.4702 -0.1205
   16CHTO   H28 6760   4.956   1.953   1.568  1.8510 -0.0610  1.3107
   16CHTO   O10 6761   4.926   2.045   1.381 -0.1710  0.4112  0.3497
   16CHTO    H4 6762   4.962   2.058   1.295  2.0263  0.0914  1.1969
   16CHTO    O5 6763   5.115   2.065   1.505 -0.1883 -0.1804  0.0858
   16CHTO   C10 6764   5.205   2.022   1.601  0.7227  0.2497 -0.1134
   16CHTO   H23 6765   5.136   2.002   1.683  1.2473  1.6052  0.6736
   16CHTO   C17 6766   5.298   2.133   1.647  0.5667  0.2709  0.0451
   16CHTO   O12 6767   5.392   2.171   1.546  0.6372  0.3713  0.3027
   16CHTO    H6 6768   5.447   2.100   1.518 -2.0419 -2.4906  1.9498
   17CHTO  H203 6769   5.975   4.098   0.211  0.3996  1.1745  1.2079
   17CHTO   O82 6770   5.911   4.162   0.185 -0.3054  0.1216  0.3435
   17CHTO  C123 6771   5.889   4.268   0.284  0.0957 -0.2422  0.2657
   17CHTO  H227 6772   5.885   4.219   0.383 -0.2675 -1.6591 -0.4391
   17CHTO   O77 6773   5.998   4.367   0.279 -0.5595 -0.2959  0.3358
   17CHTO  C118 6774   5.990   4.483   0.370 -0.2896  0.0910 -0.3294
   17CHTO  H222 6775   5.965   4.441   0.469 -0.1553 -2.5072 -1.3626
   17CHTO  C125 6776   6.128   4.555   0.380  0.1195 -0.5250 -0.2317
   17CHTO   O84 6777   6.151   4.609   0.245 -0.5874  0.4356  0.0063
   17CHTO  H205 6778   6.243   4.606   0.224  0.0003 -0.0472  2.4129
   17CHTO  C114 6779   5.868   4.565   0.315  0.1330 -0.5115  0.2886
   17CHTO  H218 6780   5.893   4.596   0.214  1.5141 -1.3257  0.3667
   17CHTO  C116 6781   5.735   4.488   0.309  0.4168 -0.2115 -0.0218
   17CHTO  H220 6782   5.690   4.475   0.410 -1.3977 -2.4190 -1.0633
   17CHTO   O79 6783   5.640   4.566   0.242  0.2317 -0.1503  0.7673
   17CHTO  H201 6784   5.567   4.524   0.201  0.3527 -0.5340  0.9477
   17CHTO  C120 6785   5.756   4.342   0.245  0.1899  0.4420  0.1052
   17CHTO  H224 6786   5.764   4.354   0.135  0.4949 -1.6315 -0.1213
   17CHTO   N21 6787   5.631   4.264   0.262  0.3562 -0.4281  0.6333
   17CHTO  H211 6788   5.567   4.275   0.175  0.7448  1.5062  0.5591
   17CHTO  H212 6789   5.650   4.158   0.270  1.2564 -0.4270 -1.1114
   17CHTO   O75 6790   5.859   4.687   0.389  1.2228  0.6429 -0.5414
   17CHTO  C112 6791   5.895   4.828   0.293  0.3461 -0.2765  0.7862
   17CHTO  H216 6792   5.876   4.814   0.186 -0.3855  0.5174  0.8028
   17CHTO   O73 6793   6.030   4.861   0.315 -1.0412 -0.2665  0.4143
   17CHTO  C113 6794   6.078   4.978   0.242  0.0049 -0.6905 -0.3360
   17CHTO  H217 6795   6.062   4.970   0.132  0.1301 -0.6438 -0.3574
   17CHTO  C124 6796   6.229   4.983   0.266 -0.1439 -0.2947  0.5773
   17CHTO   O83 6797   6.307   4.884   0.199 -0.6724  0.1167 -0.1679
   17CHTO  H204 6798   6.395   4.908   0.217 -0.3163 -1.4841  0.3454
   17CHTO  C109 6799   6.005   5.102   0.294 -0.5110  0.3478 -0.0700
   17CHTO  H213 6800   6.030   5.114   0.401 -0.5254  1.3483 -0.1766
   17CHTO  C110 6801   5.850   5.080   0.271 -0.2946  0.5578 -1.2772
   17CHTO  H214 6802   5.826   5.068   0.165 -0.9942  1.7701 -1.2605
   17CHTO   O78 6803   5.779   5.188   0.329 -0.1884 -0.2804 -0.0967
   17CHTO  H200 6804   5.773   5.197   0.422  0.7845 -2.3809  0.2007
   17CHTO  C111 6805   5.804   4.950   0.345 -0.0842 -0.0934  0.4066
   17CHTO  H215 6806   5.817   4.966   0.453  1.3310 -2.7718  0.6644
   17CHTO   N19 6807   5.657   4.923   0.317 -0.4357  0.6543  0.4275
   17CHTO  H207 6808   5.606   4.870   0.397 -1.7852 -2.3844 -2.3573
   17CHTO  H208 6809   5.646   4.857   0.233  2.6056 -1.4120  1.5761
   17CHTO   O74 6810   6.047   5.217   0.214  0.1028  0.6397 -0.2433
   17CHTO  C115 6811   6.075   5.358   0.276 -0.7663  1.0700 -0.3962
   17CHTO  H219 6812   6.039   5.358   0.379 -1.5405 -0.3779 -0.6563
   17CHTO   O76 6813   6.240   5.389   0.291 -0.1753  0.8762  0.4592
   17CHTO  C122 6814   6.300   5.455   0.184 -0.2541 -0.1235 -0.1413
   17CHTO  H226 6815   6.313   5.377   0.109 -0.0870 -0.2544  0.0215
   17CHTO  C126 6816   6.450   5.500   0.221  0.2460  0.0948 -0.3531
   17CHTO   O85 6817   6.523   5.380   0.244 -0.6468 -0.3362 -0.1624
   17CHTO  H206 6818   6.526   5.360   0.335  0.4202 -0.3716 -0.2035
   17CHTO  C121 6819   6.218   5.573   0.116  0.2112  0.1772 -0.5321
   17CHTO  H225 6820   6.270   5.671   0.105 -1.0562  1.3490  3.1116
   17CHTO   O81 6821   6.194   5.541  -0.019  0.4073  0.8080 -0.1681
   17CHTO  H202 6822   6.269   5.536  -0.075  0.1905 -0.9075 -0.3343
   17CHTO  C119 6823   6.085   5.602   0.192 -0.1487  0.0570  0.5098
   17CHTO  H223 6824   6.117   5.633   0.291 -2.7087 -0.7250  1.6069
   17CHTO  C117 6825   5.996   5.477   0.197  0.0372  0.7410 -0.1921
   17CHTO  H221 6826   5.963   5.435   0.102 -2.1074 -0.0658  0.8763
   17CHTO   N20 6827   5.863   5.502   0.268  0.5861 -0.1475 -0.0892
   17CHTO  H209 6828   5.877   5.538   0.369 -0.9611  1.2165 -0.3304
   17CHTO  H210 6829   5.797   5.417   0.278 -0.9966  1.2045  1.4346
   17CHTO   O80 6830   6.013   5.734   0.143  0.3559  0.3743  0.6648
   17CHTO  C103 6831   6.005   5.861   0.247  0.2104 -0.2846 -0.5219
   17CHTO  H190 6832   5.962   5.841   0.345 -0.5442  0.7383 -0.6345
   17CHTO  C101 6833   6.147   5.932   0.270 -0.1677 -0.0836 -0.1246
   17CHTO  H188 6834   6.204   5.944   0.178 -1.9956 -0.1599 -1.2714
   17CHTO   O68 6835   6.221   5.841   0.362 -0.0787  0.0557  0.0258
   17CHTO  H168 6836   6.312   5.859   0.348 -0.0086  0.2712  0.7521
   17CHTO   C99 6837   6.138   6.080   0.339  0.0730 -0.3689  0.3051
   17CHTO  H186 6838   6.105   6.063   0.444  1.1409  0.6315  0.8052
   17CHTO   N17 6839   6.271   6.154   0.342  0.2653  0.0540  0.5028
   17CHTO  H174 6840   6.335   6.091   0.402 -1.1361  1.0967  3.1880
   17CHTO  H175 6841   6.255   6.252   0.382  0.3378 -0.5313  1.9820
   17CHTO   C97 6842   6.029   6.160   0.262 -0.2978 -0.5174  0.3021
   17CHTO  H184 6843   6.070   6.177   0.161  0.5368  2.6468  1.1174
   17CHTO   O64 6844   5.903   6.091   0.264  0.4647  0.5695 -0.0074
   17CHTO  C104 6845   5.905   5.963   0.182 -1.1062 -0.3209 -0.4686
   17CHTO  H191 6846   5.939   5.975   0.079  2.4896  2.0299  0.8983
   17CHTO  C108 6847   5.760   5.911   0.174  0.3120  0.8386 -0.4590
   17CHTO   O71 6848   5.742   5.806   0.078  0.0890 -0.2376 -0.4103
   17CHTO  H171 6849   5.653   5.776   0.085  0.4791 -0.7616  3.1455
   17CHTO   O62 6850   5.998   6.286   0.324  0.0120 -0.2810 -0.5509
   17CHTO   C91 6851   5.933   6.397   0.251 -0.5925 -0.3467  0.5093
   17CHTO  H178 6852   5.875   6.346   0.174  1.5412 -1.9269 -0.0891
   17CHTO   C92 6853   6.039   6.495   0.196  0.1804  0.1329  0.3229
   17CHTO  H179 6854   6.111   6.434   0.139 -0.1298 -0.1038  0.1835
   17CHTO   O66 6855   5.963   6.566   0.094 -0.4750 -0.0009 -0.2392
   17CHTO  H166 6856   6.009   6.632   0.046 -0.6474 -0.3156 -0.8340
   17CHTO   C93 6857   6.102   6.597   0.291 -0.0624 -0.1590 -0.2264
   17CHTO  H180 6858   6.144   6.681   0.233  0.7030 -1.1009 -1.0616
   17CHTO   N16 6859   6.221   6.532   0.352  0.3948 -0.1177 -0.2614
   17CHTO  H172 6860   6.178   6.457   0.416  0.7824  1.4905  1.9497
   17CHTO  H173 6861   6.292   6.502   0.277  0.7078  3.3598 -1.4236
   17CHTO   C94 6862   5.999   6.655   0.398  0.7491  0.4666 -0.1313
   17CHTO  H181 6863   6.017   6.614   0.497  1.6196 -0.5533 -0.7125
   17CHTO   O61 6864   5.863   6.617   0.360 -0.0408 -0.1301  0.1456
   17CHTO   C95 6865   5.835   6.475   0.353  1.0436 -0.7155  0.2952
   17CHTO  H182 6866   5.848   6.424   0.449 -0.8411  0.4149  1.1757
   17CHTO  C106 6867   5.689   6.458   0.312 -0.2508 -0.9582 -0.1100
   17CHTO   O69 6868   5.609   6.501   0.430  0.0607  0.2155 -0.0237
   17CHTO  H169 6869   5.521   6.505   0.398 -0.3959 -1.0272  1.0251
   17CHTO   O63 6870   6.021   6.820   0.408 -0.0385  0.0853 -0.0567
   17CHTO   C96 6871   5.974   6.885   0.532  0.9732 -0.7227 -0.0844
   17CHTO  H183 6872   5.965   6.802   0.602  1.9231 -1.8840 -1.3114
   17CHTO   C98 6873   5.842   6.967   0.525  0.1121 -0.7886 -0.3663
   17CHTO  H185 6874   5.839   7.030   0.435 -0.2691  1.5615  1.2216
   17CHTO   O67 6875   5.747   6.861   0.511  0.5473  0.2155  0.7341
   17CHTO  H167 6876   5.706   6.867   0.427  1.3312 -0.1015  0.3209
   17CHTO  C102 6877   5.818   7.062   0.655  0.3078  0.1499  0.1228
   17CHTO  H189 6878   5.796   6.990   0.735 -0.1482 -0.3141 -0.4163
   17CHTO   N18 6879   5.704   7.158   0.644 -0.0310  0.1082  0.0166
   17CHTO  H176 6880   5.671   7.209   0.733 -1.0970  0.1896 -0.4115
   17CHTO  H177 6881   5.619   7.107   0.601  1.5972 -1.7785 -1.0546
   17CHTO  C105 6882   5.945   7.132   0.704 -0.3249 -0.2152 -0.1821
   17CHTO  H192 6883   5.958   7.223   0.647  0.1566 -0.3343 -0.2620
   17CHTO   O65 6884   6.059   7.040   0.705  0.0722  0.0898 -0.4453
   17CHTO  C100 6885   6.090   6.982   0.573 -0.6711 -0.2062 -0.2329
   17CHTO  H187 6886   6.100   7.063   0.499  0.5220 -1.0114 -0.9683
   17CHTO  C107 6887   6.225   6.914   0.604  0.4850  0.3861 -0.5139
   17CHTO   O70 6888   6.332   7.020   0.596 -0.1127  0.0044  0.1447
   17CHTO  H170 6889   6.414   6.975   0.592  1.1081  2.1903 -0.1928
   17CHTO   O57 6890   5.914   7.175   0.864  0.2852  0.1141  0.4728
   17CHTO   C85 6891   5.975   7.282   0.942  0.5881 -0.4235 -0.5713
   17CHTO  H157 6892   5.916   7.370   0.909 -0.6297  0.1186  2.9093
   17CHTO   C83 6893   6.123   7.318   0.899  0.0521 -0.0799  0.3874
   17CHTO  H155 6894   6.122   7.340   0.792 -1.5584  1.3561  0.6682
   17CHTO   O56 6895   6.209   7.201   0.912 -0.3053  0.6554  0.3317
   17CHTO  H135 6896   6.193   7.145   0.838  0.2563 -1.8295  2.0651
   17CHTO   C81 6897   6.166   7.443   0.975  0.3221 -0.1157  0.2410
   17CHTO  H153 6898   6.099   7.524   0.948 -0.5717 -1.2198 -0.9626
   17CHTO   N14 6899   6.306   7.485   0.939  0.3286 -0.2781  0.0239
   17CHTO  H141 6900   6.382   7.420   0.978  1.2555 -0.3109 -1.7773
   17CHTO  H142 6901   6.315   7.495   0.833 -0.4169  0.9946  0.0825
   17CHTO   C79 6902   6.147   7.408   1.134 -1.0076  0.0174  0.0396
   17CHTO  H151 6903   6.171   7.496   1.193 -0.6169 -0.7869  1.0817
   17CHTO   O52 6904   6.013   7.387   1.169  0.3377 -0.1880 -0.3903
   17CHTO   C86 6905   5.969   7.263   1.099  0.4825  0.7963  0.4031
   17CHTO  H158 6906   6.034   7.177   1.128 -0.6835  0.4035  1.9117
   17CHTO   C90 6907   5.831   7.225   1.138 -0.1613 -0.0907  0.3301
   17CHTO   O60 6908   5.812   7.237   1.282  0.4200 -0.1399  0.2744
   17CHTO  H138 6909   5.720   7.236   1.302  0.1713  3.0416 -0.5880
   17CHTO   O50 6910   6.233   7.305   1.189 -0.0759  0.2882  0.4886
   17CHTO   C73 6911   6.332   7.279   1.291 -0.4638  0.2511  0.0929
   17CHTO  H145 6912   6.354   7.376   1.338 -0.2857  0.6967 -0.8812
   17CHTO   C74 6913   6.456   7.216   1.222 -0.1221 -0.2025  0.1780
   17CHTO  H146 6914   6.495   7.283   1.143  0.9144  0.2942  1.0958
   17CHTO   O54 6915   6.560   7.222   1.322 -0.2930 -0.3180 -0.1598
   17CHTO  H133 6916   6.640   7.180   1.296  1.4283  2.2930  0.7863
   17CHTO   C75 6917   6.423   7.075   1.166  0.1928  0.6639  0.2862
   17CHTO  H147 6918   6.347   7.082   1.087 -1.0231 -0.0069  1.3895
   17CHTO   N13 6919   6.540   7.014   1.105  0.1532  0.3535  0.0880
   17CHTO  H139 6920   6.614   6.990   1.181 -1.7562  1.0387  2.2421
   17CHTO  H140 6921   6.516   6.916   1.067 -0.6507  0.9915 -1.0575
   17CHTO   C76 6922   6.341   6.979   1.272 -0.3942 -0.2207 -0.6424
   17CHTO  H148 6923   6.418   6.933   1.334  0.1623  0.7686 -0.5769
   17CHTO   O49 6924   6.239   7.049   1.346 -0.0033 -1.1748 -0.4014
   17CHTO   C77 6925   6.275   7.181   1.400 -0.6819 -0.3939  0.4763
   17CHTO  H149 6926   6.355   7.152   1.469  0.5930 -0.7818 -1.1286
   17CHTO   C88 6927   6.155   7.236   1.477  0.2376  0.1691  0.0906
   17CHTO   O58 6928   6.164   7.385   1.523 -0.6897  0.1402  0.3609
   17CHTO  H136 6929   6.249   7.413   1.551  0.1357 -0.7395 -1.1964
   17CHTO   O51 6930   6.265   6.873   1.196  0.6478  0.1361  0.1914
   17CHTO   C78 6931   6.135   6.797   1.255 -0.2309 -0.0983  0.0938
   17CHTO  H150 6932   6.082   6.858   1.331 -0.1873  0.6435 -0.4748
   17CHTO   C80 6933   6.182   6.672   1.330  0.1031  0.8587  0.3814
   17CHTO  H152 6934   6.251   6.617   1.262 -1.1944 -1.1383  0.6462
   17CHTO   O55 6935   6.253   6.708   1.445  0.1385  0.8531 -0.1874
   17CHTO  H134 6936   6.326   6.765   1.433 -0.5364  1.5551 -1.1086
   17CHTO   C84 6937   6.047   6.584   1.367  0.4468  0.2423  0.3946
   17CHTO  H156 6938   5.978   6.640   1.430  1.0872  1.5189 -0.0265
   17CHTO   N15 6939   6.077   6.452   1.437 -0.6928  0.6863 -0.3391
   17CHTO  H143 6940   6.145   6.453   1.520 -0.5885  3.5373 -0.3901
   17CHTO  H144 6941   5.989   6.401   1.469  0.0324  0.4530  1.2899
   17CHTO   C87 6942   5.970   6.564   1.234  0.4246  1.1307  0.1978
   17CHTO  H159 6943   6.033   6.512   1.162 -0.8853  0.5723 -0.5605
   17CHTO   O53 6944   5.937   6.699   1.181  0.2074 -0.2586  0.0077
   17CHTO   C82 6945   6.050   6.765   1.131  0.3767 -0.7102  0.8287
   17CHTO  H154 6946   6.109   6.708   1.059 -1.3272 -1.0589 -0.2939
   17CHTO   C89 6947   6.010   6.895   1.063  0.0792 -0.2088 -0.1102
   17CHTO   O59 6948   5.903   6.885   0.971  0.0235 -0.2104  0.0237
   17CHTO  H137 6949   5.849   6.959   0.988 -1.5512 -1.0771 -1.1047
   17CHTO   O45 6950   5.828   6.486   1.261 -0.4879  0.1760  0.5903
   17CHTO   C67 6951   5.754   6.425   1.157 -0.1004  0.4158  0.4782
   17CHTO  H124 6952   5.656   6.389   1.190  0.1571 -1.2619 -0.4919
   17CHTO   C65 6953   5.734   6.506   1.022 -0.3185  0.1505 -0.4002
   17CHTO  H122 6954   5.830   6.556   1.009 -1.1282  1.8864  0.0479
   17CHTO   O44 6955   5.632   6.605   1.054  0.2387  0.1862  0.4656
   17CHTO  H102 6956   5.668   6.691   1.041 -0.0890  0.2546 -0.0143
   17CHTO   C63 6957   5.715   6.414   0.899  0.2409 -0.1802  0.4569
   17CHTO  H120 6958   5.815   6.396   0.859  0.1833 -1.5342  0.8718
   17CHTO   N11 6959   5.650   6.474   0.779  0.4425 -0.3035 -0.1901
   17CHTO  H108 6960   5.692   6.568   0.749  0.3661 -0.2650 -0.1775
   17CHTO  H109 6961   5.548   6.500   0.800  0.8917  1.3256  0.0487
   17CHTO   C61 6962   5.663   6.269   0.931 -0.0282 -0.4191  0.6684
   17CHTO  H118 6963   5.669   6.217   0.834  2.4814 -1.4120  1.3153
   17CHTO   O40 6964   5.755   6.201   1.016  0.5148  0.0305 -0.6447
   17CHTO   C68 6965   5.821   6.287   1.118  0.0772 -0.2942  0.4126
   17CHTO  H125 6966   5.922   6.306   1.076  0.0465 -2.9544 -0.9967
   17CHTO   C72 6967   5.840   6.192   1.243 -0.3633 -0.5915 -0.2703
   17CHTO   O48 6968   5.920   6.082   1.214  0.2072 -0.0480  0.1931
   17CHTO  H105 6969   5.860   6.011   1.227  0.4819  0.1076  2.4898
   17CHTO   O38 6970   5.531   6.278   0.979  0.2527 -0.2171  0.0010
   17CHTO   C55 6971   5.468   6.178   1.067  0.0124  0.0657  0.2177
   17CHTO  H112 6972   5.525   6.164   1.160 -2.0369 -0.1310  1.4645
   17CHTO   C56 6973   5.449   6.038   0.994 -0.3023 -0.4929  0.6737
   17CHTO  H113 6974   5.415   6.066   0.894  0.4801 -0.8113  0.3162
   17CHTO   O42 6975   5.578   5.990   0.965  0.3364 -0.1342 -0.7044
   17CHTO  H100 6976   5.619   5.955   1.042 -0.9889  0.9352  0.5360
   17CHTO   C57 6977   5.369   5.924   1.072 -0.3084  0.2769  1.2977
   17CHTO  H114 6978   5.424   5.883   1.156 -0.7534 -2.6417  0.2214
   17CHTO   N10 6979   5.338   5.811   0.979 -0.1413 -0.0227 -0.4561
   17CHTO  H106 6980   5.333   5.710   1.018 -1.5905 -0.5252 -1.8579
   17CHTO  H107 6981   5.258   5.830   0.909 -0.1109  0.6708 -0.3083
   17CHTO   C58 6982   5.240   6.000   1.116 -0.4701 -0.4104 -0.7393
   17CHTO  H115 6983   5.182   6.030   1.025  0.3205 -0.0681 -1.1349
   17CHTO   O37 6984   5.268   6.119   1.195  0.3141  0.3768 -0.0761
   17CHTO   C59 6985   5.320   6.220   1.112  0.5043 -0.0301 -0.8499
   17CHTO  H116 6986   5.258   6.237   1.024 -0.3452  0.0130 -0.2524
   17CHTO   C70 6987   5.331   6.341   1.199  0.2457 -0.6574 -0.5647
   17CHTO   O46 6988   5.200   6.387   1.238 -0.0270 -0.7438  0.0839
   17CHTO  H103 6989   5.177   6.342   1.318  1.5562 -0.9017  0.4779
   17CHTO   O39 6990   5.134   5.898   1.212  0.0959 -0.3514  0.5987
   17CHTO   C60 6991   5.002   5.956   1.209 -0.4154  0.7425  0.5289
   17CHTO  H117 6992   5.007   6.056   1.166  1.1114  0.3668 -0.2425
   17CHTO   C62 6993   4.915   5.891   1.107  0.0923 -0.9033 -0.0932
   17CHTO  H119 6994   4.972   5.907   1.013  0.3792 -0.1190  0.2043
   17CHTO   O43 6995   4.909   5.746   1.132  0.2388  0.2774  0.1530
   17CHTO  H101 6996   4.860   5.704   1.065  1.5741 -0.9048 -0.1125
   17CHTO   C66 6997   4.768   5.961   1.106 -0.4337 -0.2308 -0.1445
   17CHTO  H123 6998   4.780   6.068   1.086 -1.2999 -0.1395 -0.1753
   17CHTO   N12 6999   4.680   5.906   0.999 -0.2206  0.2203  0.3261
   17CHTO  H110 7000   4.733   5.875   0.910 -1.8502 -0.4621 -0.4354
   17CHTO  H111 7001   4.588   5.960   0.980  0.1397  0.5356 -0.5504
   17CHTO   C69 7002   4.706   5.940   1.251  0.1468 -0.1968 -0.0630
   17CHTO  H126 7003   4.722   5.832   1.273 -0.3703 -0.0865  0.8778
   17CHTO   O41 7004   4.790   6.031   1.347 -0.5403  0.7461 -0.7390
   17CHTO   C64 7005   4.936   5.957   1.350  0.1152  0.3899 -0.3654
   17CHTO  H121 7006   4.923   5.852   1.385 -1.7794  0.5939 -0.4238
   17CHTO   C71 7007   5.034   6.016   1.453  0.1317 -0.3557  0.3596
   17CHTO   O47 7008   5.053   6.159   1.430 -0.0434  0.2524  0.3660
   17CHTO  H104 7009   4.971   6.203   1.423 -0.8395 -1.2428 -0.0409
   17CHTO   O34 7010   4.561   5.974   1.272  0.7588  0.1144  0.0899
   17CHTO   C49 7011   4.519   6.123   1.282  0.1217  0.3856  0.4597
   17CHTO   H91 7012   4.601   6.181   1.324 -1.7879  2.5151  1.3771
   17CHTO   C47 7013   4.397   6.149   1.375 -0.5178 -0.2929 -0.3610
   17CHTO   H89 7014   4.392   6.259   1.379 -1.0299 -0.3647  1.9073
   17CHTO   O33 7015   4.426   6.099   1.508 -0.0081  0.1371 -0.3362
   17CHTO   H70 7016   4.492   6.147   1.555 -1.0080  3.0153 -1.7322
   17CHTO   C45 7017   4.253   6.087   1.328 -0.0761 -0.6299  0.0888
   17CHTO   H87 7018   4.244   5.992   1.383 -0.1683 -1.2032 -0.8980
   17CHTO    N8 7019   4.134   6.174   1.365  0.2433  0.1568  0.2752
   17CHTO   H75 7020   4.058   6.118   1.418 -0.3348 -0.1681 -0.8803
   17CHTO   H76 7021   4.086   6.220   1.280  1.4990  1.9786  0.5210
   17CHTO   C43 7022   4.271   6.050   1.177 -0.2401 -0.0584 -0.2559
   17CHTO   H85 7023   4.327   5.956   1.179 -0.4587 -0.1901  2.5003
   17CHTO   O29 7024   4.333   6.151   1.098  0.0131  0.4331 -0.3038
   17CHTO   C50 7025   4.466   6.178   1.142  1.0359  0.3990 -0.8158
   17CHTO   H92 7026   4.532   6.140   1.062  0.5954 -2.3044  0.0485
   17CHTO   C54 7027   4.498   6.330   1.128  0.2659 -0.7726 -0.0586
   17CHTO   O36 7028   4.391   6.415   1.178 -0.3227 -0.1716  0.1930
   17CHTO   H72 7029   4.327   6.422   1.111  0.5429 -2.7856 -0.9660
   17CHTO   O27 7030   4.151   6.012   1.117 -0.2686 -0.0529 -0.1661
   17CHTO   C37 7031   4.096   5.887   1.061 -0.0176 -0.3233 -0.4492
   17CHTO   H79 7032   4.128   5.810   1.133 -1.2299  0.2278  0.6887
   17CHTO   C38 7033   3.937   5.897   1.058  0.3604  0.0946 -0.0110
   17CHTO   H80 7034   3.910   5.985   0.998  0.5195 -0.0339 -0.2748
   17CHTO   O31 7035   3.875   5.909   1.194  0.2624  0.4821  0.1442
   17CHTO   H68 7036   3.894   5.842   1.256 -1.4458 -1.1346 -1.0005
   17CHTO   C39 7037   3.891   5.763   0.982 -0.2854 -0.4376 -0.0410
   17CHTO   H81 7038   3.913   5.681   1.050  0.6806  2.2047  3.0027
   17CHTO    N7 7039   3.738   5.774   0.960 -0.2483  0.1395 -0.5127
   17CHTO   H73 7040   3.693   5.855   1.017  0.3341  0.5489 -0.6314
   17CHTO   H74 7041   3.718   5.803   0.858  2.5085  0.3113 -1.0340
   17CHTO   C40 7042   3.964   5.730   0.844 -0.0512  0.2246 -0.2920
   17CHTO   H82 7043   3.939   5.808   0.772 -0.0303  0.5517  0.0518
   17CHTO   O26 7044   4.104   5.729   0.874 -0.1052  0.7591 -0.2164
   17CHTO   C41 7045   4.157   5.854   0.919  0.0577  0.4189  0.4839
   17CHTO   H83 7046   4.120   5.937   0.857 -0.3156  0.4480  0.7390
   17CHTO   C52 7047   4.312   5.838   0.915  0.6822  0.5166  0.2030
   17CHTO   O35 7048   4.367   5.742   0.997  0.3174 -0.3702 -0.2077
   17CHTO   H71 7049   4.436   5.776   1.052 -1.5985  2.2150  0.6936
   17CHTO   O28 7050   3.919   5.603   0.784  0.2813  0.1364  0.0290
   17CHTO   C42 7051   4.003   5.482   0.795  0.3523 -0.2572  0.3119
   17CHTO   H84 7052   3.939   5.407   0.750  3.1498 -1.9368 -1.0009
   17CHTO   C44 7053   4.042   5.437   0.940  0.4534  0.5772 -0.1305
   17CHTO   H86 7054   4.075   5.522   0.999 -0.8164 -0.5087  2.2331
   17CHTO   O32 7055   3.920   5.400   1.000  0.3067 -0.2300  0.7274
   17CHTO   H69 7056   3.936   5.343   1.073 -1.8722 -0.4967  1.0549
   17CHTO   C48 7057   4.144   5.314   0.953 -0.5629 -0.2409  0.1158
   17CHTO   H90 7058   4.099   5.223   0.913 -2.7395  0.7742  0.2023
   17CHTO    N9 7059   4.192   5.282   1.091  0.5968 -0.1184  0.4430
   17CHTO   H77 7060   4.295   5.305   1.111 -0.1678  1.2095  3.1025
   17CHTO   H78 7061   4.128   5.328   1.166 -0.5324 -0.2473 -0.4198
   17CHTO   C51 7062   4.264   5.364   0.867 -1.2610  0.0349  0.5867
   17CHTO   H93 7063   4.292   5.461   0.909 -0.2192 -0.6171  1.3899
   17CHTO   O30 7064   4.218   5.372   0.731 -0.1918  0.0998 -0.0694
   17CHTO   C46 7065   4.127   5.485   0.705  0.6471 -0.4306  0.4324
   17CHTO   H88 7066   4.178   5.580   0.721 -1.5934  0.9722 -0.5352
   17CHTO   C53 7067   4.084   5.480   0.555 -0.3921  0.1306  0.4821
   17CHTO   O72 7068   3.981   5.577   0.524 -0.2377 -0.2612  0.3139
   17CHTO  H199 7069   3.898   5.544   0.554 -1.2538  1.4261 -0.5553
   17CHTO   O22 7070   4.380   5.284   0.857 -0.1475  0.4081  0.1614
   17CHTO   C31 7071   4.504   5.327   0.793 -0.5344 -0.2884  0.2186
   17CHTO   H59 7072   4.583   5.256   0.825  0.9156  0.9284 -0.6180
   17CHTO   C29 7073   4.504   5.330   0.644  0.1319 -1.1893  0.3218
   17CHTO   H57 7074   4.434   5.408   0.610  3.0664  1.5202  0.2287
   17CHTO   O21 7075   4.460   5.210   0.586  0.0867 -0.3771 -0.5530
   17CHTO   H37 7076   4.472   5.137   0.644 -1.0684 -0.2765 -0.1709
   17CHTO   C27 7077   4.644   5.367   0.589  0.6838 -0.1692 -0.1683
   17CHTO   H55 7078   4.719   5.298   0.632 -0.6920 -1.0178  0.9201
   17CHTO    N5 7079   4.659   5.374   0.444  0.5754  0.2985  0.2199
   17CHTO   H43 7080   4.688   5.471   0.406  0.5400  1.7622  3.7790
   17CHTO   H44 7081   4.573   5.353   0.382  0.7644 -0.4131  0.1853
   17CHTO   C25 7082   4.675   5.510   0.650  0.0276  0.5268 -0.1427
   17CHTO   H53 7083   4.597   5.580   0.618 -0.8064  0.8147  2.3986
   17CHTO   O17 7084   4.678   5.508   0.791  0.3318 -0.5147 -0.0944
   17CHTO   C32 7085   4.550   5.467   0.844 -0.2559 -0.2180 -0.9146
   17CHTO   H60 7086   4.476   5.539   0.813 -0.3393 -1.8298 -4.6815
   17CHTO   C36 7087   4.566   5.474   1.003  0.7652  0.1400 -0.1932
   17CHTO   O25 7088   4.600   5.606   1.053 -0.0512  0.7262  0.3126
   17CHTO   H40 7089   4.593   5.672   0.986  1.0245 -1.7740 -2.3466
   17CHTO   O15 7090   4.821   5.573   0.616 -0.5753 -0.0036  0.3943
   17CHTO   C19 7091   4.858   5.713   0.600  0.7146 -0.3768  0.4082
   17CHTO   H47 7092   4.924   5.725   0.512  1.9083  1.2879  1.4999
   17CHTO   C20 7093   4.744   5.815   0.566  0.0213  0.1221  0.1026
   17CHTO   H48 7094   4.666   5.816   0.643  1.1585 -0.0857  1.2894
   17CHTO   O19 7095   4.693   5.776   0.437  0.5763 -0.2776  0.7214
   17CHTO   H35 7096   4.615   5.724   0.434 -1.2509  2.4285 -1.1914
   17CHTO   C21 7097   4.797   5.964   0.556  0.3279  0.3899  0.4433
   17CHTO   H49 7098   4.859   5.971   0.467  2.0698 -0.0915  1.5865
   17CHTO    N4 7099   4.693   6.067   0.529  0.3323 -0.2467  0.1736
   17CHTO   H41 7100   4.742   6.162   0.538  1.1680 -0.8371  2.1932
   17CHTO   H42 7101   4.609   6.066   0.598 -0.9007 -2.0897 -1.3161
   17CHTO   C22 7102   4.895   5.999   0.667  1.1867  0.4711  0.3926
   17CHTO   H50 7103   4.847   6.011   0.764 -0.8584  0.3708 -0.5745
   17CHTO   O14 7104   4.996   5.899   0.679 -0.0224  0.6422 -0.1048
   17CHTO   C23 7105   4.939   5.770   0.722  0.6960 -0.0988 -0.1077
   17CHTO   H51 7106   4.871   5.798   0.804  0.0465  2.4720 -1.4559
   17CHTO   C34 7107   5.042   5.669   0.767 -0.2276  0.3884 -0.5963
   17CHTO   O23 7108   4.979   5.557   0.837  0.0527 -0.1222 -0.0288
   17CHTO   H38 7109   4.900   5.524   0.798  1.3734 -0.2741 -2.6737
   17CHTO   O16 7110   4.962   6.120   0.645  0.1734 -0.0247  0.5055
   17CHTO   C24 7111   5.023   6.195   0.787  0.1384 -0.2700  0.9230
   17CHTO   H52 7112   5.060   6.120   0.857 -1.6442  0.6420  2.8809
   17CHTO   C26 7113   4.915   6.289   0.849  0.7751  0.3723 -0.0221
   17CHTO   H54 7114   4.884   6.366   0.776 -2.7608 -1.5254 -0.6334
   17CHTO   O20 7115   4.807   6.205   0.891  0.5732 -0.3861  0.2665
   17CHTO   H36 7116   4.733   6.208   0.834  2.0320 -1.0772 -1.7034
   17CHTO   C30 7117   4.979   6.382   0.956  0.3024 -0.6056  0.0760
   17CHTO   H58 7118   5.048   6.327   1.023 -0.2682 -0.5444  0.7188
   17CHTO    N6 7119   4.871   6.453   1.035  0.6832  0.0825  0.6219
   17CHTO   H45 7120   4.875   6.561   1.032  4.2109  0.0194  0.5308
   17CHTO   H46 7121   4.863   6.420   1.138  2.3737  2.3333  1.5084
   17CHTO   C33 7122   5.082   6.469   0.874  0.0164 -0.2092 -1.0786
   17CHTO   H61 7123   5.043   6.521   0.785 -1.1696  1.9029  0.6513
   17CHTO   O18 7124   5.185   6.370   0.833 -0.3532 -0.4229 -0.5078
   17CHTO   C28 7125   5.144   6.272   0.736  0.1690 -0.8750 -0.3025
   17CHTO   H56 7126   5.112   6.324   0.647  1.5753  1.6431  0.6100
   17CHTO   C35 7127   5.247   6.165   0.689 -0.3539  0.2312  0.1550
   17CHTO   O24 7128   5.380   6.208   0.670  0.0641  0.2297  0.1854
   17CHTO   H39 7129   5.412   6.248   0.749  1.4022  2.8643 -1.6013
   17CHTO    O9 7130   5.139   6.573   0.954 -0.5599 -0.3855 -0.0795
   17CHTO   C13 7131   5.209   6.690   0.865 -0.1136 -0.0486 -0.2834
   17CHTO   H26 7132   5.240   6.639   0.772  0.2453 -0.2068 -0.0812
   17CHTO   C11 7133   5.329   6.750   0.948 -0.2910 -0.4152  0.5757
   17CHTO   H24 7134   5.402   6.670   0.972 -0.0756  0.4980  3.1815
   17CHTO    O8 7135   5.293   6.803   1.079 -0.4503 -0.8396  0.2357
   17CHTO    H3 7136   5.226   6.868   1.070  0.1814 -0.0903  0.8339
   17CHTO    C9 7137   5.394   6.854   0.855  0.5949 -0.2342  0.2792
   17CHTO   H22 7138   5.406   6.805   0.758 -0.5188 -0.2997  0.1697
   17CHTO    N2 7139   5.529   6.898   0.893  0.6776  0.4126  0.0982
   17CHTO   H10 7140   5.553   6.987   0.837 -0.0497  0.1353 -0.6766
   17CHTO   H11 7141   5.535   6.906   1.000  1.1234  1.4796 -0.0067
   17CHTO    C7 7142   5.292   6.973   0.831  0.8898  0.0056  0.0348
   17CHTO   H20 7143   5.340   7.044   0.760  1.1935 -1.3000 -1.0879
   17CHTO    O4 7144   5.169   6.923   0.768 -0.0446 -0.4904 -0.5281
   17CHTO   C14 7145   5.106   6.804   0.816  0.6128 -0.1896 -0.0685
   17CHTO   H27 7146   5.055   6.758   0.729  0.5185  0.1393 -0.1868
   17CHTO   C18 7147   5.000   6.836   0.911  0.1443 -0.1940 -0.5915
   17CHTO   O13 7148   4.904   6.911   0.839 -0.4130 -0.1651  0.8945
   17CHTO    H7 7149   4.939   6.994   0.814  1.0893 -1.4763 -1.6189
   17CHTO    O2 7150   5.249   7.053   0.966  0.1433  0.2728  0.1029
   17CHTO    C1 7151   5.241   7.200   0.970 -0.5746  0.1862 -0.0698
   17CHTO   H14 7152   5.195   7.229   0.874  1.1631  2.3848 -0.2784
   17CHTO    C2 7153   5.382   7.275   0.992  0.0401 -0.0811  0.9210
   17CHTO   H15 7154   5.430   7.238   1.084  1.7117  0.9804  0.5132
   17CHTO    O6 7155   5.462   7.249   0.878  0.1100  0.2026  0.4752
   17CHTO    H1 7156   5.544   7.291   0.894  0.4478  0.7257 -2.3888
   17CHTO    C3 7157   5.351   7.429   1.009 -0.1901 -0.9272  0.0526
   17CHTO   H16 7158   5.301   7.454   0.915  2.7950 -0.3051 -1.4269
   17CHTO    N1 7159   5.476   7.509   1.025 -0.1831 -0.0660 -0.0956
   17CHTO    H8 7160   5.534   7.498   0.935 -0.2508  0.5603 -0.2166
   17CHTO    H9 7161   5.521   7.477   1.118  0.7151  0.2562 -0.4121
   17CHTO    C4 7162   5.249   7.449   1.133  0.6059  0.3745 -0.7031
   17CHTO   H17 7163   5.290   7.409   1.226 -0.4516 -1.0218 -0.8304
   17CHTO    O1 7164   5.133   7.372   1.107 -0.6785  0.0122  0.6832
   17CHTO    C5 7165   5.137   7.230   1.084  0.5540  0.1160  0.8976
   17CHTO   H18 7166   5.167   7.168   1.168  1.6809 -0.8612 -0.1963
   17CHTO   C16 7167   4.994   7.181   1.039 -0.0992 -0.5975 -0.7050
   17CHTO   O11 7168   4.890   7.217   1.136  0.6923 -0.8184 -0.4091
   17CHTO    H5 7169   4.817   7.159   1.130  0.5101 -0.6025 -0.2832
   17CHTO    O3 7170   5.202   7.578   1.140 -0.2858 -0.2007 -0.0706
   17CHTO    C6 7171   5.152   7.626   1.275  0.0705 -0.3751  0.1912
   17CHTO   H19 7172   5.084   7.711   1.263  1.1017  0.1741 -2.0913
   17CHTO    C8 7173   5.054   7.530   1.349  0.8040  0.2002  0.5528
   17CHTO   H21 7174   5.096   7.430   1.351 -0.4521 -0.3203  1.1004
   17CHTO    O7 7175   4.936   7.537   1.274 -0.2886  0.6292  0.3743
   17CHTO    H2 7176   4.953   7.491   1.194 -1.1162 -1.1011  1.1712
   17CHTO   C12 7177   5.028   7.573   1.497 -0.2988  0.4796  0.4713
   17CHTO   H25 7178   4.955   7.657   1.490 -0.8178  0.3306  3.6113
   17CHTO    N3 7179   4.964   7.466   1.576 -0.3121 -0.3068 -0.1780
   17CHTO   H12 7180   4.861   7.498   1.575 -0.1542  0.2098  0.1614
   17CHTO   H13 7181   4.999   7.450   1.677 -0.2504  1.9492  0.1858
   17CHTO   C15 7182   5.158   7.621   1.562 -0.9240  0.4318 -0.2311
   17CHTO   H28 7183   5.227   7.537   1.567  0.8589  1.3605 -5.7459
   17CHTO   O10 7184   5.138   7.711   1.687 -0.3927 -0.3647 -0.5131
   17CHTO    H4 7185   5.074   7.668   1.741  0.8468 -2.0205 -0.3267
   17CHTO    O5 7186   5.220   7.720   1.481  0.0394 -0.2292  0.6889
   17CHTO   C10 7187   5.271   7.677   1.355 -0.0670  0.0763 -0.0348
   17CHTO   H23 7188   5.348   7.602   1.376 -0.4907 -0.3688 -0.0777
   17CHTO   C17 7189   5.342   7.790   1.278  0.0287  0.1010  0.3985
   17CHTO   O12 7190   5.268   7.916   1.289  0.0982  0.1548 -0.1910
   17CHTO    H6 7191   5.210   7.930   1.217 -0.8584  0.8320  0.6900
   18CHTO  H203 7192   6.554   7.712   2.042 -1.3414  0.9292 -1.9161
   18CHTO   O82 7193   6.598   7.648   1.990  0.0176 -0.1680  0.5283
   18CHTO  C123 7194   6.606   7.689   1.857 -0.0522  0.2245 -0.6569
   18CHTO  H227 7195   6.700   7.745   1.846 -0.0945  0.7432  1.3670
   18CHTO   O77 7196   6.617   7.574   1.777  0.5641 -0.3223  0.7175
   18CHTO  C118 7197   6.616   7.589   1.638 -0.4506 -0.9240 -0.3305
   18CHTO  H222 7198   6.705   7.647   1.610  1.2358 -1.8545  2.8914
   18CHTO  C125 7199   6.624   7.457   1.573  0.1551  0.0113 -0.6050
   18CHTO   O84 7200   6.503   7.382   1.591 -0.1652 -0.5852  0.1844
   18CHTO  H205 7201   6.518   7.304   1.642  2.0442 -0.0680  0.3790
   18CHTO  C114 7202   6.488   7.667   1.581 -0.0585 -0.5763 -0.6142
   18CHTO  H218 7203   6.395   7.618   1.610 -0.6578  0.7595 -0.2269
   18CHTO  C116 7204   6.488   7.801   1.650 -0.6326 -0.3974  0.0259
   18CHTO  H220 7205   6.575   7.865   1.623 -1.7992  0.8051 -0.9432
   18CHTO   O79 7206   6.374   7.876   1.607 -0.2109 -0.2861  0.3096
   18CHTO  H201 7207   6.295   7.826   1.614 -0.0131 -0.4109  1.8199
   18CHTO  C120 7208   6.489   7.788   1.813  0.5119  0.4558  0.7032
   18CHTO  H224 7209   6.391   7.752   1.851 -0.7898  1.5345 -1.5251
   18CHTO   N21 7210   6.497   7.924   1.879 -0.0973 -0.4012 -0.5273
   18CHTO  H211 7211   6.403   7.963   1.915 -0.7691 -4.0033  1.8266
   18CHTO  H212 7212   6.561   7.921   1.965 -0.6898  1.2385 -0.0132
   18CHTO   O75 7213   6.492   7.673   1.436 -0.8431 -0.0243  0.0135
   18CHTO  C112 7214   6.620   7.742   1.360 -0.1420  0.3474 -0.0621
   18CHTO  H216 7215   6.708   7.692   1.404 -0.1170  2.0334  1.8621
   18CHTO   O73 7216   6.623   7.887   1.385 -0.1643 -0.3062 -0.2946
   18CHTO  C113 7217   6.745   7.953   1.337  0.3765 -0.4962  0.6647
   18CHTO  H217 7218   6.835   7.908   1.384  1.0373  1.0160  0.8858
   18CHTO  C124 7219   6.745   8.097   1.384 -0.2897  0.1770 -0.0743
   18CHTO   O83 7220   6.869   8.170   1.365 -0.7551  0.2635 -0.8428
   18CHTO  H204 7221   6.940   8.147   1.422 -3.0593  0.0184  2.1005
   18CHTO  C109 7222   6.746   7.942   1.186 -0.7149 -0.1489  0.2956
   18CHTO  H213 7223   6.655   7.988   1.144 -0.6052 -0.7368 -0.6182
   18CHTO  C110 7224   6.741   7.789   1.137  0.0154 -0.6406  0.7741
   18CHTO  H214 7225   6.831   7.732   1.162  1.9509  1.4053 -1.4133
   18CHTO   O78 7226   6.731   7.774   0.995 -0.0879 -0.1699  0.1016
   18CHTO  H200 7227   6.818   7.753   0.967  1.1692  2.0829  2.0566
   18CHTO  C111 7228   6.622   7.712   1.205  0.7352 -0.2720 -0.0159
   18CHTO  H215 7229   6.533   7.756   1.157  1.3644  2.6020  1.3686
   18CHTO   N19 7230   6.625   7.563   1.171 -0.0478 -0.0105 -0.1143
   18CHTO  H207 7231   6.524   7.527   1.174  1.0949 -3.4913 -1.6159
   18CHTO  H208 7232   6.700   7.515   1.233  1.3156  0.8663 -1.0432
   18CHTO   O74 7233   6.859   8.015   1.138  0.3646 -0.2611 -0.2871
   18CHTO  C115 7234   6.839   8.078   0.976  0.0534  0.1173 -0.5194
   18CHTO  H219 7235   6.774   8.016   0.914 -0.9566  1.2255 -0.6025
   18CHTO   O76 7236   6.760   8.205   0.982  0.1510 -0.4910  0.3783
   18CHTO  C122 7237   6.736   8.258   0.856 -0.5353  0.5511  0.2645
   18CHTO  H226 7238   6.699   8.358   0.878  2.3246  1.7435 -0.0892
   18CHTO  C126 7239   6.613   8.186   0.788  0.1105 -0.1279 -0.3291
   18CHTO   O85 7240   6.575   8.235   0.656  0.0659  0.2776  0.1805
   18CHTO  H206 7241   6.484   8.216   0.643  0.7545 -2.1110 -1.4483
   18CHTO  C121 7242   6.866   8.256   0.757 -0.4146 -0.8624 -0.2103
   18CHTO  H225 7243   6.842   8.270   0.649 -2.3366 -0.5570  0.2368
   18CHTO   O81 7244   6.930   8.383   0.792  0.9068 -0.4180  0.3656
   18CHTO  H202 7245   6.926   8.408   0.882 -0.9501 -0.3430  0.2762
   18CHTO  C119 7246   6.969   8.144   0.767  0.6697  0.3105  0.2393
   18CHTO  H223 7247   6.929   8.056   0.717 -1.4379  0.3533  1.7915
   18CHTO  C117 7248   6.988   8.102   0.916 -0.2250  0.4036 -0.4674
   18CHTO  H221 7249   7.034   8.183   0.973  0.5015  0.7759 -1.5574
   18CHTO   N20 7250   7.079   7.981   0.930  0.2571  0.0765  0.1170
   18CHTO  H209 7251   7.055   7.891   0.875  0.8707  0.7190 -1.2263
   18CHTO  H210 7252   7.115   7.952   1.027  0.1689  1.4821  0.5921
   18CHTO   O80 7253   7.099   8.181   0.665  0.2129  0.8428 -0.3375
   18CHTO  C103 7254   7.123   8.098   0.528 -0.9389  0.5188 -0.2839
   18CHTO  H190 7255   7.211   8.140   0.480 -0.9117 -0.1220 -0.7913
   18CHTO  C101 7256   7.151   7.943   0.557  0.0856  0.5481  0.0218
   18CHTO  H188 7257   7.073   7.905   0.624 -1.6288  2.6719 -0.7324
   18CHTO   O68 7258   7.305   7.926   0.624 -0.0210 -0.2217 -0.4097
   18CHTO  H168 7259   7.293   7.897   0.713  1.7090  0.1416 -0.0467
   18CHTO   C99 7260   7.132   7.866   0.413  0.1044  0.4510  0.3210
   18CHTO  H186 7261   7.208   7.895   0.339 -1.4133 -0.5797 -1.6914
   18CHTO   N17 7262   7.137   7.714   0.415  0.4197 -0.1076  0.5901
   18CHTO  H174 7263   7.048   7.670   0.457 -0.4562 -2.1449 -3.0988
   18CHTO  H175 7264   7.166   7.689   0.313  1.7586 -0.1037  0.9604
   18CHTO   C97 7265   6.998   7.905   0.347  0.4394  0.3170  0.7232
   18CHTO  H184 7266   6.918   7.883   0.419 -1.1992  3.3532 -0.0712
   18CHTO   O64 7267   7.006   8.046   0.317  0.7377  0.4967 -0.4322
   18CHTO  C104 7268   7.002   8.124   0.438 -0.3917 -0.3024 -0.2073
   18CHTO  H191 7269   6.910   8.093   0.488  0.3815  0.1141  1.4940
   18CHTO  C108 7270   6.989   8.275   0.405 -0.4955  0.7966  0.5815
   18CHTO   O71 7271   7.095   8.317   0.314 -0.0313 -0.2149  0.5744
   18CHTO  H171 7272   7.066   8.393   0.269 -0.6529  0.5559  2.2432
   18CHTO   O62 7273   6.970   7.837   0.222 -0.1482 -0.4834 -0.2932
   18CHTO   C91 7274   6.828   7.824   0.201 -0.3568 -0.1496 -0.1016
   18CHTO  H178 7275   6.778   7.882   0.279  0.6554  0.1473  0.3262
   18CHTO   C92 7276   6.777   7.679   0.192  0.1857  0.6246 -0.1224
   18CHTO  H179 7277   6.806   7.640   0.094 -0.4410 -1.0344  0.3261
   18CHTO   O66 7278   6.849   7.594   0.285  0.0893 -0.0367 -0.0163
   18CHTO  H166 7279   6.930   7.638   0.298 -0.3226  0.9920 -0.8340
   18CHTO   C93 7280   6.624   7.673   0.218 -0.3802  0.0519  0.7662
   18CHTO  H180 7281   6.598   7.687   0.324  1.1283  3.6128  0.7206
   18CHTO   N16 7282   6.566   7.541   0.191 -0.1512  0.1960 -0.3276
   18CHTO  H172 7283   6.629   7.474   0.134 -1.6847 -0.5569 -1.1904
   18CHTO  H173 7284   6.464   7.551   0.155 -0.2114 -1.1595 -0.5833
   18CHTO   C94 7285   6.550   7.787   0.131 -0.4717 -0.6228 -0.4350
   18CHTO  H181 7286   6.513   7.752   0.035 -0.2505 -0.5465 -0.5492
   18CHTO   O61 7287   6.627   7.906   0.097 -0.7887 -0.2749 -0.0512
   18CHTO   C95 7288   6.766   7.884   0.070 -0.0945  0.5949  0.9741
   18CHTO  H182 7289   6.771   7.822  -0.019 -0.5344  1.5756  0.2594
   18CHTO  C106 7290   6.835   8.015   0.034  0.4734  0.7557 -0.0592
   18CHTO   O69 7291   6.799   8.119   0.130 -0.3688 -0.1156  0.0219
   18CHTO  H169 7292   6.812   8.200   0.084 -0.8561 -0.9516 -1.6490
   18CHTO   O63 7293   6.416   7.845   0.236 -0.2523 -0.0428 -0.2493
   18CHTO   C96 7294   6.350   7.969   0.188 -0.2205  0.2418  0.1356
   18CHTO  H183 7295   6.391   7.968   0.086  0.4464  1.8001  0.3739
   18CHTO   C98 7296   6.385   8.103   0.271 -0.4092  0.2234  0.3768
   18CHTO  H185 7297   6.356   8.082   0.375 -0.5047 -1.2171  0.0627
   18CHTO   O67 7298   6.529   8.126   0.275  0.8452 -0.2665  0.0098
   18CHTO  H167 7299   6.552   8.158   0.360  4.2846  1.4126 -1.4203
   18CHTO  C102 7300   6.304   8.231   0.216  0.0419  0.3419 -0.3860
   18CHTO  H189 7301   6.360   8.251   0.123  1.5233 -1.3683  0.1168
   18CHTO   N18 7302   6.314   8.365   0.284  0.0005 -0.5347 -0.2364
   18CHTO  H176 7303   6.338   8.422   0.195  0.9862 -1.4152 -0.5409
   18CHTO  H177 7304   6.402   8.365   0.346  0.4683 -1.3359 -0.8880
   18CHTO  C105 7305   6.158   8.194   0.189  0.5522  0.3965  0.5731
   18CHTO  H192 7306   6.104   8.193   0.284  1.1470  2.4422  0.9653
   18CHTO   O65 7307   6.144   8.076   0.115  0.1438  0.3009 -0.1486
   18CHTO  C100 7308   6.194   7.955   0.176 -0.5273  0.5640  0.3483
   18CHTO  H187 7309   6.161   7.944   0.280 -1.1653  1.5496  0.2598
   18CHTO  C107 7310   6.140   7.830   0.096  0.0629  0.4353  0.5135
   18CHTO   O70 7311   5.994   7.823   0.095 -0.1509  0.2497 -0.4441
   18CHTO  H170 7312   5.948   7.898   0.063  0.6961  0.8552 -0.2663
   18CHTO   O57 7313   6.092   8.326   0.083  0.4175  0.0930 -0.0512
   18CHTO   C85 7314   5.962   8.335   0.037  0.4296  0.3262  0.1515
   18CHTO  H157 7315   5.957   8.426  -0.026  3.3075 -0.8686 -1.8723
   18CHTO   C83 7316   5.858   8.361   0.157 -0.1947 -0.3684 -0.1462
   18CHTO  H155 7317   5.895   8.448   0.211 -4.9163  1.2873  0.6946
   18CHTO   O56 7318   5.847   8.258   0.253 -0.1669 -0.2046 -0.1241
   18CHTO  H135 7319   5.937   8.236   0.268  0.6500  2.0144 -1.4842
   18CHTO   C81 7320   5.721   8.405   0.089 -0.4079 -0.4829  0.2093
   18CHTO  H153 7321   5.747   8.490   0.025  0.5925 -2.6036 -2.3047
   18CHTO   N14 7322   5.616   8.457   0.180  0.6330 -0.4873 -0.5597
   18CHTO  H141 7323   5.530   8.486   0.125 -0.9268  0.3359  2.2190
   18CHTO  H142 7324   5.657   8.539   0.235  0.7622 -1.3692  0.6826
   18CHTO   C79 7325   5.669   8.285  -0.002  0.4709  0.3020 -0.3882
   18CHTO  H151 7326   5.590   8.325  -0.066  0.2006 -1.3471 -1.1029
   18CHTO   O52 7327   5.772   8.223  -0.087  0.2280  0.2266  0.1574
   18CHTO   C86 7328   5.912   8.206  -0.038  0.9899 -0.0519 -0.2459
   18CHTO  H158 7329   5.907   8.113   0.023 -0.2398 -1.2672 -2.1354
   18CHTO   C90 7330   6.003   8.174  -0.154 -0.3037  0.5299 -0.0761
   18CHTO   O60 7331   6.061   8.280  -0.223  0.4616  0.1151 -0.0268
   18CHTO  H138 7332   6.133   8.244  -0.271  0.4089  2.2803 -1.8309
   18CHTO   O50 7333   5.606   8.187   0.083  0.3211  0.2668 -0.1265
   18CHTO   C73 7334   5.524   8.070   0.069  0.3856  0.1545 -0.0373
   18CHTO  H145 7335   5.565   8.003  -0.007  0.5098 -2.1727  2.0250
   18CHTO   C74 7336   5.378   8.112   0.029  0.4435 -0.6338 -0.9606
   18CHTO  H146 7337   5.370   8.154  -0.072 -0.0073 -0.1664 -0.7329
   18CHTO   O54 7338   5.302   7.995   0.011  0.7244  0.4901  0.6983
   18CHTO  H133 7339   5.293   7.951   0.094  1.1917 -0.4494  0.2506
   18CHTO   C75 7340   5.324   8.216   0.137  0.4367 -0.2769 -0.1683
   18CHTO  H147 7341   5.375   8.312   0.120 -1.3854  0.6003 -0.9258
   18CHTO   N13 7342   5.191   8.277   0.126  0.6729 -0.2854  0.1588
   18CHTO  H139 7343   5.187   8.347   0.044 -0.4395 -0.6045 -0.0647
   18CHTO  H140 7344   5.117   8.199   0.118  1.9696 -1.2911 -2.6876
   18CHTO   C76 7345   5.345   8.163   0.290 -0.4646 -0.5438 -0.8614
   18CHTO  H148 7346   5.264   8.102   0.330  2.4683 -3.6228  0.6044
   18CHTO   O49 7347   5.480   8.088   0.306  1.5593  0.2555  0.5774
   18CHTO   C77 7348   5.520   7.996   0.208  0.6301 -0.7396  0.3643
   18CHTO  H149 7349   5.440   7.922   0.212  0.4930 -0.5593  1.1258
   18CHTO   C88 7350   5.652   7.936   0.247  0.1669 -0.3962 -0.1651
   18CHTO   O58 7351   5.723   7.883   0.154 -0.5356 -0.3363  0.4283
   18CHTO  H136 7352   5.692   7.797   0.132 -2.4434  0.7728 -1.4049
   18CHTO   O51 7353   5.377   8.288   0.394  0.0793 -0.8481 -0.4041
   18CHTO   C78 7354   5.380   8.251   0.545 -0.2025 -0.0536 -0.3245
   18CHTO  H150 7355   5.363   8.142   0.542 -0.4210 -0.0193 -0.3733
   18CHTO   C80 7356   5.257   8.320   0.608  0.3174  0.0806  0.7111
   18CHTO  H152 7357   5.258   8.427   0.578  1.3320 -0.5062 -1.4756
   18CHTO   O55 7358   5.142   8.260   0.538 -0.2092 -0.0811  0.9506
   18CHTO  H134 7359   5.061   8.251   0.584 -1.4710 -3.2322 -1.6774
   18CHTO   C84 7360   5.257   8.312   0.765 -0.1783 -0.2027  0.1863
   18CHTO  H156 7361   5.234   8.210   0.793 -0.5230  0.0023  0.6622
   18CHTO   N15 7362   5.149   8.387   0.842 -1.1981 -0.2099  0.4554
   18CHTO  H143 7363   5.055   8.340   0.821 -1.0620 -0.3984  0.2723
   18CHTO  H144 7364   5.164   8.381   0.948 -0.1688  2.0991  0.4688
   18CHTO   C87 7365   5.399   8.342   0.824  0.2021 -0.6200 -0.6658
   18CHTO  H159 7366   5.417   8.449   0.814 -1.4262 -0.2734  0.0717
   18CHTO   O53 7367   5.501   8.248   0.748  0.4443  0.0572  0.1488
   18CHTO   C82 7368   5.509   8.295   0.615  0.5447 -0.5220  0.2410
   18CHTO  H154 7369   5.521   8.402   0.593  2.5348 -0.8572 -0.4313
   18CHTO   C89 7370   5.629   8.231   0.539  0.6450 -0.8180  0.2775
   18CHTO   O59 7371   5.752   8.283   0.590  0.2716  0.0868  0.5663
   18CHTO  H137 7372   5.763   8.375   0.573  3.7112 -0.8796 -3.4565
   18CHTO   O45 7373   5.417   8.288   0.981  0.4146  0.7834 -0.7609
   18CHTO   C67 7374   5.546   8.319   1.041 -0.2540 -0.6321 -0.0452
   18CHTO  H124 7375   5.614   8.340   0.958 -0.7001 -1.6651 -0.6893
   18CHTO   C65 7376   5.537   8.446   1.134 -0.1301 -0.1602 -0.0833
   18CHTO  H122 7377   5.443   8.437   1.188 -0.2434  1.4382  0.0121
   18CHTO   O44 7378   5.545   8.569   1.054 -0.3135  0.5795  0.6389
   18CHTO  H102 7379   5.472   8.624   1.072 -1.4168 -0.6313 -0.0509
   18CHTO   C63 7380   5.647   8.445   1.248  0.0026  0.8517 -0.2422
   18CHTO  H120 7381   5.611   8.384   1.332 -2.5876  0.3114 -1.6782
   18CHTO   N11 7382   5.686   8.572   1.322 -0.4591  0.2509  0.3438
   18CHTO  H108 7383   5.745   8.552   1.409 -0.0748 -0.9422 -0.1801
   18CHTO  H109 7384   5.732   8.634   1.248 -0.0955 -0.2607  0.1363
   18CHTO   C61 7385   5.773   8.368   1.192  0.0133 -0.2405  0.2374
   18CHTO  H118 7386   5.835   8.365   1.283  0.3442 -2.7943 -0.0289
   18CHTO   O40 7387   5.740   8.232   1.164 -0.2971 -0.2573 -0.3394
   18CHTO   C68 7388   5.604   8.200   1.122 -0.2178 -0.3034  0.3120
   18CHTO  H125 7389   5.535   8.180   1.206  0.4431 -0.0375  0.9174
   18CHTO   C72 7390   5.609   8.073   1.043 -0.2374 -0.2332 -0.2524
   18CHTO   O48 7391   5.493   7.993   1.054 -0.3488  0.2962 -0.8980
   18CHTO  H105 7392   5.425   8.016   0.993 -0.0651  1.7237 -0.6987
   18CHTO   O38 7393   5.851   8.427   1.085 -0.4769  0.1597  0.2229
   18CHTO   C55 7394   5.988   8.375   1.087 -0.3676 -0.3947  0.3844
   18CHTO  H112 7395   5.995   8.285   1.150 -0.0224  0.4594  1.5607
   18CHTO   C56 7396   6.091   8.495   1.140 -0.5158  0.0189  0.3626
   18CHTO  H113 7397   6.081   8.579   1.069 -0.5669 -0.0702  0.2619
   18CHTO   O42 7398   6.049   8.561   1.265 -0.5386 -0.4028 -0.1113
   18CHTO  H100 7399   6.015   8.494   1.321 -0.5373 -0.6185 -0.3678
   18CHTO   C57 7400   6.231   8.448   1.146  0.8633  0.7801  0.4390
   18CHTO  H114 7401   6.227   8.382   1.233 -0.1474  0.3837  0.0870
   18CHTO   N10 7402   6.337   8.552   1.163 -0.0411  0.3584  0.0492
   18CHTO  H106 7403   6.432   8.514   1.196  1.2641  2.3346 -1.3218
   18CHTO  H107 7404   6.345   8.608   1.071 -1.0737 -1.8526 -1.4340
   18CHTO   C58 7405   6.265   8.361   1.022 -0.9112 -0.3981  0.4003
   18CHTO  H115 7406   6.327   8.420   0.951 -0.2387 -2.1772 -0.5206
   18CHTO   O37 7407   6.166   8.286   0.951 -0.0623 -0.2076  0.3380
   18CHTO   C59 7408   6.037   8.340   0.942 -0.0415 -0.3262  0.2205
   18CHTO  H116 7409   6.040   8.426   0.875  2.0078 -0.5245  0.0408
   18CHTO   C70 7410   5.948   8.235   0.886  1.0175  0.0528 -0.6502
   18CHTO   O46 7411   5.989   8.181   0.762  0.5150  0.4326 -0.2602
   18CHTO  H103 7412   6.075   8.146   0.775  0.8365  0.9241 -1.0587
   18CHTO   O39 7413   6.359   8.237   1.079 -0.2215 -0.1764 -0.4050
   18CHTO   C60 7414   6.293   8.136   1.154  1.0301  0.5152  0.0956
   18CHTO  H117 7415   6.195   8.174   1.184  0.0467 -0.4371 -1.7511
   18CHTO   C62 7416   6.267   8.015   1.064 -0.4459  0.3047 -0.0336
   18CHTO  H119 7417   6.213   8.056   0.976  0.7070  0.6479 -0.6061
   18CHTO   O43 7418   6.384   7.955   1.010  0.5037  0.3616  0.0588
   18CHTO  H101 7419   6.411   7.894   1.077  0.1562 -0.5078 -0.5896
   18CHTO   C66 7420   6.168   7.920   1.136 -0.4392 -0.1995  0.0107
   18CHTO  H123 7421   6.086   7.976   1.180 -0.0173 -0.2393  0.8528
   18CHTO   N12 7422   6.103   7.823   1.048  0.2069  0.2970 -0.2243
   18CHTO  H110 7423   5.999   7.803   1.071 -0.2153  1.2386 -1.2892
   18CHTO  H111 7424   6.170   7.741   1.027  0.5962  0.5019  0.2163
   18CHTO   C69 7425   6.235   7.850   1.263  0.1429 -0.6326  0.3769
   18CHTO  H126 7426   6.299   7.766   1.228  1.7436  0.5042  0.5246
   18CHTO   O41 7427   6.315   7.955   1.346 -0.2311 -0.2036 -0.2628
   18CHTO   C64 7428   6.367   8.093   1.282 -0.0567  0.2675 -0.6599
   18CHTO  H121 7429   6.472   8.079   1.248 -0.2632  0.6487 -1.4687
   18CHTO   C71 7430   6.377   8.199   1.395 -0.3046  0.7078 -0.3561
   18CHTO   O47 7431   6.251   8.224   1.455 -0.7274 -0.2275  0.0891
   18CHTO  H104 7432   6.253   8.317   1.469  0.2017 -0.2378  0.0790
   18CHTO   O34 7433   6.126   7.772   1.359 -0.1604 -0.3848 -0.3138
   18CHTO   C49 7434   6.037   7.797   1.489 -0.4312  0.1513 -0.1735
   18CHTO   H91 7435   6.090   7.747   1.570 -0.5612 -0.9793 -0.7784
   18CHTO   C47 7436   5.904   7.721   1.467 -0.1587 -0.6920 -0.1403
   18CHTO   H89 7437   5.852   7.706   1.564 -0.8967 -1.0900 -0.5944
   18CHTO   O33 7438   5.937   7.587   1.419  0.3876  0.0948  0.3530
   18CHTO   H70 7439   5.858   7.545   1.390 -0.4900 -0.6267  3.6093
   18CHTO   C45 7440   5.814   7.796   1.361  0.2461  0.2741  0.1009
   18CHTO   H87 7441   5.869   7.812   1.267  0.7112  0.9975  0.4908
   18CHTO    N8 7442   5.684   7.732   1.326  0.0057 -0.3248 -0.0639
   18CHTO   H75 7443   5.699   7.630   1.295  1.1045 -0.1822 -0.0379
   18CHTO   H76 7444   5.627   7.725   1.417 -1.0897  4.1370 -0.2947
   18CHTO   C43 7445   5.791   7.939   1.422  0.7342  0.3055  0.5586
   18CHTO   H85 7446   5.731   7.984   1.343 -1.6254 -2.6574  0.5851
   18CHTO   O29 7447   5.913   8.007   1.442  0.1102 -0.0310  0.4640
   18CHTO   C50 7448   6.018   7.950   1.517  0.0557  0.0589 -0.7612
   18CHTO   H92 7449   6.108   8.003   1.483 -1.0049  2.7439  0.4714
   18CHTO   C54 7450   6.000   7.983   1.661  0.0877  0.4843  0.8450
   18CHTO   O36 7451   6.018   8.119   1.675 -0.3477  0.1700 -0.0007
   18CHTO   H72 7452   6.100   8.134   1.720 -0.6925  0.1127  0.6615
   18CHTO   O27 7453   5.709   7.936   1.542 -0.4194 -0.0873  0.0813
   18CHTO   C37 7454   5.633   8.035   1.615 -0.2415 -0.8087  0.2225
   18CHTO   H79 7455   5.708   8.071   1.687 -0.1853  0.2738 -0.3503
   18CHTO   C38 7456   5.580   8.157   1.530 -0.2126  0.6646  0.6108
   18CHTO   H80 7457   5.545   8.108   1.438  1.8092 -2.0801  1.2442
   18CHTO   O31 7458   5.695   8.232   1.490  0.3454 -0.4782  0.1462
   18CHTO   H68 7459   5.746   8.186   1.426  1.6169  0.0386  0.7702
   18CHTO   C39 7460   5.474   8.251   1.606 -0.4469  0.1661  0.0926
   18CHTO   H81 7461   5.526   8.321   1.672  0.5900  1.8636 -2.4359
   18CHTO    N7 7462   5.403   8.334   1.503 -0.1717 -0.2038 -0.0937
   18CHTO   H73 7463   5.470   8.376   1.429 -0.4528 -0.9746 -0.7978
   18CHTO   H74 7464   5.354   8.410   1.561  1.6510  0.8120  0.1523
   18CHTO   C40 7465   5.365   8.162   1.681  0.7428  0.0071 -0.1251
   18CHTO   H82 7466   5.294   8.121   1.610  0.7374  3.5544 -2.2451
   18CHTO   O26 7467   5.423   8.060   1.763 -0.1134 -0.5330 -0.3253
   18CHTO   C41 7468   5.503   7.968   1.687  0.0492  0.1270 -0.1519
   18CHTO   H83 7469   5.430   7.924   1.618 -2.2342  0.7550  1.7928
   18CHTO   C52 7470   5.544   7.854   1.781  0.5679  0.3942  0.0874
   18CHTO   O35 7471   5.565   7.740   1.711  0.0798  0.0460  0.0282
   18CHTO   H71 7472   5.643   7.704   1.749 -0.1979  0.1269  0.6993
   18CHTO   O28 7473   5.304   8.241   1.782 -0.4698 -0.5872 -0.1566
   18CHTO   C42 7474   5.171   8.208   1.826  0.1597 -1.0727 -0.2036
   18CHTO   H84 7475   5.151   8.274   1.911 -3.2360 -0.3693 -1.4602
   18CHTO   C44 7476   5.142   8.066   1.879 -0.2871 -0.0261  0.0515
   18CHTO   H86 7477   5.174   7.994   1.803 -1.4942 -0.4099 -0.1055
   18CHTO   O32 7478   5.223   8.028   1.992  0.1261  0.5047  0.0132
   18CHTO   H69 7479   5.200   8.075   2.070  1.8304  2.0093 -0.3668
   18CHTO   C48 7480   4.994   8.018   1.900  0.3618  0.0323 -0.5156
   18CHTO   H90 7481   4.970   8.070   1.993 -0.4886 -3.3787  1.2439
   18CHTO    N9 7482   4.970   7.867   1.928 -0.1962 -0.0512 -0.0398
   18CHTO   H77 7483   4.868   7.854   1.959 -0.0349 -3.8168 -0.7973
   18CHTO   H78 7484   5.039   7.822   1.998  0.0418  2.7002  1.5638
   18CHTO   C51 7485   4.902   8.079   1.785  0.1092  0.0200  0.3585
   18CHTO   H93 7486   4.924   8.022   1.695 -0.2088  2.7504 -1.5000
   18CHTO   O30 7487   4.939   8.216   1.767 -0.5447  0.2757  0.2694
   18CHTO   C46 7488   5.064   8.243   1.711 -0.5184  0.6401  0.1997
   18CHTO   H88 7489   5.082   8.175   1.628 -1.5092 -0.9511  1.2643
   18CHTO   C53 7490   5.074   8.392   1.665  0.3763 -0.0589 -0.1271
   18CHTO   O72 7491   5.020   8.404   1.532  0.1329  0.0993 -0.1587
   18CHTO  H199 7492   5.083   8.422   1.465 -2.8472 -0.4944 -3.2632
   18CHTO   O22 7493   4.752   8.086   1.805 -0.1487 -0.0911  0.2048
   18CHTO   C31 7494   4.661   8.099   1.689 -0.2647 -0.3762  0.2446
   18CHTO   H59 7495   4.559   8.097   1.733 -0.0832 -0.4088  0.6681
   18CHTO   C29 7496   4.680   8.233   1.615  0.5338  0.8403  0.1112
   18CHTO   H57 7497   4.788   8.239   1.598  0.4408 -0.8837 -1.2018
   18CHTO   O21 7498   4.639   8.334   1.710 -0.6565 -0.2170  0.6626
   18CHTO   H37 7499   4.545   8.335   1.710 -0.6942  2.4197  4.1764
   18CHTO   C27 7500   4.613   8.245   1.476  0.1104 -0.2268  0.5461
   18CHTO   H55 7501   4.504   8.236   1.491  0.1748 -2.0009  0.0244
   18CHTO    N5 7502   4.637   8.370   1.403 -0.4533  0.1355 -0.1485
   18CHTO   H43 7503   4.607   8.459   1.456 -0.4575  0.7255 -1.1197
   18CHTO   H44 7504   4.729   8.380   1.347 -0.4955  2.2271  0.1242
   18CHTO   C25 7505   4.665   8.121   1.393  0.3941 -0.2514 -0.3299
   18CHTO   H53 7506   4.772   8.114   1.417  0.5807 -1.2287 -1.4327
   18CHTO   O17 7507   4.601   8.008   1.463 -0.0133  0.1541  0.0568
   18CHTO   C32 7508   4.666   7.981   1.589  0.1875  0.1407  0.2018
   18CHTO   H60 7509   4.770   7.961   1.564  0.1514  1.2143 -0.8266
   18CHTO   C36 7510   4.612   7.851   1.646 -0.0862 -0.2196  0.1196
   18CHTO   O25 7511   4.470   7.864   1.648  0.3595  0.5024 -0.0699
   18CHTO   H40 7512   4.436   7.781   1.676 -0.7275  0.4679 -1.4323
   18CHTO   O15 7513   4.630   8.113   1.228  0.2033 -0.3241  0.3431
   18CHTO   C19 7514   4.673   8.022   1.125  0.4097 -0.2321 -0.0770
   18CHTO   H47 7515   4.616   7.928   1.133 -0.3086  0.2821  1.0079
   18CHTO   C20 7516   4.651   8.091   0.986  0.5544  0.4261  0.2027
   18CHTO   H48 7517   4.705   8.186   0.977 -0.6089  1.3153  2.2307
   18CHTO   O19 7518   4.509   8.113   0.972 -0.3373  0.2702  0.4270
   18CHTO   H35 7519   4.493   8.187   1.028 -2.3997  1.0688 -1.1730
   18CHTO   C21 7520   4.700   7.996   0.869  0.0428 -0.4078  0.3763
   18CHTO   H49 7521   4.642   7.904   0.871  0.8152 -0.8781  2.2375
   18CHTO    N4 7522   4.680   8.052   0.735 -0.2653 -0.1688  0.2017
   18CHTO   H41 7523   4.713   8.154   0.748 -1.3271  0.1307  0.6228
   18CHTO   H42 7524   4.734   8.006   0.654 -2.0768 -2.0209 -0.0114
   18CHTO   C22 7525   4.848   7.959   0.890 -0.1297  0.0076  0.3998
   18CHTO   H50 7526   4.902   8.053   0.875 -0.8565  0.5719  1.2683
   18CHTO   O14 7527   4.863   7.902   1.019 -0.0852 -0.0577  0.4739
   18CHTO   C23 7528   4.822   7.986   1.128 -0.4114  0.1382  0.3670
   18CHTO   H51 7529   4.887   8.075   1.121  0.6801 -0.2186  4.5320
   18CHTO   C34 7530   4.874   7.921   1.254 -0.0811 -0.1458  0.1021
   18CHTO   O23 7531   4.815   7.794   1.289  0.2438 -0.0086  0.0404
   18CHTO   H38 7532   4.875   7.748   1.343  2.6514  1.3900 -1.3561
   18CHTO   O16 7533   4.898   7.855   0.798 -0.3920  0.0545  0.1758
   18CHTO   C24 7534   5.043   7.896   0.713  0.1032 -0.2145  0.0375
   18CHTO   H52 7535   5.078   7.994   0.742  0.9520 -0.3351 -0.5668
   18CHTO   C26 7536   5.022   7.887   0.563 -0.1077  0.3563 -0.0337
   18CHTO   H54 7537   4.949   7.805   0.547  3.0877 -1.8529 -4.1776
   18CHTO   O20 7538   4.948   8.004   0.525 -0.1463  0.0340  0.1602
   18CHTO   H36 7539   4.924   8.012   0.435 -1.1113  0.4827  0.4412
   18CHTO   C30 7540   5.152   7.866   0.477 -0.9636  0.6677 -0.5001
   18CHTO   H58 7541   5.201   7.964   0.472  2.4750 -1.0226 -0.9718
   18CHTO    N6 7542   5.122   7.827   0.338 -0.0390  0.6082 -0.0129
   18CHTO   H45 7543   5.145   7.725   0.312 -3.0584 -0.7665  2.3750
   18CHTO   H46 7544   5.193   7.892   0.289  1.2644 -0.8098 -0.0288
   18CHTO   C33 7545   5.251   7.759   0.540  0.2835 -0.0858 -0.0985
   18CHTO   H61 7546   5.201   7.661   0.545 -0.4523  0.2977  0.1647
   18CHTO   O18 7547   5.267   7.812   0.674 -0.5174 -0.3710 -0.2114
   18CHTO   C28 7548   5.151   7.793   0.757 -0.9828  0.2296  0.2497
   18CHTO   H56 7549   5.113   7.692   0.743 -1.4216  0.5735 -1.0658
   18CHTO   C35 7550   5.219   7.824   0.895  0.0349  0.2704 -0.0009
   18CHTO   O24 7551   5.129   7.815   1.008 -0.5815 -0.3131  0.4136
   18CHTO   H39 7552   5.045   7.779   0.987 -0.3557 -0.5257 -0.1548
   18CHTO    O9 7553   5.377   7.733   0.478  0.0419 -0.6316 -0.0025
   18CHTO   C13 7554   5.500   7.659   0.594 -0.4584 -0.0843 -0.4186
   18CHTO   H26 7555   5.447   7.592   0.665 -1.0645 -1.0907 -1.8026
   18CHTO   C11 7556   5.589   7.780   0.668 -0.8925  0.5036  0.2204
   18CHTO   H24 7557   5.515   7.819   0.740  0.2285  1.2737  0.9700
   18CHTO    O8 7558   5.601   7.876   0.560  0.7231  0.0210  0.1991
   18CHTO    H3 7559   5.679   7.858   0.511  0.3825 -1.5927  0.2195
   18CHTO    C9 7560   5.707   7.723   0.745  0.2191 -0.4753 -0.2231
   18CHTO   H22 7561   5.669   7.648   0.815  2.6776  0.4258  2.1940
   18CHTO    N2 7562   5.770   7.826   0.828 -0.4805 -0.3958 -0.6719
   18CHTO   H10 7563   5.801   7.912   0.770 -0.5521  0.9855  1.2665
   18CHTO   H11 7564   5.858   7.783   0.872 -0.5103 -0.0520 -0.2694
   18CHTO    C7 7565   5.797   7.640   0.643 -0.2136 -0.1526  0.0056
   18CHTO   H20 7566   5.886   7.611   0.703  0.5027  0.0687 -0.9506
   18CHTO    O4 7567   5.722   7.526   0.602  0.6763 -0.1753 -0.0120
   18CHTO   C14 7568   5.600   7.549   0.531  0.4255  0.1949  0.6911
   18CHTO   H27 7569   5.542   7.455   0.537  1.0841 -0.3272 -0.8763
   18CHTO   C18 7570   5.635   7.565   0.379  0.5310  0.3801 -0.5086
   18CHTO   O13 7571   5.522   7.579   0.285 -0.3299 -0.5170 -0.1145
   18CHTO    H7 7572   5.490   7.666   0.298 -3.5093 -1.2057 -2.8705
   18CHTO    O2 7573   5.858   7.720   0.511  0.7184  0.1826 -0.4119
   18CHTO    C1 7574   5.994   7.687   0.483 -0.1176 -0.4969 -0.0841
   18CHTO   H14 7575   6.024   7.740   0.390 -0.0246  2.1513  1.4238
   18CHTO    C2 7576   6.018   7.532   0.456 -0.6790  0.0801  0.0965
   18CHTO   H15 7577   5.991   7.481   0.550  0.9711 -1.3474 -0.1749
   18CHTO    O6 7578   5.932   7.477   0.355 -0.3212  0.0239 -0.2073
   18CHTO    H1 7579   5.921   7.384   0.360  1.6792 -0.2522 -0.4329
   18CHTO    C3 7580   6.177   7.501   0.434 -0.0359 -0.7137  0.1684
   18CHTO   H16 7581   6.201   7.543   0.335 -0.5151 -0.9336 -0.0456
   18CHTO    N1 7582   6.204   7.356   0.435 -0.3971 -0.0794  0.0941
   18CHTO    H8 7583   6.252   7.318   0.346 -0.9322  1.6389 -0.9787
   18CHTO    H9 7584   6.110   7.305   0.451 -0.4363 -0.1402 -0.3045
   18CHTO    C4 7585   6.261   7.583   0.543  0.1017 -0.0047  0.0983
   18CHTO   H17 7586   6.249   7.531   0.638  0.0565  0.3076  0.2624
   18CHTO    O1 7587   6.220   7.717   0.560 -0.3476 -0.2142 -0.1576
   18CHTO    C5 7588   6.084   7.747   0.592  0.2525  0.1186  0.3260
   18CHTO   H18 7589   6.059   7.704   0.689  0.5806 -0.3188  0.2167
   18CHTO   C16 7590   6.071   7.906   0.608  0.1059 -0.0830  0.1966
   18CHTO   O11 7591   6.146   7.949   0.725  0.0302 -0.3936  0.2987
   18CHTO    H5 7592   6.119   7.900   0.800 -1.3826 -0.1225 -0.0122
   18CHTO    O3 7593   6.403   7.589   0.508  0.4683  0.6558  0.1532
   18CHTO    C6 7594   6.491   7.593   0.623  0.0637  0.5272  0.1642
   18CHTO   H19 7595   6.438   7.636   0.708  1.0589  1.3945  0.3539
   18CHTO    C8 7596   6.544   7.448   0.657 -0.7536  0.0826  0.0953
   18CHTO   H21 7597   6.588   7.404   0.568  0.3831  2.0394 -0.3496
   18CHTO    O7 7598   6.432   7.365   0.686  0.3544 -0.2113 -0.6537
   18CHTO    H2 7599   6.452   7.278   0.657  2.5791  0.1907 -0.4670
   18CHTO   C12 7600   6.655   7.456   0.771  0.6785 -0.4814  0.0412
   18CHTO   H25 7601   6.605   7.492   0.864 -0.1750  0.7370 -0.8836
   18CHTO    N3 7602   6.715   7.323   0.803 -0.4042 -0.0569  0.6232
   18CHTO   H12 7603   6.652   7.245   0.764  0.6867 -0.7659  0.2768
   18CHTO   H13 7604   6.809   7.321   0.750  0.3309 -0.3049  1.9024
   18CHTO   C15 7605   6.764   7.555   0.731 -0.2479 -0.6827  0.0065
   18CHTO   H28 7606   6.813   7.529   0.637 -0.4671 -0.6993 -0.1033
   18CHTO   O10 7607   6.884   7.572   0.836 -0.4991 -0.7264  0.0486
   18CHTO    H4 7608   6.945   7.639   0.813  0.0854 -0.3283  2.6128
   18CHTO    O5 7609   6.701   7.686   0.707 -0.2608 -0.4284 -0.1106
   18CHTO   C10 7610   6.610   7.691   0.599 -0.0480  0.3973 -0.0365
   18CHTO   H23 7611   6.663   7.650   0.513  2.0268  0.9415  0.9427
   18CHTO   C17 7612   6.569   7.838   0.572 -0.4602  0.0113 -0.1944
   18CHTO   O12 7613   6.501   7.888   0.687  1.0521  0.1264 -0.3188
   18CHTO    H6 7614   6.456   7.963   0.654 -2.0436 -1.4147  0.2323
   19CHTO  H203 7615   5.119   9.346   2.302 -1.6178 -0.8457 -1.0144
   19CHTO   O82 7616   5.173   9.269   2.306 -0.2123  0.1905  0.0736
   19CHTO  C123 7617   5.101   9.150   2.261  0.1696 -0.3415 -0.5175
   19CHTO  H227 7618   5.019   9.178   2.192 -0.0672 -1.7490 -0.8219
   19CHTO   O77 7619   5.215   9.088   2.200  0.2184 -0.2661  0.7480
   19CHTO  C118 7620   5.187   8.957   2.154 -0.7374 -0.4441  0.5435
   19CHTO  H222 7621   5.107   8.969   2.079  1.4525 -0.3874 -1.8796
   19CHTO  C125 7622   5.312   8.900   2.077  0.1618 -0.2083 -0.1675
   19CHTO   O84 7623   5.337   8.971   1.963 -0.1793 -0.1551 -0.3654
   19CHTO  H205 7624   5.389   8.925   1.901 -0.4368 -1.1914  0.1861
   19CHTO  C114 7625   5.157   8.866   2.275  0.2549 -0.4759 -0.2090
   19CHTO  H218 7626   5.242   8.864   2.343 -0.4989  1.2384  0.8058
   19CHTO  C116 7627   5.042   8.918   2.356 -0.2474  0.4696  0.7918
   19CHTO  H220 7628   4.950   8.900   2.296  0.9199  0.1973 -0.9382
   19CHTO   O79 7629   5.014   8.832   2.473  0.0260  0.2138 -0.0087
   19CHTO  H201 7630   5.001   8.885   2.549  0.0806 -2.0459  1.6259
   19CHTO  C120 7631   5.045   9.072   2.385  0.0941 -0.5305  0.4733
   19CHTO  H224 7632   5.105   9.091   2.477 -1.0375  2.4051  0.6430
   19CHTO   N21 7633   4.911   9.117   2.433 -0.7384  1.1721  0.0243
   19CHTO  H211 7634   4.906   9.186   2.517 -0.0803  1.8046 -0.4515
   19CHTO  H212 7635   4.839   9.137   2.356 -0.8871 -2.2672 -0.7810
   19CHTO   O75 7636   5.139   8.737   2.217 -0.4036  0.5653 -0.2147
   19CHTO  C112 7637   5.232   8.614   2.291 -0.2798  0.1053 -0.6528
   19CHTO  H216 7638   5.235   8.622   2.400  0.7069 -1.4592 -0.5415
   19CHTO   O73 7639   5.368   8.617   2.237  0.3432 -0.3264  0.1532
   19CHTO  C113 7640   5.455   8.515   2.279  0.5363 -0.3921 -0.4369
   19CHTO  H217 7641   5.459   8.519   2.390  0.3980 -2.4473 -0.3337
   19CHTO  C124 7642   5.603   8.546   2.241 -0.0814  0.2373 -0.6348
   19CHTO   O83 7643   5.705   8.454   2.292 -0.0769  0.0964  0.0471
   19CHTO  H204 7644   5.791   8.491   2.297  0.7765 -1.6020 -1.5867
   19CHTO  C109 7645   5.407   8.374   2.240  0.7792 -0.7537  0.2305
   19CHTO  H213 7646   5.396   8.370   2.131 -2.2781  1.3323  0.3675
   19CHTO  C110 7647   5.266   8.360   2.299 -0.4930  0.6535  0.2899
   19CHTO  H214 7648   5.284   8.360   2.406  2.1050  0.2471 -0.1108
   19CHTO   O78 7649   5.206   8.235   2.264  0.5320 -0.3190 -0.2192
   19CHTO  H200 7650   5.270   8.168   2.276  1.0932  0.1567 -0.5587
   19CHTO  C111 7651   5.169   8.469   2.258 -0.3011 -0.5868  0.2676
   19CHTO  H215 7652   5.156   8.465   2.149  0.3128 -2.8920  0.2540
   19CHTO   N19 7653   5.038   8.463   2.318 -0.1677  0.5741 -0.6785
   19CHTO  H207 7654   4.951   8.462   2.254  0.5955 -0.3746 -1.7055
   19CHTO  H208 7655   5.037   8.473   2.426  0.5919  1.2286 -0.7241
   19CHTO   O74 7656   5.503   8.270   2.281 -0.0400 -0.1495 -0.0139
   19CHTO  C115 7657   5.508   8.145   2.171 -0.1279  0.0871 -0.0150
   19CHTO  H219 7658   5.409   8.104   2.153  0.6623 -2.2656  0.7687
   19CHTO   O76 7659   5.555   8.201   2.026 -0.2013 -0.4810 -0.1646
   19CHTO  C122 7660   5.703   8.214   2.018  0.9933  0.2356  0.0822
   19CHTO  H226 7661   5.737   8.279   2.098 -1.6733  0.6804  0.9040
   19CHTO  C126 7662   5.749   8.282   1.889  0.7681  0.6374 -0.4111
   19CHTO   O85 7663   5.776   8.422   1.897  0.0873 -0.1368  0.2815
   19CHTO  H206 7664   5.760   8.458   1.812  1.5480 -1.9394 -0.7821
   19CHTO  C121 7665   5.778   8.079   2.039 -0.1836  0.7402 -0.6140
   19CHTO  H225 7666   5.812   8.033   1.944 -0.0972  0.6674 -0.5479
   19CHTO   O81 7667   5.891   8.094   2.121  0.2996  0.2238 -0.4518
   19CHTO  H202 7668   5.958   8.028   2.114  0.8502  0.5430  1.6361
   19CHTO  C119 7669   5.696   7.973   2.108 -0.7158  0.1540  0.4062
   19CHTO  H223 7670   5.624   7.941   2.034 -0.6652  0.3041  0.2925
   19CHTO  C117 7671   5.608   8.032   2.224 -0.8579 -0.6597  0.6599
   19CHTO  H221 7672   5.660   8.085   2.304 -1.6820 -0.9792  1.4275
   19CHTO   N20 7673   5.530   7.930   2.295  0.0656  0.3592  0.8366
   19CHTO  H209 7674   5.586   7.848   2.337 -0.5630 -0.9729 -0.8526
   19CHTO  H210 7675   5.477   7.982   2.373  0.7467  3.8367 -0.9378
   19CHTO   O80 7676   5.777   7.828   2.130  0.0963 -0.4720  0.2943
   19CHTO  C103 7677   5.822   7.745   2.011  0.1192  0.1569 -0.5859
   19CHTO  H190 7678   5.792   7.790   1.917  0.0600  1.5048  0.0737
   19CHTO  C101 7679   5.974   7.708   2.000  0.1643 -1.1635  0.8387
   19CHTO  H188 7680   6.006   7.654   2.089 -0.5213 -1.1521  1.0958
   19CHTO   O68 7681   6.059   7.856   2.001 -0.4610  0.4818 -0.5305
   19CHTO  H168 7682   6.101   7.858   2.085 -4.7178  0.3024  1.7312
   19CHTO   C99 7683   6.000   7.615   1.872 -0.3271 -0.8499  0.1163
   19CHTO  H186 7684   5.966   7.664   1.778  1.8820  1.1297  0.2820
   19CHTO   N17 7685   6.145   7.585   1.842 -0.0453 -0.2590 -0.4522
   19CHTO  H174 7686   6.197   7.680   1.835 -2.1379  0.8869 -0.9940
   19CHTO  H175 7687   6.199   7.525   1.913 -1.1169 -1.3917 -0.5734
   19CHTO   C97 7688   5.915   7.489   1.892 -0.6972 -0.0057 -0.0572
   19CHTO  H184 7689   5.959   7.429   1.973  0.1451 -1.7503 -1.7623
   19CHTO   O64 7690   5.774   7.513   1.920  0.0870 -0.2955  0.2954
   19CHTO  C104 7691   5.739   7.604   2.025  0.1979  0.4374  0.2269
   19CHTO  H191 7692   5.765   7.557   2.120  1.3557  0.6245  0.0035
   19CHTO  C108 7693   5.579   7.608   2.027 -0.1078  0.0827 -0.2653
   19CHTO   O71 7694   5.521   7.484   2.065  0.8765 -0.1454 -0.2209
   19CHTO  H171 7695   5.535   7.463   2.155 -0.1866 -1.3532 -0.3257
   19CHTO   O62 7696   5.912   7.411   1.772 -0.1150 -0.0334  0.0622
   19CHTO   C91 7697   5.835   7.295   1.748  0.1760  0.0813 -0.2003
   19CHTO  H178 7698   5.762   7.293   1.829 -0.7768 -4.6802 -1.0469
   19CHTO   C92 7699   5.905   7.155   1.773 -0.0988 -0.0711 -0.0792
   19CHTO  H179 7700   5.997   7.153   1.712 -2.2565  1.2729 -3.5797
   19CHTO   O66 7701   5.939   7.138   1.916 -0.3550 -1.0308  1.1905
   19CHTO  H166 7702   6.020   7.092   1.926  1.6418  2.3412  1.5354
   19CHTO   C93 7703   5.815   7.033   1.732 -0.4148  0.4323  0.1291
   19CHTO  H180 7704   5.737   7.014   1.807  1.2975 -2.8409  1.2041
   19CHTO   N16 7705   5.887   6.899   1.747 -0.2686  0.4719  0.6217
   19CHTO  H172 7706   5.869   6.847   1.840  0.0912 -0.4031  0.2146
   19CHTO  H173 7707   5.875   6.837   1.659 -0.7178  0.1094  0.9354
   19CHTO   C94 7708   5.749   7.060   1.591 -0.0846  0.0790 -0.4009
   19CHTO  H181 7709   5.825   7.062   1.513  1.8099 -1.2776  1.3664
   19CHTO   O61 7710   5.681   7.186   1.586 -0.2003  0.0809 -0.5806
   19CHTO   C95 7711   5.765   7.298   1.608 -0.0636 -0.2845  0.4430
   19CHTO  H182 7712   5.842   7.309   1.531 -1.8254  2.3107 -1.0212
   19CHTO  C106 7713   5.683   7.429   1.594 -0.4440 -0.2658 -0.8566
   19CHTO   O69 7714   5.614   7.444   1.473 -0.4534 -0.4373  0.8394
   19CHTO  H169 7715   5.559   7.518   1.457 -0.5051 -0.5807  0.3365
   19CHTO   O63 7716   5.629   6.951   1.561 -0.3691 -0.0778  0.2515
   19CHTO   C96 7717   5.596   6.900   1.418 -0.1912 -0.8373  1.0339
   19CHTO  H183 7718   5.687   6.861   1.371 -0.8867  0.8758 -1.8522
   19CHTO   C98 7719   5.534   7.013   1.324 -0.5392 -0.2077  0.0317
   19CHTO  H185 7720   5.601   7.100   1.326 -0.7311 -0.0418 -0.5647
   19CHTO   O67 7721   5.546   6.966   1.187 -0.3939  0.6006  0.1050
   19CHTO  H167 7722   5.476   6.905   1.173 -0.1559 -0.0778  1.7118
   19CHTO  C102 7723   5.385   7.050   1.358 -0.0115 -0.8209  0.8662
   19CHTO  H189 7724   5.339   7.073   1.261  0.8559 -0.0849  0.6314
   19CHTO   N18 7725   5.370   7.169   1.445  0.8908 -0.1624 -0.2393
   19CHTO  H176 7726   5.363   7.258   1.384  0.0158  0.1422  0.3066
   19CHTO  H177 7727   5.435   7.173   1.531  1.2388 -1.3076 -0.4363
   19CHTO  C105 7728   5.307   6.933   1.428  0.1294  0.2570  0.1339
   19CHTO  H192 7729   5.320   6.947   1.535 -2.4013  2.2323  0.2353
   19CHTO   O65 7730   5.366   6.805   1.385 -0.5765 -0.5493 -0.4499
   19CHTO  C100 7731   5.502   6.783   1.434  0.3099 -0.7405  0.1425
   19CHTO  H187 7732   5.495   6.758   1.541  2.1471 -0.1286  0.4204
   19CHTO  C107 7733   5.547   6.658   1.360 -0.5652  0.2622 -0.3452
   19CHTO   O70 7734   5.456   6.555   1.389  0.1851 -0.1817 -0.1332
   19CHTO  H170 7735   5.386   6.568   1.328 -0.1129 -1.1824 -0.0084
   19CHTO   O57 7736   5.155   6.944   1.367 -0.0114 -0.0334 -0.1692
   19CHTO   C85 7737   5.043   6.888   1.445 -0.5955  0.1332 -0.1210
   19CHTO  H157 7738   5.079   6.881   1.550  0.9534 -0.0680 -0.6541
   19CHTO   C83 7739   5.018   6.747   1.397  0.1845 -0.2401  0.7744
   19CHTO  H155 7740   5.112   6.696   1.418  1.0346  1.2687  0.7204
   19CHTO   O56 7741   5.000   6.748   1.253 -0.1218 -0.0180 -0.0009
   19CHTO  H135 7742   5.079   6.782   1.214  0.1832  2.0080  2.2167
   19CHTO   C81 7743   4.897   6.688   1.481 -0.1082  0.7049  0.5825
   19CHTO  H153 7744   4.919   6.685   1.588  1.5663 -2.1416  0.2285
   19CHTO   N14 7745   4.883   6.545   1.455  0.4614  0.4171 -0.1008
   19CHTO  H141 7746   4.968   6.501   1.502  0.6196 -0.3587 -1.1029
   19CHTO  H142 7747   4.795   6.509   1.506 -0.0061 -1.7386 -2.3358
   19CHTO   C79 7748   4.763   6.768   1.458 -0.6406 -0.1873  0.3141
   19CHTO  H151 7749   4.687   6.730   1.525 -0.7737 -1.0527 -0.3101
   19CHTO   O52 7750   4.790   6.912   1.490  0.0381 -0.3346 -0.0916
   19CHTO   C86 7751   4.907   6.971   1.430 -0.6183 -0.6730  0.2652
   19CHTO  H158 7752   4.869   6.972   1.326  2.2934 -1.2401 -0.8681
   19CHTO   C90 7753   4.918   7.117   1.473 -0.3877 -0.0905 -0.4708
   19CHTO   O60 7754   4.800   7.196   1.437  0.3133 -0.4434 -0.1442
   19CHTO  H138 7755   4.770   7.253   1.506 -0.2545 -1.5423  0.5213
   19CHTO   O50 7756   4.713   6.754   1.320 -0.3970  0.1156  0.3256
   19CHTO   C73 7757   4.609   6.707   1.224 -0.3593 -0.4630 -0.1383
   19CHTO  H145 7758   4.615   6.599   1.209  0.9234 -0.4861  0.5436
   19CHTO   C74 7759   4.622   6.793   1.090  0.2754  0.0629 -0.1523
   19CHTO  H146 7760   4.715   6.760   1.040 -0.0533 -0.1151 -0.6567
   19CHTO   O54 7761   4.511   6.747   1.014  0.1888  0.6213  0.4335
   19CHTO  H133 7762   4.489   6.796   0.937  1.3157 -0.7840 -0.7903
   19CHTO   C75 7763   4.621   6.948   1.121  0.8297  0.1837 -0.3894
   19CHTO  H147 7764   4.713   6.972   1.177 -0.1846 -0.7547  1.7229
   19CHTO   N13 7765   4.630   7.030   0.997  0.4714  0.1087 -0.3925
   19CHTO  H139 7766   4.731   7.054   0.967  0.6351 -0.7537 -0.5508
   19CHTO  H140 7767   4.579   7.125   1.007 -0.3662 -0.2512 -1.1719
   19CHTO   C76 7768   4.498   6.982   1.223 -0.2157 -0.0138  0.2714
   19CHTO  H148 7769   4.405   6.984   1.166 -0.0627  2.0973  0.0683
   19CHTO   O49 7770   4.479   6.885   1.334  0.4736 -0.8266  0.7599
   19CHTO   C77 7771   4.470   6.747   1.292  0.3621  0.2485 -0.3820
   19CHTO  H149 7772   4.386   6.716   1.231 -1.3440 -2.3440  3.1170
   19CHTO   C88 7773   4.447   6.653   1.417  0.6560 -0.3174 -0.0517
   19CHTO   O58 7774   4.298   6.654   1.469  0.2904  0.3777 -0.0536
   19CHTO  H136 7775   4.238   6.664   1.398 -1.0683  0.7916  1.1206
   19CHTO   O51 7776   4.528   7.125   1.307 -0.5656  0.7506 -0.6449
   19CHTO   C78 7777   4.424   7.226   1.299  0.4302 -0.3593  0.2318
   19CHTO  H150 7778   4.356   7.204   1.215 -1.0680  0.7871  1.1263
   19CHTO   C80 7779   4.502   7.357   1.265 -0.0252  0.1073 -0.2748
   19CHTO  H152 7780   4.563   7.382   1.354 -0.3437  1.2757 -0.3772
   19CHTO   O55 7781   4.592   7.350   1.155 -0.1770  0.2770 -0.4036
   19CHTO  H134 7782   4.656   7.418   1.149  0.7134 -0.4270  0.8868
   19CHTO   C84 7783   4.389   7.467   1.236 -0.0425 -0.2603  0.3028
   19CHTO  H156 7784   4.332   7.436   1.148 -1.3423  0.8929  0.7173
   19CHTO   N15 7785   4.446   7.606   1.210  0.0103 -0.0677 -0.6019
   19CHTO  H143 7786   4.514   7.598   1.128  2.1071  1.2073  0.9457
   19CHTO  H144 7787   4.369   7.676   1.185 -0.9714 -0.7243  0.4967
   19CHTO   C87 7788   4.282   7.482   1.347  0.6544  0.2158 -0.1210
   19CHTO  H159 7789   4.324   7.538   1.431  0.6943 -0.3285  0.2231
   19CHTO   O53 7790   4.234   7.341   1.414  0.2846 -0.2217  0.0064
   19CHTO   C82 7791   4.342   7.250   1.430  0.2690 -0.3402  0.3569
   19CHTO  H154 7792   4.407   7.290   1.508 -1.0166 -0.6506  1.6134
   19CHTO   C89 7793   4.285   7.119   1.483 -0.1455 -0.4650  0.0393
   19CHTO   O59 7794   4.216   7.146   1.607  0.3477  0.3360 -0.6142
   19CHTO  H137 7795   4.151   7.080   1.625  0.9264  0.0306  0.4069
   19CHTO   O45 7796   4.151   7.546   1.292 -0.3431 -0.4689  0.4703
   19CHTO   C67 7797   4.074   7.612   1.396 -0.3347 -0.0921 -0.3617
   19CHTO  H124 7798   4.095   7.559   1.489  0.5958  3.0640  1.3111
   19CHTO   C65 7799   4.115   7.764   1.422 -0.2716  0.1882 -0.5228
   19CHTO  H122 7800   4.138   7.804   1.323 -1.6512 -0.1776 -1.0098
   19CHTO   O44 7801   4.229   7.758   1.502  0.1899  0.0886 -0.0421
   19CHTO  H102 7802   4.205   7.759   1.593  0.3179  0.0786 -0.0075
   19CHTO   C63 7803   3.991   7.850   1.465 -1.0238  0.3991 -0.8397
   19CHTO  H120 7804   3.937   7.884   1.377 -1.8417  4.2708  1.0512
   19CHTO   N11 7805   4.029   7.986   1.522  0.5716  0.0893 -0.4169
   19CHTO  H108 7806   4.068   7.977   1.622 -0.3479 -0.8268 -0.1376
   19CHTO  H109 7807   3.938   8.040   1.536 -1.0795 -2.2689 -1.7804
   19CHTO   C61 7808   3.903   7.761   1.559 -0.7227 -0.9231 -0.4278
   19CHTO  H118 7809   3.819   7.826   1.587 -1.4612 -1.1392 -2.0406
   19CHTO   O40 7810   3.847   7.652   1.485  0.2718 -0.8687 -0.5205
   19CHTO   C68 7811   3.920   7.603   1.371  0.5848 -0.3045 -0.3693
   19CHTO  H125 7812   3.894   7.659   1.279  3.4122 -0.8037 -1.5489
   19CHTO   C72 7813   3.879   7.460   1.349 -0.0735 -0.5747  0.1835
   19CHTO   O48 7814   3.733   7.432   1.352 -0.2825  0.1161 -0.2085
   19CHTO  H105 7815   3.700   7.430   1.440  0.3823 -1.2980  0.0143
   19CHTO   O38 7816   3.968   7.715   1.677 -0.3811 -0.1704  0.0282
   19CHTO   C55 7817   3.904   7.627   1.778 -0.0879 -0.1352  0.1496
   19CHTO  H112 7818   3.840   7.558   1.722 -0.3490 -0.1336  0.4462
   19CHTO   C56 7819   3.823   7.703   1.893  0.8015 -0.1128 -1.1059
   19CHTO  H113 7820   3.894   7.775   1.935 -0.6992  0.2503  0.8716
   19CHTO   O42 7821   3.720   7.779   1.825  0.4131 -0.0057  0.5620
   19CHTO  H100 7822   3.762   7.842   1.770  0.2932 -0.8778 -0.5420
   19CHTO   C57 7823   3.765   7.594   1.997  0.6221  0.6233  0.4599
   19CHTO  H114 7824   3.674   7.562   1.948  0.8706 -1.0451  1.0317
   19CHTO   N10 7825   3.711   7.657   2.117  0.0685  0.2588 -0.4032
   19CHTO  H106 7826   3.636   7.728   2.084  0.5955 -0.1842 -2.6343
   19CHTO  H107 7827   3.795   7.709   2.160  1.1031  0.5067 -2.6745
   19CHTO   C58 7828   3.858   7.468   2.030 -0.1340  0.1127 -0.1339
   19CHTO  H115 7829   3.913   7.488   2.124 -0.1030 -0.1575 -0.0947
   19CHTO   O37 7830   3.948   7.441   1.930 -0.0145  0.2828 -0.0596
   19CHTO   C59 7831   4.012   7.545   1.852  0.5198 -0.1940 -0.0182
   19CHTO  H116 7832   4.070   7.604   1.923  0.1986  1.1693 -0.8698
   19CHTO   C70 7833   4.118   7.477   1.762  0.2431 -0.3627 -0.5135
   19CHTO   O46 7834   4.068   7.360   1.682 -0.7835 -0.2928 -0.0234
   19CHTO  H103 7835   4.018   7.306   1.740  0.1037 -0.5055  0.5523
   19CHTO   O39 7836   3.755   7.329   2.046 -0.0157 -0.2080 -0.1834
   19CHTO   C60 7837   3.741   7.234   1.942 -0.7220 -0.1105 -0.0791
   19CHTO  H117 7838   3.731   7.286   1.846  1.3142  1.5905  0.5801
   19CHTO   C62 7839   3.871   7.143   1.932 -0.1277  0.4729 -0.2924
   19CHTO  H119 7840   3.957   7.206   1.901  0.2171  1.1383  1.9448
   19CHTO   O43 7841   3.873   7.077   2.063  0.6284 -0.1102 -0.0780
   19CHTO  H101 7842   3.832   7.129   2.129 -1.3023 -1.4206 -0.2033
   19CHTO   C66 7843   3.856   7.039   1.812 -0.0747  0.0373 -0.6430
   19CHTO  H123 7844   3.837   7.099   1.723  0.7654 -0.4389 -1.1514
   19CHTO   N12 7845   3.982   6.956   1.792  0.0870  0.4170 -0.4827
   19CHTO  H110 7846   3.958   6.874   1.725  1.2234  1.6671 -2.4678
   19CHTO  H111 7847   4.037   6.926   1.880  0.3754  2.3472  0.0171
   19CHTO   C69 7848   3.726   6.952   1.824 -0.2545  0.6062 -0.3938
   19CHTO  H126 7849   3.727   6.886   1.913  1.1608 -0.1920 -0.9997
   19CHTO   O41 7850   3.593   7.049   1.849 -0.2411 -0.0399  0.4543
   19CHTO   C64 7851   3.610   7.146   1.963  0.7060 -0.4972 -0.5337
   19CHTO  H121 7852   3.616   7.086   2.056  1.2621 -0.0482 -0.2780
   19CHTO   C71 7853   3.489   7.240   1.974  0.3581 -0.3402 -0.1952
   19CHTO   O47 7854   3.372   7.204   2.050 -0.1256  0.1387  0.4091
   19CHTO  H104 7855   3.324   7.139   2.002 -0.6837  1.7492 -1.2673
   19CHTO   O34 7856   3.695   6.850   1.704  0.0620  0.5133  0.4400
   19CHTO   C49 7857   3.605   6.877   1.570 -0.3405 -0.2136  0.2028
   19CHTO   H91 7858   3.498   6.871   1.592 -0.8620  1.5330 -1.6668
   19CHTO   C47 7859   3.649   6.770   1.470  0.6018  0.1543  0.0033
   19CHTO   H89 7860   3.594   6.785   1.375  3.4757  0.3334 -1.7132
   19CHTO   O33 7861   3.610   6.641   1.533 -0.2505  0.1917 -0.3207
   19CHTO   H70 7862   3.621   6.574   1.467 -2.1692  1.1516 -1.6397
   19CHTO   C45 7863   3.800   6.779   1.447  0.0576 -1.7008  0.5557
   19CHTO   H87 7864   3.842   6.774   1.549  0.2058 -1.8097  0.4892
   19CHTO    N8 7865   3.855   6.670   1.366 -0.2781  0.5499 -0.4919
   19CHTO   H75 7866   3.961   6.649   1.371 -0.7188 -1.3270  1.4547
   19CHTO   H76 7867   3.824   6.682   1.263  0.5858  2.2119 -0.5804
   19CHTO   C43 7868   3.837   6.934   1.402 -0.1923  0.6389  0.1028
   19CHTO   H85 7869   3.945   6.930   1.421 -0.2884  1.8592  0.9352
   19CHTO   O29 7870   3.773   7.036   1.480  0.2354 -0.1521 -0.1897
   19CHTO   C50 7871   3.633   7.014   1.510  0.1855  0.0543 -0.5650
   19CHTO   H92 7872   3.604   7.085   1.589 -1.0568 -0.2205 -0.7500
   19CHTO   C54 7873   3.544   7.063   1.391 -0.6077 -0.3344 -0.0584
   19CHTO   O36 7874   3.404   7.051   1.400 -0.0367 -0.1831 -0.0320
   19CHTO   H72 7875   3.363   7.116   1.346  3.5343  0.9284 -1.5451
   19CHTO   O27 7876   3.824   6.951   1.258 -0.4793 -0.7716 -0.0419
   19CHTO   C37 7877   3.869   7.009   1.137 -0.5394  0.3797 -0.4389
   19CHTO   H79 7878   3.855   6.943   1.051 -0.5271 -2.9190  1.9852
   19CHTO   C38 7879   3.796   7.142   1.113  0.4014  0.1460  0.0225
   19CHTO   H80 7880   3.815   7.206   1.201 -1.5144  1.2461 -0.3450
   19CHTO   O31 7881   3.656   7.114   1.096 -0.2553  0.3389 -0.6405
   19CHTO   H68 7882   3.614   7.192   1.128 -1.7096 -0.2183 -1.1576
   19CHTO   C39 7883   3.863   7.209   0.979  0.6673 -0.0837  0.9878
   19CHTO   H81 7884   3.833   7.141   0.899 -0.0716  0.7455  0.5599
   19CHTO    N7 7885   3.806   7.341   0.945 -0.1467 -0.4981  0.2450
   19CHTO   H73 7886   3.855   7.436   0.966 -1.0397  0.5397 -2.1572
   19CHTO   H74 7887   3.702   7.360   0.966 -0.3271  0.9168 -1.7294
   19CHTO   C40 7888   4.017   7.216   0.993 -0.2527 -0.3226 -0.5374
   19CHTO   H82 7889   4.043   7.299   1.059  0.2734 -0.9785  0.0988
   19CHTO   O26 7890   4.078   7.091   1.035  0.0773 -0.2938 -0.7835
   19CHTO   C41 7891   4.022   7.045   1.163  0.2024 -0.7391 -0.2599
   19CHTO   H83 7892   4.023   7.118   1.245  1.4146  0.0368 -0.9505
   19CHTO   C52 7893   4.098   6.923   1.211 -0.2626 -0.1185  0.4091
   19CHTO   O35 7894   4.160   6.804   1.101  0.1988 -0.2280  0.1572
   19CHTO   H71 7895   4.242   6.838   1.071  0.1417 -1.4549 -1.4840
   19CHTO   O28 7896   4.085   7.232   0.866 -0.3690  0.0701 -0.2876
   19CHTO   C42 7897   4.196   7.321   0.848 -0.5334  0.3169 -0.3110
   19CHTO   H84 7898   4.259   7.312   0.937  0.3500 -0.5607 -1.0148
   19CHTO   C44 7899   4.160   7.480   0.832  0.2551  0.0606  0.1347
   19CHTO   H86 7900   4.093   7.491   0.747  2.0018  2.5277 -0.9869
   19CHTO   O32 7901   4.095   7.511   0.958  0.4373  0.2316 -0.0805
   19CHTO   H69 7902   4.056   7.596   0.949 -0.1034  0.3265  2.8605
   19CHTO   C48 7903   4.285   7.569   0.817 -0.2735  0.2753  0.1371
   19CHTO   H90 7904   4.340   7.573   0.912 -0.1575  0.8286  0.0510
   19CHTO    N9 7905   4.257   7.710   0.791 -0.0519  0.5468  0.4661
   19CHTO   H77 7906   4.215   7.761   0.876  2.4058 -1.1709  2.8066
   19CHTO   H78 7907   4.200   7.718   0.700  1.7385  0.3722 -0.7010
   19CHTO   C51 7908   4.387   7.504   0.718  0.3345 -0.1619 -0.2365
   19CHTO   H93 7909   4.359   7.520   0.614  1.7153  3.0199 -0.1953
   19CHTO   O30 7910   4.407   7.370   0.746 -0.2605 -0.3982  0.4649
   19CHTO   C46 7911   4.284   7.280   0.725  0.3869 -0.3390 -0.1205
   19CHTO   H88 7912   4.246   7.304   0.626  1.5573 -0.6697 -0.6536
   19CHTO   C53 7913   4.349   7.144   0.729 -0.4781  0.5703 -0.6841
   19CHTO   O72 7914   4.450   7.114   0.634  0.0120  0.0916  0.5127
   19CHTO  H199 7915   4.425   7.110   0.544 -0.6999  1.1742  0.6483
   19CHTO   O22 7916   4.513   7.570   0.732  0.7194 -0.5143  0.2025
   19CHTO   C31 7917   4.636   7.525   0.655  0.1955 -0.0470  0.2719
   19CHTO   H59 7918   4.631   7.415   0.641  4.4004 -0.5063  1.7064
   19CHTO   C29 7919   4.650   7.586   0.515 -0.0113  0.2759 -0.2727
   19CHTO   H57 7920   4.678   7.690   0.534 -2.2510  1.0554 -1.0116
   19CHTO   O21 7921   4.534   7.575   0.433  0.2157 -0.1960 -0.0388
   19CHTO   H37 7922   4.547   7.612   0.348  0.0447 -1.4206 -0.6018
   19CHTO   C27 7923   4.770   7.507   0.448  1.1477 -0.2074  0.0640
   19CHTO   H55 7924   4.733   7.408   0.419  1.1816 -0.4494  0.8249
   19CHTO    N5 7925   4.813   7.576   0.326  0.0503 -0.7137 -0.1248
   19CHTO   H43 7926   4.877   7.512   0.266  0.8326 -0.4946  0.4630
   19CHTO   H44 7927   4.729   7.619   0.275 -0.5343  0.7949  2.0343
   19CHTO   C25 7928   4.895   7.494   0.541  0.1219  0.4727  0.7004
   19CHTO   H53 7929   4.956   7.585   0.550 -0.7901  1.0370  1.2093
   19CHTO   O17 7930   4.861   7.455   0.674 -0.3123 -0.3343  0.6107
   19CHTO   C32 7931   4.768   7.542   0.739 -0.1927  0.8360  0.4129
   19CHTO   H60 7932   4.799   7.646   0.725 -3.0350  2.0191  2.5414
   19CHTO   C36 7933   4.760   7.494   0.888 -0.1119  0.4600 -0.4732
   19CHTO   O25 7934   4.882   7.526   0.954 -0.4998  0.0824  0.3311
   19CHTO   H40 7935   4.861   7.525   1.045 -2.4939  0.2347 -0.1220
   19CHTO   O15 7936   5.001   7.385   0.495  0.0822  0.2250 -0.3831
   19CHTO   C19 7937   5.071   7.265   0.457  0.1638 -0.0560 -0.2885
   19CHTO   H47 7938   5.028   7.231   0.362 -0.3350 -1.8227  0.5459
   19CHTO   C20 7939   5.228   7.290   0.442 -0.6881 -0.6422 -0.4058
   19CHTO   H48 7940   5.275   7.316   0.538  2.0779 -1.3719 -1.4947
   19CHTO   O19 7941   5.243   7.401   0.353  0.2814  0.3006  0.3847
   19CHTO   H35 7942   5.206   7.474   0.398 -0.5966  0.1894 -0.1428
   19CHTO   C21 7943   5.292   7.157   0.379  0.3242  1.0823  0.3139
   19CHTO   H49 7944   5.255   7.146   0.277  2.5496 -0.9474 -0.3158
   19CHTO    N4 7945   5.438   7.160   0.360 -0.0648  0.1622 -0.2743
   19CHTO   H41 7946   5.449   7.131   0.256  0.8781  1.0677 -0.4328
   19CHTO   H42 7947   5.477   7.260   0.372  1.1267  0.0442 -2.8956
   19CHTO   C22 7948   5.239   7.029   0.438  0.1652  0.5269 -0.1752
   19CHTO   H50 7949   5.306   7.000   0.518  2.2174  1.4906 -1.5021
   19CHTO   O14 7950   5.102   7.033   0.493  0.1367 -0.1371 -0.0775
   19CHTO   C23 7951   5.049   7.156   0.554  0.4720  0.6549 -0.1168
   19CHTO   H51 7952   5.101   7.172   0.650  1.4748 -2.8342  0.0045
   19CHTO   C34 7953   4.900   7.132   0.574 -0.0622 -0.4836 -0.0004
   19CHTO   O23 7954   4.815   7.122   0.456 -0.1339  0.3596  0.3078
   19CHTO   H38 7955   4.786   7.206   0.425  1.3254  0.7723  0.0271
   19CHTO   O16 7956   5.232   6.929   0.336 -0.1680 -0.1364  0.4950
   19CHTO   C24 7957   5.326   6.808   0.316  0.2598 -0.0696  0.4681
   19CHTO   H52 7958   5.420   6.817   0.371 -0.5237  1.0334  1.6630
   19CHTO   C26 7959   5.368   6.808   0.164  0.0068 -0.6564 -0.0487
   19CHTO   H54 7960   5.274   6.811   0.104 -0.4311 -0.8499  0.6240
   19CHTO   O20 7961   5.446   6.925   0.128  0.5155 -0.0281 -0.9069
   19CHTO   H36 7962   5.502   6.895   0.059 -0.7746 -0.8743 -1.6123
   19CHTO   C30 7963   5.424   6.670   0.115 -0.1261  0.5464 -0.1110
   19CHTO   H58 7964   5.523   6.647   0.158 -1.4328 -2.5843  1.3955
   19CHTO    N6 7965   5.432   6.660  -0.037 -0.0660  0.1362 -0.1380
   19CHTO   H45 7966   5.501   6.730  -0.081 -1.4379  0.4238 -1.9019
   19CHTO   H46 7967   5.337   6.684  -0.082  1.3690  1.7709 -2.4396
   19CHTO   C33 7968   5.323   6.559   0.163  0.0589  0.6208  0.3090
   19CHTO   H61 7969   5.222   6.588   0.129 -1.1132 -0.6059  2.6179
   19CHTO   O18 7970   5.323   6.556   0.302  0.3110 -0.0248 -0.0436
   19CHTO   C28 7971   5.263   6.669   0.359  0.6667  0.0040 -0.7758
   19CHTO   H56 7972   5.159   6.669   0.325  0.0460 -0.9368  1.0621
   19CHTO   C35 7973   5.255   6.658   0.508  0.5137 -0.5460  0.5312
   19CHTO   O24 7974   5.148   6.573   0.539  0.1222  0.0337 -0.2911
   19CHTO   H39 7975   5.146   6.546   0.628  1.1954  0.5343 -0.1041
   19CHTO    O9 7976   5.358   6.430   0.110 -0.6459 -0.1895 -0.1957
   19CHTO   C13 7977   5.238   6.334   0.098 -0.2654 -0.1187 -0.1277
   19CHTO   H26 7978   5.173   6.384   0.024  1.5240  0.1215 -1.5849
   19CHTO   C11 7979   5.157   6.315   0.245 -0.1707 -0.8082 -0.0341
   19CHTO   H24 7980   5.122   6.415   0.276 -0.5958 -0.6843 -0.8921
   19CHTO    O8 7981   5.251   6.268   0.346 -0.1723  1.2023 -0.0517
   19CHTO    H3 7982   5.240   6.316   0.426 -0.7195  1.7058 -0.4226
   19CHTO    C9 7983   5.034   6.234   0.200  0.3423  0.8562 -0.4449
   19CHTO   H22 7984   4.987   6.290   0.118  1.3317  0.2209 -1.4668
   19CHTO    N2 7985   4.934   6.227   0.307 -0.4508 -0.0900 -0.2673
   19CHTO   H10 7986   4.888   6.324   0.321 -0.9640 -0.3849  0.1008
   19CHTO   H11 7987   4.856   6.160   0.276  2.2373 -2.7041 -1.6037
   19CHTO    C7 7988   5.078   6.090   0.154 -0.3867 -0.6816 -0.1329
   19CHTO   H20 7989   4.983   6.039   0.127  0.1615 -1.8587  0.1067
   19CHTO    O4 7990   5.170   6.102   0.045  0.4277 -0.3222  0.1653
   19CHTO   C14 7991   5.282   6.192   0.033  0.6170  0.4040 -0.4156
   19CHTO   H27 7992   5.303   6.223  -0.071  0.0981 -3.0187 -1.6009
   19CHTO   C18 7993   5.411   6.147   0.095 -0.1525  0.5129  0.3674
   19CHTO   O13 7994   5.468   6.040   0.022 -0.2775  0.3431  0.4949
   19CHTO    H7 7995   5.537   5.999   0.070  0.0387  1.1755  0.7486
   19CHTO    O2 7996   5.143   6.006   0.274 -0.0796  0.4911 -0.0670
   19CHTO    C1 7997   5.183   5.869   0.258 -0.6135 -0.8527  0.0428
   19CHTO   H14 7998   5.260   5.860   0.178 -1.7752 -1.3957 -1.0250
   19CHTO    C2 7999   5.066   5.777   0.224 -0.0653  0.5735  0.5998
   19CHTO   H15 8000   4.984   5.810   0.289 -0.8762  1.7585 -0.9960
   19CHTO    O6 8001   5.038   5.789   0.081  0.3342  0.0339  0.0149
   19CHTO    H1 8002   5.038   5.881   0.063  0.1317  0.1348  0.5109
   19CHTO    C3 8003   5.106   5.626   0.259  0.2661 -0.7820  0.4407
   19CHTO   H16 8004   5.182   5.606   0.181 -2.0680  0.7750 -2.3038
   19CHTO    N1 8005   4.988   5.531   0.249 -0.1569  0.1428  0.0411
   19CHTO    H8 8006   4.992   5.459   0.329  0.3086  0.2099  0.0775
   19CHTO    H9 8007   4.893   5.582   0.261  0.0931  0.8397 -0.8898
   19CHTO    C4 8008   5.178   5.606   0.400  0.1830  0.3564  0.4556
   19CHTO   H17 8009   5.103   5.633   0.475 -0.8614  2.6542 -1.3531
   19CHTO    O1 8010   5.291   5.691   0.415  0.0342  0.3651 -0.2669
   19CHTO    C5 8011   5.254   5.828   0.397  0.0229  0.2411 -0.6135
   19CHTO   H18 8012   5.176   5.849   0.470  1.1058 -1.9287  1.2307
   19CHTO   C16 8013   5.386   5.912   0.435 -0.2092  0.1215  0.0094
   19CHTO   O11 8014   5.415   5.896   0.577 -0.1626 -0.6483  0.2021
   19CHTO    H5 8015   5.496   5.935   0.603 -1.2749  1.8156  0.1034
   19CHTO    O3 8016   5.227   5.468   0.411  0.9720 -0.3340 -0.2760
   19CHTO    C6 8017   5.260   5.412   0.542 -0.7277  0.5015  0.1340
   19CHTO   H19 8018   5.262   5.492   0.615  1.7322  0.4523  0.1684
   19CHTO    C8 8019   5.142   5.312   0.573 -0.0624 -0.1562  0.2743
   19CHTO   H21 8020   5.146   5.235   0.496  1.5659  0.0486  0.1395
   19CHTO    O7 8021   5.016   5.387   0.585 -0.7836 -0.0066  0.1316
   19CHTO    H2 8022   4.951   5.338   0.538 -1.1906  1.3505 -0.7624
   19CHTO   C12 8023   5.165   5.235   0.710  0.3306  0.2441 -0.4416
   19CHTO   H25 8024   5.141   5.309   0.789 -1.1616  0.0739 -0.7262
   19CHTO    N3 8025   5.060   5.123   0.731  0.8625 -0.5540 -0.2753
   19CHTO   H12 8026   5.046   5.122   0.838 -2.6935 -0.9958 -0.6649
   19CHTO   H13 8027   5.106   5.031   0.700 -0.1214 -0.7063 -1.3038
   19CHTO   C15 8028   5.318   5.185   0.723 -0.2612 -0.1554  0.2628
   19CHTO   H28 8029   5.330   5.097   0.660 -0.1831  0.3570 -0.4472
   19CHTO   O10 8030   5.354   5.168   0.874  0.4081 -0.0982 -0.3958
   19CHTO    H4 8031   5.416   5.100   0.893 -0.1309  0.1321  2.3645
   19CHTO    O5 8032   5.412   5.283   0.682  0.1275 -0.6722  0.0235
   19CHTO   C10 8033   5.392   5.338   0.550  0.7262  0.3286 -0.5925
   19CHTO   H23 8034   5.391   5.258   0.476  0.9646  0.2814 -0.5466
   19CHTO   C17 8035   5.519   5.411   0.512 -0.2932  0.2772 -0.0867
   19CHTO   O12 8036   5.534   5.537   0.576  0.2033 -0.1839 -0.1197
   19CHTO    H6 8037   5.576   5.606   0.527  0.4625  0.3000  0.7807
   20CHTO  H203 8038   4.975   1.034   2.206  0.2864  0.1466  0.0377
   20CHTO   O82 8039   5.029   0.992   2.142  0.0658  0.3923 -0.3063
   20CHTO  C123 8040   5.040   1.059   2.012 -0.1881 -0.5092  0.1409
   20CHTO  H227 8041   4.960   1.135   2.009 -0.9280 -1.0615  3.6694
   20CHTO   O77 8042   5.160   1.130   2.052 -0.3361 -0.0269 -0.2763
   20CHTO  C118 8043   5.216   1.208   1.951  0.7208  0.8573 -0.3812
   20CHTO  H222 8044   5.144   1.291   1.949 -0.5762  0.0396  4.7166
   20CHTO  C125 8045   5.354   1.253   2.011  0.0783 -0.6163  0.2440
   20CHTO   O84 8046   5.440   1.146   2.056 -0.2590 -0.0232 -0.2804
   20CHTO  H205 8047   5.508   1.186   2.106  0.9945 -0.1819 -1.8118
   20CHTO  C114 8048   5.240   1.139   1.819  0.4392 -0.0099  0.7952
   20CHTO  H218 8049   5.315   1.060   1.828  2.8173  1.9576 -0.9506
   20CHTO  C116 8050   5.117   1.055   1.774 -0.1657  0.2079  0.3147
   20CHTO  H220 8051   5.036   1.124   1.742 -0.8307 -1.0573 -0.7523
   20CHTO   O79 8052   5.166   0.977   1.666  0.0150  0.2298  0.0648
   20CHTO  H201 8053   5.102   0.952   1.602 -0.1543  2.8879 -0.8670
   20CHTO  C120 8054   5.055   0.966   1.890  0.0254 -0.6518  0.0809
   20CHTO  H224 8055   5.134   0.893   1.915  1.3375  1.5014  2.4829
   20CHTO   N21 8056   4.926   0.899   1.852 -0.1875  0.1978 -0.2509
   20CHTO  H211 8057   4.917   0.808   1.909 -0.7571  1.1128  1.1221
   20CHTO  H212 8058   4.935   0.871   1.748  2.4276  2.0935 -0.5818
   20CHTO   O75 8059   5.288   1.234   1.723 -0.2082 -0.3718 -0.4117
   20CHTO  C112 8060   5.426   1.191   1.639 -0.0973 -0.2260  0.3126
   20CHTO  H216 8061   5.423   1.082   1.622  0.4014 -0.5659  2.3428
   20CHTO   O73 8062   5.532   1.227   1.723  0.6209  0.1330  0.1906
   20CHTO  C113 8063   5.664   1.198   1.676 -0.3005 -0.0273  0.6059
   20CHTO  H217 8064   5.668   1.088   1.666 -1.5938  0.0817 -1.2620
   20CHTO  C124 8065   5.761   1.236   1.788  1.0865 -0.5349 -0.0681
   20CHTO   O83 8066   5.896   1.193   1.767  0.4397 -0.5022 -0.3326
   20CHTO  H204 8067   5.922   1.219   1.681 -2.4890 -0.5705 -1.3104
   20CHTO  C109 8068   5.690   1.280   1.544  0.1422 -0.3248 -0.2015
   20CHTO  H213 8069   5.693   1.386   1.570 -0.6449 -1.0166  2.8777
   20CHTO  C110 8070   5.570   1.243   1.446  1.5672  0.4519 -0.2923
   20CHTO  H214 8071   5.571   1.136   1.424 -3.1155  0.0728  0.8733
   20CHTO   O78 8072   5.589   1.319   1.330 -0.8150  0.5460  0.2116
   20CHTO  H200 8073   5.533   1.289   1.261  0.9275 -1.3052 -0.4333
   20CHTO  C111 8074   5.426   1.269   1.506 -0.5329 -0.3570 -0.7038
   20CHTO  H215 8075   5.414   1.377   1.523 -0.3227 -0.3863 -0.3617
   20CHTO   N19 8076   5.318   1.230   1.414 -0.4270 -0.1651  0.2048
   20CHTO  H207 8077   5.307   1.315   1.348 -2.0761 -1.0716 -0.7047
   20CHTO  H208 8078   5.229   1.228   1.474 -1.9100  0.8302 -1.8938
   20CHTO   O74 8079   5.817   1.245   1.482 -0.0244  0.4069  0.4106
   20CHTO  C115 8080   5.930   1.355   1.491 -0.0558 -0.7264  0.1899
   20CHTO  H219 8081   5.929   1.405   1.588 -0.3545  3.1237 -1.7020
   20CHTO   O76 8082   6.077   1.292   1.466  0.3125 -0.9261  0.0793
   20CHTO  C122 8083   6.090   1.212   1.351 -0.8508  0.4446 -0.1633
   20CHTO  H226 8084   6.060   1.113   1.385  0.5839  0.6072  1.6366
   20CHTO  C126 8085   6.243   1.201   1.313 -0.3273  0.6585 -0.2746
   20CHTO   O85 8086   6.267   1.110   1.204 -0.1133  0.4251 -0.5834
   20CHTO  H206 8087   6.222   1.030   1.226 -2.5286  2.1846  1.0496
   20CHTO  C121 8088   5.999   1.262   1.229  0.1999  0.7515  0.2594
   20CHTO  H225 8089   6.053   1.239   1.134  0.5819 -0.8068  0.8383
   20CHTO   O81 8090   5.879   1.191   1.230  0.0561  0.1706  0.0814
   20CHTO  H202 8091   5.852   1.172   1.142  3.1818  0.6107 -1.0365
   20CHTO  C119 8092   5.968   1.415   1.230 -0.7014 -0.4922 -0.0663
   20CHTO  H223 8093   6.067   1.460   1.222 -0.2600 -1.8900 -3.0886
   20CHTO  C117 8094   5.905   1.460   1.372  0.1956  0.0111 -0.9285
   20CHTO  H221 8095   5.796   1.467   1.370  0.2146  1.4492  1.0760
   20CHTO   N20 8096   5.950   1.596   1.406  0.7537  0.1899  0.2084
   20CHTO  H209 8097   6.052   1.627   1.423  0.1155  3.4559 -1.4838
   20CHTO  H210 8098   5.903   1.661   1.334 -1.4010 -2.8080 -1.2031
   20CHTO   O80 8099   5.892   1.478   1.105  0.0353 -0.1570  0.0690
   20CHTO  C103 8100   5.960   1.500   0.977 -0.1249  0.0590 -0.5114
   20CHTO  H190 8101   6.068   1.494   0.988 -0.3775 -1.5728  1.2139
   20CHTO  C101 8102   5.917   1.400   0.862 -0.3615  0.4073  0.3195
   20CHTO  H188 8103   5.809   1.397   0.867 -0.4670  1.5391 -0.9122
   20CHTO   O68 8104   5.976   1.250   0.884 -0.1456  0.7582 -0.2786
   20CHTO  H168 8105   5.941   1.234   0.970 -0.6771  1.0800 -0.4332
   20CHTO   C99 8106   5.947   1.457   0.717 -0.1210  0.4589  0.7508
   20CHTO  H186 8107   6.056   1.447   0.696 -0.4180  1.7470 -1.6563
   20CHTO   N17 8108   5.884   1.379   0.616  0.0065  0.3105  0.1857
   20CHTO  H174 8109   5.958   1.309   0.578  0.4371  2.1761 -2.5670
   20CHTO  H175 8110   5.855   1.439   0.531  2.1037  0.2687 -0.5950
   20CHTO   C97 8111   5.904   1.608   0.696 -1.0046 -0.2950  0.2586
   20CHTO  H184 8112   5.794   1.615   0.701 -1.1119 -2.5195  1.7624
   20CHTO   O64 8113   5.969   1.682   0.802  0.0790 -0.1315 -0.3377
   20CHTO  C104 8114   5.925   1.651   0.936  0.2442 -0.7817 -0.2029
   20CHTO  H191 8115   5.818   1.659   0.954 -0.0294 -2.9484 -0.7155
   20CHTO  C108 8116   5.990   1.752   1.028  0.4575  0.1236 -0.6727
   20CHTO   O71 8117   5.904   1.783   1.139  0.0883 -0.0171  0.0593
   20CHTO  H171 8118   5.943   1.859   1.178  1.6238 -0.5113 -0.4818
   20CHTO   O62 8119   5.962   1.664   0.579 -0.4859  1.2074  0.1727
   20CHTO   C91 8120   5.910   1.789   0.529  0.3203  0.3409 -0.5278
   20CHTO  H178 8121   5.873   1.849   0.613  1.8252  0.3417  0.1567
   20CHTO   C92 8122   5.794   1.773   0.419  0.1169  1.0958  0.6258
   20CHTO  H179 8123   5.836   1.705   0.344  1.6322  1.9971  0.6244
   20CHTO   O66 8124   5.680   1.708   0.481  0.0130  0.0242 -0.3354
   20CHTO  H166 8125   5.611   1.701   0.418 -0.5373  0.0175  0.2538
   20CHTO   C93 8126   5.749   1.921   0.370 -0.4675 -0.3401 -0.6627
   20CHTO  H180 8127   5.724   1.970   0.465 -0.8589  1.1023 -1.4997
   20CHTO   N16 8128   5.629   1.929   0.278 -0.9157 -0.5252 -0.0125
   20CHTO  H172 8129   5.537   1.920   0.334 -0.6304 -0.1490  0.5335
   20CHTO  H173 8130   5.637   1.837   0.223  2.9820 -0.3017  0.0590
   20CHTO   C94 8131   5.876   1.993   0.313  0.0691 -0.1537  0.6247
   20CHTO  H181 8132   5.920   1.936   0.231 -0.9611 -1.7667  1.1752
   20CHTO   O61 8133   5.976   2.005   0.416  0.2270 -0.3062  0.3737
   20CHTO   C95 8134   6.025   1.883   0.473  0.5165 -0.3283 -0.1766
   20CHTO  H182 8135   6.079   1.830   0.394  0.7468  0.4707 -0.5706
   20CHTO  C106 8136   6.134   1.909   0.591 -0.1452 -0.3741 -0.5273
   20CHTO   O69 8137   6.253   1.973   0.530 -0.0916 -0.6299  0.0549
   20CHTO  H169 8138   6.246   2.066   0.536  3.4797 -0.0674 -3.0233
   20CHTO   O63 8139   5.845   2.143   0.261  0.1755 -0.0474 -0.2643
   20CHTO   C96 8140   5.924   2.185   0.135 -0.2126 -0.7157 -0.0514
   20CHTO  H183 8141   5.906   2.120   0.049 -1.3068  1.0138 -1.1556
   20CHTO   C98 8142   6.082   2.198   0.156  0.3680 -0.7278  0.8832
   20CHTO  H185 8143   6.097   2.250   0.251 -0.4652  0.7235  0.2342
   20CHTO   O67 8144   6.131   2.060   0.179  0.3811  0.2564  0.5697
   20CHTO  H167 8145   6.114   2.039   0.269  1.0546  0.5193  0.7540
   20CHTO  C102 8146   6.156   2.272   0.043 -0.7389 -0.1813  0.0012
   20CHTO  H189 8147   6.139   2.220  -0.052  1.3563 -0.9608  0.0203
   20CHTO   N18 8148   6.302   2.288   0.059  1.2387 -0.2781  0.3820
   20CHTO  H176 8149   6.349   2.300  -0.038  0.3233 -0.1646 -0.0524
   20CHTO  H177 8150   6.337   2.372   0.118 -1.2496  0.8069  0.3667
   20CHTO  C105 8151   6.085   2.406   0.013 -0.6859 -0.4302  0.5216
   20CHTO  H192 8152   6.111   2.481   0.088  0.3123  0.7751 -0.9866
   20CHTO   O65 8153   5.943   2.386  -0.002 -0.4439  0.0531  0.3042
   20CHTO  C100 8154   5.870   2.326   0.102  0.4003  0.3700  0.0543
   20CHTO  H187 8155   5.879   2.378   0.199 -1.6486  0.3394  0.2841
   20CHTO  C107 8156   5.720   2.321   0.048 -0.2525  0.2925 -0.6868
   20CHTO   O70 8157   5.631   2.295   0.153  0.3685 -0.0481 -0.0027
   20CHTO  H170 8158   5.580   2.373   0.164  0.9536  0.2689  0.4871
   20CHTO   O57 8159   6.142   2.460  -0.131 -0.4196  0.1422  0.1033
   20CHTO   C85 8160   6.178   2.599  -0.146  0.9921  0.9881 -0.0848
   20CHTO  H157 8161   6.235   2.638  -0.059  1.2431 -1.4134  0.8425
   20CHTO   C83 8162   6.042   2.684  -0.140  0.1041  0.0698 -0.0106
   20CHTO  H155 8163   5.999   2.673  -0.040  0.7115  0.4496  0.2955
   20CHTO   O56 8164   5.941   2.625  -0.222 -0.1183 -0.1080  0.6073
   20CHTO  H135 8165   5.949   2.532  -0.221 -0.4927 -0.1312  3.1698
   20CHTO   C81 8166   6.065   2.830  -0.164  0.0066 -0.5724  0.0262
   20CHTO  H153 8167   6.146   2.868  -0.101 -0.1593  2.5816 -1.5351
   20CHTO   N14 8168   5.959   2.918  -0.129 -0.3315 -0.0465  0.5154
   20CHTO  H141 8169   5.912   2.874  -0.044  1.9742  1.1714  2.4777
   20CHTO  H142 8170   5.994   3.014  -0.097  2.9785 -0.7325 -0.8273
   20CHTO   C79 8171   6.115   2.851  -0.322  0.1646 -0.1420 -0.1404
   20CHTO  H151 8172   6.167   2.946  -0.331  0.2787 -0.3667 -2.0428
   20CHTO   O52 8173   6.233   2.769  -0.330 -0.0267  0.0413  0.6113
   20CHTO   C86 8174   6.251   2.629  -0.281  0.5964  1.1038 -0.2776
   20CHTO  H158 8175   6.211   2.566  -0.363 -1.2999  1.7777  0.1073
   20CHTO   C90 8176   6.400   2.600  -0.272  0.2869 -0.5571  0.1056
   20CHTO   O60 8177   6.426   2.470  -0.223  0.9800  0.3093 -0.0750
   20CHTO  H138 8178   6.364   2.442  -0.158  0.8787 -0.2359 -0.4014
   20CHTO   O50 8179   6.015   2.838  -0.427  0.2798  0.7633  0.0024
   20CHTO   C73 8180   6.011   2.863  -0.568 -0.2981 -0.1610 -0.5872
   20CHTO  H145 8181   6.112   2.851  -0.611 -0.1480  0.8460 -0.5211
   20CHTO   C74 8182   5.975   3.017  -0.586 -0.2592 -0.1242 -0.0333
   20CHTO  H146 8183   6.050   3.071  -0.526 -0.3270  0.2398 -0.2796
   20CHTO   O54 8184   6.007   3.054  -0.723  0.1844  0.1899  0.2401
   20CHTO  H133 8185   5.941   3.115  -0.750 -1.1657 -1.3816 -0.0460
   20CHTO   C75 8186   5.828   3.039  -0.530 -0.3484 -0.2046  0.3977
   20CHTO  H147 8187   5.828   3.027  -0.421  1.0641  1.2138  0.5707
   20CHTO   N13 8188   5.775   3.175  -0.541 -0.1138 -0.3824  0.3742
   20CHTO  H139 8189   5.751   3.208  -0.641  2.4958 -0.1803 -0.2315
   20CHTO  H140 8190   5.811   3.257  -0.480 -0.6516  2.1873 -2.6218
   20CHTO   C76 8191   5.724   2.938  -0.592  0.8295 -0.4771  0.1646
   20CHTO  H148 8192   5.720   2.978  -0.693  1.2821  0.4916  0.5279
   20CHTO   O49 8193   5.782   2.804  -0.586  0.1323  0.0634  0.0350
   20CHTO   C77 8194   5.911   2.777  -0.645 -0.4608 -0.5554  0.0337
   20CHTO  H149 8195   5.915   2.799  -0.751 -0.4044  0.3531  0.2128
   20CHTO   C88 8196   5.945   2.627  -0.643 -0.6135  0.5330 -0.5517
   20CHTO   O58 8197   5.844   2.549  -0.709  0.2302 -0.7937  0.2977
   20CHTO  H136 8198   5.881   2.464  -0.718  0.9711 -0.3176 -1.3291
   20CHTO   O51 8199   5.585   2.932  -0.528 -0.2887 -0.0240  1.1627
   20CHTO   C78 8200   5.587   2.864  -0.379  0.0351  0.3393 -0.2089
   20CHTO  H150 8201   5.688   2.861  -0.335  0.2004  0.2395 -0.5916
   20CHTO   C80 8202   5.529   2.722  -0.378 -0.4226 -0.0217 -0.3891
   20CHTO  H152 8203   5.427   2.724  -0.420 -0.8283  1.1923  0.6349
   20CHTO   O55 8204   5.602   2.638  -0.474 -0.2454 -0.0747  0.0554
   20CHTO  H134 8205   5.555   2.557  -0.482  2.0351 -1.4208  0.0481
   20CHTO   C84 8206   5.503   2.652  -0.241  0.5177 -0.6155 -0.7758
   20CHTO  H156 8207   5.600   2.648  -0.189  0.7940  0.9623 -1.1353
   20CHTO   N15 8208   5.428   2.523  -0.237  0.0106  0.6178  0.1101
   20CHTO  H143 8209   5.405   2.486  -0.334 -0.9384  0.3241  0.4392
   20CHTO  H144 8210   5.336   2.531  -0.182 -0.5727 -0.6942 -0.6582
   20CHTO   C87 8211   5.438   2.757  -0.145  0.5313  0.3533 -0.5573
   20CHTO  H159 8212   5.331   2.759  -0.166  0.6025  0.6680 -0.8737
   20CHTO   O53 8213   5.507   2.898  -0.159 -0.4395  0.1203 -0.5297
   20CHTO   C82 8214   5.496   2.951  -0.292 -0.9662 -0.0547 -0.0436
   20CHTO  H154 8215   5.392   2.954  -0.325 -0.4963  1.0593 -1.5254
   20CHTO   C89 8216   5.544   3.094  -0.302  0.1272 -0.2133 -1.0126
   20CHTO   O59 8217   5.478   3.182  -0.210  0.2599 -0.5352 -0.5520
   20CHTO  H137 8218   5.465   3.263  -0.257 -2.3179 -1.2660 -1.1563
   20CHTO   O45 8219   5.443   2.702   0.011 -0.4832  0.5028 -0.5251
   20CHTO   C67 8220   5.471   2.788   0.127 -0.2430  0.7949  0.1839
   20CHTO  H124 8221   5.419   2.884   0.120 -1.5999 -0.0345 -1.4852
   20CHTO   C65 8222   5.424   2.718   0.257  0.0531 -0.3257 -0.2542
   20CHTO  H122 8223   5.318   2.692   0.245 -0.2735  0.7539  0.1783
   20CHTO   O44 8224   5.440   2.815   0.363  0.2828  0.2483  0.0510
   20CHTO  H102 8225   5.365   2.801   0.417  1.0140  1.4348  1.4134
   20CHTO   C63 8226   5.508   2.586   0.282  0.6917  0.2012  0.5294
   20CHTO  H120 8227   5.503   2.528   0.190 -0.1787  0.3980  0.4515
   20CHTO   N11 8228   5.460   2.485   0.374  0.0204  0.7157  0.8134
   20CHTO  H108 8229   5.533   2.407   0.380 -1.7554 -1.3576 -2.8855
   20CHTO  H109 8230   5.430   2.539   0.461 -1.6569 -1.4717  1.6297
   20CHTO   C61 8231   5.663   2.627   0.309 -0.8348 -0.1665 -0.0106
   20CHTO  H118 8232   5.715   2.531   0.297  1.1394  1.1391 -2.4353
   20CHTO   O40 8233   5.707   2.706   0.197  0.2053 -0.0138 -0.2292
   20CHTO   C68 8234   5.625   2.821   0.138  0.4842  0.2440 -0.6861
   20CHTO  H125 8235   5.654   2.829   0.031  0.5721 -0.6140 -0.7354
   20CHTO   C72 8236   5.649   2.949   0.208  0.1231  0.5630  0.3043
   20CHTO   O48 8237   5.789   2.990   0.188  0.2282  0.8708 -0.5238
   20CHTO  H105 8238   5.808   3.078   0.213 -1.5488  1.4706 -1.2164
   20CHTO   O38 8239   5.699   2.695   0.429 -0.5174  0.2670 -0.1505
   20CHTO   C55 8240   5.697   2.642   0.565 -0.7516 -0.1056 -0.3840
   20CHTO  H112 8241   5.621   2.563   0.575  1.7618 -2.4703  0.4707
   20CHTO   C56 8242   5.666   2.764   0.673 -0.3971 -0.5393 -0.3960
   20CHTO  H113 8243   5.741   2.844   0.663  0.9662 -2.0274 -2.4999
   20CHTO   O42 8244   5.542   2.811   0.622 -0.4721 -0.1076  0.7733
   20CHTO  H100 8245   5.527   2.903   0.616 -0.0603 -0.0880 -0.0374
   20CHTO   C57 8246   5.661   2.705   0.815  0.6838 -0.2557 -0.6678
   20CHTO  H114 8247   5.587   2.624   0.812 -0.7840  1.0653 -0.8703
   20CHTO   N10 8248   5.613   2.804   0.916 -0.7331  0.2409  0.2275
   20CHTO  H106 8249   5.572   2.745   0.996  1.2758 -2.2324 -0.4537
   20CHTO  H107 8250   5.541   2.879   0.889 -1.0479  0.1629  0.8465
   20CHTO   C58 8251   5.795   2.643   0.848 -0.0428 -0.0683  0.4411
   20CHTO  H115 8252   5.871   2.723   0.860 -0.8603  0.6595  0.7819
   20CHTO   O37 8253   5.834   2.550   0.749 -0.5941  0.2279  0.6361
   20CHTO   C59 8254   5.840   2.588   0.608  0.6530 -0.0366  0.4131
   20CHTO  H116 8255   5.905   2.674   0.594  0.0377  1.0260  3.7027
   20CHTO   C70 8256   5.882   2.460   0.526  0.3542  0.4103 -0.3269
   20CHTO   O46 8257   5.824   2.340   0.578  0.3375  0.1528  0.2104
   20CHTO  H103 8258   5.884   2.270   0.598  1.2749  1.0353  0.5356
   20CHTO   O39 8259   5.794   2.549   0.996  0.2712  0.0760 -0.3462
   20CHTO   C60 8260   5.741   2.415   1.010  0.0295 -0.3554  0.4719
   20CHTO  H117 8261   5.642   2.418   0.965  1.7615  0.5233 -3.4251
   20CHTO   C62 8262   5.812   2.295   0.937  0.1593  0.4278  0.2241
   20CHTO  H119 8263   5.801   2.317   0.829 -0.2193 -0.2232  0.1254
   20CHTO   O43 8264   5.956   2.276   0.980  0.1759  0.0590  0.4504
   20CHTO  H101 8265   5.962   2.298   1.071  1.1342 -1.5557  0.8036
   20CHTO   C66 8266   5.718   2.168   0.961 -0.4528 -0.3381 -0.3280
   20CHTO  H123 8267   5.618   2.198   0.929 -0.2349  0.6573 -0.0961
   20CHTO   N12 8268   5.767   2.055   0.878 -0.0720 -0.0190  0.0424
   20CHTO  H110 8269   5.780   2.098   0.780  0.3745  1.5690  0.7899
   20CHTO  H111 8270   5.851   2.002   0.919 -0.1820  1.5134  2.2875
   20CHTO   C69 8271   5.719   2.130   1.115  0.7979  0.4591 -0.2212
   20CHTO  H126 8272   5.818   2.121   1.163  0.2107 -3.6530  0.3668
   20CHTO   O41 8273   5.659   2.238   1.180 -0.1438 -0.6703  0.5162
   20CHTO   C64 8274   5.731   2.386   1.155  0.4857 -0.7215 -0.2224
   20CHTO  H121 8275   5.837   2.390   1.189 -0.0799 -0.1366  1.5261
   20CHTO   C71 8276   5.651   2.487   1.239  0.6929 -0.2222  0.2256
   20CHTO   O47 8277   5.679   2.471   1.374 -0.2482  0.2984  0.1748
   20CHTO  H104 8278   5.767   2.501   1.390  0.0516 -1.4329  2.0360
   20CHTO   O34 8279   5.627   1.992   1.154  0.0043  0.3792 -0.1345
   20CHTO   C49 8280   5.474   1.935   1.155 -0.7799 -0.0159 -0.1113
   20CHTO   H91 8281   5.421   1.998   1.227  0.5477  1.8364 -0.7019
   20CHTO   C47 8282   5.474   1.790   1.202  0.1181  0.8821 -0.3482
   20CHTO   H89 8283   5.368   1.760   1.212  0.3133  0.3715  0.1816
   20CHTO   O33 8284   5.541   1.788   1.328 -0.4204  0.4473  0.0122
   20CHTO   H70 8285   5.573   1.705   1.358 -0.8984  0.5247  0.7758
   20CHTO   C45 8286   5.551   1.702   1.080  1.0382 -0.1199  0.5057
   20CHTO   H87 8287   5.650   1.749   1.071 -0.0450  2.5069  1.7896
   20CHTO    N8 8288   5.566   1.560   1.113  0.6909 -0.1918 -0.3744
   20CHTO   H75 8289   5.627   1.555   1.202 -0.2818 -1.8375  0.2120
   20CHTO   H76 8290   5.606   1.501   1.032 -1.4298 -1.4862 -0.5098
   20CHTO   C43 8291   5.465   1.722   0.948  0.3049  0.1427 -0.4481
   20CHTO   H85 8292   5.523   1.677   0.868  2.6024 -0.0504  1.2794
   20CHTO   O29 8293   5.436   1.858   0.915 -0.0759  0.3155  0.1905
   20CHTO   C50 8294   5.405   1.950   1.023  0.8146 -0.0235  0.0142
   20CHTO   H92 8295   5.437   2.043   0.972 -2.2602 -0.2678 -2.5907
   20CHTO   C54 8296   5.255   1.978   1.037  0.3094 -0.0685  0.3739
   20CHTO   O36 8297   5.194   2.042   0.926 -0.2938 -0.6798  0.1147
   20CHTO   H72 8298   5.114   1.994   0.917 -2.5607  2.2971  3.1703
   20CHTO   O27 8299   5.332   1.657   0.942 -0.2313 -0.0232  0.4427
   20CHTO   C37 8300   5.264   1.605   0.827 -0.2011  0.3043  0.7368
   20CHTO   H79 8301   5.159   1.589   0.853 -1.2232  3.8684 -0.8955
   20CHTO   C38 8302   5.262   1.704   0.705  0.0029  0.5297 -0.2387
   20CHTO   H80 8303   5.361   1.749   0.688 -0.8640  1.5360 -2.8947
   20CHTO   O31 8304   5.168   1.810   0.725 -1.0426 -0.2819  0.0425
   20CHTO   H68 8305   5.078   1.785   0.717 -1.1745  0.6698 -1.9118
   20CHTO   C39 8306   5.221   1.631   0.566 -0.2369  0.2621 -0.4285
   20CHTO   H81 8307   5.115   1.610   0.576 -0.3511  0.8230 -0.4870
   20CHTO    N7 8308   5.244   1.719   0.443 -0.5250 -0.2801  0.2286
   20CHTO   H73 8309   5.165   1.714   0.370  0.7386 -0.4151 -1.1714
   20CHTO   H74 8310   5.343   1.706   0.401 -0.1403  0.3455  0.9184
   20CHTO   C40 8311   5.310   1.499   0.546 -0.8768 -0.1530 -0.5164
   20CHTO   H82 8312   5.413   1.531   0.532 -1.0347 -0.3750 -2.2351
   20CHTO   O26 8313   5.295   1.419   0.665  0.0743 -0.0325 -0.3543
   20CHTO   C41 8314   5.333   1.474   0.793  0.0234 -0.3678  0.0548
   20CHTO   H83 8315   5.441   1.493   0.780  0.0526 -1.7511 -1.9764
   20CHTO   C52 8316   5.312   1.365   0.898  0.2805 -0.3063 -0.9613
   20CHTO   O35 8317   5.144   1.348   0.913 -0.1314 -0.0614  0.4008
   20CHTO   H71 8318   5.136   1.272   0.968 -0.1854  0.3821  1.0071
   20CHTO   O28 8319   5.266   1.426   0.432  0.7170 -0.4994  0.4419
   20CHTO   C42 8320   5.371   1.348   0.360  0.6667 -0.0570  0.4557
   20CHTO   H84 8321   5.315   1.297   0.282  2.0609  0.8239 -1.1578
   20CHTO   C44 8322   5.442   1.238   0.446  0.0347 -0.0154  0.3217
   20CHTO   H86 8323   5.499   1.288   0.525  1.6032  1.7097 -1.8405
   20CHTO   O32 8324   5.335   1.155   0.496  0.2633  0.1178 -0.5048
   20CHTO   H69 8325   5.286   1.107   0.431  2.2510 -0.6802 -1.4441
   20CHTO   C48 8326   5.540   1.162   0.359 -0.2600 -0.9027  0.3361
   20CHTO   H90 8327   5.490   1.123   0.270 -0.5351 -1.3562  0.6890
   20CHTO    N9 8328   5.606   1.040   0.411  0.8638 -0.0622 -0.1545
   20CHTO   H77 8329   5.580   1.023   0.514 -2.1277 -1.6410 -1.1373
   20CHTO   H78 8330   5.559   0.964   0.351 -0.6941  0.3092  0.5759
   20CHTO   C51 8331   5.649   1.259   0.296 -0.4535  0.8706 -0.3050
   20CHTO   H93 8332   5.702   1.301   0.381  0.2390 -0.0856 -0.2511
   20CHTO   O30 8333   5.580   1.359   0.215  0.0981  0.1006  0.2329
   20CHTO   C46 8334   5.479   1.439   0.286  0.3087 -0.1995  0.5259
   20CHTO   H88 8335   5.527   1.504   0.359  3.2559 -0.2892 -1.2524
   20CHTO   C53 8336   5.420   1.527   0.180  0.5703 -0.2015  0.3571
   20CHTO   O72 8337   5.518   1.624   0.154 -0.6179  0.3205  0.1298
   20CHTO  H199 8338   5.515   1.648   0.063  1.7887 -0.2376 -0.1301
   20CHTO   O22 8339   5.750   1.211   0.200 -0.1064  0.1325 -0.5814
   20CHTO   C31 8340   5.892   1.238   0.198  0.0061  0.8491 -0.1483
   20CHTO   H59 8341   5.922   1.219   0.093  0.5146  0.2836  0.1013
   20CHTO   C29 8342   5.943   1.379   0.233 -0.1424  0.3960 -0.2379
   20CHTO   H57 8343   5.892   1.409   0.326 -1.1453 -1.8363 -0.0264
   20CHTO   O21 8344   5.889   1.471   0.135 -0.8192  0.2878  0.0302
   20CHTO   H37 8345   5.797   1.483   0.147 -0.9898 -2.1018  1.3887
   20CHTO   C27 8346   6.104   1.395   0.243 -0.2717  0.1137 -0.3034
   20CHTO   H55 8347   6.148   1.389   0.142 -0.4090 -0.3794 -0.3355
   20CHTO    N5 8348   6.143   1.530   0.289  0.2076 -0.4010  0.0236
   20CHTO   H43 8349   6.095   1.599   0.222  0.5907  1.9532  2.0806
   20CHTO   H44 8350   6.250   1.544   0.291 -0.1838  3.0357 -1.4779
   20CHTO   C25 8351   6.163   1.277   0.329 -0.9734 -0.3427 -0.3079
   20CHTO   H53 8352   6.144   1.297   0.435  1.8637 -1.2399  0.4220
   20CHTO   O17 8353   6.101   1.147   0.303 -0.5108 -0.4029  0.1102
   20CHTO   C32 8354   5.960   1.126   0.289  0.8107  0.0194  0.4954
   20CHTO   H60 8355   5.922   1.140   0.391  0.8435  4.0973  0.0378
   20CHTO   C36 8356   5.943   0.985   0.219  0.0227 -0.4777 -0.8119
   20CHTO   O25 8357   6.009   0.961   0.093 -0.5790 -0.4516 -0.5704
   20CHTO   H40 8358   5.969   1.012   0.025  2.6965  0.4473 -1.9050
   20CHTO   O15 8359   6.330   1.267   0.325 -0.5296 -0.2948  0.4088
   20CHTO   C19 8360   6.405   1.206   0.219 -0.1126  0.0922  0.0122
   20CHTO   H47 8361   6.322   1.168   0.159 -0.8943  1.5643  0.1388
   20CHTO   C20 8362   6.485   1.303   0.132 -0.5741  0.4119  0.1730
   20CHTO   H48 8363   6.563   1.355   0.190  0.8411  0.2978 -1.5773
   20CHTO   O19 8364   6.390   1.397   0.075  0.2311 -0.0851 -0.6054
   20CHTO   H35 8365   6.425   1.460   0.015 -2.8094  3.0566  0.7269
   20CHTO   C21 8366   6.577   1.235   0.017  0.1701  0.1982 -0.1096
   20CHTO   H49 8367   6.510   1.204  -0.062  2.3940 -1.2009 -1.5015
   20CHTO    N4 8368   6.675   1.336  -0.045  0.3252 -0.2169  0.7297
   20CHTO   H41 8369   6.655   1.354  -0.149  2.3011  1.3072  0.6023
   20CHTO   H42 8370   6.682   1.431   0.006  2.9119  0.4124 -0.7605
   20CHTO   C22 8371   6.652   1.110   0.076  0.0458 -0.3113 -0.5377
   20CHTO   H50 8372   6.733   1.132   0.147 -0.3901  0.5009 -0.2970
   20CHTO   O14 8373   6.558   1.027   0.137 -0.4463 -0.7844  0.1198
   20CHTO   C23 8374   6.498   1.080   0.257  0.4287 -0.3183  0.4403
   20CHTO   H51 8375   6.574   1.105   0.333  1.2595  2.4188 -1.2372
   20CHTO   C34 8376   6.421   0.976   0.332  0.5060 -0.4383 -0.3016
   20CHTO   O23 8377   6.302   0.946   0.267  0.1319  0.3128 -0.2937
   20CHTO   H38 8378   6.225   0.984   0.306 -1.1028 -2.0317 -0.3649
   20CHTO   O16 8379   6.699   1.030  -0.031  0.2694 -0.1635  0.7838
   20CHTO   C24 8380   6.851   0.948   0.005 -0.2504  0.2354 -0.8970
   20CHTO   H52 8381   6.865   0.942   0.113  0.6586 -1.2547 -1.0776
   20CHTO   C26 8382   6.977   1.003  -0.071 -0.1322 -0.2895 -0.0779
   20CHTO   H54 8383   6.958   0.988  -0.180  1.5818  0.8115 -0.5360
   20CHTO   O20 8384   6.981   1.145  -0.037  0.0861  0.2875 -0.2601
   20CHTO   H36 8385   6.923   1.199  -0.087  1.6036  4.2678  2.0938
   20CHTO   C30 8386   7.100   0.918  -0.025  0.2509 -0.5631  0.1943
   20CHTO   H58 8387   7.114   0.931   0.084 -2.2915 -1.1598  0.6280
   20CHTO    N6 8388   7.222   0.981  -0.080  0.6837  0.3107 -0.2453
   20CHTO   H45 8389   7.211   1.087  -0.098 -1.6723 -0.1442 -1.7961
   20CHTO   H46 8390   7.228   0.927  -0.173 -1.2223 -2.8496  1.3918
   20CHTO   C33 8391   7.087   0.768  -0.053  0.4049  0.7354 -0.2375
   20CHTO   H61 8392   7.093   0.741  -0.159  0.3912  0.4606 -0.1704
   20CHTO   O18 8393   6.964   0.725  -0.003  0.1881  0.0154 -0.1238
   20CHTO   C28 8394   6.838   0.795  -0.040  0.1439  0.7213 -0.0198
   20CHTO   H56 8395   6.823   0.789  -0.148 -0.9643  0.6586  0.1332
   20CHTO   C35 8396   6.717   0.722   0.028  0.0238  0.6535 -0.5768
   20CHTO   O24 8397   6.706   0.584  -0.012 -0.3553  0.5485 -0.5329
   20CHTO   H39 8398   6.649   0.585  -0.086  0.2504  0.1880 -1.0107
   20CHTO    O9 8399   7.198   0.693   0.008 -0.1343  0.3377 -0.1247
   20CHTO   C13 8400   7.198   0.527   0.028  0.6353 -0.6588 -0.4029
   20CHTO   H26 8401   7.302   0.494   0.044 -0.0221 -2.9388 -0.6094
   20CHTO   C11 8402   7.131   0.453  -0.094 -0.5613  0.4578  0.2639
   20CHTO   H24 8403   7.206   0.454  -0.175 -0.2494 -1.6171  0.5168
   20CHTO    O8 8404   7.006   0.495  -0.144 -0.3170  0.1922  0.0271
   20CHTO    H3 8405   6.994   0.588  -0.153  0.4321  0.1743 -1.2365
   20CHTO    C9 8406   7.117   0.301  -0.046 -0.3255 -0.1605  0.6479
   20CHTO   H22 8407   7.218   0.270  -0.014 -0.5198 -2.7493 -1.1192
   20CHTO    N2 8408   7.092   0.204  -0.165  0.2690  0.4268  0.0995
   20CHTO   H10 8409   7.141   0.109  -0.149  1.1336  0.2381 -3.4180
   20CHTO   H11 8410   7.128   0.251  -0.255  1.2328  1.0180  0.7812
   20CHTO    C7 8411   7.019   0.289   0.081  0.0535 -0.1013  0.1299
   20CHTO   H20 8412   7.058   0.208   0.146 -1.6117 -1.6384 -0.7424
   20CHTO    O4 8413   7.005   0.416   0.155 -0.0273 -0.7530  0.4477
   20CHTO   C14 8414   7.133   0.485   0.167  0.0488 -0.4882  0.1212
   20CHTO   H27 8415   7.205   0.418   0.219  0.4312  0.6072  1.0063
   20CHTO   C18 8416   7.123   0.608   0.262 -0.6609 -0.4204 -0.0329
   20CHTO   O13 8417   7.062   0.578   0.386  0.3962  0.0243  0.1849
   20CHTO    H7 8418   6.976   0.542   0.374  1.5058 -2.6809  0.0409
   20CHTO    O2 8419   6.851   0.237   0.030 -0.2996 -0.2168 -0.3334
   20CHTO    C1 8420   6.811   0.113   0.086 -0.0169  0.1248 -0.4221
   20CHTO   H14 8421   6.845   0.107   0.191  0.2372 -0.4834 -0.5371
   20CHTO    C2 8422   6.874  -0.010   0.007 -0.6778 -0.8581  0.7783
   20CHTO   H15 8423   6.863   0.003  -0.102  0.5244  0.2271  0.7696
   20CHTO    O6 8424   7.017  -0.026   0.038  0.5687 -0.0201  0.2018
   20CHTO    H1 8425   7.021  -0.058   0.126  2.7249  4.1289  1.7346
   20CHTO    C3 8426   6.795  -0.149   0.050  0.6328  0.7204 -0.0792
   20CHTO   H16 8427   6.806  -0.167   0.158 -1.5767  0.8484  0.1807
   20CHTO    N1 8428   6.853  -0.268  -0.022 -0.1974 -0.5564  0.5388
   20CHTO    H8 8429   6.931  -0.247  -0.093  0.1163 -0.4595  0.9107
   20CHTO    H9 8430   6.773  -0.325  -0.066 -2.4178  2.3911  0.6084
   20CHTO    C4 8431   6.642  -0.128   0.022 -0.9982 -0.0936  0.4153
   20CHTO   H17 8432   6.629  -0.105  -0.083 -0.0710 -1.2486  0.0393
   20CHTO    O1 8433   6.609  -0.019   0.111  0.0659 -0.2512 -0.1420
   20CHTO    C5 8434   6.659   0.102   0.063 -0.5207 -0.7689  0.1346
   20CHTO   H18 8435   6.654   0.113  -0.045  0.6965 -1.8362 -0.0335
   20CHTO   C16 8436   6.580   0.221   0.123  0.4099 -0.1162  0.5748
   20CHTO   O11 8437   6.450   0.242   0.078  0.1147  0.5964  0.6098
   20CHTO    H5 8438   6.391   0.197   0.136 -2.0563  1.7542 -0.6428
   20CHTO    O3 8439   6.547  -0.231   0.072 -0.4902  0.3169  0.2158
   20CHTO    C6 8440   6.419  -0.234  -0.008 -0.1149 -0.0080  1.3382
   20CHTO   H19 8441   6.405  -0.148  -0.072 -0.2509 -1.6841 -0.9344
   20CHTO    C8 8442   6.419  -0.343  -0.108  0.4059  0.5675  0.0354
   20CHTO   H21 8443   6.426  -0.437  -0.054  0.4353 -0.4962 -1.8009
   20CHTO    O7 8444   6.538  -0.338  -0.191  0.1134  0.1784  0.4657
   20CHTO    H2 8445   6.540  -0.418  -0.239 -0.8404 -1.0855  2.4893
   20CHTO   C12 8446   6.288  -0.356  -0.193 -0.3029  0.4912 -0.2102
   20CHTO   H25 8447   6.286  -0.272  -0.266 -2.7166  0.7231  0.0599
   20CHTO    N3 8448   6.293  -0.480  -0.270 -0.0444  0.6577 -0.1307
   20CHTO   H12 8449   6.225  -0.552  -0.228 -1.6421  2.6908  0.8759
   20CHTO   H13 8450   6.393  -0.522  -0.268 -0.0724  0.6187  0.7736
   20CHTO   C15 8451   6.159  -0.344  -0.092  0.6552  0.3000  0.4930
   20CHTO   H28 8452   6.149  -0.436  -0.034 -0.7634 -0.1621 -0.4515
   20CHTO   O10 8453   6.026  -0.334  -0.158 -0.2488  0.5614 -0.0083
   20CHTO    H4 8454   6.025  -0.406  -0.218 -1.8479  0.4689  0.0970
   20CHTO    O5 8455   6.168  -0.237   0.005  0.1595  0.6947  0.0828
   20CHTO   C10 8456   6.286  -0.237   0.081  0.6055  0.2433 -0.3312
   20CHTO   H23 8457   6.282  -0.329   0.140  0.0716  0.6107  0.2056
   20CHTO   C17 8458   6.271  -0.107   0.162  0.0867 -0.1475  0.4227
   20CHTO   O12 8459   6.284   0.010   0.092  0.5066  0.3543 -0.1009
   20CHTO    H6 8460   6.316   0.083   0.142 -0.0190 -0.7947  1.9670
   21GLOH   H03 8461   4.113   5.049   2.672 -0.1672 -0.5919  0.9919
   21GLOH    O1 8462   4.144   5.013   2.588 -1.2536  0.6972  0.0052
   21GLOH    C1 8463   4.225   4.893   2.620  0.0608 -1.0448 -0.1713
   21GLOH   H02 8464   4.151   4.818   2.646 -1.2724  0.0607 -0.7069
   21GLOH   H08 8465   4.283   4.905   2.712 -1.1295 -2.1101  0.7213
   21GLOH    C2 8466   4.309   4.837   2.512 -0.3790  0.5864 -0.0131
   21GLOH   H04 8467   4.379   4.914   2.477 -1.4765  1.7093  0.2166
   21GLOH    O2 8468   4.389   4.727   2.562 -0.0191 -0.3938 -0.1284
   21GLOH   H05 8469   4.339   4.670   2.621 -2.1475  1.3402 -0.1811
   21GLOH    C3 8470   4.219   4.793   2.393 -0.0860  0.1696 -0.5398
   21GLOH   H06 8471   4.170   4.700   2.423  0.8676  0.2463  1.3219
   21GLOH   H07 8472   4.285   4.778   2.308  0.0640  2.5021 -0.8553
   21GLOH    O3 8473   4.124   4.895   2.359  0.0714 -0.7852 -0.4656
   21GLOH   H01 8474   4.129   4.963   2.428 -0.5056 -1.2224  0.0245
   22GLOH   H03 8475   3.584   9.535   0.685  0.8509 -0.3146  2.5821
   22GLOH    O1 8476   3.676   9.565   0.676  0.6736 -0.5201 -0.4956
   22GLOH    C1 8477   3.748   9.519   0.563  0.1040 -0.0888 -0.3383
   22GLOH   H02 8478   3.853   9.547   0.562  0.3363 -0.7610  2.2307
   22GLOH   H08 8479   3.708   9.581   0.482  1.5197  0.9936 -0.2243
   22GLOH    C2 8480   3.734   9.372   0.511  0.2830  0.3190 -0.0348
   22GLOH   H04 8481   3.628   9.361   0.484  0.4903 -0.5642 -0.5059
   22GLOH    O2 8482   3.801   9.346   0.389  0.3914 -0.3833  0.6001
   22GLOH   H05 8483   3.761   9.262   0.360  0.1538 -0.0195 -0.1317
   22GLOH    C3 8484   3.773   9.257   0.610 -0.1801 -0.3132 -0.2218
   22GLOH   H06 8485   3.736   9.286   0.709 -0.6178  0.0111 -0.4750
   22GLOH   H07 8486   3.881   9.242   0.608 -0.5225 -3.1168  0.3579
   22GLOH    O3 8487   3.710   9.132   0.583  0.1560  0.2001  0.3052
   22GLOH   H01 8488   3.740   9.090   0.500 -1.9969  0.4033 -0.6173
   23GLOH   H03 8489   3.685   4.850   0.622  1.1410 -1.3916 -1.9547
   23GLOH    O1 8490   3.642   4.894   0.546 -0.0436 -0.0548 -0.5593
   23GLOH    C1 8491   3.646   4.798   0.443  0.0566  0.4842 -0.3965
   23GLOH   H02 8492   3.545   4.789   0.403  0.5134  0.4263 -1.5581
   23GLOH   H08 8493   3.658   4.696   0.478  0.5667  0.4086 -0.7765
   23GLOH    C2 8494   3.751   4.826   0.334 -0.4235 -0.2759 -0.5247
   23GLOH   H04 8495   3.753   4.742   0.264 -0.6281  0.8721 -1.9124
   23GLOH    O2 8496   3.707   4.941   0.255 -0.2336 -0.0669 -0.1979
   23GLOH   H05 8497   3.734   4.944   0.162 -2.5213  1.4421 -0.8652
   23GLOH    C3 8498   3.890   4.844   0.392  0.2193 -0.1263  0.4483
   23GLOH   H06 8499   3.908   4.760   0.459  2.5470  2.0426  2.6501
   23GLOH   H07 8500   3.899   4.928   0.462 -1.4797 -0.9353  1.6990
   23GLOH    O3 8501   3.977   4.851   0.278  0.1485 -0.1577  0.0761
   23GLOH   H01 8502   3.996   4.946   0.265 -1.6012  0.4115  1.3849
   24GLOH   H03 8503  10.336   3.042   1.805  0.5394 -0.6412  0.4580
   24GLOH    O1 8504  10.334   2.974   1.735 -0.1587 -0.3392  0.1796
   24GLOH    C1 8505  10.293   2.854   1.812  0.4369  0.2516  0.4880
   24GLOH   H02 8506  10.278   2.879   1.917  0.2725  1.7679  0.1160
   24GLOH   H08 8507  10.371   2.779   1.812 -0.4688 -0.6961  0.4937
   24GLOH    C2 8508  10.172   2.788   1.747  0.0184  0.3499  0.8614
   24GLOH   H04 8509  10.192   2.759   1.643 -0.4405  1.6261  0.4013
   24GLOH    O2 8510  10.144   2.672   1.829  0.1790 -0.0260 -0.4693
   24GLOH   H05 8511  10.222   2.614   1.827 -0.2552 -0.6234 -0.4147
   24GLOH    C3 8512  10.054   2.888   1.759  0.1195  0.0431  0.4130
   24GLOH   H06 8513   9.963   2.845   1.719  0.5848  1.3999 -2.1882
   24GLOH   H07 8514  10.076   2.975   1.697  0.4849 -0.3133  0.0437
   24GLOH    O3 8515  10.031   2.922   1.895  0.0362  0.2887 -0.0859
   24GLOH   H01 8516   9.935   2.938   1.901 -0.1655 -1.2571  0.9171
   25GLOH   H03 8517   2.167   6.972   0.430 -0.4670  0.5136 -0.3728
   25GLOH    O1 8518   2.193   6.884   0.464  0.3969  0.7184 -0.4976
   25GLOH    C1 8519   2.171   6.796   0.349 -0.5951  0.0041 -0.0151
   25GLOH   H02 8520   2.230   6.705   0.354  0.3990  0.6817  0.9230
   25GLOH   H08 8521   2.207   6.848   0.260  0.3403  0.9933  0.9259
   25GLOH    C2 8522   2.027   6.751   0.334  0.8273 -0.5441  0.1334
   25GLOH   H04 8523   1.963   6.838   0.314 -0.1965 -0.9811  1.4797
   25GLOH    O2 8524   2.009   6.651   0.231 -0.2872  1.0417 -0.1634
   25GLOH   H05 8525   2.001   6.698   0.146 -0.8604  0.6419 -0.3309
   25GLOH    C3 8526   1.959   6.691   0.457 -0.3174 -0.7179 -0.2192
   25GLOH   H06 8527   1.972   6.583   0.454  0.0386 -0.6607 -0.7138
   25GLOH   H07 8528   1.851   6.703   0.445 -0.1164 -0.1754 -1.6064
   25GLOH    O3 8529   2.008   6.743   0.583 -0.2163 -0.1372 -0.5876
   25GLOH   H01 8530   2.072   6.814   0.563 -2.7466  1.4287 -3.5251
   26GLOH   H03 8531   9.967   3.408   1.880 -1.8100  1.3490 -0.2215
   26GLOH    O1 8532  10.010   3.465   1.813 -0.0499  0.3599  0.0394
   26GLOH    C1 8533  10.060   3.387   1.702 -0.3252  0.0829 -0.1166
   26GLOH   H02 8534  10.146   3.326   1.731  0.0891  0.4142 -0.6432
   26GLOH   H08 8535  10.105   3.459   1.634 -1.1253  1.5368  0.8591
   26GLOH    C2 8536   9.958   3.302   1.633 -0.0316 -0.5194  0.0788
   26GLOH   H04 8537  10.020   3.223   1.588  0.2552 -0.5729  0.5716
   26GLOH    O2 8538   9.856   3.243   1.716  0.1475 -0.0010 -0.8416
   26GLOH   H05 8539   9.804   3.311   1.762 -0.9751 -2.0170  1.0272
   26GLOH    C3 8540   9.890   3.365   1.508 -0.1656  0.6267 -0.2483
   26GLOH   H06 8541   9.836   3.456   1.532 -0.5086  0.0145  1.3777
   26GLOH   H07 8542   9.807   3.298   1.485 -1.7501  1.2145  3.4204
   26GLOH    O3 8543   9.979   3.384   1.402 -0.3762  0.6171 -0.4047
   26GLOH   H01 8544   9.951   3.318   1.335  3.2125 -1.8394  0.3337
   27GLOH   H03 8545   2.401   7.580   0.958  0.2007 -1.2954  0.5759
   27GLOH    O1 8546   2.350   7.513   0.909 -0.8072 -0.2515  0.1573
   27GLOH    C1 8547   2.403   7.517   0.780  0.0825  0.4572  0.2580
   27GLOH   H02 8548   2.481   7.593   0.776 -0.2981  0.8340  0.0053
   27GLOH   H08 8549   2.327   7.544   0.706  0.0700  2.5555  1.0043
   27GLOH    C2 8550   2.469   7.382   0.746  0.2865 -0.4356 -0.3078
   27GLOH   H04 8551   2.383   7.316   0.725 -0.1548 -0.7235  2.2408
   27GLOH    O2 8552   2.564   7.385   0.633 -0.2199  0.0881  0.5951
   27GLOH   H05 8553   2.513   7.413   0.556  2.4323 -0.4469 -1.4141
   27GLOH    C3 8554   2.537   7.319   0.873 -0.0973 -0.5836 -0.8017
   27GLOH   H06 8555   2.458   7.296   0.945  0.6892 -1.0846 -0.0911
   27GLOH   H07 8556   2.599   7.401   0.910 -1.2752 -0.1366  0.2459
   27GLOH    O3 8557   2.620   7.203   0.855 -0.1644  0.1756 -0.0975
   27GLOH   H01 8558   2.568   7.121   0.841 -0.7608  0.5439 -0.0643
   28GLOH   H03 8559   2.240   2.527   0.238 -0.8881 -0.7447  1.2431
   28GLOH    O1 8560   2.293   2.525   0.320 -0.1539  0.2157  0.7933
   28GLOH    C1 8561   2.324   2.386   0.358  0.6218 -0.0057 -0.0499
   28GLOH   H02 8562   2.373   2.381   0.455  0.6203 -2.5519 -0.1611
   28GLOH   H08 8563   2.382   2.340   0.277  0.9081 -0.9249  0.6757
   28GLOH    C2 8564   2.196   2.298   0.370  0.4873 -0.4862 -0.7204
   28GLOH   H04 8565   2.160   2.294   0.266  0.1027  0.4877 -0.6279
   28GLOH    O2 8566   2.222   2.163   0.419 -0.8398  0.6038 -0.2085
   28GLOH   H05 8567   2.141   2.111   0.427  0.0907 -0.4119  3.8754
   28GLOH    C3 8568   2.095   2.369   0.469 -0.0724 -0.3269  0.0567
   28GLOH   H06 8569   2.079   2.472   0.438 -1.6639  0.2456  2.6582
   28GLOH   H07 8570   2.149   2.377   0.563  0.4064 -0.8576 -0.1656
   28GLOH    O3 8571   1.968   2.306   0.489 -0.6487 -0.1152 -0.0083
   28GLOH   H01 8572   1.992   2.233   0.549  0.3629  0.5755  0.4523
   29GLOH   H03 8573   1.605   6.061   2.358 -0.4875 -0.9760  1.6610
   29GLOH    O1 8574   1.699   6.047   2.336 -0.7689  0.4904 -0.6105
   29GLOH    C1 8575   1.759   5.994   2.455 -0.0656 -0.4632  0.6849
   29GLOH   H02 8576   1.794   6.076   2.519  2.2464 -1.0030  0.1747
   29GLOH   H08 8577   1.843   5.933   2.422 -0.8249 -2.8463  3.0649
   29GLOH    C2 8578   1.682   5.909   2.550 -0.1003  0.8286 -0.0690
   29GLOH   H04 8579   1.650   5.816   2.500 -1.7390  2.1785 -1.6085
   29GLOH    O2 8580   1.770   5.876   2.661 -0.3856  0.1174  0.2308
   29GLOH   H05 8581   1.845   5.937   2.661  0.6571 -1.1481  0.8093
   29GLOH    C3 8582   1.554   5.980   2.592 -0.0395  0.7965 -0.0350
   29GLOH   H06 8583   1.581   6.057   2.665  1.7045 -0.1460  0.3560
   29GLOH   H07 8584   1.493   5.902   2.638  1.5236  0.1900  1.0578
   29GLOH    O3 8585   1.480   6.029   2.483  0.0793  0.5736 -0.4118
   29GLOH   H01 8586   1.387   6.015   2.508  0.9333 -1.4555  1.8037
   30GLOH   H03 8587   3.432   8.240   1.031 -2.9333  1.1429  0.2794
   30GLOH    O1 8588   3.420   8.187   1.112  0.8051 -0.5138 -0.1562
   30GLOH    C1 8589   3.470   8.258   1.225 -0.2543 -0.3869 -0.0895
   30GLOH   H02 8590   3.397   8.238   1.304  0.3201 -1.4876  0.1741
   30GLOH   H08 8591   3.466   8.366   1.214 -0.0458 -0.3734 -0.0335
   30GLOH    C2 8592   3.615   8.237   1.273 -0.9562 -0.0520  0.1573
   30GLOH   H04 8593   3.687   8.261   1.193  0.4399  1.4104  1.8020
   30GLOH    O2 8594   3.662   8.311   1.384  0.4922 -0.4050 -0.2365
   30GLOH   H05 8595   3.618   8.396   1.367 -0.1423 -0.4886  0.9398
   30GLOH    C3 8596   3.636   8.085   1.313  0.6437 -0.5281 -0.6022
   30GLOH   H06 8597   3.556   8.056   1.382  0.3002 -1.0268 -1.2119
   30GLOH   H07 8598   3.726   8.088   1.374  0.0315  0.3578  0.2897
   30GLOH    O3 8599   3.650   7.995   1.199  0.1888  0.6331 -0.0847
   30GLOH   H01 8600   3.637   7.905   1.234 -2.7206  1.4473  1.0364
   31GLOH   H03 8601   0.588   1.540   0.808 -0.3877  0.5787 -0.5227
   31GLOH    O1 8602   0.617   1.609   0.871  0.4885 -0.1674 -0.0951
   31GLOH    C1 8603   0.660   1.725   0.801  0.6727  0.8869 -0.1414
   31GLOH   H02 8604   0.637   1.819   0.852  1.9050  1.9835 -1.5629
   31GLOH   H08 8605   0.602   1.733   0.709  1.7531  0.1258 -0.8934
   31GLOH    C2 8606   0.811   1.724   0.770  0.4747  0.0400 -0.0134
   31GLOH   H04 8607   0.825   1.635   0.706 -1.2312 -0.3451  0.1169
   31GLOH    O2 8608   0.838   1.837   0.684  0.3657 -0.3867 -0.3153
   31GLOH   H05 8609   0.837   1.814   0.589  0.6745 -2.9166  0.2460
   31GLOH    C3 8610   0.901   1.718   0.899  0.1250 -0.2966  0.3899
   31GLOH   H06 8611   0.862   1.790   0.971 -1.9023 -0.7947 -0.1532
   31GLOH   H07 8612   1.001   1.752   0.874 -0.6695  2.0413  0.3415
   31GLOH    O3 8613   0.896   1.585   0.960 -0.3096  0.0625  0.0063
   31GLOH   H01 8614   0.867   1.518   0.895  0.4863  2.1981 -2.6333
   32GLOH   H03 8615   1.122   1.656   0.277  0.3133 -0.4343 -0.3179
   32GLOH    O1 8616   1.121   1.691   0.369  0.2028 -0.1125 -0.4381
   32GLOH    C1 8617   1.045   1.601   0.445  0.1593  0.4096  0.1471
   32GLOH   H02 8618   1.039   1.629   0.551 -0.4500 -1.0106  0.4890
   32GLOH   H08 8619   1.096   1.505   0.442  1.4779  1.1456 -2.1299
   32GLOH    C2 8620   0.903   1.567   0.394 -0.8316  0.1257 -1.0497
   32GLOH   H04 8621   0.909   1.496   0.310 -2.3533 -0.1994 -0.9031
   32GLOH    O2 8622   0.829   1.501   0.500 -0.7771  0.7453 -0.3167
   32GLOH   H05 8623   0.891   1.477   0.571 -2.7132 -1.3534  0.7234
   32GLOH    C3 8624   0.832   1.690   0.332  0.0729  0.0704 -0.5547
   32GLOH   H06 8625   0.727   1.668   0.312 -0.1399  0.4590  0.1137
   32GLOH   H07 8626   0.878   1.710   0.235 -0.0547  0.9776 -0.4354
   32GLOH    O3 8627   0.847   1.794   0.418 -0.2816 -0.4709 -0.4334
   32GLOH   H01 8628   0.813   1.870   0.367 -1.1571  0.1308  1.0089
   33GLOH   H03 8629   1.267   7.953   1.709  0.6066 -0.3959  0.3726
   33GLOH    O1 8630   1.258   7.955   1.806  0.5487 -0.5952  0.3722
   33GLOH    C1 8631   1.171   7.840   1.833 -1.0910  0.4380  0.3212
   33GLOH   H02 8632   1.136   7.851   1.936  2.8274 -1.9936  2.0328
   33GLOH   H08 8633   1.230   7.750   1.848 -0.1925  0.7956 -0.9682
   33GLOH    C2 8634   1.045   7.818   1.745 -0.1407 -0.3540  0.5155
   33GLOH   H04 8635   1.072   7.797   1.640 -0.0519 -1.3271  0.7300
   33GLOH    O2 8636   0.979   7.699   1.790 -0.5619 -0.0003  0.1636
   33GLOH   H05 8637   1.025   7.621   1.756 -0.3157  0.4363 -0.5399
   33GLOH    C3 8638   0.955   7.948   1.758 -0.3033  0.2138  0.4405
   33GLOH   H06 8639   0.869   7.935   1.691  0.6750  2.3473 -1.2767
   33GLOH   H07 8640   1.012   8.026   1.709  1.5871 -0.5154  1.4389
   33GLOH    O3 8641   0.914   7.971   1.892 -0.1212 -0.2234  0.3533
   33GLOH   H01 8642   0.837   7.916   1.915 -1.0092  0.7575 -0.2607
   34GLOH   H03 8643   1.443   0.717   1.499 -1.0906  0.0990  2.8324
   34GLOH    O1 8644   1.429   0.813   1.498  0.1047  0.2894 -0.1460
   34GLOH    C1 8645   1.538   0.877   1.571  0.3460 -0.7160 -0.0821
   34GLOH   H02 8646   1.579   0.960   1.513 -2.8693 -0.8598 -2.6902
   34GLOH   H08 8647   1.615   0.804   1.594  2.1073  1.4413  1.0206
   34GLOH    C2 8648   1.491   0.938   1.702 -0.2613  0.5228  0.4367
   34GLOH   H04 8649   1.573   0.942   1.774  1.7311  0.0513 -1.7363
   34GLOH    O2 8650   1.438   1.070   1.675 -0.2494  0.1265  0.0701
   34GLOH   H05 8651   1.399   1.108   1.755 -1.9880  3.0369 -2.0230
   34GLOH    C3 8652   1.380   0.854   1.769  0.1504 -0.1785  0.2472
   34GLOH   H06 8653   1.433   0.759   1.774 -1.2432 -1.0265 -0.6684
   34GLOH   H07 8654   1.296   0.843   1.700 -0.5330  2.3744  0.6119
   34GLOH    O3 8655   1.343   0.896   1.901 -0.3329 -0.0099  0.2696
   34GLOH   H01 8656   1.247   0.881   1.913 -0.3610  1.6822  2.6255
   35GLOH   H03 8657   0.942  10.220   1.922 -1.2563 -4.1172  2.9932
   35GLOH    O1 8658   0.980  10.166   1.850 -0.3738 -0.2665  0.4295
   35GLOH    C1 8659   0.992  10.032   1.902 -0.1815  0.0431  0.0830
   35GLOH   H02 8660   1.004   9.964   1.819  1.9135  1.9180 -1.2139
   35GLOH   H08 8661   0.905  10.009   1.964 -0.4930 -0.9780 -0.7290
   35GLOH    C2 8662   1.123  10.022   1.977 -0.1724  0.4314 -0.2590
   35GLOH   H04 8663   1.199  10.051   1.904  1.0772  0.6016  1.0891
   35GLOH    O2 8664   1.142  10.101   2.091 -0.0938 -0.0253  0.1412
   35GLOH   H05 8665   1.232  10.115   2.126 -0.4393  3.2687 -0.1423
   35GLOH    C3 8666   1.145   9.878   2.010 -0.4882  0.1984 -0.4383
   35GLOH   H06 8667   1.059   9.860   2.075  0.0583  0.9873  0.5072
   35GLOH   H07 8668   1.234   9.872   2.072  0.3192 -0.0896 -1.6245
   35GLOH    O3 8669   1.153   9.789   1.898  0.0338 -0.2370 -0.6228
   35GLOH   H01 8670   1.218   9.827   1.836  2.5353 -0.8723  1.4812
   36GLOH   H03 8671   9.775   2.962   2.205 -2.1358  1.6900  0.6909
   36GLOH    O1 8672   9.726   2.918   2.133 -0.0817  0.1702  0.1654
   36GLOH    C1 8673   9.648   2.813   2.191 -0.1107 -0.3838  0.4097
   36GLOH   H02 8674   9.581   2.773   2.114  1.6120  0.8792 -1.7899
   36GLOH   H08 8675   9.581   2.850   2.268  1.1714  1.6490  0.5750
   36GLOH    C2 8676   9.735   2.702   2.249  0.4099 -0.5059  0.2330
   36GLOH   H04 8677   9.796   2.745   2.330  1.9798  0.8762 -1.6460
   36GLOH    O2 8678   9.657   2.593   2.302 -0.3585 -0.3334 -0.3070
   36GLOH   H05 8679   9.677   2.579   2.396  1.4823 -0.0976 -0.6426
   36GLOH    C3 8680   9.826   2.653   2.140 -0.4638  0.0751  0.4238
   36GLOH   H06 8681   9.879   2.567   2.181  0.7375  1.0944  1.0469
   36GLOH   H07 8682   9.899   2.733   2.126  1.3434 -1.5260  0.4310
   36GLOH    O3 8683   9.752   2.627   2.021  0.3299  0.3096  0.3290
   36GLOH   H01 8684   9.675   2.568   2.032  2.7806 -3.1238 -0.3402
   37GLOH   H03 8685   2.891   4.755   2.144 -0.9081 -0.3969 -0.5048
   37GLOH    O1 8686   2.982   4.721   2.141 -1.0685 -0.8093 -0.5999
   37GLOH    C1 8687   2.972   4.601   2.214 -0.7697  0.4407  0.3287
   37GLOH   H02 8688   2.980   4.516   2.146  0.0318 -0.9468  2.1155
   37GLOH   H08 8689   2.872   4.589   2.257 -1.0883 -0.2854 -0.6032
   37GLOH    C2 8690   3.085   4.608   2.319  0.0986  0.5312 -0.4409
   37GLOH   H04 8691   3.090   4.711   2.357  2.1143  1.4574 -3.1186
   37GLOH    O2 8692   3.053   4.507   2.425 -0.1998 -0.5749  0.3685
   37GLOH   H05 8693   2.989   4.547   2.487  0.4596  0.5790  0.3179
   37GLOH    C3 8694   3.226   4.585   2.259 -0.2017  0.5026 -0.1720
   37GLOH   H06 8695   3.249   4.480   2.273  1.0720  0.4709 -2.2568
   37GLOH   H07 8696   3.299   4.636   2.322  0.7214  0.1207 -0.9280
   37GLOH    O3 8697   3.232   4.633   2.125 -0.8759 -0.2211 -0.5665
   37GLOH   H01 8698   3.157   4.692   2.107 -0.2733  1.0376  0.8921
   38GLOH   H03 8699   1.012   6.652   2.614 -3.1256 -1.3594  0.0686
   38GLOH    O1 8700   1.029   6.653   2.710  0.0340  0.1100 -0.4089
   38GLOH    C1 8701   0.960   6.758   2.775 -0.3045  0.1551 -0.0659
   38GLOH   H02 8702   0.948   6.739   2.882 -1.8193  1.2173 -0.0359
   38GLOH   H08 8703   0.862   6.776   2.731 -0.1130  0.3999 -0.3909
   38GLOH    C2 8704   1.033   6.895   2.763  0.4126  0.2817 -0.1591
   38GLOH   H04 8705   1.132   6.882   2.810  0.3523 -1.3053 -0.4497
   38GLOH    O2 8706   1.050   6.943   2.629  0.0483  0.0873  0.2825
   38GLOH   H05 8707   0.962   6.941   2.588  0.1245 -0.5150  0.1489
   38GLOH    C3 8708   0.959   7.005   2.846 -0.0876 -0.3103  0.2741
   38GLOH   H06 8709   0.874   7.047   2.793  1.5247  1.7806 -0.7239
   38GLOH   H07 8710   1.033   7.084   2.851 -0.3828 -0.1602  2.9305
   38GLOH    O3 8711   0.926   6.972   2.986  0.1190  0.1524 -0.1685
   38GLOH   H01 8712   0.885   7.047   3.033  1.0513  0.0501  0.8411
   39GLOH   H03 8713   2.662   6.297   2.631 -0.5069 -3.2019  3.3340
   39GLOH    O1 8714   2.759   6.299   2.643 -0.0595  0.0844  0.2513
   39GLOH    C1 8715   2.846   6.351   2.541 -0.6444  0.0279  0.3913
   39GLOH   H02 8716   2.939   6.391   2.583  0.7318 -1.9051 -0.7874
   39GLOH   H08 8717   2.798   6.430   2.483  0.6549  0.0385 -0.6769
   39GLOH    C2 8718   2.887   6.252   2.432  0.1412  0.1674  0.5307
   39GLOH   H04 8719   2.797   6.228   2.374  0.3794  2.7456 -0.9626
   39GLOH    O2 8720   2.980   6.322   2.347  0.3293 -0.0483  0.0945
   39GLOH   H05 8721   2.999   6.261   2.273 -1.5506  1.0551 -1.3571
   39GLOH    C3 8722   2.937   6.121   2.494 -0.7886  0.0794  0.2236
   39GLOH   H06 8723   3.031   6.144   2.545 -0.0764  1.4246 -1.6588
   39GLOH   H07 8724   2.957   6.054   2.410 -0.8628 -1.1209  1.1457
   39GLOH    O3 8725   2.854   6.062   2.592 -0.2125  0.3730 -0.0674
   39GLOH   H01 8726   2.826   6.138   2.646 -2.2475  0.6210 -1.4501
   40GLOH   H03 8727   4.752   3.331   1.469  2.9391 -2.4680 -1.2645
   40GLOH    O1 8728   4.719   3.334   1.377 -0.3028  0.4214 -0.0853
   40GLOH    C1 8729   4.572   3.339   1.373  0.3620 -0.5467 -0.0562
   40GLOH   H02 8730   4.526   3.436   1.390 -1.2391 -1.2833 -0.0899
   40GLOH   H08 8731   4.517   3.277   1.444 -1.1378  1.1134  0.2515
   40GLOH    C2 8732   4.536   3.304   1.231  0.0430  0.0938  0.4253
   40GLOH   H04 8733   4.569   3.201   1.210  0.6825  1.0546 -3.8268
   40GLOH    O2 8734   4.389   3.316   1.213 -0.3786 -0.6377  0.3362
   40GLOH   H05 8735   4.369   3.295   1.120 -0.7384  1.3389 -0.0552
   40GLOH    C3 8736   4.597   3.391   1.121  0.5994 -0.0623  0.0274
   40GLOH   H06 8737   4.543   3.486   1.123  0.3411 -0.2208  0.5974
   40GLOH   H07 8738   4.575   3.346   1.024  0.4309  0.2304 -0.0691
   40GLOH    O3 8739   4.738   3.417   1.145  0.0105  0.0121 -0.5195
   40GLOH   H01 8740   4.761   3.395   1.237 -0.5468  0.2815 -0.3126
   41GLOH   H03 8741   1.287   6.822   2.380  1.1403  0.0713 -0.4250
   41GLOH    O1 8742   1.260   6.858   2.293  0.6640 -0.1530 -0.3742
   41GLOH    C1 8743   1.199   6.759   2.213  0.2181  0.3528  0.3361
   41GLOH   H02 8744   1.128   6.700   2.270 -0.5574  0.4175 -0.5471
   41GLOH   H08 8745   1.276   6.690   2.179 -1.0174 -0.2448 -1.3635
   41GLOH    C2 8746   1.138   6.831   2.095  0.0450  0.5031  0.8881
   41GLOH   H04 8747   1.213   6.896   2.047 -0.3673  0.4922  0.2139
   41GLOH    O2 8748   1.105   6.739   1.987  0.7940  0.5451 -0.3375
   41GLOH   H05 8749   1.133   6.773   1.900  2.2085 -1.2135 -0.5978
   41GLOH    C3 8750   1.022   6.924   2.135 -0.5701  0.0057  0.0186
   41GLOH   H06 8751   1.055   6.967   2.230 -1.4296 -0.4026  0.5051
   41GLOH   H07 8752   0.943   6.855   2.162 -1.7140 -0.2241 -3.7404
   41GLOH    O3 8753   0.991   7.021   2.032 -0.0646  0.3244 -0.4708
   41GLOH   H01 8754   0.919   6.993   1.973 -0.8469  0.1621  0.5516
   42GLOH   H03 8755   3.617   7.937   0.313  1.4590  1.8491 -2.2013
   42GLOH    O1 8756   3.625   8.000   0.386  0.2336 -0.5951  0.1074
   42GLOH    C1 8757   3.753   8.054   0.380  0.2410 -0.0993 -0.0467
   42GLOH   H02 8758   3.768   8.110   0.472  2.5241 -0.7651  0.0125
   42GLOH   H08 8759   3.762   8.119   0.292  2.7609  0.4367  0.5791
   42GLOH    C2 8760   3.858   7.945   0.369  0.0197 -0.0286  0.1518
   42GLOH   H04 8761   3.830   7.865   0.440  0.0936 -1.1330 -1.0342
   42GLOH    O2 8762   3.865   7.891   0.240  0.2656 -0.2193 -0.3308
   42GLOH   H05 8763   3.775   7.872   0.210  0.7178  0.4253 -2.1645
   42GLOH    C3 8764   3.993   7.995   0.414  0.1346  0.9896 -0.0603
   42GLOH   H06 8765   4.067   7.920   0.387  2.0390  2.2791  1.3734
   42GLOH   H07 8766   4.008   7.998   0.522 -0.3368 -1.2458  0.1000
   42GLOH    O3 8767   4.030   8.121   0.348  0.0065 -0.2971 -0.0917
   42GLOH   H01 8768   4.046   8.112   0.252  0.6186 -0.3089  0.0130
   43GLOH   H03 8769   5.079   3.198   1.432 -1.7830  2.2502  1.2967
   43GLOH    O1 8770   5.157   3.256   1.424  0.2587 -0.5547 -0.1561
   43GLOH    C1 8771   5.125   3.394   1.426 -0.3130  0.0884  0.0305
   43GLOH   H02 8772   5.208   3.452   1.468 -0.2935  0.2678 -0.2523
   43GLOH   H08 8773   5.045   3.416   1.496  0.7851  2.1535  0.6930
   43GLOH    C2 8774   5.076   3.450   1.285 -0.1517  0.5315 -0.7671
   43GLOH   H04 8775   4.972   3.415   1.271 -0.8666  2.0177  0.6162
   43GLOH    O2 8776   5.064   3.591   1.295 -0.3816  0.1833 -0.3517
   43GLOH   H05 8777   5.073   3.636   1.209 -1.8410  1.7942  0.3152
   43GLOH    C3 8778   5.169   3.406   1.169  0.3362 -0.0507  0.5318
   43GLOH   H06 8779   5.172   3.297   1.176  1.3817 -0.0813 -0.2611
   43GLOH   H07 8780   5.268   3.441   1.197  0.0353 -0.2987  1.9282
   43GLOH    O3 8781   5.131   3.459   1.039 -0.4209 -0.0255 -0.0224
   43GLOH   H01 8782   5.034   3.457   1.026 -0.4914 -0.7814  0.5868
   44GLOH   H03 8783   3.579   4.876   2.190  0.7871  0.6002 -0.3724
   44GLOH    O1 8784   3.641   4.880   2.265  0.1044 -0.0305  0.2347
   44GLOH    C1 8785   3.607   4.984   2.361 -0.4723  0.1791  0.6550
   44GLOH   H02 8786   3.517   4.945   2.410  0.2614 -0.9863  1.0944
   44GLOH   H08 8787   3.575   5.071   2.304  0.0087 -0.8436 -1.2080
   44GLOH    C2 8788   3.716   5.024   2.457  0.5264  0.9768  0.3623
   44GLOH   H04 8789   3.690   5.127   2.485 -1.8002  0.7689 -0.9467
   44GLOH    O2 8790   3.736   4.929   2.564  0.0085  0.1574 -0.2000
   44GLOH   H05 8791   3.765   4.848   2.519  2.1466 -0.5993  2.4121
   44GLOH    C3 8792   3.851   5.049   2.386 -0.1927  0.0840 -0.3240
   44GLOH   H06 8793   3.884   4.955   2.343  0.4660  0.2617 -0.2216
   44GLOH   H07 8794   3.930   5.085   2.452 -1.0062  1.1062  0.1034
   44GLOH    O3 8795   3.841   5.138   2.276  0.3506  0.1156  0.2226
   44GLOH   H01 8796   3.920   5.130   2.219  0.4824 -1.3833  0.5936
   45GLOH   H03 8797   1.830   5.760   2.202  1.6827 -1.9059  0.4794
   45GLOH    O1 8798   1.770   5.684   2.195 -0.2565 -0.3049 -0.6054
   45GLOH    C1 8799   1.641   5.726   2.143  0.4287 -0.3572 -0.7554
   45GLOH   H02 8800   1.662   5.802   2.067 -1.7268  0.4733 -0.5616
   45GLOH   H08 8801   1.578   5.774   2.218 -0.0107 -0.1714 -1.2435
   45GLOH    C2 8802   1.568   5.598   2.091 -0.2653 -0.0233 -0.5115
   45GLOH   H04 8803   1.549   5.525   2.171 -1.0482 -0.3185 -0.9619
   45GLOH    O2 8804   1.442   5.632   2.035  0.1379  0.7863  0.1627
   45GLOH   H05 8805   1.381   5.556   2.037  0.4038  0.6006  2.1178
   45GLOH    C3 8806   1.664   5.527   1.991  0.5538 -0.1913  0.2050
   45GLOH   H06 8807   1.676   5.597   1.909 -3.1159  0.8847  0.4598
   45GLOH   H07 8808   1.615   5.441   1.944 -1.5671  1.8474 -1.4160
   45GLOH    O3 8809   1.794   5.491   2.045 -0.3593  0.0144 -0.7991
   45GLOH   H01 8810   1.802   5.562   2.112  1.4636  0.7572 -1.7601
   46GLOH   H03 8811   1.812   7.349   0.903  0.6719 -0.8667 -0.1860
   46GLOH    O1 8812   1.906   7.372   0.892  0.4944  0.0483  0.1337
   46GLOH    C1 8813   1.957   7.258   0.831  0.0423 -0.1259  0.4073
   46GLOH   H02 8814   1.873   7.221   0.771 -0.8501 -0.3333  1.7714
   46GLOH   H08 8815   1.981   7.175   0.898  1.3178 -1.5312 -1.7018
   46GLOH    C2 8816   2.086   7.283   0.753  0.0044 -0.1654  0.6230
   46GLOH   H04 8817   2.170   7.309   0.819 -0.8130  0.1977  1.5393
   46GLOH    O2 8818   2.128   7.161   0.684 -0.1716  0.3515 -0.2803
   46GLOH   H05 8819   2.131   7.090   0.749 -0.4589  3.1481  2.9225
   46GLOH    C3 8820   2.064   7.388   0.642 -0.1693  0.1294 -0.1069
   46GLOH   H06 8821   1.995   7.349   0.567  0.8171  0.5713 -1.2568
   46GLOH   H07 8822   2.159   7.400   0.590  0.1652  1.4499  0.7912
   46GLOH    O3 8823   2.013   7.513   0.693 -0.3993 -0.7192  0.2950
   46GLOH   H01 8824   1.970   7.500   0.780  1.7403  1.1714  1.7035
   47GLOH   H03 8825   3.596   9.883   2.645  1.8014 -0.6325  0.9758
   47GLOH    O1 8826   3.579   9.812   2.581  0.2047  0.1839  0.4596
   47GLOH    C1 8827   3.684   9.719   2.607  0.2017 -0.3209  0.0069
   47GLOH   H02 8828   3.726   9.736   2.706 -1.0930 -1.0802  0.6899
   47GLOH   H08 8829   3.774   9.733   2.546 -0.4441  2.0345 -0.4834
   47GLOH    C2 8830   3.634   9.574   2.586 -0.9077  0.2504  0.0477
   47GLOH   H04 8831   3.614   9.556   2.479  0.7309  1.8318 -0.5559
   47GLOH    O2 8832   3.729   9.476   2.624 -0.1257  0.2214 -0.2746
   47GLOH   H05 8833   3.669   9.418   2.674 -1.5287  2.0243  0.1908
   47GLOH    C3 8834   3.504   9.555   2.662  0.6414  0.6573  0.1006
   47GLOH   H06 8835   3.427   9.628   2.635 -0.0358  0.5842  1.7991
   47GLOH   H07 8836   3.517   9.562   2.770  1.2274  1.9138 -0.0497
   47GLOH    O3 8837   3.442   9.426   2.622  0.0521  0.1808 -0.3016
   47GLOH   H01 8838   3.390   9.451   2.543 -0.1437 -1.0638 -0.5789
   48GLOH   H03 8839   3.667   3.083   1.984  2.0953 -1.0991  1.5085
   48GLOH    O1 8840   3.643   2.989   1.972 -0.0378 -0.4295  0.1273
   48GLOH    C1 8841   3.499   2.995   1.981  0.9247  0.2447  0.2251
   48GLOH   H02 8842   3.445   3.063   1.916  2.2580  1.4069  0.3170
   48GLOH   H08 8843   3.484   3.036   2.081  1.2260  1.0197 -0.0452
   48GLOH    C2 8844   3.430   2.855   1.962 -0.0398  0.1614  0.0285
   48GLOH   H04 8845   3.321   2.861   1.976 -0.4640  0.0653 -2.9014
   48GLOH    O2 8846   3.465   2.807   1.835 -0.0425 -0.6894  0.1531
   48GLOH   H05 8847   3.550   2.847   1.812  0.0190 -1.2247 -0.5247
   48GLOH    C3 8848   3.473   2.756   2.070  0.1158 -0.7683  0.8434
   48GLOH   H06 8849   3.582   2.750   2.065  0.1621  0.9372 -0.6492
   48GLOH   H07 8850   3.426   2.659   2.051 -0.0896 -0.5701  0.3275
   48GLOH    O3 8851   3.434   2.806   2.203 -0.1104  0.3621  0.0538
   48GLOH   H01 8852   3.454   2.738   2.270 -1.1085  0.2627  0.2583
   49GLOH   H03 8853   0.659   1.657   1.011 -1.9005  0.1128 -0.5128
   49GLOH    O1 8854   0.650   1.681   1.105  0.0791 -1.0758  0.0255
   49GLOH    C1 8855   0.511   1.675   1.130 -1.6818  0.5009 -0.3001
   49GLOH   H02 8856   0.498   1.598   1.206  0.1000  0.4408 -0.0267
   49GLOH   H08 8857   0.457   1.629   1.047 -1.1788 -1.4651  0.4299
   49GLOH    C2 8858   0.454   1.810   1.179  0.1915 -0.4376 -0.2115
   49GLOH   H04 8859   0.473   1.872   1.090 -0.4492 -1.0463 -0.7838
   49GLOH    O2 8860   0.312   1.793   1.205  0.3990 -0.6830  0.6600
   49GLOH   H05 8861   0.285   1.700   1.209  1.0445 -1.0715 -2.6363
   49GLOH    C3 8862   0.523   1.872   1.302  0.4678  0.3275 -0.0423
   49GLOH   H06 8863   0.486   1.821   1.391 -2.3734  2.0583 -0.1974
   49GLOH   H07 8864   0.480   1.971   1.313 -1.5885 -0.1472 -3.0805
   49GLOH    O3 8865   0.665   1.872   1.290 -0.1008  0.6884 -0.2293
   49GLOH   H01 8866   0.683   1.790   1.240  0.6981  1.6299 -1.5410
   50GLOH   H03 8867   3.482   9.727   1.231 -0.4447  3.0543 -1.8743
   50GLOH    O1 8868   3.552   9.776   1.277  0.4468 -0.1954  0.3914
   50GLOH    C1 8869   3.526   9.782   1.411 -0.0780 -0.3739 -0.4829
   50GLOH   H02 8870   3.490   9.686   1.448 -2.0977  0.4667 -0.2197
   50GLOH   H08 8871   3.441   9.848   1.427  1.0346  0.9032  0.2658
   50GLOH    C2 8872   3.645   9.838   1.490  0.3736  0.2334  0.1729
   50GLOH   H04 8873   3.735   9.783   1.458  1.3085  0.9186  1.5960
   50GLOH    O2 8874   3.672   9.976   1.457 -0.4958  0.4622 -0.4770
   50GLOH   H05 8875   3.601  10.040   1.470 -2.3324 -1.7711  0.8718
   50GLOH    C3 8876   3.622   9.808   1.638  0.3852  0.3994 -0.6335
   50GLOH   H06 8877   3.519   9.840   1.650  0.4616  0.6811 -0.7157
   50GLOH   H07 8878   3.669   9.880   1.706  0.3082 -1.1847  1.1460
   50GLOH    O3 8879   3.651   9.673   1.678 -0.0674  0.0236  0.4693
   50GLOH   H01 8880   3.739   9.645   1.644 -1.6461 -2.3907 -1.8543
   51GLOH   H03 8881   3.823   9.134   1.518  0.3580 -1.2622  0.6984
   51GLOH    O1 8882   3.916   9.149   1.492 -0.0547 -0.0730 -0.1544
   51GLOH    C1 8883   3.993   9.146   1.615  0.7793 -0.6871 -0.3687
   51GLOH   H02 8884   4.002   9.246   1.658 -2.9991 -0.7221  0.7583
   51GLOH   H08 8885   4.093   9.111   1.590  0.1883 -0.9831 -2.3703
   51GLOH    C2 8886   3.942   9.058   1.736 -0.0753 -0.5101 -0.0013
   51GLOH   H04 8887   4.029   9.038   1.800  1.0081  0.0737 -1.2638
   51GLOH    O2 8888   3.856   9.132   1.820 -0.0561 -0.0155 -0.3795
   51GLOH   H05 8889   3.901   9.192   1.881 -0.9404 -0.3234  0.5821
   51GLOH    C3 8890   3.878   8.920   1.694 -0.5530 -0.2076 -0.2678
   51GLOH   H06 8891   3.838   8.928   1.593  1.6813  2.1730 -1.0170
   51GLOH   H07 8892   3.799   8.892   1.763 -2.5660 -0.0565 -2.4495
   51GLOH    O3 8893   3.973   8.818   1.679 -0.2359 -0.2133  0.2610
   51GLOH   H01 8894   3.983   8.793   1.773 -2.4345 -1.7483  0.1290
   52GLOH   H03 8895   1.662   7.539   1.614 -0.9758 -0.4511 -2.3993
   52GLOH    O1 8896   1.737   7.587   1.574  0.0307 -0.1113 -0.1623
   52GLOH    C1 8897   1.843   7.494   1.611 -0.0328  0.1179  0.0607
   52GLOH   H02 8898   1.831   7.469   1.717  3.1580  1.2657  0.7662
   52GLOH   H08 8899   1.939   7.544   1.597 -0.4633  1.0214  0.3384
   52GLOH    C2 8900   1.850   7.362   1.527  0.8205  0.1519  0.6138
   52GLOH   H04 8901   1.935   7.301   1.561  0.6337 -0.4799 -0.0647
   52GLOH    O2 8902   1.722   7.295   1.543 -0.4121 -0.2737  0.0091
   52GLOH   H05 8903   1.728   7.259   1.633  0.5468 -0.2097 -0.0178
   52GLOH    C3 8904   1.877   7.393   1.377  0.0023 -0.2676 -0.0476
   52GLOH   H06 8905   1.788   7.446   1.343  0.5492  1.3227  0.9556
   52GLOH   H07 8906   1.890   7.300   1.322  1.2817 -0.1628  0.0717
   52GLOH    O3 8907   1.995   7.469   1.351  0.2621 -0.1351  0.1740
   52GLOH   H01 8908   2.004   7.477   1.255  1.4307  1.5961  0.3942
   53GLOH   H03 8909   9.214   4.509   0.845 -1.2345  0.1786 -0.0603
   53GLOH    O1 8910   9.203   4.491   0.750  0.3495  0.5133 -0.3133
   53GLOH    C1 8911   9.313   4.405   0.701  0.4750  0.6186 -0.1772
   53GLOH   H02 8912   9.405   4.432   0.754  0.5942  1.4142 -0.7709
   53GLOH   H08 8913   9.337   4.431   0.598  1.0403  1.5722  0.1813
   53GLOH    C2 8914   9.286   4.259   0.719  0.1326  0.5655  0.7359
   53GLOH   H04 8915   9.377   4.207   0.684  0.3672 -1.1351  3.6951
   53GLOH    O2 8916   9.259   4.221   0.856 -0.2727 -0.2058  0.3085
   53GLOH   H05 8917   9.171   4.251   0.884 -1.4533 -3.1087 -0.1166
   53GLOH    C3 8918   9.164   4.217   0.631  1.0654  0.3790  0.2823
   53GLOH   H06 8919   9.080   4.238   0.697  0.4479 -0.4115 -0.2401
   53GLOH   H07 8920   9.158   4.108   0.634 -0.1714  0.4407  0.6184
   53GLOH    O3 8921   9.147   4.258   0.502 -0.0876  0.4643  0.3701
   53GLOH   H01 8922   9.185   4.201   0.433  1.6446 -0.2736  1.9079
   54GLOH   H03 8923   3.532   2.011   2.354  3.0023  2.1264  0.2659
   54GLOH    O1 8924   3.549   2.020   2.259  0.1793  0.4052 -0.4577
   54GLOH    C1 8925   3.659   2.104   2.225 -0.1918  0.2224 -0.1768
   54GLOH   H02 8926   3.740   2.036   2.200 -1.8963 -0.5496 -4.0478
   54GLOH   H08 8927   3.696   2.160   2.311  2.1690 -3.1090  1.0637
   54GLOH    C2 8928   3.652   2.208   2.116 -0.9012  1.0440 -1.1340
   54GLOH   H04 8929   3.597   2.160   2.033  1.9360 -1.1856 -1.7927
   54GLOH    O2 8930   3.567   2.321   2.165 -0.1794  0.7542  0.5181
   54GLOH   H05 8931   3.471   2.314   2.150 -0.0417  1.0332 -0.5517
   54GLOH    C3 8932   3.785   2.264   2.070 -0.1146  0.3185 -0.1842
   54GLOH   H06 8933   3.833   2.316   2.153 -1.1555 -0.9887  1.2752
   54GLOH   H07 8934   3.768   2.345   1.999 -0.8023 -0.9635 -1.4915
   54GLOH    O3 8935   3.863   2.161   2.012 -0.3009  0.2681  0.5550
   54GLOH   H01 8936   3.924   2.141   2.085 -0.9193 -3.1019  0.2053
   55GLOH   H03 8937   1.059   9.312   1.678 -0.0723 -0.4287  0.0636
   55GLOH    O1 8938   1.036   9.342   1.767  0.3061 -0.0158  0.0216
   55GLOH    C1 8939   1.098   9.245   1.852 -0.1930 -0.2556 -0.8634
   55GLOH   H02 8940   1.044   9.151   1.851 -3.5751  1.6165 -0.3418
   55GLOH   H08 8941   1.108   9.286   1.953 -1.5086 -0.6786 -0.5495
   55GLOH    C2 8942   1.242   9.214   1.802 -1.4178  0.2261  0.5193
   55GLOH   H04 8943   1.297   9.310   1.803 -1.3926  0.2192  0.0228
   55GLOH    O2 8944   1.317   9.129   1.891  0.5847 -1.0064  0.0419
   55GLOH   H05 8945   1.407   9.130   1.854  0.9900 -1.4690  0.9877
   55GLOH    C3 8946   1.247   9.154   1.664 -0.2911 -0.2107  0.5321
   55GLOH   H06 8947   1.208   9.052   1.662 -1.0300  0.0778  0.0095
   55GLOH   H07 8948   1.349   9.155   1.626 -0.4558  0.0377  0.0932
   55GLOH    O3 8949   1.167   9.236   1.578  0.2341  0.4875 -0.0442
   55GLOH   H01 8950   1.205   9.234   1.489  0.3862  0.5201  0.0201
   56GLOH   H03 8951   9.517   4.514   2.119 -2.5988 -0.5290 -3.2555
   56GLOH    O1 8952   9.577   4.565   2.061  0.1226  0.3282  0.1606
   56GLOH    C1 8953   9.549   4.533   1.921  0.0670 -0.2817 -0.5444
   56GLOH   H02 8954   9.615   4.601   1.867  1.7876 -1.7932 -0.4145
   56GLOH   H08 8955   9.446   4.566   1.907  0.2675  0.2559 -0.7682
   56GLOH    C2 8956   9.586   4.394   1.867  0.9567 -0.4621 -0.4000
   56GLOH   H04 8957   9.540   4.386   1.768 -0.1562 -1.7887  0.2123
   56GLOH    O2 8958   9.730   4.377   1.859  0.5198  0.0614 -0.0185
   56GLOH   H05 8959   9.770   4.434   1.792 -1.0523 -2.1796 -2.9536
   56GLOH    C3 8960   9.529   4.283   1.958 -0.2936 -0.1493 -0.0875
   56GLOH   H06 8961   9.581   4.284   2.053 -2.4969 -0.8270  1.1633
   56GLOH   H07 8962   9.558   4.192   1.906 -0.2205  0.7924 -1.7143
   56GLOH    O3 8963   9.387   4.306   1.982 -0.1933 -0.3096  0.2307
   56GLOH   H01 8964   9.368   4.355   2.064  1.1308  0.9010 -0.1666
   57GLOH   H03 8965   3.035   7.011   1.539  0.4988 -1.7947 -1.5712
   57GLOH    O1 8966   2.954   7.040   1.493 -0.3784 -0.3446  0.7906
   57GLOH    C1 8967   2.842   7.010   1.582 -0.3211 -0.4357 -0.6985
   57GLOH   H02 8968   2.876   6.963   1.674  1.7583  0.4577 -0.9774
   57GLOH   H08 8969   2.764   6.949   1.536 -1.4921 -0.2057  0.9689
   57GLOH    C2 8970   2.776   7.138   1.641  0.1083 -0.1063  0.5480
   57GLOH   H04 8971   2.764   7.198   1.550  1.6387  0.8562  0.9645
   57GLOH    O2 8972   2.650   7.116   1.696  0.5356 -0.4578  0.4712
   57GLOH   H05 8973   2.600   7.198   1.687  0.2713 -0.4281  2.1720
   57GLOH    C3 8974   2.867   7.220   1.729 -0.7481  0.0920 -1.0866
   57GLOH   H06 8975   2.958   7.249   1.677 -0.7672  1.5151 -0.3714
   57GLOH   H07 8976   2.883   7.165   1.822 -4.3756  0.6646 -0.0196
   57GLOH    O3 8977   2.810   7.349   1.769 -0.0490  0.0288  0.4269
   57GLOH   H01 8978   2.876   7.395   1.824  0.8393 -0.0267 -0.5842
   58GLOH   H03 8979   0.459   7.343   2.467  0.8991  0.8988 -0.7400
   58GLOH    O1 8980   0.527   7.274   2.453  0.2874  0.1272  0.0273
   58GLOH    C1 8981   0.570   7.289   2.317 -0.2185 -0.1475  0.1684
   58GLOH   H02 8982   0.493   7.315   2.244  0.0094  1.9435  0.6470
   58GLOH   H08 8983   0.601   7.191   2.280 -0.5435  0.1363 -0.8728
   58GLOH    C2 8984   0.693   7.378   2.304 -0.7410  0.1870 -0.1231
   58GLOH   H04 8985   0.692   7.423   2.204  1.5443  0.8689  0.1440
   58GLOH    O2 8986   0.688   7.486   2.405  0.4596  0.2039 -0.0189
   58GLOH   H05 8987   0.726   7.455   2.489  1.3628  2.0511  0.2886
   58GLOH    C3 8988   0.828   7.304   2.323 -0.3461 -0.1063  0.3034
   58GLOH   H06 8989   0.834   7.280   2.429 -2.4494 -1.2131  0.2016
   58GLOH   H07 8990   0.904   7.380   2.307 -0.5902  0.2248  0.7161
   58GLOH    O3 8991   0.852   7.191   2.237  0.0583  0.3697 -0.0081
   58GLOH   H01 8992   0.847   7.207   2.141 -1.3080  1.6719  0.2611
   59GLOH   H03 8993   3.303   4.594   2.906  0.2361 -0.2618 -0.9361
   59GLOH    O1 8994   3.289   4.681   2.863  0.4726  0.5220  0.5346
   59GLOH    C1 8995   3.255   4.666   2.723  0.2483 -0.5836  0.0785
   59GLOH   H02 8996   3.148   4.645   2.718  0.1966 -0.2978  0.0241
   59GLOH   H08 8997   3.307   4.582   2.678  0.4126 -0.5081  0.1292
   59GLOH    C2 8998   3.290   4.784   2.629  0.1634 -0.4302  0.4541
   59GLOH   H04 8999   3.286   4.757   2.523  0.1938 -0.9330  0.5800
   59GLOH    O2 9000   3.204   4.901   2.655  0.1280 -0.1670  0.0780
   59GLOH   H05 9001   3.204   4.905   2.752  0.3670 -1.8974  0.1726
   59GLOH    C3 9002   3.436   4.820   2.660 -0.4988 -0.0722  0.2433
   59GLOH   H06 9003   3.444   4.850   2.764  1.1438  2.6046 -0.6062
   59GLOH   H07 9004   3.466   4.908   2.602  1.4145 -1.7557 -1.4101
   59GLOH    O3 9005   3.530   4.714   2.640 -0.2956 -0.9942  0.7564
   59GLOH   H01 9006   3.529   4.692   2.545 -1.2240 -0.5621  0.6622
   60GLOH   H03 9007   4.955   3.277   0.696  0.6352 -0.9057  0.3648
   60GLOH    O1 9008   4.874   3.251   0.744 -0.1559  0.2794 -0.3246
   60GLOH    C1 9009   4.893   3.111   0.767  0.3358  1.0964  0.1056
   60GLOH   H02 9010   4.984   3.097   0.825 -0.3071  0.6593  1.0322
   60GLOH   H08 9011   4.911   3.066   0.670  0.9075 -0.3844  0.8723
   60GLOH    C2 9012   4.781   3.043   0.841 -0.4221 -0.0303 -0.0506
   60GLOH   H04 9013   4.695   3.055   0.773 -1.4503 -1.5560  0.9424
   60GLOH    O2 9014   4.788   2.900   0.860  0.1111 -0.7320  0.7058
   60GLOH   H05 9015   4.746   2.894   0.948 -1.2300 -0.0253  0.1246
   60GLOH    C3 9016   4.753   3.114   0.975  0.7658 -0.8858 -0.5278
   60GLOH   H06 9017   4.749   3.222   0.957  1.2885 -0.8260 -0.3199
   60GLOH   H07 9018   4.835   3.109   1.048  1.3303  2.4815 -0.8595
   60GLOH    O3 9019   4.624   3.070   1.025  0.0893 -0.5519  0.1665
   60GLOH   H01 9020   4.562   3.104   0.958 -0.1349  0.5015  0.9003
   61GLOH   H03 9021   3.303   5.198   1.758  0.8089  0.0734  2.8497
   61GLOH    O1 9022   3.339   5.287   1.742 -0.6195  0.0971 -0.6799
   61GLOH    C1 9023   3.386   5.289   1.604 -0.3120 -0.6970  0.5506
   61GLOH   H02 9024   3.420   5.391   1.586 -0.9948 -0.9443 -2.3689
   61GLOH   H08 9025   3.305   5.271   1.533  0.6391  1.5365 -1.1682
   61GLOH    C2 9026   3.500   5.189   1.579 -0.1905 -0.1758  0.3156
   61GLOH   H04 9027   3.464   5.089   1.607  0.7526  0.3270  3.4937
   61GLOH    O2 9028   3.526   5.186   1.436  0.2292  0.0842 -0.0583
   61GLOH   H05 9029   3.600   5.123   1.430 -2.0369 -2.5962 -0.8529
   61GLOH    C3 9030   3.609   5.222   1.676 -0.6421  0.5066  0.0609
   61GLOH   H06 9031   3.571   5.235   1.778  0.6476  1.0714  0.4868
   61GLOH   H07 9032   3.657   5.317   1.650  0.1019  0.2234  0.3780
   61GLOH    O3 9033   3.703   5.117   1.687 -0.0299  0.2113 -0.8295
   61GLOH   H01 9034   3.675   5.036   1.733 -0.6950  0.9731  0.1251
   62GLOH   H03 9035   3.514   2.741   0.580  0.1250  0.1872  3.3321
   62GLOH    O1 9036   3.449   2.670   0.595 -0.0907 -0.3164  0.3396
   62GLOH    C1 9037   3.324   2.742   0.616 -0.0234  0.5404 -0.2990
   62GLOH   H02 9038   3.333   2.765   0.723  2.7768  2.8599 -0.9633
   62GLOH   H08 9039   3.237   2.679   0.602 -1.5157  2.6173 -0.5741
   62GLOH    C2 9040   3.309   2.880   0.549  0.0694  0.0678  0.1714
   62GLOH   H04 9041   3.321   2.866   0.441 -0.2244 -1.7488  0.3537
   62GLOH    O2 9042   3.179   2.939   0.586  0.0103  0.8604 -0.1539
   62GLOH   H05 9043   3.122   2.938   0.508  1.3553  3.3134 -1.2427
   62GLOH    C3 9044   3.424   2.976   0.590 -0.1525  0.3632 -0.3926
   62GLOH   H06 9045   3.415   3.000   0.695  0.5006  0.1267 -0.2760
   62GLOH   H07 9046   3.406   3.063   0.527 -0.2345  0.4903 -0.1915
   62GLOH    O3 9047   3.554   2.916   0.564  0.3649  0.2690 -0.4862
   62GLOH   H01 9048   3.598   2.903   0.650 -1.8368  0.3685  0.6787
   63GLOH   H03 9049   9.496   5.078   1.493 -1.9295 -1.1859 -1.7503
   63GLOH    O1 9050   9.550   5.120   1.423  0.1551  0.2343  0.6158
   63GLOH    C1 9051   9.485   5.233   1.356  0.0367  0.5519  0.0712
   63GLOH   H02 9052   9.495   5.329   1.406 -0.8100  0.2176  0.9028
   63GLOH   H08 9053   9.380   5.206   1.344  0.7627 -2.0803 -0.5308
   63GLOH    C2 9054   9.548   5.252   1.216 -0.3863  0.1296 -0.6798
   63GLOH   H04 9055   9.519   5.168   1.152 -2.5741 -0.9881  1.7223
   63GLOH    O2 9056   9.515   5.372   1.144  0.8156 -0.2755  0.4855
   63GLOH   H05 9057   9.574   5.449   1.152 -1.3950  1.8521 -2.5757
   63GLOH    C3 9058   9.703   5.233   1.221  0.1669  0.4805  0.2123
   63GLOH   H06 9059   9.742   5.252   1.121  0.0154  0.1927  0.0984
   63GLOH   H07 9060   9.722   5.131   1.255 -3.9877 -0.1766  0.7144
   63GLOH    O3 9061   9.772   5.321   1.311  0.2125 -0.3681 -0.0780
   63GLOH   H01 9062   9.843   5.352   1.252  1.4848 -1.8606  0.6540
   64GLOH   H03 9063   8.595   2.764   0.255  0.1589  0.9388 -0.3780
   64GLOH    O1 9064   8.674   2.807   0.293  0.5742 -0.0021 -0.1674
   64GLOH    C1 9065   8.760   2.694   0.310  0.7197 -0.0160  0.0052
   64GLOH   H02 9066   8.865   2.723   0.318  0.7812 -0.1029 -0.4557
   64GLOH   H08 9067   8.753   2.636   0.217 -0.6682  1.8943 -1.1218
   64GLOH    C2 9068   8.707   2.608   0.422 -0.5989  0.2475  0.5084
   64GLOH   H04 9069   8.694   2.679   0.505 -0.2994  0.0881  0.6923
   64GLOH    O2 9070   8.579   2.543   0.383 -0.1731 -0.1066  0.0699
   64GLOH   H05 9071   8.540   2.600   0.315 -5.8033 -1.7500  1.6029
   64GLOH    C3 9072   8.811   2.500   0.466  0.2384  0.7513  0.1089
   64GLOH   H06 9073   8.847   2.429   0.391  0.1701  1.9048 -1.0413
   64GLOH   H07 9074   8.766   2.440   0.545  0.2279  0.0973 -0.3901
   64GLOH    O3 9075   8.923   2.562   0.524 -0.6966 -0.3163  0.1118
   64GLOH   H01 9076   9.001   2.505   0.537 -2.3175 -2.5122  0.4978
   65GLOH   H03 9077   1.291   9.676   2.663  3.2486  1.3537  0.4489
   65GLOH    O1 9078   1.316   9.596   2.712  0.5022 -0.0033 -0.2622
   65GLOH    C1 9079   1.445   9.550   2.676  0.0556  0.0782  0.0920
   65GLOH   H02 9080   1.517   9.598   2.741 -0.4064 -0.0910  0.7396
   65GLOH   H08 9081   1.469   9.580   2.574  1.9735  2.3375  1.1666
   65GLOH    C2 9082   1.465   9.397   2.668 -0.1907  0.6026  0.0305
   65GLOH   H04 9083   1.426   9.355   2.762  1.4700 -0.5035  0.2347
   65GLOH    O2 9084   1.386   9.336   2.568 -0.4958 -0.5602 -0.2907
   65GLOH   H05 9085   1.310   9.294   2.613 -3.4826  1.0732 -3.5160
   65GLOH    C3 9086   1.615   9.356   2.674 -0.5971  0.2870  0.2788
   65GLOH   H06 9087   1.653   9.363   2.572  0.6997 -0.2641  0.7166
   65GLOH   H07 9088   1.622   9.253   2.708  0.9779  0.1355 -0.4761
   65GLOH    O3 9089   1.688   9.437   2.758 -0.0254 -0.4367  0.4343
   65GLOH   H01 9090   1.759   9.380   2.793 -0.6516 -0.3554  1.8806
   66GLOH   H03 9091   3.958   0.398   2.726  1.9876 -0.4660  2.6593
   66GLOH    O1 9092   3.970   0.311   2.685  0.6542  0.3850  0.4008
   66GLOH    C1 9093   4.111   0.300   2.689  0.2787  0.3158 -0.0652
   66GLOH   H02 9094   4.149   0.352   2.601 -1.0293  0.0276 -0.8219
   66GLOH   H08 9095   4.146   0.200   2.662 -0.5249  0.1208 -0.4000
   66GLOH    C2 9096   4.187   0.350   2.816 -0.2484  0.3987  0.1069
   66GLOH   H04 9097   4.150   0.294   2.903 -0.6978  0.0085 -0.3345
   66GLOH    O2 9098   4.333   0.339   2.798  0.2067  0.4251  0.1034
   66GLOH   H05 9099   4.371   0.280   2.866 -0.0138 -1.9254 -1.7231
   66GLOH    C3 9100   4.144   0.495   2.849 -0.8641 -0.6081 -0.5884
   66GLOH   H06 9101   4.183   0.571   2.782 -0.2472  0.5480  1.0353
   66GLOH   H07 9102   4.183   0.516   2.949 -0.2109 -0.1216 -0.9395
   66GLOH    O3 9103   4.000   0.514   2.864 -0.4945  0.3607 -0.0505
   66GLOH   H01 9104   3.976   0.566   2.942 -0.3210  0.5093 -0.0958
   67GLOH   H03 9105   9.485   4.067   2.270  3.0736 -0.0670 -0.5228
   67GLOH    O1 9106   9.511   4.079   2.364  0.1881  0.0830  0.2979
   67GLOH    C1 9107   9.610   4.180   2.364  0.5339 -0.6561 -0.0541
   67GLOH   H02 9108   9.586   4.251   2.443  0.5481  2.3618 -2.6932
   67GLOH   H08 9109   9.600   4.233   2.270 -2.7049  0.4814  0.8659
   67GLOH    C2 9110   9.754   4.129   2.384 -1.2323  0.1329  0.1887
   67GLOH   H04 9111   9.768   4.055   2.303 -1.6934 -0.0222  0.2476
   67GLOH    O2 9112   9.842   4.244   2.383  0.0744  0.6667  0.0894
   67GLOH   H05 9113   9.803   4.305   2.318  1.4632  1.6073  0.1112
   67GLOH    C3 9114   9.778   4.042   2.505  0.2456  0.0809  0.0972
   67GLOH   H06 9115   9.758   4.102   2.594 -0.6076 -1.8613  1.2240
   67GLOH   H07 9116   9.884   4.021   2.517  0.2030 -1.0939 -1.4668
   67GLOH    O3 9117   9.691   3.926   2.504  0.0589  0.1678  0.0334
   67GLOH   H01 9118   9.605   3.950   2.465  1.0610  0.9546 -1.7328
   68GLOH   H03 9119   9.758   1.629   1.544  0.6112 -0.6111  0.5118
   68GLOH    O1 9120   9.806   1.588   1.470  0.2963  0.1485 -0.1276
   68GLOH    C1 9121   9.758   1.458   1.445  0.1534  1.0649 -0.5354
   68GLOH   H02 9122   9.807   1.386   1.510  0.2359  1.9237  0.3792
   68GLOH   H08 9123   9.792   1.432   1.345  2.4649  0.0920  0.4614
   68GLOH    C2 9124   9.605   1.451   1.463  0.2923  0.2487  0.2653
   68GLOH   H04 9125   9.570   1.516   1.382  0.4067 -0.5472 -0.4307
   68GLOH    O2 9126   9.560   1.317   1.443 -0.0651 -0.7529 -0.1710
   68GLOH   H05 9127   9.522   1.305   1.354 -1.9324 -2.6482  0.8460
   68GLOH    C3 9128   9.560   1.494   1.605 -0.9285 -0.5917  0.6018
   68GLOH   H06 9129   9.619   1.436   1.675 -1.4066 -0.9122  0.7395
   68GLOH   H07 9130   9.454   1.469   1.608 -0.7165 -1.4503  1.0478
   68GLOH    O3 9131   9.592   1.631   1.625  0.7028  0.1539 -0.2534
   68GLOH   H01 9132   9.584   1.652   1.720 -0.9705  0.5909 -0.4667
   69GLOH   H03 9133   4.819   3.649   1.850  0.9500  0.0744  1.1454
   69GLOH    O1 9134   4.798   3.717   1.917  0.4963  0.5936  0.4718
   69GLOH    C1 9135   4.839   3.647   2.035  0.6088 -0.4812 -0.3280
   69GLOH   H02 9136   4.944   3.620   2.026  0.1737 -2.4305  0.2516
   69GLOH   H08 9137   4.784   3.553   2.043  0.5983 -0.4974 -0.5803
   69GLOH    C2 9138   4.816   3.729   2.160 -0.7347  1.0056 -0.2289
   69GLOH   H04 9139   4.709   3.748   2.176 -0.9833 -0.2433 -0.3667
   69GLOH    O2 9140   4.855   3.648   2.272  0.3525  0.0331  0.5609
   69GLOH   H05 9141   4.884   3.558   2.248  0.4344  0.3621 -0.5605
   69GLOH    C3 9142   4.885   3.870   2.157  0.4265  0.1517  0.1780
   69GLOH   H06 9143   4.993   3.861   2.158  0.2515 -2.2507  0.2138
   69GLOH   H07 9144   4.866   3.920   2.252  0.2212  1.9065 -0.7824
   69GLOH    O3 9145   4.839   3.944   2.042  0.3478 -0.0042 -0.4580
   69GLOH   H01 9146   4.834   3.884   1.966 -0.0601  0.5523 -0.8742
   70GLOH   H03 9147   5.551   3.649   0.315 -2.2113 -0.7617 -0.0137
   70GLOH    O1 9148   5.526   3.689   0.400 -0.2657  0.1996  0.1354
   70GLOH    C1 9149   5.390   3.678   0.443 -0.3566  0.1140 -0.1390
   70GLOH   H02 9150   5.393   3.703   0.550 -0.4372  3.8125 -0.9195
   70GLOH   H08 9151   5.349   3.577   0.448  0.0345 -0.0395 -0.0327
   70GLOH    C2 9152   5.289   3.771   0.371 -0.1994 -0.4371  0.0284
   70GLOH   H04 9153   5.277   3.732   0.269 -0.6790 -2.7362  0.9451
   70GLOH    O2 9154   5.165   3.756   0.437  0.6691  0.4020  0.3853
   70GLOH   H05 9155   5.116   3.687   0.390  1.6385  1.6338 -2.5277
   70GLOH    C3 9156   5.339   3.914   0.349  0.0285  0.3889 -0.3313
   70GLOH   H06 9157   5.426   3.900   0.284 -0.5854 -0.6449 -0.9324
   70GLOH   H07 9158   5.374   3.958   0.442 -0.7503  1.0331 -0.3457
   70GLOH    O3 9159   5.239   4.003   0.289 -0.6088 -0.0386 -0.6528
   70GLOH   H01 9160   5.173   4.020   0.358 -0.0445  2.4528 -0.6864
   71GLOH   H03 9161   8.931   3.949   1.609 -2.8830 -0.7931 -1.1483
   71GLOH    O1 9162   8.912   3.997   1.692  0.2003 -0.7702 -0.3968
   71GLOH    C1 9163   8.909   3.897   1.798  0.2752  0.0756  1.1726
   71GLOH   H02 9164   8.815   3.842   1.792 -0.1589  0.9884 -1.0995
   71GLOH   H08 9165   8.906   3.935   1.900 -2.0840 -1.2217  1.6233
   71GLOH    C2 9166   9.029   3.806   1.786  0.0895  0.0310 -0.4667
   71GLOH   H04 9167   9.126   3.858   1.790  0.1267  0.1654 -2.7141
   71GLOH    O2 9168   9.021   3.711   1.897 -0.8756 -0.2256 -0.2493
   71GLOH   H05 9169   9.076   3.631   1.884 -0.0503  0.6650 -2.5094
   71GLOH    C3 9170   9.018   3.731   1.652 -0.2667  0.0258 -0.0720
   71GLOH   H06 9171   8.943   3.652   1.652 -0.9015  0.6255  0.3926
   71GLOH   H07 9172   9.115   3.685   1.634  0.0135  1.2721 -1.8450
   71GLOH    O3 9173   8.997   3.811   1.534 -0.0215  0.1282 -0.1385
   71GLOH   H01 9174   9.073   3.796   1.475 -0.9824  1.3294 -1.7555
   72GLOH   H03 9175   8.572   2.134   0.828  0.4355 -1.7981 -1.7078
   72GLOH    O1 9176   8.509   2.076   0.875  0.2238 -0.3017 -0.0826
   72GLOH    C1 9177   8.556   2.056   1.005 -0.5439  0.1673 -0.5633
   72GLOH   H02 9178   8.651   2.104   1.029  0.4414 -1.5884 -0.8788
   72GLOH   H08 9179   8.587   1.952   1.014  3.2005  1.2866  0.5216
   72GLOH    C2 9180   8.475   2.084   1.130  0.3458 -0.4989 -0.4313
   72GLOH   H04 9181   8.527   2.045   1.219  1.4295 -0.6165 -1.0998
   72GLOH    O2 9182   8.472   2.227   1.151  0.2205  0.0658 -0.3768
   72GLOH   H05 9183   8.440   2.278   1.076  3.6863  2.0075 -0.6472
   72GLOH    C3 9184   8.334   2.027   1.128  0.5125 -0.1795 -0.2620
   72GLOH   H06 9185   8.279   2.060   1.217  0.6735 -1.5760  0.3783
   72GLOH   H07 9186   8.339   1.918   1.125  0.6754 -0.1331 -1.6774
   72GLOH    O3 9187   8.248   2.071   1.017  0.3426  0.2947 -0.2906
   72GLOH   H01 9188   8.223   2.000   0.956  1.9206  0.4274 -1.1227
   73GLOH   H03 9189   3.090   5.138   1.029 -1.9294 -0.3061  2.2260
   73GLOH    O1 9190   3.020   5.128   0.962  0.2388 -0.4031 -0.1113
   73GLOH    C1 9191   3.067   5.219   0.859 -0.6888 -1.1740  0.3931
   73GLOH   H02 9192   3.172   5.241   0.878 -1.2205  1.5367  0.3583
   73GLOH   H08 9193   3.026   5.317   0.880  0.4058 -0.2969 -1.4700
   73GLOH    C2 9194   3.031   5.163   0.720  0.2188 -0.2063 -0.0367
   73GLOH   H04 9195   2.921   5.155   0.712  0.2205 -0.4115  0.1352
   73GLOH    O2 9196   3.057   5.255   0.611  0.5885  0.5419  0.7173
   73GLOH   H05 9197   3.002   5.231   0.536  1.1799  0.2223  0.3813
   73GLOH    C3 9198   3.084   5.016   0.701 -0.3187  0.0163 -0.4991
   73GLOH   H06 9199   3.060   4.979   0.602  0.7311 -0.0600 -0.7389
   73GLOH   H07 9200   3.033   4.954   0.774  1.9817  0.3600  1.5001
   73GLOH    O3 9201   3.229   4.991   0.713  0.6910 -0.2205 -0.8837
   73GLOH   H01 9202   3.270   5.009   0.627 -1.3755  1.4252 -1.5584
   74GLOH   H03 9203   9.207   4.841   1.750 -0.4343 -1.3730 -2.5985
   74GLOH    O1 9204   9.258   4.764   1.780 -0.2838 -0.4296 -0.2774
   74GLOH    C1 9205   9.305   4.698   1.664 -0.7596  0.1302 -0.3006
   74GLOH   H02 9206   9.355   4.603   1.685  0.3194  0.6910 -0.2693
   74GLOH   H08 9207   9.374   4.768   1.617 -1.3159  0.3548 -0.7918
   74GLOH    C2 9208   9.190   4.670   1.564  0.4176  0.1780  0.0988
   74GLOH   H04 9209   9.122   4.602   1.618 -2.0381 -0.3440 -3.4948
   74GLOH    O2 9210   9.111   4.786   1.530  0.3068 -0.2474  0.7722
   74GLOH   H05 9211   9.158   4.849   1.473  0.5344  0.1869  1.4376
   74GLOH    C3 9212   9.233   4.598   1.438  0.3246  0.7554 -0.4595
   74GLOH   H06 9213   9.313   4.649   1.382  2.2659  0.3935  1.9031
   74GLOH   H07 9214   9.150   4.593   1.368  0.9943  0.3682 -1.2370
   74GLOH    O3 9215   9.288   4.468   1.467 -0.2753  0.4292 -0.1307
   74GLOH   H01 9216   9.222   4.422   1.522 -1.6016 -0.5883 -2.4861
   75GLOH   H03 9217  10.148   3.629   2.365  0.2906 -0.8198  0.9739
   75GLOH    O1 9218  10.083   3.678   2.419 -0.0711  0.0899 -0.2813
   75GLOH    C1 9219  10.001   3.754   2.330 -0.1581  0.6113  0.5839
   75GLOH   H02 9220  10.047   3.850   2.307  3.1531 -1.1514 -0.4096
   75GLOH   H08 9221   9.904   3.765   2.380  0.8664  0.9619  2.5230
   75GLOH    C2 9222   9.968   3.677   2.203  0.6687  0.4891  0.7270
   75GLOH   H04 9223   9.917   3.581   2.217 -1.3726  1.3991 -0.1877
   75GLOH    O2 9224   9.882   3.754   2.124 -0.3173  0.0456 -0.0718
   75GLOH   H05 9225   9.909   3.847   2.130  1.2749 -0.4740  1.1327
   75GLOH    C3 9226  10.101   3.651   2.128  0.4760  0.4863 -0.2955
   75GLOH   H06 9227  10.141   3.745   2.092 -0.1966  1.3737  1.2607
   75GLOH   H07 9228  10.075   3.586   2.044  1.4006 -1.1160  0.6266
   75GLOH    O3 9229  10.190   3.586   2.218  0.1252  0.2500  0.4567
   75GLOH   H01 9230  10.200   3.492   2.192  0.7161  0.0415  1.4085
   76GLOH   H03 9231   1.513  10.347   0.612 -2.8102  0.1124 -1.2588
   76GLOH    O1 9232   1.526  10.251   0.625 -0.4114  0.6068  0.3947
   76GLOH    C1 9233   1.542  10.230   0.769 -0.0392 -0.1719  0.2280
   76GLOH   H02 9234   1.446  10.212   0.816 -1.0614  2.1538 -0.9351
   76GLOH   H08 9235   1.576  10.321   0.817  2.2688 -0.7650 -0.1766
   76GLOH    C2 9236   1.635  10.123   0.814 -0.5009 -0.1154  0.2068
   76GLOH   H04 9237   1.731  10.125   0.759 -0.3100 -1.2974  0.4836
   76GLOH    O2 9238   1.667  10.159   0.953  0.8479  0.0823 -0.4248
   76GLOH   H05 9239   1.587  10.210   0.974  1.5637  1.8360 -1.8343
   76GLOH    C3 9240   1.576   9.982   0.804 -0.1259  0.6280 -0.5562
   76GLOH   H06 9241   1.653   9.908   0.825 -0.1021  1.0405  0.8172
   76GLOH   H07 9242   1.570   9.954   0.699  2.7892 -3.1000  0.1462
   76GLOH    O3 9243   1.455   9.955   0.874  0.2702  0.2551  0.3410
   76GLOH   H01 9244   1.431   9.861   0.859  0.9183  0.7276 -4.4510
   77GLOH   H03 9245   2.470   1.822   1.791  0.0889  2.5471 -1.0788
   77GLOH    O1 9246   2.478   1.788   1.700  0.7792 -0.5281  0.0988
   77GLOH    C1 9247   2.376   1.839   1.611  0.3317  0.4479 -0.1478
   77GLOH   H02 9248   2.416   1.919   1.549  1.0075 -0.7213 -1.2365
   77GLOH   H08 9249   2.286   1.876   1.661 -1.4055 -1.6606 -1.6303
   77GLOH    C2 9250   2.319   1.729   1.518  0.0988  0.4495 -0.2228
   77GLOH   H04 9251   2.397   1.677   1.460 -1.7595 -2.0217 -0.5977
   77GLOH    O2 9252   2.244   1.629   1.581  0.2862 -0.2073 -0.2618
   77GLOH   H05 9253   2.301   1.585   1.646 -0.1009  2.7242  2.1518
   77GLOH    C3 9254   2.241   1.802   1.411 -0.2840  0.2874  0.5595
   77GLOH   H06 9255   2.170   1.868   1.461  1.4404  2.7343 -0.0879
   77GLOH   H07 9256   2.185   1.728   1.354  0.9433 -1.4401  1.5566
   77GLOH    O3 9257   2.326   1.875   1.326  0.2547 -0.7888  0.0446
   77GLOH   H01 9258   2.294   1.858   1.235  2.2037 -1.0839 -0.5934
   78GLOH   H03 9259   4.261   4.380   1.653  0.1970  0.3622 -0.1346
   78GLOH    O1 9260   4.172   4.347   1.674  0.2681  0.2568 -0.0017
   78GLOH    C1 9261   4.173   4.212   1.627 -0.4652 -0.0085  0.6939
   78GLOH   H02 9262   4.220   4.140   1.694  0.2372 -0.9150 -0.7382
   78GLOH   H08 9263   4.208   4.206   1.524  0.1129 -2.6458  1.0023
   78GLOH    C2 9264   4.035   4.154   1.602 -0.5422  0.4158  0.4841
   78GLOH   H04 9265   3.968   4.191   1.681  0.1227  0.8065  0.8759
   78GLOH    O2 9266   3.982   4.198   1.475  0.4068 -1.0257  0.0101
   78GLOH   H05 9267   3.971   4.295   1.474  0.8958 -0.9572  0.6711
   78GLOH    C3 9268   4.033   3.995   1.601 -0.6121  1.0631 -0.3648
   78GLOH   H06 9269   4.095   3.959   1.519 -0.0637  1.6308 -0.2085
   78GLOH   H07 9270   3.934   3.959   1.573 -0.9724 -0.0216  2.1477
   78GLOH    O3 9271   4.076   3.932   1.723 -0.3608 -0.7802  0.1134
   78GLOH   H01 9272   4.147   3.871   1.695  0.7603 -0.3722  1.9332
   79GLOH   H03 9273   4.929   1.566   2.957 -2.4810 -0.3620 -1.7747
   79GLOH    O1 9274   4.892   1.488   3.003 -0.6231  0.0407  0.4813
   79GLOH    C1 9275   4.804   1.413   2.916 -0.7152  0.3731 -0.8847
   79GLOH   H02 9276   4.701   1.440   2.941 -0.7015  0.1272 -0.5568
   79GLOH   H08 9277   4.825   1.308   2.937 -2.6358  0.0438 -0.4594
   79GLOH    C2 9278   4.833   1.451   2.773  0.4046 -0.1034  0.8569
   79GLOH   H04 9279   4.934   1.417   2.746  2.3824  4.3207  2.1048
   79GLOH    O2 9280   4.736   1.396   2.675 -0.3820 -0.1491  0.2192
   79GLOH   H05 9281   4.756   1.430   2.586  0.4407 -1.1390  0.0170
   79GLOH    C3 9282   4.833   1.600   2.745  0.6661  0.9413 -0.2229
   79GLOH   H06 9283   4.728   1.627   2.754  0.4436  1.1508 -3.0687
   79GLOH   H07 9284   4.862   1.631   2.645 -2.2790  1.3994 -0.9637
   79GLOH    O3 9285   4.922   1.671   2.838 -0.6503 -0.1519 -0.4322
   79GLOH   H01 9286   4.884   1.760   2.852  1.1164  0.5895 -0.1959
   80GLOH   H03 9287   2.871   3.677   1.961  0.4921 -0.3809  0.7764
   80GLOH    O1 9288   2.939   3.744   1.979  0.0571  0.2673  0.0334
   80GLOH    C1 9289   3.033   3.695   2.074  0.6116  0.0177 -0.1515
   80GLOH   H02 9290   2.987   3.636   2.154  3.0888  0.2803  1.5245
   80GLOH   H08 9291   3.089   3.778   2.117 -0.0524 -0.6834  2.1580
   80GLOH    C2 9292   3.137   3.593   2.021 -0.2718  0.7768  0.6306
   80GLOH   H04 9293   3.200   3.575   2.109 -0.5426  0.0456  0.6828
   80GLOH    O2 9294   3.098   3.468   1.962 -0.0936 -0.4532  0.2776
   80GLOH   H05 9295   3.165   3.398   1.966 -0.4301 -0.7165  1.4015
   80GLOH    C3 9296   3.234   3.663   1.927 -0.6202 -0.4315  0.3081
   80GLOH   H06 9297   3.168   3.709   1.854 -1.1097 -1.0726  0.3406
   80GLOH   H07 9298   3.297   3.583   1.888  0.2443  1.1520 -1.6260
   80GLOH    O3 9299   3.307   3.761   2.004  0.0084 -0.1617  0.8720
   80GLOH   H01 9300   3.399   3.732   2.010 -0.7616 -3.0906 -0.3864
   81GLOH   H03 9301  10.126   3.433   1.377  0.0486  1.1694  1.2845
   81GLOH    O1 9302  10.219   3.438   1.347 -0.1938 -0.0562  0.2748
   81GLOH    C1 9303  10.308   3.518   1.425  0.2244 -0.2146 -0.5307
   81GLOH   H02 9304  10.411   3.497   1.394  0.4088  1.8652 -1.3412
   81GLOH   H08 9305  10.314   3.470   1.523 -1.4352  1.2681  0.3212
   81GLOH    C2 9306  10.265   3.663   1.449  0.7636 -0.2347  0.5150
   81GLOH   H04 9307  10.166   3.660   1.495  0.3974 -3.3872 -0.3574
   81GLOH    O2 9308  10.356   3.715   1.547  0.5852 -0.1628 -0.0850
   81GLOH   H05 9309  10.338   3.809   1.567  0.7276 -0.3115  0.7470
   81GLOH    C3 9310  10.260   3.750   1.315  0.0138 -0.3307 -1.0083
   81GLOH   H06 9311  10.361   3.734   1.276 -0.0657  0.1424 -1.4072
   81GLOH   H07 9312  10.250   3.853   1.348  0.5496 -0.6933  0.3489
   81GLOH    O3 9313  10.158   3.696   1.227 -0.1170 -0.0374 -0.9108
   81GLOH   H01 9314  10.202   3.621   1.183 -0.9201 -1.5697  0.8053
   82GLOH   H03 9315  10.426   1.270   1.099 -2.2370  1.5261  0.9898
   82GLOH    O1 9316  10.489   1.300   1.167 -0.3717  0.2156 -0.1095
   82GLOH    C1 9317  10.427   1.329   1.300 -0.1220 -0.8822  0.1664
   82GLOH   H02 9318  10.446   1.432   1.330 -2.1313 -0.6006  0.5516
   82GLOH   H08 9319  10.469   1.272   1.383 -0.1434  0.3932  1.0567
   82GLOH    C2 9320  10.272   1.319   1.281 -0.2316  0.2373  0.5798
   82GLOH   H04 9321  10.249   1.225   1.228  1.7804  0.2098 -0.2723
   82GLOH    O2 9322  10.208   1.320   1.412  0.4216 -0.1617  0.2130
   82GLOH   H05 9323  10.217   1.406   1.457 -1.5511  0.4894 -0.5663
   82GLOH    C3 9324  10.208   1.424   1.186  0.3374 -0.7132 -0.0791
   82GLOH   H06 9325  10.103   1.400   1.168 -0.0569 -0.7213  2.1485
   82GLOH   H07 9326  10.242   1.412   1.083 -2.9863  0.3798 -1.3505
   82GLOH    O3 9327  10.227   1.562   1.229 -0.3817  0.4994 -0.0871
   82GLOH   H01 9328  10.141   1.581   1.270 -0.8093  0.0293 -0.7517
   83GLOH   H03 9329   3.377   8.997   0.585  1.2603  1.5885  2.4265
   83GLOH    O1 9330   3.309   9.065   0.568  0.1334 -0.0310  0.1594
   83GLOH    C1 9331   3.368   9.177   0.497 -0.0075 -0.2366  0.1355
   83GLOH   H02 9332   3.428   9.130   0.419 -2.8839 -1.6814 -1.2905
   83GLOH   H08 9333   3.436   9.221   0.569  0.2127  0.0572 -0.2490
   83GLOH    C2 9334   3.277   9.284   0.442 -0.2532 -0.6020  0.5046
   83GLOH   H04 9335   3.191   9.232   0.396  0.2723 -1.9428  1.0278
   83GLOH    O2 9336   3.229   9.377   0.539  0.2887 -0.1976  0.4223
   83GLOH   H05 9337   3.218   9.468   0.505 -2.0449 -0.3868  0.6050
   83GLOH    C3 9338   3.344   9.358   0.325 -0.2732 -0.6953 -0.3209
   83GLOH   H06 9339   3.441   9.398   0.355 -2.0007  1.3353  2.8576
   83GLOH   H07 9340   3.276   9.439   0.300 -1.3535 -1.1615  1.0426
   83GLOH    O3 9341   3.368   9.268   0.217  0.0902  0.2498 -0.5331
   83GLOH   H01 9342   3.383   9.332   0.144 -1.5153  2.7963  1.2745
   84GLOH   H03 9343   9.212   3.440   0.899  1.8794  0.3640 -2.4574
   84GLOH    O1 9344   9.263   3.507   0.948 -0.2208  0.1440  0.1737
   84GLOH    C1 9345   9.403   3.483   0.927 -0.2148 -0.4137 -0.6067
   84GLOH   H02 9346   9.466   3.571   0.939 -3.0346  1.4744  0.8231
   84GLOH   H08 9347   9.410   3.463   0.820  3.5015  2.7317 -1.0320
   84GLOH    C2 9348   9.473   3.371   1.014  0.4878  0.1753 -0.1653
   84GLOH   H04 9349   9.456   3.390   1.121 -1.4446 -0.8277 -0.2689
   84GLOH    O2 9350   9.413   3.247   0.984 -0.0555 -0.3769 -0.0673
   84GLOH   H05 9351   9.473   3.193   0.930  0.3629 -1.2661  1.2639
   84GLOH    C3 9352   9.632   3.366   0.994  0.8086 -0.6558  0.3073
   84GLOH   H06 9353   9.659   3.299   0.913 -2.3991 -1.8004  0.0869
   84GLOH   H07 9354   9.678   3.325   1.084  2.0397  1.0503  0.4542
   84GLOH    O3 9355   9.685   3.496   0.968 -0.1323 -0.4502  0.3220
   84GLOH   H01 9356   9.782   3.498   0.966 -0.1402  2.7491  0.0391
   85GLOH   H03 9357   4.476   3.893   1.837  1.4360 -0.0220  0.1677
   85GLOH    O1 9358   4.483   3.943   1.754 -0.5621 -0.5523 -0.3528
   85GLOH    C1 9359   4.503   4.080   1.800 -0.1391  0.0265 -0.0451
   85GLOH   H02 9360   4.579   4.085   1.877  0.2143  1.8860 -0.4935
   85GLOH   H08 9361   4.414   4.127   1.842 -0.5015 -0.6859 -0.0127
   85GLOH    C2 9362   4.538   4.175   1.683  0.7502 -0.0388 -0.0316
   85GLOH   H04 9363   4.460   4.172   1.605  0.9613 -0.6050 -0.2250
   85GLOH    O2 9364   4.542   4.304   1.749  0.1030  0.2927 -0.5258
   85GLOH   H05 9365   4.510   4.371   1.687 -1.6202  0.0504  0.0881
   85GLOH    C3 9366   4.673   4.149   1.615 -0.0734  0.0194  0.4099
   85GLOH   H06 9367   4.672   4.042   1.593 -0.6693  0.0606  0.2383
   85GLOH   H07 9368   4.743   4.163   1.698  1.1387 -1.7219 -0.2846
   85GLOH    O3 9369   4.708   4.226   1.493 -0.2102 -0.0305  0.3429
   85GLOH   H01 9370   4.735   4.166   1.422  0.6724 -1.2124  1.6376
   86GLOH   H03 9371   2.996   7.092   1.340  0.7994 -1.8790 -0.4081
   86GLOH    O1 9372   2.998   7.116   1.245 -0.1810  0.5060  0.1440
   86GLOH    C1 9373   3.071   7.243   1.241 -0.7106  0.1382  0.7384
   86GLOH   H02 9374   3.093   7.266   1.137 -0.7110 -1.8867  0.2715
   86GLOH   H08 9375   3.162   7.230   1.299 -0.4772  0.5323  0.4607
   86GLOH    C2 9376   3.003   7.369   1.294 -0.5132 -0.1482  0.1952
   86GLOH   H04 9377   2.971   7.357   1.398 -2.9864  2.4437 -0.2116
   86GLOH    O2 9378   3.086   7.487   1.282  0.4841 -0.0835 -0.2169
   86GLOH   H05 9379   3.171   7.463   1.241  0.0093 -0.1060 -1.1980
   86GLOH    C3 9380   2.864   7.395   1.229  0.4869  0.2632  0.0449
   86GLOH   H06 9381   2.819   7.480   1.280  0.2426  0.1884 -0.0461
   86GLOH   H07 9382   2.793   7.316   1.252  1.9712 -0.5307  2.0070
   86GLOH    O3 9383   2.869   7.417   1.087  0.6156 -0.9923 -0.5183
   86GLOH   H01 9384   2.879   7.337   1.031 -3.1791 -0.5114 -2.0067
   87GLOH   H03 9385  10.188   0.564   2.163  0.4590  0.4540  0.5742
   87GLOH    O1 9386  10.197   0.506   2.241  0.1282  0.2895  0.4915
   87GLOH    C1 9387  10.311   0.423   2.214 -0.3451 -0.4784  0.0156
   87GLOH   H02 9388  10.401   0.479   2.190  0.1500 -0.5783  1.6055
   87GLOH   H08 9389  10.290   0.359   2.128 -1.0241  0.6129 -0.6333
   87GLOH    C2 9390  10.348   0.340   2.338 -0.1788 -0.5738  0.5967
   87GLOH   H04 9391  10.267   0.266   2.352  0.4472 -1.1507  1.2773
   87GLOH    O2 9392  10.471   0.274   2.308 -0.4092 -0.1291 -0.1584
   87GLOH   H05 9393  10.472   0.253   2.213  0.1048 -0.6367 -0.0404
   87GLOH    C3 9394  10.377   0.433   2.457  0.2627 -0.7877  0.8378
   87GLOH   H06 9395  10.464   0.489   2.421 -1.0940 -0.8804 -2.7260
   87GLOH   H07 9396  10.403   0.377   2.547  0.4919 -0.8497  0.7349
   87GLOH    O3 9397  10.276   0.535   2.485 -0.4448 -0.6918 -0.3907
   87GLOH   H01 9398  10.223   0.533   2.403 -1.5473  3.5256  0.1358
   88GLOH   H03 9399   3.719   4.047   0.726  0.3386  0.7954  2.1063
   88GLOH    O1 9400   3.673   3.962   0.741  0.0264  0.4326 -0.5372
   88GLOH    C1 9401   3.558   3.954   0.651 -0.0132 -0.2697 -0.1177
   88GLOH   H02 9402   3.477   4.023   0.671 -0.4577 -0.9905  0.5711
   88GLOH   H08 9403   3.510   3.856   0.655 -2.7465  1.0330  0.1237
   88GLOH    C2 9404   3.609   3.969   0.507  0.0250  0.0698 -0.1312
   88GLOH   H04 9405   3.666   3.876   0.496 -2.2530 -1.5619  1.2775
   88GLOH    O2 9406   3.510   3.966   0.401 -0.1311  0.6690 -0.3587
   88GLOH   H05 9407   3.545   3.942   0.313  3.8258  0.1927  1.2348
   88GLOH    C3 9408   3.707   4.091   0.491 -1.2005 -0.7113 -0.0376
   88GLOH   H06 9409   3.652   4.173   0.538 -0.2951 -1.4453  2.4101
   88GLOH   H07 9410   3.715   4.115   0.385 -1.3994 -1.6531 -0.2710
   88GLOH    O3 9411   3.837   4.087   0.555  0.5108 -0.3979  0.4452
   88GLOH   H01 9412   3.854   3.994   0.581  0.6961 -0.7046 -0.7131
   89GLOH   H03 9413  10.248   6.108   1.758  0.2143  0.1344 -0.2899
   89GLOH    O1 9414  10.338   6.144   1.752  0.0994  0.4251 -0.2833
   89GLOH    C1 9415  10.347   6.287   1.753 -0.0264  0.0338 -0.0124
   89GLOH   H02 9416  10.262   6.336   1.706  0.9362  0.4618 -1.3524
   89GLOH   H08 9417  10.429   6.324   1.691 -1.1442  0.8234 -1.0357
   89GLOH    C2 9418  10.354   6.332   1.899  0.6454 -0.6367  0.7674
   89GLOH   H04 9419  10.259   6.308   1.948 -1.0400  0.8126 -1.6665
   89GLOH    O2 9420  10.462   6.271   1.971 -0.3136  0.3149 -0.3843
   89GLOH   H05 9421  10.451   6.174   1.967 -0.7308  0.3593 -0.3371
   89GLOH    C3 9422  10.371   6.480   1.915 -0.1685 -0.7776  0.1740
   89GLOH   H06 9423  10.462   6.499   1.859 -0.0613 -1.9067 -0.0571
   89GLOH   H07 9424  10.393   6.500   2.020  1.5310 -0.5612 -0.1996
   89GLOH    O3 9425  10.256   6.553   1.873 -0.3212  0.4234 -0.0400
   89GLOH   H01 9426  10.274   6.643   1.906  1.9780  0.6065 -1.6224
   90GLOH   H03 9427   3.086   6.074   1.788  2.4369 -2.3892 -0.3854
   90GLOH    O1 9428   3.108   6.102   1.878 -0.4223  0.0528 -0.3694
   90GLOH    C1 9429   3.222   6.020   1.923 -0.3456 -0.4398  0.2135
   90GLOH   H02 9430   3.318   6.065   1.898 -0.4985 -0.6281 -0.7487
   90GLOH   H08 9431   3.216   5.919   1.882  1.1348 -0.1769 -0.6932
   90GLOH    C2 9432   3.220   6.004   2.073  0.2760 -0.6219  0.3038
   90GLOH   H04 9433   3.149   5.922   2.093 -2.6628  1.3046 -1.9569
   90GLOH    O2 9434   3.349   5.963   2.122 -0.3051  0.2657 -0.3015
   90GLOH   H05 9435   3.339   5.928   2.213 -0.9646 -1.9011 -1.1768
   90GLOH    C3 9436   3.165   6.131   2.144  0.3831  0.2605  0.0685
   90GLOH   H06 9437   3.233   6.214   2.123 -1.3368  1.2612 -1.7667
   90GLOH   H07 9438   3.178   6.118   2.251 -0.4520  1.3323  0.3146
   90GLOH    O3 9439   3.021   6.142   2.112  0.2727  0.3306 -0.6455
   90GLOH   H01 9440   3.014   6.109   2.021  0.5347  0.3534 -0.6735
   91GLOH   H03 9441   4.603   0.939   0.703 -0.5770  0.2110  0.5261
   91GLOH    O1 9442   4.621   0.858   0.754 -0.2955 -0.0961 -0.0526
   91GLOH    C1 9443   4.637   0.746   0.658 -0.4064 -0.0253  0.1827
   91GLOH   H02 9444   4.665   0.658   0.715 -0.9012 -0.2718  0.0497
   91GLOH   H08 9445   4.712   0.760   0.580 -1.8260 -0.8698 -1.3662
   91GLOH    C2 9446   4.507   0.723   0.581 -0.1712 -1.2909 -0.1547
   91GLOH   H04 9447   4.478   0.815   0.529  3.2260 -0.1993 -0.2020
   91GLOH    O2 9448   4.529   0.611   0.494  1.2681  0.0445  0.5180
   91GLOH   H05 9449   4.483   0.635   0.412  2.7583 -0.6395 -0.5405
   91GLOH    C3 9450   4.401   0.692   0.682  0.4274  0.0921  0.4660
   91GLOH   H06 9451   4.408   0.763   0.765  0.1235 -0.6025  1.0954
   91GLOH   H07 9452   4.427   0.596   0.727 -1.9710 -1.2753 -0.9535
   91GLOH    O3 9453   4.274   0.699   0.621 -0.3665  0.2674 -0.1412
   91GLOH   H01 9454   4.262   0.792   0.596 -0.4546  0.0187 -1.0467
   92GLOH   H03 9455   2.943   5.897   2.656  0.9525 -1.0591 -0.8727
   92GLOH    O1 9456   2.989   5.848   2.727  0.5313 -0.3485 -0.0995
   92GLOH    C1 9457   2.903   5.796   2.824 -0.4626 -0.7375 -0.7154
   92GLOH   H02 9458   2.820   5.740   2.782  0.8511 -3.4621  0.1797
   92GLOH   H08 9459   2.865   5.871   2.893 -0.2918 -0.3688 -1.0289
   92GLOH    C2 9460   2.965   5.688   2.913  0.3327  0.3242 -0.4576
   92GLOH   H04 9461   2.891   5.637   2.975  1.3647 -0.9397 -0.2517
   92GLOH    O2 9462   3.028   5.595   2.828  0.2409 -0.2590  0.2448
   92GLOH   H05 9463   3.001   5.620   2.738 -1.7136  1.1133  1.1865
   92GLOH    C3 9464   3.069   5.741   3.005 -0.7205  0.2086  0.1188
   92GLOH   H06 9465   3.161   5.765   2.952 -0.9781  1.2160  0.1106
   92GLOH   H07 9466   3.091   5.656   3.070  0.8521 -0.2492 -0.9918
   92GLOH    O3 9467   3.043   5.860   3.082 -0.3536 -0.2208 -0.5898
   92GLOH   H01 9468   2.961   5.841   3.130  2.1814 -3.0333  2.8652
   93GLOH   H03 9469  10.073   6.045   0.923  0.6482  0.4098  0.1640
   93GLOH    O1 9470  10.097   6.003   0.838 -0.0301  0.2208  0.0640
   93GLOH    C1 9471  10.223   5.939   0.848  0.6560  0.4650  0.8850
   93GLOH   H02 9472  10.245   5.899   0.947 -2.4303 -4.1183 -0.1806
   93GLOH   H08 9473  10.300   6.016   0.840 -0.2941  1.3926  0.6222
   93GLOH    C2 9474  10.255   5.828   0.744 -0.2876 -0.4192 -0.0515
   93GLOH   H04 9475  10.226   5.873   0.648  2.4296 -1.0977 -1.2549
   93GLOH    O2 9476  10.394   5.788   0.750 -0.1217  0.4577  0.1417
   93GLOH   H05 9477  10.420   5.749   0.836  1.2652  3.1358  1.0014
   93GLOH    C3 9478  10.161   5.704   0.759  0.0845 -0.2791  0.5066
   93GLOH   H06 9479  10.172   5.642   0.848  0.5681 -0.8962  0.0142
   93GLOH   H07 9480  10.171   5.643   0.669  1.2690 -1.1758  1.2267
   93GLOH    O3 9481  10.032   5.762   0.761  0.2108 -0.7327 -0.4847
   93GLOH   H01 9482  10.055   5.843   0.810  2.1919 -0.7561 -1.2954
   94GLOH   H03 9483   1.337   7.559   2.471  0.5051 -0.7401 -0.5541
   94GLOH    O1 9484   1.305   7.477   2.512 -0.1934 -0.0536  0.2929
   94GLOH    C1 9485   1.266   7.501   2.650 -0.1495 -0.9087 -0.6741
   94GLOH   H02 9486   1.209   7.594   2.656 -0.2435 -1.1448  3.0799
   94GLOH   H08 9487   1.347   7.518   2.721 -2.1022  0.5254  1.2728
   94GLOH    C2 9488   1.181   7.388   2.710  0.2264 -0.1042  0.3510
   94GLOH   H04 9489   1.150   7.407   2.813 -0.9719 -1.7337  0.2974
   94GLOH    O2 9490   1.062   7.376   2.633  0.4517 -0.3553 -0.5046
   94GLOH   H05 9491   1.089   7.330   2.552 -2.9837 -0.0762 -1.9030
   94GLOH    C3 9492   1.265   7.255   2.721  0.3610 -0.8557 -0.0194
   94GLOH   H06 9493   1.295   7.219   2.622  1.3609 -1.4499  0.4887
   94GLOH   H07 9494   1.188   7.194   2.769  0.8454 -0.6648  1.0120
   94GLOH    O3 9495   1.383   7.267   2.811  0.5034 -0.5045  0.3369
   94GLOH   H01 9496   1.432   7.186   2.789 -0.5043 -0.8003 -0.8092
   95GLOH   H03 9497   8.944   2.684   0.666  0.0144 -3.0411  0.8170
   95GLOH    O1 9498   8.990   2.737   0.734 -0.4596 -0.4978 -0.7610
   95GLOH    C1 9499   9.096   2.807   0.669  0.3110  0.3671  1.1219
   95GLOH   H02 9500   9.085   2.915   0.682 -0.3658  0.9720 -3.4695
   95GLOH   H08 9501   9.091   2.788   0.562 -1.1593  0.6429  1.1307
   95GLOH    C2 9502   9.231   2.746   0.712 -1.1583  0.1701  0.1758
   95GLOH   H04 9503   9.212   2.639   0.696  1.3869 -0.4137  0.8761
   95GLOH    O2 9504   9.342   2.789   0.631  0.2443 -0.4724  0.1540
   95GLOH   H05 9505   9.308   2.822   0.546  0.2430 -1.6974 -0.3323
   95GLOH    C3 9506   9.256   2.785   0.859 -0.1340  0.4496  0.0790
   95GLOH   H06 9507   9.254   2.894   0.863 -1.2128  0.4465 -0.1673
   95GLOH   H07 9508   9.356   2.757   0.891 -1.0581 -3.6765 -0.4260
   95GLOH    O3 9509   9.160   2.720   0.949  0.5061  0.4950 -0.2346
   95GLOH   H01 9510   9.078   2.736   0.898  0.5609  0.3171 -0.3787
   96GLOH   H03 9511   4.147   8.470   0.460 -0.2862  0.0726 -3.0525
   96GLOH    O1 9512   4.077   8.535   0.478  0.6097  0.1234  0.5699
   96GLOH    C1 9513   3.943   8.488   0.440 -0.2114 -0.4134  0.3520
   96GLOH   H02 9514   3.955   8.405   0.371  0.4244 -1.1642  1.3542
   96GLOH   H08 9515   3.884   8.566   0.392  2.1718  0.0005 -1.9897
   96GLOH    C2 9516   3.862   8.440   0.563 -0.2418 -0.0327  0.0736
   96GLOH   H04 9517   3.762   8.406   0.533 -0.8022  0.3585  1.4393
   96GLOH    O2 9518   3.918   8.316   0.612 -0.9187 -0.1517  0.5293
   96GLOH   H05 9519   4.009   8.288   0.591 -0.6017  0.2845  1.2925
   96GLOH    C3 9520   3.854   8.542   0.677 -0.4653 -0.2500  0.1777
   96GLOH   H06 9521   3.952   8.570   0.717 -0.2446 -1.3566  0.4338
   96GLOH   H07 9522   3.806   8.482   0.755  0.5527  0.9435  1.7596
   96GLOH    O3 9523   3.768   8.650   0.653 -0.1182  0.1436  0.1588
   96GLOH   H01 9524   3.679   8.612   0.660 -0.8006  1.6168 -0.3757
   97GLOH   H03 9525   4.417   3.949   0.718  0.8991  1.6128  1.5671
   97GLOH    O1 9526   4.397   3.892   0.795  0.0399 -0.2314  0.0346
   97GLOH    C1 9527   4.483   3.928   0.908  0.0605  0.0038 -0.5323
   97GLOH   H02 9528   4.444   3.894   1.004  0.9260 -0.9804 -0.5219
   97GLOH   H08 9529   4.484   4.036   0.920  3.5395  0.1531 -1.5840
   97GLOH    C2 9530   4.633   3.891   0.907 -0.3684  0.4657 -0.3907
   97GLOH   H04 9531   4.679   3.952   0.828  0.1143  0.4460 -0.1233
   97GLOH    O2 9532   4.698   3.957   1.021 -0.2979  0.5483 -0.2937
   97GLOH   H05 9533   4.795   3.967   1.021 -0.2243  0.1595  2.3983
   97GLOH    C3 9534   4.672   3.744   0.911  0.1117  0.2849 -0.5953
   97GLOH   H06 9535   4.647   3.704   1.009 -0.7056  0.5802 -0.6722
   97GLOH   H07 9536   4.776   3.734   0.881 -0.1766  2.3714 -2.4297
   97GLOH    O3 9537   4.594   3.674   0.813  0.1282 -0.2077 -0.1810
   97GLOH   H01 9538   4.620   3.581   0.804 -3.6682 -1.3814  0.1962
   98GLOH   H03 9539  10.210   4.706   0.596  0.8068 -1.9946  0.1434
   98GLOH    O1 9540  10.298   4.741   0.620  0.0180  0.5426 -0.5052
   98GLOH    C1 9541  10.287   4.804   0.745  0.4227 -0.5875 -0.4718
   98GLOH   H02 9542  10.386   4.800   0.791  0.7489 -0.3789 -1.1494
   98GLOH   H08 9543  10.221   4.751   0.813 -0.5750  1.3619  0.1390
   98GLOH    C2 9544  10.241   4.951   0.752  1.3253  0.1724 -0.4500
   98GLOH   H04 9545  10.238   4.991   0.854  0.2591  0.0801 -0.4351
   98GLOH    O2 9546  10.329   5.034   0.684  0.0230 -1.4439  0.2923
   98GLOH   H05 9547  10.326   5.012   0.589  1.6408  2.0574 -0.6674
   98GLOH    C3 9548  10.096   4.969   0.699 -0.2323  0.2426  0.5686
   98GLOH   H06 9549  10.103   4.975   0.590 -0.8231 -2.0066  0.3914
   98GLOH   H07 9550  10.075   5.070   0.735 -1.6437 -0.3933  1.5574
   98GLOH    O3 9551  10.005   4.866   0.742 -0.0643 -0.0110 -0.2750
   98GLOH   H01 9552  10.031   4.782   0.701  1.0880 -0.3865  1.2025
   99GLOH   H03 9553   8.649   2.454   1.851  1.0146 -1.0431  3.1164
   99GLOH    O1 9554   8.557   2.428   1.869 -0.0186  0.1472  0.0120
   99GLOH    C1 9555   8.526   2.336   1.760  0.2931 -1.0005 -0.0395
   99GLOH   H02 9556   8.459   2.257   1.795 -0.4594  0.3262  1.5594
   99GLOH   H08 9557   8.609   2.271   1.733 -0.9892 -2.3666 -0.7816
   99GLOH    C2 9558   8.473   2.413   1.637 -0.3575  0.2806  1.0380
   99GLOH   H04 9559   8.545   2.491   1.607 -0.3432  0.3979  1.3735
   99GLOH    O2 9560   8.447   2.337   1.523  0.0861  0.0059 -0.3366
   99GLOH   H05 9561   8.437   2.398   1.448  2.4280  1.0581  0.1501
   99GLOH    C3 9562   8.346   2.487   1.685 -0.0913  0.0024 -0.0277
   99GLOH   H06 9563   8.286   2.412   1.737  1.4479 -0.5868  0.9383
   99GLOH   H07 9564   8.291   2.518   1.596 -0.1721 -0.3158 -0.0906
   99GLOH    O3 9565   8.370   2.595   1.773 -0.2083  0.3270  0.4433
   99GLOH   H01 9566   8.439   2.560   1.832 -1.2997 -3.5021 -0.4526
  100GLOH   H03 9567   3.140   7.936   2.698 -2.9569  0.5201 -0.1980
  100GLOH    O1 9568   3.159   7.994   2.622 -0.2730 -0.1622 -0.0939
  100GLOH    C1 9569   3.278   8.075   2.654 -0.2509 -0.5772  0.3767
  100GLOH   H02 9570   3.311   8.050   2.755 -2.1059 -0.4764  1.0326
  100GLOH   H08 9571   3.263   8.181   2.637  3.7277 -0.2849 -1.9340
  100GLOH    C2 9572   3.397   8.038   2.554 -0.0775 -0.1189 -0.0570
  100GLOH   H04 9573   3.484   8.096   2.589  0.2765 -0.1622 -0.8645
  100GLOH    O2 9574   3.443   7.897   2.549  0.2890 -0.0656  0.7469
  100GLOH   H05 9575   3.389   7.850   2.483  0.4966  0.6158  0.0953
  100GLOH    C3 9576   3.363   8.097   2.412  0.0376  0.2272  0.1843
  100GLOH   H06 9577   3.262   8.062   2.389  0.2368  0.1111 -0.5088
  100GLOH   H07 9578   3.440   8.066   2.342 -0.4198 -2.2476  0.7258
  100GLOH    O3 9579   3.357   8.247   2.415  0.2647 -0.0954 -0.1774
  100GLOH   H01 9580   3.277   8.278   2.369  0.6496  0.0907 -0.7216
  101GLOH   H03 9581   2.932   6.670   1.618 -0.6626 -1.2913  0.8972
  101GLOH    O1 9582   2.852   6.654   1.565 -0.4037  0.4312 -0.0506
  101GLOH    C1 9583   2.905   6.612   1.437  0.1188 -0.7408 -0.2641
  101GLOH   H02 9584   2.875   6.509   1.414 -1.6771 -0.0937 -0.9524
  101GLOH   H08 9585   3.012   6.607   1.452 -0.0160  0.0768  1.0162
  101GLOH    C2 9586   2.865   6.697   1.313  0.1639  0.6131 -0.2890
  101GLOH   H04 9587   2.763   6.738   1.322 -0.5166 -0.8062 -1.4118
  101GLOH    O2 9588   2.943   6.817   1.298 -0.1784  0.1786  0.1885
  101GLOH   H05 9589   2.911   6.892   1.351  1.7179  0.2187  1.3501
  101GLOH    C3 9590   2.875   6.605   1.190  0.5584 -0.3332 -0.4232
  101GLOH   H06 9591   2.977   6.570   1.175  0.0215 -1.8795 -0.5719
  101GLOH   H07 9592   2.845   6.659   1.100  0.0928 -2.6101 -1.6641
  101GLOH    O3 9593   2.791   6.496   1.209  0.0323  0.5007  0.5628
  101GLOH   H01 9594   2.704   6.517   1.172 -0.4193 -1.4566  0.4703
  102GLOH   H03 9595   4.107   2.314   0.518  1.9154  0.7749 -1.1860
  102GLOH    O1 9596   4.131   2.220   0.502 -0.1868 -0.0106  0.0126
  102GLOH    C1 9597   4.106   2.149   0.622 -0.2686 -0.2792 -0.4312
  102GLOH   H02 9598   4.172   2.183   0.702  0.1955 -0.3828 -0.7687
  102GLOH   H08 9599   4.130   2.044   0.603 -2.0442 -1.2460  2.3444
  102GLOH    C2 9600   3.966   2.143   0.675 -0.0290  0.4250 -0.2875
  102GLOH   H04 9601   3.933   2.247   0.691 -1.4524 -0.2848  1.5800
  102GLOH    O2 9602   3.888   2.089   0.565  0.6347 -1.0468 -0.0767
  102GLOH   H05 9603   3.891   2.144   0.485 -0.6484 -0.0728  0.5115
  102GLOH    C3 9604   3.950   2.059   0.801 -0.4941 -0.4566 -0.2347
  102GLOH   H06 9605   3.982   1.957   0.779  0.5588  0.3091 -2.4948
  102GLOH   H07 9606   3.845   2.048   0.828 -0.2784 -2.3191 -0.1024
  102GLOH    O3 9607   4.018   2.110   0.915 -0.0071 -0.4208 -0.4861
  102GLOH   H01 9608   4.114   2.091   0.915 -0.2437 -1.6649 -1.5551
  103GLOH   H03 9609   3.653   2.218   2.917  1.1581 -0.2156 -0.7664
  103GLOH    O1 9610   3.695   2.305   2.905  0.3030  0.2454 -0.4012
  103GLOH    C1 9611   3.630   2.413   2.970 -0.5887  0.3153 -0.2454
  103GLOH   H02 9612   3.690   2.446   3.054 -0.4035 -1.8467  0.5268
  103GLOH   H08 9613   3.533   2.382   3.010  0.1453  0.0464  1.3722
  103GLOH    C2 9614   3.600   2.537   2.880  0.3168 -0.8713 -0.0475
  103GLOH   H04 9615   3.509   2.585   2.919 -0.1525 -2.6762  1.1267
  103GLOH    O2 9616   3.710   2.634   2.892 -0.5350 -0.0803  0.1683
  103GLOH   H05 9617   3.788   2.577   2.886 -0.6029 -0.0728 -0.8295
  103GLOH    C3 9618   3.567   2.493   2.734 -0.4634  0.6621  0.0214
  103GLOH   H06 9619   3.664   2.472   2.689 -0.4269  2.5345 -0.8272
  103GLOH   H07 9620   3.536   2.582   2.679  0.0221 -0.4604 -2.1138
  103GLOH    O3 9621   3.460   2.388   2.722 -0.2092 -0.4755  0.1139
  103GLOH   H01 9622   3.505   2.303   2.704  1.1291  0.0702  0.8112
  104GLOH   H03 9623   2.772   8.022   1.702 -1.6041 -0.2727  2.3134
  104GLOH    O1 9624   2.722   7.958   1.648  0.2229 -0.3081  0.6097
  104GLOH    C1 9625   2.811   7.865   1.599  0.1072  0.1158  0.6618
  104GLOH   H02 9626   2.829   7.884   1.494  2.0180  0.2398  0.9933
  104GLOH   H08 9627   2.759   7.769   1.601 -1.3492  0.7514 -3.3773
  104GLOH    C2 9628   2.954   7.867   1.651  0.4250  0.2791 -0.1511
  104GLOH   H04 9629   2.950   7.846   1.759  2.9165  1.4236  0.1925
  104GLOH    O2 9630   3.045   7.778   1.585 -0.1635 -0.0713 -0.3186
  104GLOH   H05 9631   3.020   7.781   1.491 -0.1479 -0.3427 -0.3314
  104GLOH    C3 9632   3.003   8.011   1.632 -0.1324  0.6019 -0.4564
  104GLOH   H06 9633   2.991   8.027   1.525 -1.7713  1.2809 -0.1787
  104GLOH   H07 9634   3.106   8.015   1.668  0.0011 -1.2335 -0.5833
  104GLOH    O3 9635   2.919   8.110   1.697 -0.7256  0.3152 -0.2619
  104GLOH   H01 9636   2.950   8.200   1.677  0.0615 -0.2748 -1.7407
  105GLOH   H03 9637   3.370   7.774   1.975 -1.1320  2.0878 -2.2121
  105GLOH    O1 9638   3.388   7.695   1.920  0.1024  0.9013 -0.1842
  105GLOH    C1 9639   3.310   7.732   1.803  0.1570  0.1244  0.4124
  105GLOH   H02 9640   3.327   7.833   1.765  2.3831 -0.1885  0.4969
  105GLOH   H08 9641   3.203   7.726   1.825 -0.4456  0.4986 -2.3366
  105GLOH    C2 9642   3.348   7.639   1.688  1.1100 -0.7144  1.0911
  105GLOH   H04 9643   3.323   7.535   1.713 -1.3353  0.2650  2.9041
  105GLOH    O2 9644   3.274   7.683   1.571 -0.0154  0.2133 -0.6233
  105GLOH   H05 9645   3.182   7.703   1.594  0.1661 -0.1532  0.4588
  105GLOH    C3 9646   3.498   7.649   1.655  0.4964  0.3237  0.6592
  105GLOH   H06 9647   3.543   7.601   1.742  1.4675  1.0756  0.5761
  105GLOH   H07 9648   3.521   7.755   1.666 -1.0292  0.6657  0.7215
  105GLOH    O3 9649   3.530   7.581   1.537 -0.3208 -0.0770 -0.0349
  105GLOH   H01 9650   3.444   7.549   1.502  0.2936 -2.0611  0.2102
  106GLOH   H03 9651   1.632   7.171   1.500 -3.5706  3.5370 -0.6206
  106GLOH    O1 9652   1.560   7.106   1.511 -0.4275 -0.0135  0.0445
  106GLOH    C1 9653   1.583   7.007   1.612 -0.2272 -0.3978  0.4065
  106GLOH   H02 9654   1.689   6.983   1.623  0.6168  2.0304 -1.8897
  106GLOH   H08 9655   1.539   6.912   1.582  1.4502 -0.8174 -0.7938
  106GLOH    C2 9656   1.519   7.042   1.747 -0.3624  0.2908 -0.0016
  106GLOH   H04 9657   1.409   7.044   1.734 -0.3181  1.5643 -0.2821
  106GLOH    O2 9658   1.546   6.930   1.831  0.2273 -0.1980 -0.1055
  106GLOH   H05 9659   1.568   6.959   1.921  0.5451 -0.1182 -0.2100
  106GLOH    C3 9660   1.565   7.183   1.793  0.0676  0.5124 -0.5732
  106GLOH   H06 9661   1.511   7.215   1.882 -0.8635  1.3891 -1.4429
  106GLOH   H07 9662   1.515   7.251   1.725 -0.0113  1.0235 -0.0139
  106GLOH    O3 9663   1.708   7.199   1.784  0.2035 -0.0488 -0.1271
  106GLOH   H01 9664   1.732   7.267   1.849  0.8012 -1.6689  1.3661
  107GLOH   H03 9665   3.505   1.996   1.563  0.0228 -0.2763  0.1647
  107GLOH    O1 9666   3.548   2.073   1.521 -0.5190  0.2805  0.6096
  107GLOH    C1 9667   3.642   2.136   1.615 -0.3741 -0.7595 -0.1928
  107GLOH   H02 9668   3.693   2.214   1.558 -0.3937 -1.2493 -0.8915
  107GLOH   H08 9669   3.707   2.061   1.660  1.4310  2.2967  2.5254
  107GLOH    C2 9670   3.561   2.212   1.726  0.2686  0.1093 -0.3785
  107GLOH   H04 9671   3.490   2.278   1.674  1.3526 -0.0712 -2.1256
  107GLOH    O2 9672   3.495   2.120   1.814 -0.9381  0.1017 -0.6388
  107GLOH   H05 9673   3.419   2.166   1.855 -0.1459  0.0349  0.9198
  107GLOH    C3 9674   3.657   2.302   1.795 -0.2127  0.2679 -0.5966
  107GLOH   H06 9675   3.747   2.241   1.808  0.3264  1.4060  1.3641
  107GLOH   H07 9676   3.612   2.337   1.888  0.9933 -0.1405  0.1506
  107GLOH    O3 9677   3.697   2.417   1.721  0.2626  0.7545 -0.0532
  107GLOH   H01 9678   3.708   2.490   1.786 -0.1367  0.6514  0.1332
  108GLOH   H03 9679   1.834   9.982   2.984 -0.7540  2.2842 -0.3096
  108GLOH    O1 9680   1.930   9.989   2.968 -0.5174 -0.5477 -0.3466
  108GLOH    C1 9681   1.952  10.107   2.888  0.0282 -0.3659  1.2765
  108GLOH   H02 9682   2.028  10.171   2.933 -1.8352  1.0855  2.4548
  108GLOH   H08 9683   1.857  10.159   2.893  0.7350  1.5291 -2.6886
  108GLOH    C2 9684   1.974  10.084   2.735 -0.3698  0.2618 -1.1767
  108GLOH   H04 9685   1.889  10.030   2.692 -0.0740 -0.0522 -1.3632
  108GLOH    O2 9686   1.988  10.205   2.666 -0.0633 -0.1746  0.2701
  108GLOH   H05 9687   2.055  10.217   2.597  0.0522  1.7757  0.6764
  108GLOH    C3 9688   2.102  10.001   2.708 -0.1373  0.5976  0.1720
  108GLOH   H06 9689   2.196  10.046   2.739  0.6528  0.9156 -2.6144
  108GLOH   H07 9690   2.116  10.001   2.600  0.5707 -3.4961  0.1887
  108GLOH    O3 9691   2.092   9.865   2.757  0.2499 -0.1200  0.1580
  108GLOH   H01 9692   2.052   9.866   2.846  0.3289 -1.0312  0.2078
  109GLOH   H03 9693   4.632   3.884   1.212  1.6717 -0.1082 -0.1808
  109GLOH    O1 9694   4.617   3.823   1.286 -0.0014  0.3902 -0.0909
  109GLOH    C1 9695   4.743   3.783   1.340  0.5142  0.1986 -0.5560
  109GLOH   H02 9696   4.794   3.859   1.399  2.0216 -0.5896 -0.8048
  109GLOH   H08 9697   4.815   3.757   1.262 -1.8081 -1.1373 -2.2985
  109GLOH    C2 9698   4.737   3.648   1.422  0.3658 -0.2554 -0.1890
  109GLOH   H04 9699   4.720   3.569   1.348 -1.9620 -0.0239  0.0576
  109GLOH    O2 9700   4.859   3.613   1.483 -0.0581  0.2049 -0.3873
  109GLOH   H05 9701   4.935   3.609   1.421  1.8987 -0.2968  1.9623
  109GLOH    C3 9702   4.625   3.652   1.528  0.0346  0.1367  0.6037
  109GLOH   H06 9703   4.644   3.732   1.600  0.6820  1.8338 -1.3748
  109GLOH   H07 9704   4.616   3.562   1.589  1.2594  0.1655  0.8453
  109GLOH    O3 9705   4.498   3.673   1.465 -0.5502  0.3797  0.3630
  109GLOH   H01 9706   4.516   3.714   1.379 -2.2606 -2.8740 -1.6662
  110GLOH   H03 9707   1.281   0.918   0.263  3.5912 -0.1200 -0.5238
  110GLOH    O1 9708   1.271   0.975   0.341  0.0214 -0.9838 -0.2894
  110GLOH    C1 9709   1.160   0.938   0.427 -0.7346 -0.5798  0.4061
  110GLOH   H02 9710   1.187   0.925   0.532  0.7700  1.3747  0.2821
  110GLOH   H08 9711   1.127   0.840   0.392  1.3186 -1.2089  0.1881
  110GLOH    C2 9712   1.044   1.037   0.396  1.1183  0.1111  0.6051
  110GLOH   H04 9713   1.023   1.029   0.289 -4.6593  0.2214  1.5734
  110GLOH    O2 9714   0.923   1.021   0.470  0.1734 -0.1758  0.0320
  110GLOH   H05 9715   0.865   1.092   0.440 -0.6314 -0.8384  0.0233
  110GLOH    C3 9716   1.088   1.189   0.404  0.0059 -0.0675  0.0426
  110GLOH   H06 9717   1.103   1.212   0.510 -1.0633  0.0953  0.1579
  110GLOH   H07 9718   1.007   1.247   0.361  0.5974  0.8531  0.1444
  110GLOH    O3 9719   1.208   1.219   0.327 -0.8983  0.7415  0.2736
  110GLOH   H01 9720   1.268   1.145   0.347 -0.9549  1.0842  1.7351
  111GLOH   H03 9721   8.696   3.116   2.036 -0.4773 -1.2225  1.2887
  111GLOH    O1 9722   8.660   3.095   1.948  0.0936  0.0247  0.7415
  111GLOH    C1 9723   8.591   2.960   1.956  0.4030  0.3588 -0.6336
  111GLOH   H02 9724   8.505   2.950   1.891 -1.0653  0.6189  1.2138
  111GLOH   H08 9725   8.559   2.930   2.056  0.1079 -1.2240 -1.1963
  111GLOH    C2 9726   8.684   2.850   1.919 -0.4549  0.5234  0.7849
  111GLOH   H04 9727   8.774   2.868   1.980 -0.0127  1.7238 -0.1843
  111GLOH    O2 9728   8.626   2.720   1.954 -0.6253  0.4342  0.0738
  111GLOH   H05 9729   8.694   2.661   1.916  1.4554  3.0202 -0.3397
  111GLOH    C3 9730   8.713   2.859   1.767  0.3825 -0.4084 -0.4062
  111GLOH   H06 9731   8.625   2.814   1.722  0.2436 -0.4113 -0.1351
  111GLOH   H07 9732   8.788   2.787   1.732  0.8094  0.6322 -1.6698
  111GLOH    O3 9733   8.748   2.992   1.719 -0.0291  0.7974  0.7777
  111GLOH   H01 9734   8.729   3.050   1.795  1.7423  2.7602 -0.2334
  112GLOH   H03 9735   3.909   4.944   0.733  0.2049 -0.4665 -2.0413
  112GLOH    O1 9736   3.943   4.854   0.725  0.0974 -0.7033 -0.1832
  112GLOH    C1 9737   4.079   4.847   0.681 -0.1046 -0.1481  0.9005
  112GLOH   H02 9738   4.089   4.836   0.573 -1.7030  1.3474  0.5809
  112GLOH   H08 9739   4.108   4.756   0.734 -2.4698  0.1316  2.7615
  112GLOH    C2 9740   4.179   4.958   0.730  0.2697 -0.4346 -0.0048
  112GLOH   H04 9741   4.278   4.927   0.694 -0.3498 -2.7337  0.1966
  112GLOH    O2 9742   4.150   5.083   0.672  0.2938 -0.2869 -0.0240
  112GLOH   H05 9743   4.057   5.102   0.693  0.1347 -1.0255 -0.0417
  112GLOH    C3 9744   4.173   4.955   0.883  0.1088 -0.5470 -0.4704
  112GLOH   H06 9745   4.069   4.973   0.908  0.2494  2.2414 -1.6824
  112GLOH   H07 9746   4.232   5.041   0.914  0.5236 -1.2467  0.7057
  112GLOH    O3 9747   4.228   4.847   0.948  0.4014 -0.4440 -0.3587
  112GLOH   H01 9748   4.250   4.781   0.880 -0.1449 -1.1018  0.0941
  113GLOH   H03 9749   4.416   2.128   1.361 -1.8697 -0.8360  1.2047
  113GLOH    O1 9750   4.347   2.198   1.357 -0.7473  0.2461  0.3514
  113GLOH    C1 9751   4.322   2.256   1.486  0.1054 -0.8100 -0.1303
  113GLOH   H02 9752   4.337   2.179   1.561  1.1712  0.1574  0.6718
  113GLOH   H08 9753   4.221   2.288   1.511  0.3137 -0.4877  0.3196
  113GLOH    C2 9754   4.420   2.371   1.516 -0.0969 -0.0947  0.4689
  113GLOH   H04 9755   4.405   2.389   1.623  1.1482 -1.5295  0.9035
  113GLOH    O2 9756   4.556   2.336   1.505 -0.1784  0.1014  0.4568
  113GLOH   H05 9757   4.564   2.246   1.540 -0.4432 -0.7703 -1.6571
  113GLOH    C3 9758   4.375   2.491   1.429 -0.0112 -0.3021 -0.4041
  113GLOH   H06 9759   4.358   2.461   1.325 -0.8557  0.5546 -0.5274
  113GLOH   H07 9760   4.457   2.563   1.436 -0.5040  0.2714 -0.4374
  113GLOH    O3 9761   4.251   2.549   1.479 -0.4127  0.0105 -0.5664
  113GLOH   H01 9762   4.217   2.609   1.410 -0.3424 -0.5000 -1.0407
  114GLOH   H03 9763   8.643   2.753   1.250 -2.5390 -0.3907 -1.1133
  114GLOH    O1 9764   8.684   2.831   1.209 -0.1622 -0.7362  0.4903
  114GLOH    C1 9765   8.819   2.852   1.234  0.0426  0.0481  0.2910
  114GLOH   H02 9766   8.880   2.763   1.246  2.2503  1.0482 -2.8608
  114GLOH   H08 9767   8.827   2.899   1.332  1.6450  0.4775 -0.0402
  114GLOH    C2 9768   8.888   2.950   1.135 -0.1127 -0.5055 -0.3633
  114GLOH   H04 9769   8.830   3.043   1.134 -1.0175 -1.0565 -0.0129
  114GLOH    O2 9770   9.019   2.971   1.190 -0.3730  0.3386  0.3185
  114GLOH   H05 9771   9.084   3.020   1.137 -1.8794  0.2594 -1.6448
  114GLOH    C3 9772   8.879   2.895   0.991 -0.0926 -0.4992 -1.1528
  114GLOH   H06 9773   8.928   2.798   0.984  3.1558  1.0076 -0.4455
  114GLOH   H07 9774   8.934   2.961   0.923 -1.4404  2.4144  0.4707
  114GLOH    O3 9775   8.741   2.879   0.954  0.0808 -0.2033 -0.1678
  114GLOH   H01 9776   8.691   2.875   1.038  2.1383 -0.7511  1.0420
  115GLOH   H03 9777   3.331   5.789   2.368  0.8670  0.7153  3.3984
  115GLOH    O1 9778   3.284   5.873   2.354  0.4860  0.0103  0.0742
  115GLOH    C1 9779   3.217   5.912   2.479  0.1283  0.1703  0.8345
  115GLOH   H02 9780   3.116   5.871   2.481  0.7598 -1.4397  0.3843
  115GLOH   H08 9781   3.213   6.020   2.489  0.1356  0.0201  2.4804
  115GLOH    C2 9782   3.291   5.870   2.606 -0.3627  0.6359 -0.3458
  115GLOH   H04 9783   3.389   5.920   2.594  0.5001 -0.8991  0.1905
  115GLOH    O2 9784   3.233   5.915   2.727 -0.1197 -0.4938  0.3497
  115GLOH   H05 9785   3.141   5.886   2.733  0.1659 -1.5365 -0.1952
  115GLOH    C3 9786   3.324   5.717   2.604 -0.5238  0.0400 -0.0022
  115GLOH   H06 9787   3.236   5.653   2.601  0.0591 -0.7655 -0.1348
  115GLOH   H07 9788   3.375   5.688   2.696 -0.1861 -0.3385 -0.3070
  115GLOH    O3 9789   3.392   5.672   2.485 -0.5444 -0.3433  0.4159
  115GLOH   H01 9790   3.365   5.581   2.464  0.4653 -0.4823 -0.3280
  116GLOH   H03 9791   4.001   3.463   2.402 -2.8018 -0.9905  0.0600
  116GLOH    O1 9792   4.011   3.403   2.478  0.1597 -0.2027  0.3578
  116GLOH    C1 9793   4.014   3.269   2.421 -0.1729 -0.5768 -0.6159
  116GLOH   H02 9794   4.088   3.277   2.341  0.3073  0.7187 -0.0600
  116GLOH   H08 9795   3.916   3.243   2.380 -0.6513  3.8961 -2.6087
  116GLOH    C2 9796   4.067   3.170   2.528 -0.5544  0.1969  0.5140
  116GLOH   H04 9797   4.086   3.083   2.464  0.6549  0.6297  0.2660
  116GLOH    O2 9798   4.197   3.204   2.590 -0.6358 -0.1076  0.0171
  116GLOH   H05 9799   4.222   3.296   2.570 -0.8952 -0.3016 -1.2746
  116GLOH    C3 9800   3.963   3.124   2.630  0.7184  0.1297  0.0038
  116GLOH   H06 9801   3.929   3.203   2.697  0.0043  0.3493 -0.6106
  116GLOH   H07 9802   4.003   3.048   2.697  0.5843  0.7230  0.7626
  116GLOH    O3 9803   3.844   3.060   2.578 -0.3150 -0.7672  0.1259
  116GLOH   H01 9804   3.876   2.972   2.551 -0.0893 -1.2603  1.9357
  117GLOH   H03 9805   1.867   6.999   2.615 -0.1398  1.3719  0.9745
  117GLOH    O1 9806   1.796   7.009   2.549  0.2288 -0.0551  0.3449
  117GLOH    C1 9807   1.768   6.878   2.502  0.0597  0.3881  0.1437
  117GLOH   H02 9808   1.722   6.885   2.403 -1.0473 -2.8892  0.3638
  117GLOH   H08 9809   1.697   6.840   2.575 -1.9141  1.1354 -1.3503
  117GLOH    C2 9810   1.894   6.794   2.498  0.1018  0.1130  0.6907
  117GLOH   H04 9811   1.951   6.812   2.406 -1.1433  0.0215 -0.1109
  117GLOH    O2 9812   1.981   6.812   2.604  0.1042  0.4545 -0.0674
  117GLOH   H05 9813   2.068   6.834   2.568 -0.2265 -1.0709 -1.8749
  117GLOH    C3 9814   1.847   6.645   2.503  0.2086 -0.2213 -0.0000
  117GLOH   H06 9815   1.768   6.638   2.577  0.0282  0.9419 -0.0673
  117GLOH   H07 9816   1.929   6.579   2.531  0.0214 -1.0744 -1.4207
  117GLOH    O3 9817   1.788   6.614   2.374 -0.3456 -0.2321 -0.1054
  117GLOH   H01 9818   1.703   6.656   2.356 -0.4676  0.6669  2.3235
  118GLOH   H03 9819   4.289   0.956   1.598 -0.2019  1.5126  0.2838
  118GLOH    O1 9820   4.314   0.951   1.692  0.6242 -0.1444 -0.0129
  118GLOH    C1 9821   4.356   1.080   1.736  0.5280  0.3326  0.4898
  118GLOH   H02 9822   4.337   1.096   1.842  0.0907 -2.0964  0.7899
  118GLOH   H08 9823   4.294   1.157   1.689 -2.6677 -3.2364 -1.3300
  118GLOH    C2 9824   4.508   1.105   1.715  0.4766  0.5560 -0.6324
  118GLOH   H04 9825   4.525   1.032   1.634 -0.9707 -0.2366 -0.2377
  118GLOH    O2 9826   4.532   1.237   1.678 -0.2530 -0.7772 -0.0459
  118GLOH   H05 9827   4.495   1.299   1.743 -1.6207 -0.3347 -1.2486
  118GLOH    C3 9828   4.590   1.066   1.838  0.0781 -0.0944  0.5643
  118GLOH   H06 9829   4.697   1.068   1.817 -0.2350 -1.1049 -1.2053
  118GLOH   H07 9830   4.562   0.962   1.857 -0.2215 -0.5389 -2.1929
  118GLOH    O3 9831   4.562   1.141   1.958 -0.2707 -0.0518 -0.4741
  118GLOH   H01 9832   4.526   1.227   1.928 -1.4233 -0.6853 -0.9347
  119GLOH   H03 9833   4.116   8.664   1.847  3.2286  2.0369 -0.9104
  119GLOH    O1 9834   4.071   8.737   1.893  0.3479 -0.0597 -0.3276
  119GLOH    C1 9835   4.059   8.700   2.034 -0.4671 -1.1653  0.2594
  119GLOH   H02 9836   4.149   8.646   2.064  0.9977  0.0269 -1.8578
  119GLOH   H08 9837   3.980   8.625   2.047 -0.2834 -1.5530 -0.7847
  119GLOH    C2 9838   4.022   8.811   2.130 -0.2710 -0.4862  0.2186
  119GLOH   H04 9839   3.922   8.851   2.111  0.2685  0.8449  0.1026
  119GLOH    O2 9840   4.024   8.763   2.265 -0.1515 -0.1559 -0.1871
  119GLOH   H05 9841   4.109   8.785   2.307 -1.3420 -0.6874  2.6221
  119GLOH    C3 9842   4.114   8.931   2.104  0.3977  0.0090 -0.3972
  119GLOH   H06 9843   4.106   8.969   2.003  1.3886  1.4022  0.0372
  119GLOH   H07 9844   4.217   8.895   2.114 -0.3215 -2.5279 -1.5552
  119GLOH    O3 9845   4.084   9.038   2.196 -0.4503 -0.5289  0.3179
  119GLOH   H01 9846   3.993   9.072   2.196 -0.6731 -1.1030  1.1422
  120GLOH   H03 9847   2.311   1.088   0.532  0.2408  1.0169  0.5814
  120GLOH    O1 9848   2.390   1.137   0.503  0.1178  0.8489 -0.0473
  120GLOH    C1 9849   2.371   1.205   0.376 -0.2410 -0.9045  0.3283
  120GLOH   H02 9850   2.305   1.150   0.309  1.5008 -2.0191 -0.5212
  120GLOH   H08 9851   2.467   1.213   0.324 -0.2713  1.4889  0.6000
  120GLOH    C2 9852   2.313   1.347   0.392  0.0319 -0.3618 -0.2422
  120GLOH   H04 9853   2.292   1.398   0.297  2.1758 -0.0264 -0.5639
  120GLOH    O2 9854   2.183   1.329   0.454 -0.6613 -0.5989 -0.4315
  120GLOH   H05 9855   2.187   1.269   0.531  1.3996  0.2765  0.1886
  120GLOH    C3 9856   2.406   1.436   0.477 -0.0729 -0.4791  0.4615
  120GLOH   H06 9857   2.420   1.386   0.573 -1.7777 -1.9506 -0.0299
  120GLOH   H07 9858   2.353   1.529   0.497 -0.7449 -0.5260 -1.0254
  120GLOH    O3 9859   2.524   1.446   0.401  0.2855 -0.4095 -0.0019
  120GLOH   H01 9860   2.590   1.389   0.445  1.3624  0.4525 -0.4840
  121ACOH    H4 9861   4.499   0.335   0.948 -0.3247  0.8667 -0.0997
  121ACOH    O2 9862   4.583   0.383   0.950 -0.2774  0.7662  0.3375
  121ACOH    C2 9863   4.579   0.465   1.061  0.1900  0.6656  0.7309
  121ACOH    O1 9864   4.488   0.473   1.140 -0.1109 -0.0624 -0.1241
  121ACOH    C1 9865   4.709   0.533   1.079 -0.3676  0.1728 -0.1010
  121ACOH    H1 9866   4.762   0.537   0.984  2.7850 -0.6578  1.5819
  121ACOH    H2 9867   4.767   0.489   1.159 -1.4643 -0.0431  0.5919
  121ACOH    H3 9868   4.699   0.639   1.101  0.4707  0.3547 -0.5745
  122ACOH    H4 9869   3.338   7.174   2.796 -0.5221  0.3245 -1.6386
  122ACOH    O2 9870   3.414   7.216   2.752  0.0059  0.3967 -0.6797
  122ACOH    C2 9871   3.508   7.220   2.849 -1.0367  0.6611 -0.3063
  122ACOH    O1 9872   3.491   7.250   2.964  0.3236 -0.2880  0.0525
  122ACOH    C1 9873   3.643   7.224   2.793  0.3780  0.7444 -0.4856
  122ACOH    H1 9874   3.713   7.186   2.867 -2.1859  0.5250  1.9231
  122ACOH    H2 9875   3.674   7.324   2.762  1.4708  0.8750  0.9633
  122ACOH    H3 9876   3.645   7.157   2.707  0.3829  1.4663 -1.0590
  123ACOH    H4 9877   4.088   9.714   0.497 -3.3499 -1.3886  0.9848
  123ACOH    O2 9878   4.046   9.801   0.486  0.1565  0.2087 -0.3153
  123ACOH    C2 9879   4.127   9.897   0.527 -0.2209  0.3393  0.7929
  123ACOH    O1 9880   4.241   9.898   0.573 -0.0286  0.7374  0.2612
  123ACOH    C1 9881   4.059  10.016   0.471  0.4943 -0.3875  0.2436
  123ACOH    H1 9882   3.968  10.034   0.528  1.4417 -0.4625  1.8138
  123ACOH    H2 9883   4.029   9.998   0.368 -0.3035  2.1890  0.0004
  123ACOH    H3 9884   4.117  10.109   0.471 -1.0263  0.5756  0.8424
  124ACOH    H4 9885   8.505   2.441   0.444  0.2829 -0.4550 -2.2201
  124ACOH    O2 9886   8.444   2.366   0.456  0.1647  0.0130  0.3496
  124ACOH    C2 9887   8.480   2.260   0.389  0.1538 -0.3323  0.1409
  124ACOH    O1 9888   8.581   2.252   0.326  0.1886 -0.7612 -0.2708
  124ACOH    C1 9889   8.382   2.151   0.408  0.4076  0.4633  0.3454
  124ACOH    H1 9890   8.361   2.147   0.515 -1.7197 -2.1502 -0.1328
  124ACOH    H2 9891   8.415   2.051   0.380 -4.1395 -0.5642 -1.7007
  124ACOH    H3 9892   8.287   2.174   0.359  0.6814 -1.9318 -1.3733
  125ACOH    H4 9893   9.035   5.573   0.810  0.1504  3.5046  1.3497
  125ACOH    O2 9894   8.940   5.569   0.789  0.6092  0.4443 -0.5362
  125ACOH    C2 9895   8.913   5.457   0.721  0.1125  0.6553 -0.1984
  125ACOH    O1 9896   8.972   5.358   0.748  0.2010 -0.1672 -0.2489
  125ACOH    C1 9897   8.789   5.454   0.646  0.1894  0.0721  0.5625
  125ACOH    H1 9898   8.716   5.509   0.704  1.7658  2.4449  0.3838
  125ACOH    H2 9899   8.748   5.353   0.646 -1.7243  0.8235  1.8175
  125ACOH    H3 9900   8.795   5.500   0.548  0.5408 -0.1864  0.4587
  127ACOH    H4 9901   8.645   3.247   1.914  4.0905 -0.4728 -2.5793
  127ACOH    O2 9902   8.610   3.335   1.894  0.9142 -0.9176  0.4508
  127ACOH    C2 9903   8.718   3.413   1.904 -0.4333  0.5926  0.8649
  127ACOH    O1 9904   8.814   3.389   1.976  0.6185 -0.5270  0.6343
  127ACOH    C1 9905   8.705   3.552   1.848 -0.0342  0.5677  0.2176
  127ACOH    H1 9906   8.652   3.622   1.913 -1.0277 -2.4347  2.7539
  127ACOH    H2 9907   8.647   3.539   1.757  0.5568  1.2778 -0.2685
  127ACOH    H3 9908   8.804   3.587   1.818  0.2829  2.7202  3.5380
  128ACOH    H4 9909   3.564  10.045   0.435 -2.2041  2.8035 -0.5252
  128ACOH    O2 9910   3.496   9.984   0.468  0.5352  0.0136  0.2370
  128ACOH    C2 9911   3.487   9.887   0.376  0.1730 -0.7330  0.0600
  128ACOH    O1 9912   3.554   9.881   0.276 -0.1124 -0.0076 -0.1060
  128ACOH    C1 9913   3.378   9.784   0.412  0.2265 -0.1662  0.0600
  128ACOH    H1 9914   3.283   9.833   0.432  0.3002  0.3092 -0.6926
  128ACOH    H2 9915   3.410   9.730   0.500 -0.2756  2.4741  1.9161
  128ACOH    H3 9916   3.361   9.715   0.329  1.0812  1.7037 -1.7479
  129ACOH    H4 9917   4.141   9.310   2.473  0.3821  0.8913  2.2699
  129ACOH    O2 9918   4.226   9.352   2.450  0.1176  0.3646  0.2007
  129ACOH    C2 9919   4.219   9.413   2.332 -0.4063 -0.6040  0.6043
  129ACOH    O1 9920   4.130   9.409   2.249  0.3741 -0.0738 -0.2078
  129ACOH    C1 9921   4.331   9.506   2.330  0.9816 -0.1094  0.7858
  129ACOH    H1 9922   4.317   9.599   2.385  0.8254 -0.1566  0.8260
  129ACOH    H2 9923   4.356   9.538   2.228 -2.0696  3.0395  0.9358
  129ACOH    H3 9924   4.423   9.460   2.366  2.2050  2.9737  1.8046
  130ACOH    H4 9925   9.975   3.606   1.753  1.2016 -0.1275 -1.0965
  130ACOH    O2 9926   9.947   3.681   1.698  0.1277  0.4659  0.2490
  130ACOH    C2 9927  10.013   3.791   1.747  0.0734 -0.3906  0.0509
  130ACOH    O1 9928  10.075   3.793   1.852  0.4448  0.8474 -0.0404
  130ACOH    C1 9929  10.003   3.903   1.650 -0.3219 -0.0543 -0.2736
  130ACOH    H1 9930   9.901   3.932   1.625 -0.7594  0.0105  1.5220
  130ACOH    H2 9931  10.059   3.880   1.559  0.8009  0.2493  0.3258
  130ACOH    H3 9932  10.037   4.000   1.687 -0.5095  0.6463 -1.9329
  131ACOH    H4 9933   5.394   9.098   1.811 -0.1643 -0.2312  0.1952
  131ACOH    O2 9934   5.351   9.168   1.760 -0.2903 -0.6161 -0.2289
  131ACOH    C2 9935   5.316   9.257   1.846 -0.1332 -0.3881 -0.6570
  131ACOH    O1 9936   5.306   9.245   1.964  0.4299 -0.3931  0.1251
  131ACOH    C1 9937   5.245   9.364   1.768 -0.7991  0.3616  0.2836
  131ACOH    H1 9938   5.218   9.448   1.833 -0.5648  0.1744  0.6258
  131ACOH    H2 9939   5.149   9.321   1.739 -1.5226  0.6261  2.1903
  131ACOH    H3 9940   5.300   9.397   1.681 -1.1329 -0.1321 -0.1176
  132ACOH    H4 9941   4.407   0.702   1.905 -0.1498 -1.0158  0.7932
  132ACOH    O2 9942   4.476   0.712   1.972  0.2067  0.1220  0.2768
  132ACOH    C2 9943   4.515   0.586   2.001 -0.3011 -0.4696 -0.4191
  132ACOH    O1 9944   4.449   0.487   1.975 -0.4001  0.2121  0.4456
  132ACOH    C1 9945   4.624   0.596   2.102 -0.1982  0.0996 -0.4336
  132ACOH    H1 9946   4.631   0.510   2.169  0.3730 -0.0068 -0.6242
  132ACOH    H2 9947   4.610   0.681   2.169  0.9046 -0.1789  0.1729
  132ACOH    H3 9948   4.723   0.609   2.059  0.2952  0.9221  0.9086
  133ACOH    H4 9949   9.302   3.846   1.410 -3.1822  2.6983  1.1174
  133ACOH    O2 9950   9.230   3.781   1.403 -0.0835 -0.8091  0.5708
  133ACOH    C2 9951   9.270   3.691   1.308  0.3908 -0.1172  0.0632
  133ACOH    O1 9952   9.373   3.687   1.245  0.4198  0.3839 -0.6221
  133ACOH    C1 9953   9.163   3.590   1.281  0.3778 -0.2866  0.3998
  133ACOH    H1 9954   9.158   3.583   1.173  1.9245  1.6650  0.1669
  133ACOH    H2 9955   9.064   3.617   1.315  0.9694 -1.4036  3.1738
  133ACOH    H3 9956   9.198   3.499   1.330  1.3698 -0.6985 -1.0226
  134ACOH    H4 9957   0.671   7.288   1.204 -0.5007  0.1564 -0.6220
  134ACOH    O2 9958   0.623   7.343   1.268 -0.6786 -0.1192 -0.5178
  134ACOH    C2 9959   0.492   7.325   1.258 -0.1954  0.1987 -0.6614
  134ACOH    O1 9960   0.437   7.219   1.237 -0.3740  0.4476 -0.4140
  134ACOH    C1 9961   0.424   7.441   1.321 -0.0750  0.4628 -0.5974
  134ACOH    H1 9962   0.452   7.530   1.266  1.6541  1.0509  1.1477
  134ACOH    H2 9963   0.477   7.454   1.416  0.2301 -0.2454 -0.6678
  134ACOH    H3 9964   0.317   7.438   1.340 -0.0723  0.1124 -0.6360
  135ACOH    H4 9965   5.910   3.079   1.160  0.7390  2.7016  0.8760
  135ACOH    O2 9966   5.962   3.069   1.078 -0.2802 -0.1311  0.5363
  135ACOH    C2 9967   5.862   3.076   0.985 -0.4948  0.3435 -0.2922
  135ACOH    O1 9968   5.747   3.103   1.015 -0.3267  0.5146  0.0606
  135ACOH    C1 9969   5.908   3.021   0.856 -0.7777 -0.6193  0.2884
  135ACOH    H1 9970   5.995   3.081   0.828 -0.5973 -0.7767  0.5005
  135ACOH    H2 9971   5.832   3.021   0.778 -1.5333  0.8198  1.0125
  135ACOH    H3 9972   5.940   2.918   0.875  0.8259 -0.1377  0.3021
  136ACOH    H4 9973   8.652   2.895   0.817 -0.4252 -1.5972 -0.0557
  136ACOH    O2 9974   8.593   2.916   0.742 -0.1117  0.1503  0.1764
  136ACOH    C2 9975   8.484   2.837   0.731  0.2219 -0.1938 -1.1582
  136ACOH    O1 9976   8.455   2.741   0.806  0.3883  0.6346  0.1543
  136ACOH    C1 9977   8.405   2.856   0.609 -0.2587  0.1873  0.0329
  136ACOH    H1 9978   8.394   2.964   0.596 -0.2626  0.0521 -1.1994
  136ACOH    H2 9979   8.307   2.809   0.616 -0.4531  0.0422 -3.0338
  136ACOH    H3 9980   8.467   2.820   0.526  2.1263 -1.0681  2.2700
  137ACOH    H4 9981   5.185   2.155   2.395 -0.8345  1.1399  1.2461
  137ACOH    O2 9982   5.128   2.105   2.335  0.2398  0.6197  0.6480
  137ACOH    C2 9983   5.134   2.158   2.212  0.1466 -0.0318  0.0973
  137ACOH    O1 9984   5.173   2.269   2.181  0.5135  0.0174  0.2316
  137ACOH    C1 9985   5.055   2.089   2.105 -0.5034 -0.5080 -0.4405
  137ACOH    H1 9986   5.115   2.092   2.014  1.9497  0.3166  1.1283
  137ACOH    H2 9987   4.962   2.137   2.076 -0.6489  0.3876  1.4102
  137ACOH    H3 9988   5.029   1.987   2.134 -1.6141  0.4265  2.0034
  138ACOH    H4 9989   1.161   3.760   0.780  1.9273 -0.4601 -0.1215
  138ACOH    O2 9990   1.195   3.847   0.754  0.1223  0.4058  0.2832
  138ACOH    C2 9991   1.112   3.893   0.657  0.1922 -0.3295  0.6042
  138ACOH    O1 9992   1.034   3.830   0.581 -0.2896 -0.1718 -0.1272
  138ACOH    C1 9993   1.156   4.024   0.619 -0.9195 -0.1283  0.2711
  138ACOH    H1 9994   1.093   4.073   0.544 -1.0452 -0.4615  0.1596
  138ACOH    H2 9995   1.252   4.003   0.570 -1.1999  0.0820 -0.3797
  138ACOH    H3 9996   1.177   4.087   0.705 -0.4932  1.9207 -1.2906
  139ACOH    H4 9997   3.772   2.631   0.666  1.5432  0.4068 -0.2250
  139ACOH    O2 9998   3.752   2.719   0.629 -0.3571 -0.1591 -0.5665
  139ACOH    C2 9999   3.874   2.774   0.625 -0.0854 -0.3018  0.3893
  139ACOH    O110000   3.976   2.749   0.681  0.2593 -0.3205 -0.4377
  139ACOH    C110001   3.875   2.880   0.523  0.3199  0.1500  0.5526
  139ACOH    H110002   3.810   2.865   0.437  0.8923  0.6582  0.0261
  139ACOH    H210003   3.976   2.895   0.486  0.9509 -0.5139  1.9667
  139ACOH    H310004   3.844   2.976   0.567  2.1131  1.3304 -0.6923
  140ACOH    H410005   8.426   2.189   1.501 -0.7484  0.8626 -2.4250
  140ACOH    O210006   8.405   2.105   1.456 -0.2540 -0.6043 -0.0217
  140ACOH    C210007   8.458   1.995   1.513 -0.9816 -0.2596 -0.0860
  140ACOH    O110008   8.473   1.991   1.633  0.1735 -0.4805  0.1919
  140ACOH    C110009   8.434   1.875   1.426 -0.4886  0.1241  0.1514
  140ACOH    H110010   8.504   1.859   1.344 -0.1462  0.5962  0.3527
  140ACOH    H210011   8.345   1.888   1.364  0.8054 -2.6276 -2.4377
  140ACOH    H310012   8.440   1.782   1.482  1.1916 -0.1646 -0.4705
  141ACOH    H410013   3.113   0.498   1.182  1.3384 -1.6200  1.0751
  141ACOH    O210014   3.023   0.473   1.210  0.3538  0.6329  0.0060
  141ACOH    C210015   2.933   0.547   1.146  0.3470  0.9530  0.4505
  141ACOH    O110016   2.951   0.614   1.049 -0.3611 -0.2463  0.0751
  141ACOH    C110017   2.796   0.503   1.174 -0.4279  0.0148  0.2034
  141ACOH    H110018   2.776   0.443   1.263 -1.0980  0.9933  0.7230
  141ACOH    H210019   2.762   0.454   1.083 -1.9107  0.7118  0.3536
  141ACOH    H310020   2.745   0.598   1.191  0.2382  0.3195  0.5056
  143ACOH    H410021   5.662   2.980   1.381 -1.1913  1.5669 -0.0209
  143ACOH    O210022   5.685   3.019   1.467 -0.2952 -0.6184  0.7481
  143ACOH    C210023   5.800   3.086   1.450  0.6029  0.9559 -0.1042
  143ACOH    O110024   5.867   3.086   1.351 -0.5290 -0.0010 -0.1719
  143ACOH    C110025   5.831   3.176   1.561 -0.0609  0.4843 -0.0158
  143ACOH    H110026   5.922   3.235   1.553 -0.0609  0.5134  0.2008
  143ACOH    H210027   5.833   3.120   1.655  2.6549  0.8169  0.1511
  143ACOH    H310028   5.747   3.245   1.558 -2.2436 -2.1388 -2.1377
  144ACOH    H410029   4.978   1.370   0.489  1.4381 -0.9448 -3.4063
  144ACOH    O210030   5.023   1.294   0.529  0.1903 -0.0130 -0.0999
  144ACOH    C210031   4.955   1.242   0.633 -0.3694  0.1198  0.1307
  144ACOH    O110032   4.833   1.263   0.644 -0.0672  0.4551 -0.4369
  144ACOH    C110033   5.016   1.127   0.704 -0.0441  0.5524  0.0821
  144ACOH    H110034   5.124   1.123   0.690 -0.3762 -2.5832 -2.1607
  144ACOH    H210035   4.971   1.034   0.667 -0.1104  1.4547 -2.1616
  144ACOH    H310036   4.995   1.143   0.810  2.0034 -2.4571  1.0129
  145ACOH    H410037   3.748   5.249   2.306 -0.3083 -0.8875  2.1421
  145ACOH    O210038   3.690   5.325   2.324 -0.1090 -0.1600 -0.1378
  145ACOH    C210039   3.731   5.433   2.257  0.4122 -0.3372 -0.4334
  145ACOH    O110040   3.823   5.425   2.175 -0.5089 -0.4462 -0.9201
  145ACOH    C110041   3.644   5.547   2.279  0.2067 -0.1260  0.1230
  145ACOH    H110042   3.544   5.504   2.279  1.9473 -4.4612 -0.3961
  145ACOH    H210043   3.663   5.629   2.211  0.5449 -0.0828  0.2673
  145ACOH    H310044   3.657   5.594   2.377 -0.2799 -0.7157  0.4737
  146ACOH    H410045   5.110   2.985   1.059  0.7882 -0.9739  0.1633
  146ACOH    O210046   5.163   3.028   0.989  0.2478 -0.1452  0.2598
  146ACOH    C210047   5.280   3.059   1.039  0.5430  0.4406 -0.2245
  146ACOH    O110048   5.332   2.992   1.126 -0.2061 -0.4195 -0.4243
  146ACOH    C110049   5.358   3.157   0.953 -0.3611 -0.7885  0.3317
  146ACOH    H110050   5.431   3.106   0.890 -1.8268 -0.9588 -1.2588
  146ACOH    H210051   5.413   3.231   1.011 -1.1181  0.3627 -0.4069
  146ACOH    H310052   5.290   3.202   0.881 -2.3112  0.4640  2.8964
  147ACOH    H410053  10.106   1.249   1.789 -0.0842 -0.0525  0.7103
  147ACOH    O210054  10.034   1.306   1.757 -0.4561 -0.7377  0.3362
  147ACOH    C210055  10.025   1.422   1.825 -0.2720 -0.2407 -0.2156
  147ACOH    O110056  10.045   1.431   1.946 -0.3094 -0.8219  0.1468
  147ACOH    C110057   9.935   1.519   1.755 -0.5335  0.0955 -0.0514
  147ACOH    H110058   9.865   1.463   1.693  0.2892  1.4385 -2.2442
  147ACOH    H210059   9.991   1.589   1.693 -0.4343 -0.2264 -0.3245
  147ACOH    H310060   9.869   1.563   1.829 -2.7367 -1.1106 -1.2619
  148ACOH    H410061   3.406   2.519   0.568  2.2687 -1.1326 -0.0504
  148ACOH    O210062   3.356   2.437   0.575  0.1389  0.1558  0.2898
  148ACOH    C210063   3.402   2.368   0.678  0.5449  0.3228 -0.0660
  148ACOH    O110064   3.511   2.381   0.734  0.1287 -0.3306 -0.0390
  148ACOH    C110065   3.306   2.256   0.706  0.3371 -0.3989 -0.1948
  148ACOH    H110066   3.360   2.185   0.770 -0.6092 -1.1350 -0.2034
  148ACOH    H210067   3.277   2.217   0.608  1.8412  0.1409 -0.8711
  148ACOH    H310068   3.224   2.301   0.761  1.5791 -0.2151  1.5351
  149ACOH    H410069   4.139   9.379   0.772 -0.9649 -3.4448  1.2605
  149ACOH    O210070   4.210   9.343   0.716 -0.0796  0.2001 -0.0999
  149ACOH    C210071   4.225   9.206   0.732 -0.5323  0.3274 -0.6113
  149ACOH    O110072   4.169   9.139   0.814 -0.1241  0.1656 -0.2691
  149ACOH    C110073   4.328   9.152   0.638 -0.6772 -0.0531 -0.8341
  149ACOH    H110074   4.355   9.050   0.663 -2.2476 -0.2535  0.1339
  149ACOH    H210075   4.419   9.213   0.633 -0.4543 -0.4110 -1.1429
  149ACOH    H310076   4.278   9.154   0.541 -3.2609 -1.0890  0.4511
  150ACOH    H410077   9.887   5.880   0.462  1.2812  0.7102  0.4858
  150ACOH    O210078   9.846   5.919   0.541 -0.0810  0.4720 -0.0895
  150ACOH    C210079   9.765   5.835   0.609 -0.1518 -0.4431  0.5210
  150ACOH    O110080   9.690   5.746   0.565 -0.1995 -0.0446  0.2824
  150ACOH    C110081   9.743   5.895   0.743 -1.0336 -0.0755 -0.1830
  150ACOH    H110082   9.686   5.824   0.803 -0.7764  1.5071  1.9873
  150ACOH    H210083   9.690   5.990   0.741 -0.3445  0.3146  0.0634
  150ACOH    H310084   9.837   5.908   0.796 -0.4797  0.8551 -1.3716
  151ACOH    H410085   4.494   8.812   0.585 -0.6991  0.4143  0.2811
  151ACOH    O210086   4.500   8.886   0.522  0.1900  0.0463 -0.0639
  151ACOH    C210087   4.392   8.861   0.447 -0.3702  0.1132  0.2509
  151ACOH    O110088   4.295   8.817   0.504  0.1834  0.1098 -0.0373
  151ACOH    C110089   4.390   8.946   0.321 -0.0333 -0.1457 -0.5625
  151ACOH    H110090   4.481   8.917   0.268  0.8659  1.3099  0.1628
  151ACOH    H210091   4.381   9.050   0.351  0.4273  0.8706 -3.6944
  151ACOH    H310092   4.305   8.907   0.264 -0.6153  1.4315 -0.7888
  152ACOH    H410093   5.022   1.572   2.077 -1.6705  1.9213 -1.3696
  152ACOH    O210094   5.079   1.645   2.104 -0.1818  0.3182 -0.0433
  152ACOH    C210095   5.118   1.698   1.985  1.3846  0.2531  0.0179
  152ACOH    O110096   5.091   1.658   1.880 -0.1389  0.2152  0.4141
  152ACOH    C110097   5.229   1.795   2.002 -0.0989  0.2417 -0.1449
  152ACOH    H110098   5.326   1.748   1.985  0.9824  1.8474  1.3748
  152ACOH    H210099   5.230   1.835   2.103 -0.1870 -0.4033  0.1124
  152ACOH    H310100   5.225   1.875   1.928  1.7068  0.1816 -0.3415
  153ACOH    H410101   3.651   7.830   0.715  2.0023 -0.1591 -2.3095
  153ACOH    O210102   3.685   7.749   0.756 -0.3640  0.1169  0.3242
  153ACOH    C210103   3.809   7.794   0.795  0.6806  0.6502  0.1565
  153ACOH    O110104   3.863   7.893   0.760 -0.5214 -0.4068 -0.0162
  153ACOH    C110105   3.875   7.714   0.897 -0.3727 -0.5991  0.9527
  153ACOH    H110106   3.973   7.756   0.917 -0.5310  0.7432 -0.9807
  153ACOH    H210107   3.882   7.609   0.868 -0.8950 -0.6680  1.0605
  153ACOH    H310108   3.814   7.714   0.988 -0.4917 -2.0570  0.8865
  154ACOH    H410109   9.940   5.050   1.460  1.7891  0.8532  0.1191
  154ACOH    O210110   9.967   5.038   1.367  0.7064  0.0496 -0.0987
  154ACOH    C210111  10.043   5.143   1.331 -0.2595 -0.3798 -0.5154
  154ACOH    O110112  10.056   5.245   1.388  0.4077 -0.5854  0.0434
  154ACOH    C110113  10.106   5.140   1.198  0.0702 -0.4548 -0.1666
  154ACOH    H110114  10.050   5.202   1.128  0.7976 -1.5919 -1.7991
  154ACOH    H210115  10.113   5.043   1.148  2.3000 -0.8720  0.8880
  154ACOH    H310116  10.203   5.189   1.208 -0.7578  1.8838 -2.8315
  157ACOH    H410117   9.285   3.473   0.625  0.2598 -0.0783 -0.6869
  157ACOH    O210118   9.346   3.399   0.606  0.5140  0.0022 -0.1940
  157ACOH    C210119   9.279   3.286   0.652 -0.6094 -0.9582 -1.0345
  157ACOH    O110120   9.189   3.283   0.735  0.3397  0.0548 -0.0349
  157ACOH    C110121   9.357   3.170   0.619  0.4762  0.2861  0.0139
  157ACOH    H110122   9.446   3.159   0.682  0.1187  0.8512  0.6340
  157ACOH    H210123   9.391   3.188   0.517  0.7964 -0.6991 -0.0619
  157ACOH    H310124   9.301   3.077   0.626  2.0525 -0.7640 -1.0704
  159ACOH    H410125   9.005   4.885   0.363 -0.4175 -0.1149  0.0671
  159ACOH    O210126   8.926   4.929   0.326 -0.3605  0.4104  0.5685
  159ACOH    C210127   8.848   4.952   0.434 -0.3470  0.4396  0.2553
  159ACOH    O110128   8.890   4.954   0.547  0.6889 -0.0044 -0.4159
  159ACOH    C110129   8.726   5.020   0.385 -0.5112  0.4108  0.1478
  159ACOH    H110130   8.744   5.127   0.387 -0.0452  0.3347  0.0944
  159ACOH    H210131   8.647   5.001   0.458 -0.8860  0.2223 -0.3085
  159ACOH    H310132   8.696   4.982   0.288  0.8744 -2.5792  0.8082
  161ACOH    H410133   4.621   4.712   0.396 -1.5890  0.7750  1.3666
  161ACOH    O210134   4.678   4.765   0.454  0.2907  0.3103 -0.0274
  161ACOH    C210135   4.638   4.892   0.462 -0.5749 -0.4732 -0.8482
  161ACOH    O110136   4.535   4.943   0.426 -0.0110  0.1865 -0.4631
  161ACOH    C110137   4.723   4.963   0.564 -0.0262 -0.6629  0.4511
  161ACOH    H110138   4.766   5.057   0.530 -2.2955 -0.2936 -1.4990
  161ACOH    H210139   4.811   4.903   0.590  0.2644 -1.8674 -3.0399
  161ACOH    H310140   4.661   4.993   0.649 -0.0101 -2.1275  0.9989
  162ACOH    H410141   1.069   1.194   2.281 -2.9109 -0.9109  0.3462
  162ACOH    O210142   1.077   1.287   2.307 -0.5953 -0.9643 -0.1155
  162ACOH    C210143   1.157   1.341   2.215  0.1482  0.0180  0.0045
  162ACOH    O110144   1.225   1.273   2.141  0.8369 -0.0464 -0.1430
  162ACOH    C110145   1.183   1.487   2.228 -0.5315  0.9056  0.7312
  162ACOH    H110146   1.250   1.520   2.148  1.2159 -0.5683  1.5385
  162ACOH    H210147   1.232   1.501   2.325 -0.2397  1.0294  0.5660
  162ACOH    H310148   1.091   1.542   2.211 -0.8840  0.4414  1.1035
  163ACOH    H410149   2.800   2.302   2.976 -1.2699 -0.1020  2.1593
  163ACOH    O210150   2.764   2.373   2.920  0.4029 -0.4279  0.6330
  163ACOH    C210151   2.852   2.466   2.867  0.1151 -0.7608 -0.6595
  163ACOH    O110152   2.968   2.477   2.904 -0.0662 -0.1395  0.4450
  163ACOH    C110153   2.799   2.545   2.755  0.0521 -0.3894  0.5312
  163ACOH    H110154   2.772   2.472   2.679  3.6081  0.6716 -1.8858
  163ACOH    H210155   2.866   2.621   2.714  0.6592 -1.5830 -0.7407
  163ACOH    H310156   2.708   2.593   2.791  0.5421  0.7026  0.3371
  164ACOH    H410157   0.561   8.815   2.124 -1.1445  0.6766 -0.6686
  164ACOH    O210158   0.481   8.763   2.146 -0.2088 -0.5210 -0.0153
  164ACOH    C210159   0.507   8.686   2.261  0.1032 -0.1142 -0.3279
  164ACOH    O110160   0.614   8.653   2.301  0.0690  0.2202 -0.1308
  164ACOH    C110161   0.383   8.653   2.338 -0.7246  0.4380  0.4697
  164ACOH    H110162   0.335   8.742   2.378  0.5832  0.6545  1.5903
  164ACOH    H210163   0.409   8.590   2.423  1.7661  1.2096  0.3297
  164ACOH    H310164   0.318   8.602   2.267  1.5913 -0.1175 -1.3424
  165ACOH    H410165   8.793   2.984   2.375  0.7612 -0.8436  0.8848
  165ACOH    O210166   8.832   3.070   2.396 -0.4239 -0.1005  0.0907
  165ACOH    C210167   8.815   3.151   2.293 -0.4741  0.0205 -0.5354
  165ACOH    O110168   8.743   3.147   2.196  0.2398  0.6233 -0.3380
  165ACOH    C110169   8.886   3.283   2.329 -0.4672  1.1065 -0.3401
  165ACOH    H110170   8.854   3.351   2.250 -2.4637 -0.1143 -0.5998
  165ACOH    H210171   8.993   3.262   2.320 -0.6053  0.0186  0.5064
  165ACOH    H310172   8.857   3.323   2.426 -0.4989  0.3759 -0.0459
  166ACOH    H410173   4.240   8.382   0.819 -0.3092 -0.9251 -1.0329
  166ACOH    O210174   4.257   8.310   0.881  0.3465 -0.0251 -0.1576
  166ACOH    C210175   4.193   8.194   0.846 -0.2524 -0.3764  0.0433
  166ACOH    O110176   4.174   8.156   0.735 -0.3873  0.1555  0.0343
  166ACOH    C110177   4.179   8.109   0.973 -0.1233 -0.1362  0.7613
  166ACOH    H110178   4.248   8.025   0.978 -1.3798 -1.1216  1.9334
  166ACOH    H210179   4.078   8.068   0.985  0.4314 -2.0513 -0.7828
  166ACOH    H310180   4.197   8.163   1.066  0.1935  1.0720  0.0147
  167ACOH    H410181   5.413   2.818   1.506 -0.1206 -1.9596  0.3079
  167ACOH    O210182   5.489   2.829   1.566 -0.2846  0.0332  0.1605
  167ACOH    C210183   5.488   2.718   1.636  0.3956  0.1679  0.0185
  167ACOH    O110184   5.417   2.616   1.623 -0.3673 -0.7738  0.4400
  167ACOH    C110185   5.572   2.734   1.758 -0.0019 -0.4343 -0.0559
  167ACOH    H110186   5.611   2.634   1.776 -1.9805 -1.3356 -0.6397
  167ACOH    H210187   5.536   2.767   1.855  1.2884  1.1512 -0.0938
  167ACOH    H310188   5.653   2.802   1.729 -1.1673  1.6347  1.4203
  168ACOH    H410189  10.414   9.298   1.874 -0.4107 -0.1297  0.7823
  168ACOH    O210190  10.375   9.210   1.857 -0.2021 -0.1061  0.1693
  168ACOH    C210191  10.252   9.230   1.805  0.4907  0.9335 -0.9852
  168ACOH    O110192  10.201   9.334   1.778  0.3396  0.0131  0.4599
  168ACOH    C110193  10.196   9.099   1.757  0.6290  0.4975 -0.0302
  168ACOH    H110194  10.159   9.115   1.656 -1.3121 -0.4362  0.5091
  168ACOH    H210195  10.116   9.065   1.823  1.6775 -3.3414 -0.6451
  168ACOH    H310196  10.276   9.026   1.755 -0.3168 -0.5889  1.3101
  170ACOH    H410197   4.690   0.831   1.401 -0.9644 -0.0355  1.5245
  170ACOH    O210198   4.679   0.928   1.408 -0.2743  0.2001 -0.2285
  170ACOH    C210199   4.633   0.973   1.289 -0.7444 -0.1337 -0.5901
  170ACOH    O110200   4.591   0.902   1.202  0.3139 -0.7994 -0.0989
  170ACOH    C110201   4.618   1.121   1.299 -0.5202  0.1626 -0.0556
  170ACOH    H110202   4.542   1.147   1.373  1.1010 -0.0134  1.7076
  170ACOH    H210203   4.591   1.174   1.207 -1.3095 -1.9228 -1.0726
  170ACOH    H310204   4.714   1.154   1.338 -0.8016 -0.8681  1.5435
  172ACOH    H410205   8.243   2.168   0.889  1.0559 -1.3787 -1.4745
  172ACOH    O210206   8.239   2.226   0.811  0.6921  0.5060 -0.0781
  172ACOH    C210207   8.303   2.336   0.850 -0.3777 -0.2003  0.9091
  172ACOH    O110208   8.343   2.372   0.959  0.2356  0.5440 -0.5869
  172ACOH    C110209   8.318   2.426   0.732 -0.1975 -0.4565  0.0220
  172ACOH    H110210   8.340   2.529   0.760 -3.3297  0.6967 -1.4856
  172ACOH    H210211   8.228   2.411   0.672 -0.7869 -0.5686  0.9150
  172ACOH    H310212   8.405   2.386   0.681 -0.0194 -0.5745  0.4184
  173ACOH    H410213   3.507   9.822   0.862  1.0450 -2.3227  0.6957
  173ACOH    O210214   3.554   9.810   0.778 -0.0051 -0.0606 -0.2656
  173ACOH    C210215   3.679   9.870   0.779  0.1516  0.6451  0.1157
  173ACOH    O110216   3.744   9.901   0.881  0.0183 -0.0713 -0.0955
  173ACOH    C110217   3.725   9.882   0.637 -0.4425  0.0226  0.1821
  173ACOH    H110218   3.832   9.862   0.638 -0.2571  0.9899  0.7032
  173ACOH    H210219   3.713   9.977   0.584  0.7254  0.6039  0.9628
  173ACOH    H310220   3.678   9.806   0.574  0.7345  0.1640 -0.8986
  174ACOH    H410221   1.320   2.835   1.864  0.1463  1.1110 -0.0488
  174ACOH    O210222   1.279   2.838   1.775  0.2262 -0.6676 -0.1514
  174ACOH    C210223   1.294   2.962   1.715 -0.2723 -0.1068  0.0303
  174ACOH    O110224   1.332   3.063   1.773 -0.3256 -0.5360 -0.5006
  174ACOH    C110225   1.267   2.944   1.569  0.5991 -0.9032 -0.2794
  174ACOH    H110226   1.334   3.016   1.521 -0.6117  0.7810  0.4885
  174ACOH    H210227   1.167   2.979   1.543  1.4188  1.2693 -0.6531
  174ACOH    H310228   1.298   2.843   1.542  0.8868 -1.8485  3.4291
  175ACOH    H410229   5.082   2.362   1.141  1.8352 -0.0543  1.5480
  175ACOH    O210230   5.144   2.405   1.079 -0.1839  0.5703 -0.0683
  175ACOH    C210231   5.263   2.367   1.112 -0.3591  0.5958  0.4288
  175ACOH    O110232   5.287   2.347   1.225 -0.3772 -0.1240  0.2732
  175ACOH    C110233   5.362   2.392   1.009 -0.0497  0.0013 -0.6697
  175ACOH    H110234   5.322   2.358   0.913 -1.5562 -1.6066  0.4841
  175ACOH    H210235   5.458   2.347   1.032  0.5382  2.5424  2.1388
  175ACOH    H310236   5.371   2.499   0.991 -0.6498  0.4848  1.7041
  176ACOH    H410237   4.600   1.349   2.740  1.6901 -3.0496  1.4149
  176ACOH    O210238   4.517   1.314   2.775 -0.2737  0.0859  0.0173
  176ACOH    C210239   4.471   1.417   2.851 -0.0898 -0.2413 -0.3104
  176ACOH    O110240   4.498   1.530   2.838 -0.3717  0.2272  0.1595
  176ACOH    C110241   4.368   1.370   2.943 -0.5910  0.3160 -0.6158
  176ACOH    H110242   4.281   1.337   2.887  0.8995 -0.1342 -2.7319
  176ACOH    H210243   4.334   1.442   3.018 -1.2620 -0.5817 -0.0469
  176ACOH    H310244   4.407   1.283   2.997 -0.1039 -0.1203 -1.6614
  177ACOH    H410245   5.258   3.261   1.539 -0.3734  1.4676 -0.0910
  177ACOH    O210246   5.315   3.280   1.616  0.0880 -0.0241 -0.0484
  177ACOH    C210247   5.348   3.157   1.659 -0.4044  0.4400 -0.0620
  177ACOH    O110248   5.276   3.061   1.669  0.0761 -0.2569 -0.9475
  177ACOH    C110249   5.481   3.154   1.723  0.4609  0.1479  0.5018
  177ACOH    H110250   5.551   3.219   1.671 -0.5708  1.6604  0.9383
  177ACOH    H210251   5.523   3.055   1.706 -0.4649 -0.3859  1.2532
  177ACOH    H310252   5.477   3.168   1.832 -0.7200 -1.6588  0.7160
  178ACOH    H410253   4.630   1.027   2.054  0.1769 -0.1519 -0.3354
  178ACOH    O210254   4.672   0.967   2.118  0.0262  0.3817  0.2630
  178ACOH    C210255   4.651   1.024   2.240 -0.2448 -0.3362 -0.3703
  178ACOH    O110256   4.605   1.134   2.269  0.1934  0.2593  0.1122
  178ACOH    C110257   4.698   0.938   2.353 -0.1157  0.1962  0.0669
  178ACOH    H110258   4.806   0.935   2.364 -0.1394 -1.3542 -0.0075
  178ACOH    H210259   4.664   0.835   2.346  0.6166 -0.1055  0.8022
  178ACOH    H310260   4.650   0.977   2.443 -0.0173 -0.1076  0.2521
  179ACOH    H410261   9.296   5.444   2.029  1.7942  4.6775 -2.4267
  179ACOH    O210262   9.235   5.494   2.085 -0.2750  0.0127 -0.2657
  179ACOH    C210263   9.175   5.593   2.009 -0.5237  0.1644 -0.7598
  179ACOH    O110264   9.238   5.650   1.925 -0.0739 -0.1007  0.0017
  179ACOH    C110265   9.048   5.646   2.070 -0.4212 -0.5158  0.2236
  179ACOH    H110266   9.052   5.655   2.179 -0.2511  0.5149  0.1395
  179ACOH    H210267   8.964   5.581   2.048 -2.0700  1.3734  0.7301
  179ACOH    H310268   9.031   5.744   2.025  0.5960 -0.4136  0.0544
  180ACOH    H410269   3.918   8.267   1.029  0.1782 -0.8211 -1.0417
  180ACOH    O210270   3.973   8.339   0.993 -0.1169 -0.0635  0.0371
  180ACOH    C210271   4.033   8.393   1.102  0.7062 -0.0355  0.2805
  180ACOH    O110272   4.045   8.349   1.214  0.4909 -0.6466 -0.1067
  180ACOH    C110273   4.103   8.520   1.068 -0.1338  0.1009 -0.3615
  180ACOH    H110274   4.187   8.510   0.999  1.1112  2.4391  0.7541
  180ACOH    H210275   4.150   8.568   1.154  2.3368  0.8809 -2.0808
  180ACOH    H310276   4.032   8.593   1.029  0.2907  1.4060  1.2368
  181ACOH    H410277   8.754   1.899   1.194 -0.2132  0.5765 -0.9549
  181ACOH    O210278   8.706   1.817   1.178  0.3840  0.0342 -0.0226
  181ACOH    C210279   8.782   1.706   1.152 -0.0554  0.1983 -0.6682
  181ACOH    O110280   8.899   1.683   1.160 -0.3755  0.4163 -0.2997
  181ACOH    C110281   8.688   1.592   1.116 -0.1451 -0.2478 -0.1744
  181ACOH    H110282   8.664   1.592   1.009 -0.8276 -3.2217 -0.0598
  181ACOH    H210283   8.591   1.604   1.164 -0.0356 -0.5905  0.1310
  181ACOH    H310284   8.725   1.495   1.145 -0.2427 -0.1258  0.3602
  182ACOH    H410285   0.375   2.552   1.568  0.6158  0.2678 -0.6101
  182ACOH    O210286   0.407   2.561   1.659 -0.7195 -0.0052 -0.0927
  182ACOH    C210287   0.534   2.538   1.671  0.4056 -0.4414 -0.3992
  182ACOH    O110288   0.605   2.497   1.584  1.1420  0.4455 -0.1730
  182ACOH    C110289   0.570   2.574   1.811  0.4382 -0.2509  0.3320
  182ACOH    H110290   0.671   2.539   1.834  0.3049 -0.1280  1.1048
  182ACOH    H210291   0.495   2.528   1.875  0.9154 -1.4818  0.0218
  182ACOH    H310292   0.580   2.682   1.814 -1.4773 -0.0500  0.0543
  183ACOH    H410293   3.957   9.347   2.917 -0.1743  2.5857 -2.5209
  183ACOH    O210294   4.054   9.356   2.928 -0.1521  0.3057 -0.3800
  183ACOH    C210295   4.116   9.288   2.836 -0.6153 -0.4258 -0.0916
  183ACOH    O110296   4.070   9.183   2.800  0.0203  0.1961 -0.1979
  183ACOH    C110297   4.264   9.306   2.839 -0.1988 -0.1677  0.0003
  183ACOH    H110298   4.285   9.412   2.831 -2.8985  0.4820  1.1843
  183ACOH    H210299   4.303   9.252   2.752  1.4118  1.3594 -0.2453
  183ACOH    H310300   4.311   9.263   2.927 -0.3461 -2.4082 -0.9577
  185ACOH    H410301   4.347   5.513   1.471  0.7385  3.3431 -1.1429
  185ACOH    O210302   4.259   5.523   1.512  0.4472  0.3391 -0.8888
  185ACOH    C210303   4.256   5.476   1.635  0.4725 -0.0768  0.4858
  185ACOH    O110304   4.317   5.376   1.666  0.7752 -0.2261 -0.1750
  185ACOH    C110305   4.128   5.506   1.687 -0.2339  0.1459  0.4730
  185ACOH    H110306   4.124   5.505   1.796 -0.5097  1.8959  0.4988
  185ACOH    H210307   4.054   5.436   1.650  0.4163 -0.6163  0.6083
  185ACOH    H310308   4.096   5.608   1.664 -1.8222 -0.5600 -0.4980
  186ACOH    H410309   3.326   7.554   1.966 -0.7394  0.3079 -0.2828
  186ACOH    O210310   3.251   7.494   1.975 -0.2754 -0.2677 -0.2632
  186ACOH    C210311   3.236   7.471   2.108 -0.5931 -0.0102 -0.2336
  186ACOH    O110312   3.305   7.533   2.189  0.8518 -0.1911 -0.7572
  186ACOH    C110313   3.120   7.380   2.142  0.5109 -0.5961  0.7039
  186ACOH    H110314   3.098   7.322   2.053 -2.2924  1.8741 -0.3063
  186ACOH    H210315   3.038   7.443   2.177  0.8533 -0.2379  0.8666
  186ACOH    H310316   3.143   7.322   2.231  1.5647 -1.6223 -0.2318
  188ACOH    H410317   4.983   1.784   1.036  0.4402  1.2243  1.0694
  188ACOH    O210318   5.036   1.735   1.100  0.1342 -0.5720 -0.0207
  188ACOH    C210319   5.001   1.601   1.087 -0.2175 -0.6713  0.1975
  188ACOH    O110320   4.922   1.558   1.006 -0.4182  0.0344 -0.3028
  188ACOH    C110321   5.063   1.512   1.185  0.1575  0.3343  0.2530
  188ACOH    H110322   4.986   1.503   1.262 -0.3155  1.2719 -0.1146
  188ACOH    H210323   5.151   1.564   1.224 -0.3461  0.6874  0.9361
  188ACOH    H310324   5.076   1.412   1.144  0.2468  0.2461  0.4905
  189ACOH    H410325   8.688   2.933   0.395 -1.6743  0.0181  0.3107
  189ACOH    O210326   8.693   2.973   0.483 -0.4974  0.2795  0.1224
  189ACOH    C210327   8.826   2.987   0.511  0.1751  0.2049  0.3422
  189ACOH    O110328   8.923   2.962   0.438  0.1485 -0.0144 -0.4229
  189ACOH    C110329   8.841   3.069   0.631  0.9800  0.1213 -0.8171
  189ACOH    H110330   8.942   3.111   0.637  0.4778  1.2370 -0.0247
  189ACOH    H210331   8.830   3.008   0.720 -2.0317  0.7420 -0.7056
  189ACOH    H310332   8.772   3.154   0.631 -0.2685 -0.8750  0.7019
  190ACOH    H410333   5.479   3.503   0.836 -1.0813 -0.1959 -1.2387
  190ACOH    O210334   5.575   3.496   0.822 -0.8648 -0.1604  0.2038
  190ACOH    C210335   5.587   3.383   0.754  0.7086 -0.1180  0.3135
  190ACOH    O110336   5.511   3.313   0.688  0.8003 -0.3259  1.0561
  190ACOH    C110337   5.723   3.336   0.760 -0.2048 -0.7105 -0.3705
  190ACOH    H110338   5.797   3.398   0.709 -1.0513  0.0973 -0.6416
  190ACOH    H210339   5.735   3.235   0.722 -0.4420 -1.8978  2.6140
  190ACOH    H310340   5.752   3.339   0.865  0.1210  0.3058 -0.4806
  191ACOH    H410341   2.825   2.900   1.983 -1.9632 -1.6352 -2.0271
  191ACOH    O210342   2.857   2.952   1.907  0.2785 -0.3194 -0.2398
  191ACOH    C210343   2.990   2.933   1.905 -0.3553  0.1382  0.0942
  191ACOH    O110344   3.048   2.836   1.948 -0.3530  0.1045 -0.6551
  191ACOH    C110345   3.054   3.032   1.809  0.0005  0.7400 -0.7909
  191ACOH    H110346   3.083   3.117   1.870 -1.3724  0.3259  0.4622
  191ACOH    H210347   2.975   3.049   1.735 -1.5945  1.4454  1.0399
  191ACOH    H310348   3.140   2.993   1.755  0.1933 -1.1182  0.8230
  192ACOH    H410349   3.233   3.214   2.522 -2.0460  0.0985  0.0806
  192ACOH    O210350   3.202   3.304   2.541 -0.4216  0.6199  0.3335
  192ACOH    C210351   3.258   3.371   2.435  0.0986 -0.3612 -0.3783
  192ACOH    O110352   3.313   3.331   2.335  0.7379 -0.4017  0.0275
  192ACOH    C110353   3.236   3.519   2.463 -0.5369  0.5904 -0.4876
  192ACOH    H110354   3.282   3.550   2.557 -0.3156 -0.9875 -0.0698
  192ACOH    H210355   3.132   3.549   2.476 -0.1506  1.9086 -0.3153
  192ACOH    H310356   3.277   3.583   2.384 -0.3387 -0.7010 -1.4585
  193ACOH    H410357   8.793   1.777   0.783  0.3909 -0.4364 -0.5175
  193ACOH    O210358   8.791   1.685   0.817 -0.1971 -0.2712 -0.0991
  193ACOH    C210359   8.842   1.612   0.723  0.8203  0.0765 -0.0234
  193ACOH    O110360   8.874   1.647   0.612  0.2517 -0.5316 -0.0591
  193ACOH    C110361   8.851   1.467   0.768 -0.3232  0.8605 -0.2153
  193ACOH    H110362   8.953   1.445   0.800 -0.2122  0.6729 -0.7083
  193ACOH    H210363   8.825   1.403   0.684 -0.5476  1.9031 -0.9457
  193ACOH    H310364   8.782   1.442   0.849  0.2344  1.9979  0.6185
  194ACOH    H410365   4.425   4.815   1.520  4.7656 -4.2101 -1.4660
  194ACOH    O210366   4.405   4.767   1.601  0.5249 -0.3317 -0.0102
  194ACOH    C210367   4.316   4.839   1.672 -0.0971  0.2400 -0.2835
  194ACOH    O110368   4.287   4.948   1.649 -0.1592  0.7073 -0.4547
  194ACOH    C110369   4.286   4.780   1.804  0.6803 -0.4129 -0.8055
  194ACOH    H110370   4.177   4.778   1.807  0.7003 -1.5399 -0.3094
  194ACOH    H210371   4.324   4.840   1.887 -0.3100  2.9369 -2.7006
  194ACOH    H310372   4.318   4.676   1.816 -1.7435 -0.9758  1.1926
  195ACOH    H410373   3.519   5.346   2.031 -0.4848 -0.9775 -2.8119
  195ACOH    O210374   3.512   5.442   2.015  0.1242 -0.3285  0.3042
  195ACOH    C210375   3.386   5.477   2.033  0.8018  0.7945 -0.3418
  195ACOH    O110376   3.302   5.401   2.076  0.7552 -0.3988 -0.0547
  195ACOH    C110377   3.364   5.612   1.977  0.6672  0.2968  0.0423
  195ACOH    H110378   3.360   5.610   1.868 -0.6575 -1.3155  0.1099
  195ACOH    H210379   3.444   5.677   2.013  0.2070  0.1837  1.2937
  195ACOH    H310380   3.270   5.652   2.015 -0.5121 -1.5962 -0.7802
  196ACOH    H410381   5.637   3.798   0.427  0.9122  0.5422 -3.7206
  196ACOH    O210382   5.713   3.853   0.454  0.2274  0.0807 -0.6665
  196ACOH    C210383   5.660   3.925   0.552 -1.1360 -0.7959  0.0603
  196ACOH    O110384   5.559   3.909   0.621  0.5913 -0.5218  0.5166
  196ACOH    C110385   5.758   4.030   0.595 -0.4812  0.3430  0.9407
  196ACOH    H110386   5.857   4.000   0.562 -0.1415  0.0466  2.2014
  196ACOH    H210387   5.754   4.039   0.704 -1.2197  0.4585  0.9087
  196ACOH    H310388   5.724   4.127   0.558 -2.4443 -1.0316 -1.0022
  197ACOH    H410389   8.413   1.904   0.561  0.3297 -2.0167 -0.8768
  197ACOH    O210390   8.321   1.875   0.559 -0.1992 -0.4335 -0.2949
  197ACOH    C210391   8.310   1.793   0.450 -0.5818  0.3323 -0.0996
  197ACOH    O110392   8.393   1.771   0.365 -0.0555  0.2316  0.5453
  197ACOH    C110393   8.174   1.736   0.456  0.2254  0.3675 -0.0637
  197ACOH    H110394   8.122   1.748   0.361 -0.4154 -0.9173  0.1188
  197ACOH    H210395   8.116   1.784   0.535  0.1088 -0.5019  0.3831
  197ACOH    H310396   8.185   1.630   0.479 -3.6978  0.3045  1.7924
  198ACOH    H410397   3.420   7.162   0.760  0.2174 -0.6531 -2.7170
  198ACOH    O210398   3.350   7.103   0.794  0.5313  0.6360  0.2551
  198ACOH    C210399   3.327   7.126   0.926  0.1052 -0.5012  0.4962
  198ACOH    O110400   3.391   7.195   1.003  0.3161  0.3519  0.2319
  198ACOH    C110401   3.215   7.039   0.966 -0.1852 -0.5983  0.2202
  198ACOH    H110402   3.220   6.948   0.907 -0.6537 -2.0747  2.3936
  198ACOH    H210403   3.124   7.088   0.933  0.4632 -0.6062 -1.6508
  198ACOH    H310404   3.215   7.003   1.069  1.0548 -0.0580  0.4258
  199ACOH    H410405   4.242   9.838   2.225 -0.4196  0.7440  1.4966
  199ACOH    O210406   4.320   9.891   2.247  0.4555  0.0322  0.1676
  199ACOH    C210407   4.302  10.013   2.186  0.1113  0.7346  0.0696
  199ACOH    O110408   4.212  10.039   2.106 -0.6833  0.1465  0.1045
  199ACOH    C110409   4.416  10.106   2.212 -0.5576 -0.4480 -0.2899
  199ACOH    H110410   4.510  10.062   2.179  0.2267  0.3087  0.9220
  199ACOH    H210411   4.411  10.118   2.320 -1.9093 -2.3250 -0.1036
  199ACOH    H310412   4.402  10.203   2.164  1.3476 -1.7679 -3.6960
  200ACOH    H410413   4.346  10.006   0.633  0.8367 -0.5821  1.3423
  200ACOH    O210414   4.377  10.095   0.659 -0.6289  0.4773 -0.3741
  200ACOH    C210415   4.405  10.175   0.554  0.0245 -0.2867 -0.5091
  200ACOH    O110416   4.378  10.157   0.440  0.3101  0.4444  0.0008
  200ACOH    C110417   4.448  10.305   0.607  0.2088  0.2509 -0.0937
  200ACOH    H110418   4.554  10.283   0.620  0.2450  0.5492  0.1159
  200ACOH    H210419   4.383  10.324   0.692  0.1947 -0.8531  0.1461
  200ACOH    H310420   4.437  10.391   0.540  2.9267  0.8918  0.2061
  202ACOH    H410421   5.256   3.298   1.972 -4.1731 -1.4056  2.0937
  202ACOH    O210422   5.266   3.205   1.947 -0.0117 -0.4992 -0.1449
  202ACOH    C210423   5.190   3.133   2.030  0.6015  0.5565 -0.4228
  202ACOH    O110424   5.113   3.172   2.117  0.3342 -0.4650 -0.2222
  202ACOH    C110425   5.207   2.985   2.003  0.0334 -0.1623 -0.8776
  202ACOH    H110426   5.198   2.957   1.898  1.4531 -2.0153 -0.5273
  202ACOH    H210427   5.128   2.931   2.055  0.4563 -0.3725 -0.4529
  202ACOH    H310428   5.306   2.965   2.044  0.1499  2.0554  0.0023
  203ACOH    H410429   9.250   3.656   0.927 -1.7189  0.5806 -0.6318
  203ACOH    O210430   9.268   3.748   0.900 -0.1178  0.4859  0.0652
  203ACOH    C210431   9.262   3.753   0.765  0.4774 -0.3491  0.0722
  203ACOH    O110432   9.256   3.663   0.686  0.0953  0.5444  0.5771
  203ACOH    C110433   9.293   3.892   0.722 -0.0660 -0.0776  0.1065
  203ACOH    H110434   9.400   3.905   0.705 -0.4965  0.1525 -2.6664
  203ACOH    H210435   9.254   3.960   0.798 -4.0903 -1.3098 -0.7224
  203ACOH    H310436   9.242   3.911   0.627  2.4646 -1.5041 -1.5850
  204ACOH    H410437   3.866   8.233   2.394 -3.2143 -0.4579 -1.5341
  204ACOH    O210438   3.876   8.141   2.422 -0.0766  0.1620 -0.3300
  204ACOH    C210439   3.783   8.077   2.347  0.0027  0.1680 -0.1802
  204ACOH    O110440   3.700   8.119   2.268 -0.2146 -0.2085 -0.7362
  204ACOH    C110441   3.781   7.936   2.395 -0.5727 -0.2509 -0.0027
  204ACOH    H110442   3.714   7.876   2.333 -1.1412  1.5021 -1.1347
  204ACOH    H210443   3.745   7.931   2.498 -2.8301 -0.7713 -0.7737
  204ACOH    H310444   3.879   7.892   2.381 -0.0412  0.2171  2.0441
  205ACOH    H410445   3.990   5.398   2.048 -3.4127 -0.1654 -1.7807
  205ACOH    O210446   4.040   5.372   1.969 -0.3338 -0.3520  0.1258
  205ACOH    C210447   4.064   5.239   1.974  0.0956 -0.2822 -0.2880
  205ACOH    O110448   4.041   5.166   2.065  0.2789  0.4729  0.7025
  205ACOH    C110449   4.143   5.189   1.864  0.4678  0.4721  0.1883
  205ACOH    H110450   4.250   5.205   1.880  1.1359 -2.1096 -1.3614
  205ACOH    H210451   4.114   5.254   1.782 -0.8924 -1.2532 -0.7375
  205ACOH    H310452   4.130   5.085   1.833  2.7690  0.7757 -1.9636
  206ACOH    H410453   8.884   4.577   0.988 -1.2632  1.2879 -0.1397
  206ACOH    O210454   8.838   4.559   0.904 -0.3717 -1.0465 -0.1605
  206ACOH    C210455   8.859   4.678   0.839  0.9890 -0.8321 -0.5493
  206ACOH    O110456   8.922   4.774   0.882  0.3117  0.0603  0.2299
  206ACOH    C110457   8.796   4.674   0.704 -0.0148 -0.6958 -0.0693
  206ACOH    H110458   8.867   4.643   0.627  0.8595  1.7178 -0.2588
  206ACOH    H210459   8.762   4.777   0.693 -1.1098 -0.9125  1.1095
  206ACOH    H310460   8.710   4.607   0.704 -0.4694 -0.1231  0.8426
  207ACOH    H410461   0.441   4.737   0.546 -1.6667 -2.6302 -2.4088
  207ACOH    O210462   0.533   4.712   0.531 -0.4243  0.1574  0.1691
  207ACOH    C210463   0.518   4.646   0.417 -0.0691  0.7352  0.4117
  207ACOH    O110464   0.428   4.661   0.334  0.1981 -0.5022  0.3457
  207ACOH    C110465   0.630   4.548   0.390  0.3403 -0.4892  0.2092
  207ACOH    H110466   0.596   4.451   0.430 -1.9429 -0.0202 -0.4869
  207ACOH    H210467   0.716   4.583   0.446  0.1325  0.3232  0.0153
  207ACOH    H310468   0.653   4.536   0.284 -3.0633  2.1207 -0.9112
  208ACOH    H410469   4.652   1.253   1.603 -0.6702  1.7677 -1.1585
  208ACOH    O210470   4.742   1.251   1.565 -0.3808 -0.4634 -0.4028
  208ACOH    C210471   4.830   1.313   1.646  0.2226 -0.6440 -0.3723
  208ACOH    O110472   4.804   1.342   1.761 -0.0904  0.1606 -0.0581
  208ACOH    C110473   4.944   1.372   1.575 -1.2107 -0.1670  0.5109
  208ACOH    H110474   5.022   1.412   1.640  1.0817 -1.1526 -1.5561
  208ACOH    H210475   4.904   1.446   1.507  0.7959  0.2616 -0.2289
  208ACOH    H310476   4.996   1.295   1.518 -0.0466  0.6789  0.4093
  209ACOH    H410477   3.165   5.386   0.619 -0.1240  0.2320  0.0211
  209ACOH    O210478   3.203   5.475   0.626  0.3674  0.0160  0.1431
  209ACOH    C210479   3.305   5.476   0.539  0.3286 -0.3262 -0.1864
  209ACOH    O110480   3.355   5.374   0.494  0.0971 -0.7600  0.0324
  209ACOH    C110481   3.372   5.604   0.520 -0.1037 -0.5551 -0.6235
  209ACOH    H110482   3.309   5.683   0.559  0.2002 -0.0513 -1.1403
  209ACOH    H210483   3.378   5.625   0.413 -1.5328 -1.3940 -0.8903
  209ACOH    H310484   3.466   5.603   0.576 -1.5441  1.5736  1.9028
  210ACOH    H410485   1.803   2.020   1.848  0.6596 -0.4507 -2.0899
  210ACOH    O210486   1.840   2.110   1.845  0.2572 -0.1942  0.2726
  210ACOH    C210487   1.797   2.188   1.946 -0.4672  0.1060 -1.0114
  210ACOH    O110488   1.746   2.155   2.047 -0.0518  1.0202  0.2350
  210ACOH    C110489   1.852   2.324   1.920  0.0689  0.1224 -0.8630
  210ACOH    H110490   1.875   2.369   2.016 -0.2023  0.4512 -0.9517
  210ACOH    H210491   1.764   2.372   1.877 -0.5325 -0.4582 -0.3000
  210ACOH    H310492   1.944   2.325   1.862  0.3883 -2.1902 -0.4420
  211ACOH    H410493   1.022  10.192   2.190  1.0094  1.4056  1.3289
  211ACOH    O210494   0.950  10.209   2.253 -0.7314 -0.1646 -0.1735
  211ACOH    C210495   0.859  10.264   2.171  0.1818 -0.5332  0.1643
  211ACOH    O110496   0.876  10.294   2.054 -0.0195 -0.3500  0.2440
  211ACOH    C110497   0.753  10.335   2.244 -0.7386  0.1603 -0.3037
  211ACOH    H110498   0.733  10.288   2.341 -0.9966  2.0194  0.5588
  211ACOH    H210499   0.665  10.341   2.181  0.1988 -0.0707 -1.6419
  211ACOH    H310500   0.796  10.433   2.266  1.6440 -0.8483 -0.2454
  212ACOH    H410501   3.140   7.129   1.888 -1.1650  0.1483 -1.4934
  212ACOH    O210502   3.183   7.198   1.834 -0.2296  0.4603 -0.3631
  212ACOH    C210503   3.230   7.153   1.716 -0.4163  0.1879 -0.6797
  212ACOH    O110504   3.199   7.047   1.662 -0.0123  0.3794 -0.7468
  212ACOH    C110505   3.304   7.265   1.647  0.1212  0.2662  0.9555
  212ACOH    H110506   3.334   7.339   1.721 -2.1421  2.3377 -0.1255
  212ACOH    H210507   3.251   7.320   1.569 -0.2709 -0.4413  0.7227
  212ACOH    H310508   3.393   7.223   1.601  0.8807  1.0431  1.6917
  213ACOH    H410509   4.600   5.264   1.319  0.8023 -1.3568 -0.4605
  213ACOH    O210510   4.665   5.330   1.348 -0.5237 -0.2508  0.0958
  213ACOH    C210511   4.602   5.451   1.369 -0.4942 -0.1024  0.2688
  213ACOH    O110512   4.485   5.480   1.382  0.0017  0.0332 -0.0097
  213ACOH    C110513   4.711   5.555   1.374 -0.5522  0.0362 -0.5547
  213ACOH    H110514   4.669   5.656   1.377 -0.6082 -0.0245  1.1984
  213ACOH    H210515   4.782   5.555   1.292  0.1949 -2.8819  0.0600
  213ACOH    H310516   4.765   5.551   1.469 -2.6887  0.8388  0.7373
  214ACOH    H410517   8.944   2.230   0.766 -1.3771 -0.6216 -1.2567
  214ACOH    O210518   8.927   2.324   0.781 -0.8805 -0.7031 -0.1579
  214ACOH    C210519   8.796   2.347   0.793 -0.3890 -0.0019 -1.0924
  214ACOH    O110520   8.707   2.262   0.789  0.5887 -0.2725  0.0319
  214ACOH    C110521   8.786   2.490   0.830  0.1856 -0.4790  0.6020
  214ACOH    H110522   8.852   2.529   0.908  0.2689  0.9025 -0.1304
  214ACOH    H210523   8.684   2.509   0.864 -0.7292 -3.6291 -0.2893
  214ACOH    H310524   8.816   2.549   0.743  2.3909  0.0292  1.6532
  215ACOH    H410525   4.051   8.664   2.976  0.2250 -2.3815 -3.4304
  215ACOH    O210526   4.063   8.748   2.929  0.6554 -0.5339 -0.1669
  215ACOH    C210527   4.035   8.714   2.800 -0.0163  0.2978 -0.4319
  215ACOH    O110528   4.005   8.606   2.756 -0.2130  0.4865 -0.0777
  215ACOH    C110529   4.039   8.835   2.714  0.2086 -0.1777 -0.2139
  215ACOH    H110530   4.046   8.920   2.782  0.2076 -1.8643  1.9385
  215ACOH    H210531   3.963   8.841   2.636  0.9588  1.2403 -0.8629
  215ACOH    H310532   4.132   8.828   2.657  1.6654  1.5701  1.8643
  216ACOH    H410533   9.132   4.130   1.347 -1.1248  1.6630 -1.7201
  216ACOH    O210534   9.043   4.105   1.378  0.0678 -0.2934  0.2073
  216ACOH    C210535   8.945   4.177   1.320 -0.3411  0.2854 -0.5135
  216ACOH    O110536   8.949   4.271   1.239 -0.3492 -0.1996  0.1092
  216ACOH    C110537   8.814   4.121   1.360  0.0941 -0.4515 -0.1885
  216ACOH    H110538   8.742   4.142   1.281 -0.9104 -0.9627  0.5833
  216ACOH    H210539   8.765   4.154   1.451  1.1141  0.2754  0.0994
  216ACOH    H310540   8.814   4.012   1.366  0.9586 -0.2533  5.2118
  217ACOH    H410541   4.177   9.043   2.309  0.0479 -1.3374  1.0213
  217ACOH    O210542   4.255   9.068   2.362 -0.1193  0.5643  0.3935
  217ACOH    C210543   4.298   8.958   2.432  0.7650  0.4186 -0.0526
  217ACOH    O110544   4.267   8.846   2.393  0.2789 -0.3323  0.5768
  217ACOH    C110545   4.395   8.975   2.544 -0.5400 -0.0932  0.3435
  217ACOH    H110546   4.395   9.074   2.588  1.3478 -0.2622  0.7490
  217ACOH    H210547   4.496   8.955   2.508 -0.4588 -0.9304  1.0183
  217ACOH    H310548   4.377   8.899   2.621  0.7993 -0.4843  0.2857
  218ACOH    H410549   5.549   3.483   2.329 -0.2390 -0.7192  1.2723
  218ACOH    O210550   5.643   3.490   2.309 -0.6464  0.4025 -0.3507
  218ACOH    C210551   5.655   3.534   2.184 -1.1733  0.3794 -0.6109
  218ACOH    O110552   5.575   3.522   2.095  0.1478 -0.1553 -0.2932
  218ACOH    C110553   5.793   3.568   2.148 -0.0229 -0.3805  1.0464
  218ACOH    H110554   5.822   3.670   2.169 -1.4045  0.1511  0.4581
  218ACOH    H210555   5.801   3.546   2.041  0.7741 -0.9738  1.2216
  218ACOH    H310556   5.864   3.498   2.193  2.5011  2.6056  1.8433
  219ACOH    H410557   3.242   9.349   0.681  2.5222 -0.0139 -0.6475
  219ACOH    O210558   3.274   9.330   0.771 -0.3310  0.2358  0.4469
  219ACOH    C210559   3.389   9.403   0.789 -0.2426  0.5403 -0.0461
  219ACOH    O110560   3.447   9.461   0.699  0.9227 -0.0518  0.2716
  219ACOH    C110561   3.443   9.379   0.925  0.3252  0.5774 -0.1539
  219ACOH    H110562   3.397   9.452   0.992 -0.4392  0.3229 -0.3935
  219ACOH    H210563   3.550   9.387   0.944  0.4164 -3.7535  1.6420
  219ACOH    H310564   3.416   9.277   0.951 -0.0781  0.2932 -1.6580
  222ACOH    H410565   1.459  10.232   0.483  0.1881  0.9544 -0.0344
  222ACOH    O210566   1.419  10.228   0.394  0.4050 -0.1385 -0.1010
  222ACOH    C210567   1.289  10.212   0.410 -0.2647  0.8042 -0.6327
  222ACOH    O110568   1.233  10.180   0.518  0.3487 -0.1392  0.2844
  222ACOH    C110569   1.206  10.218   0.289  0.0738  0.2312 -0.4635
  222ACOH    H110570   1.117  10.155   0.295  0.0580  0.2785 -0.1952
  222ACOH    H210571   1.266  10.174   0.209 -0.2690 -1.1392  0.0068
  222ACOH    H310572   1.188  10.322   0.264  2.8014  1.0975  0.8715
  223ACOH    H410573   3.677   5.082   0.335  2.5331  1.0520 -0.3611
  223ACOH    O210574   3.643   5.173   0.341  0.3038  0.2740 -0.4671
  223ACOH    C210575   3.754   5.240   0.387 -0.0496 -0.0766  0.0570
  223ACOH    O110576   3.827   5.210   0.482  0.0774  0.0522 -0.8141
  223ACOH    C110577   3.755   5.375   0.340 -0.4896  0.0819 -0.0731
  223ACOH    H110578   3.746   5.384   0.232  1.4370 -1.2298 -0.3550
  223ACOH    H210579   3.848   5.413   0.383 -0.1680 -0.8415  0.0568
  223ACOH    H310580   3.670   5.426   0.385 -1.5138  0.3334 -2.2425
  225ACOH    H410581   5.139   4.335   0.521 -0.7644 -1.7272 -1.4089
  225ACOH    O210582   5.229   4.302   0.512 -0.1365 -0.2517 -0.7506
  225ACOH    C210583   5.275   4.264   0.635  0.4969 -0.0197 -0.1441
  225ACOH    O110584   5.213   4.253   0.737 -0.1662 -0.8314  0.1861
  225ACOH    C110585   5.416   4.227   0.630  0.2598 -0.2529  0.0231
  225ACOH    H110586   5.469   4.292   0.699 -1.6516 -1.1180  2.3754
  225ACOH    H210587   5.462   4.245   0.533  1.0461 -2.3528 -0.0385
  225ACOH    H310588   5.429   4.124   0.664  0.8691 -1.4762 -3.7163
  226ACOH    H410589   5.266   2.299   0.621 -0.3718 -0.3679  0.5432
  226ACOH    O210590   5.346   2.244   0.634  0.0726  0.0322 -0.4075
  226ACOH    C210591   5.338   2.125   0.573  0.2857  0.6320  0.5739
  226ACOH    O110592   5.249   2.089   0.496  0.3485 -0.0748  0.1277
  226ACOH    C110593   5.458   2.050   0.610  0.5383  0.6344 -0.0562
  226ACOH    H110594   5.436   2.015   0.711 -1.3039 -2.4227 -1.4250
  226ACOH    H210595   5.544   2.116   0.619 -0.6290  2.3186 -1.0510
  226ACOH    H310596   5.467   1.962   0.546 -2.9567 -1.0415  1.5824
  227ACOH    H410597   4.451  10.077   1.340 -0.3051 -1.9164  0.8161
  227ACOH    O210598   4.540  10.095   1.306 -0.6630 -1.1805  0.2556
  227ACOH    C210599   4.599  10.183   1.391 -0.4682  0.1363 -0.0010
  227ACOH    O110600   4.557  10.214   1.500  0.1062 -0.2821  0.0422
  227ACOH    C110601   4.723  10.242   1.334 -0.4910  0.2831  0.2204
  227ACOH    H110602   4.800  10.168   1.313 -0.5490  0.6343 -1.3219
  227ACOH    H210603   4.760  10.324   1.396  1.9117  1.4484 -2.6372
  227ACOH    H310604   4.691  10.284   1.238 -0.1360  0.1525  0.0436
  228ACOH    H410605   4.467   8.701   1.292 -0.4202 -0.3213  0.6356
  228ACOH    O210606   4.562   8.683   1.295 -0.2179  0.5466 -0.3477
  228ACOH    C210607   4.603   8.745   1.178 -0.5691 -0.0244  0.1981
  228ACOH    O110608   4.533   8.817   1.111 -0.4424  0.3522 -0.0004
  228ACOH    C110609   4.751   8.736   1.162  0.1633 -0.5788  0.4109
  228ACOH    H110610   4.775   8.630   1.166 -0.9729 -0.9646 -1.8240
  228ACOH    H210611   4.808   8.785   1.241  1.5881  0.9639 -1.5276
  228ACOH    H310612   4.790   8.772   1.067 -0.2078  0.2814  0.5760
  230SOL     OW10613   1.908   1.167   1.498 -0.2168  0.0936  0.1207
  230SOL    HW110614   2.000   1.206   1.490  0.0605 -0.5105  0.3173
  230SOL    HW210615   1.863   1.204   1.580  0.2090 -0.3324  0.5473
  231SOL     OW10616   9.283   5.087   0.908  0.4151  0.1559  0.1057
  231SOL    HW110617   9.197   5.072   0.858  1.6040  0.9682 -2.2610
  231SOL    HW210618   9.331   5.000   0.918 -0.2269 -0.1480  0.5814
  233SOL     OW10619   2.010   1.538   1.484 -0.6365  0.3630  0.1305
  233SOL    HW110620   2.091   1.590   1.513 -0.3663  0.2018 -0.3251
  233SOL    HW210621   1.995   1.462   1.547 -1.0085  0.9770  0.7732
  234SOL     OW10622   3.872   1.122   1.960  0.3054 -0.3505 -0.2234
  234SOL    HW110623   3.777   1.147   1.945 -0.0626 -0.8330  1.2395
  234SOL    HW210624   3.909   1.177   2.036  1.1010 -0.3904 -0.5737
  236SOL     OW10625   0.915   9.782   1.294 -0.1542 -0.0706 -0.1344
  236SOL    HW110626   0.962   9.826   1.371 -1.6632 -0.0865  0.8217
  236SOL    HW210627   0.897   9.849   1.223  0.5102  0.1283 -0.1187
  238SOL     OW10628   4.061   8.985   0.504 -0.1006 -0.9868 -0.1775
  238SOL    HW110629   4.135   8.935   0.459  0.8791 -0.0477  0.3793
  238SOL    HW210630   4.050   8.951   0.597  0.3072 -0.4463  0.0724
  239SOL     OW10631   9.719   1.805   0.510 -0.5730  0.3706 -0.2276
  239SOL    HW110632   9.648   1.870   0.483  1.5531  2.9180  0.0473
  239SOL    HW210633   9.726   1.802   0.610 -0.5840 -0.2121 -0.2427
  241SOL     OW10634   9.966   4.768   1.571  0.1178  0.0496  0.0479
  241SOL    HW110635   9.942   4.865   1.562  1.8219  0.4404 -0.3835
  241SOL    HW210636  10.065   4.758   1.571 -0.0459 -1.8117 -1.2158
  242SOL     OW10637   0.719   5.179   2.326 -0.3805  0.2095 -0.1336
  242SOL    HW110638   0.667   5.126   2.259 -0.9981  0.3801  0.2096
  242SOL    HW210639   0.691   5.152   2.418  1.4679 -1.0374  0.0835
  243SOL     OW10640   1.400   3.657   1.069 -0.3927 -0.0941  0.1403
  243SOL    HW110641   1.368   3.589   1.002 -0.0405 -0.3408  0.2190
  243SOL    HW210642   1.447   3.610   1.144  1.0163  0.3240 -0.4597
  244SOL     OW10643   3.022   9.582   1.737  0.2302 -0.4901 -0.5973
  244SOL    HW110644   3.029   9.509   1.805  1.0198  0.9085  0.8464
  244SOL    HW210645   3.103   9.581   1.679 -0.5367 -1.8144 -1.6785
  245SOL     OW10646   3.288   9.970   0.678  0.2496  0.1430 -0.6648
  245SOL    HW110647   3.374   9.984   0.628  1.0297 -1.3913  0.1900
  245SOL    HW210648   3.267  10.051   0.732  0.2000  1.2252 -2.2872
  247SOL     OW10649   3.237   4.316   1.707  0.5634 -0.2564  0.4230
  247SOL    HW110650   3.231   4.384   1.780 -0.6309 -0.6051  0.6623
  247SOL    HW210651   3.216   4.225   1.744  1.0252 -0.5912 -0.1275
  248SOL     OW10652  10.060   4.625   0.639 -0.9717  0.7894  0.2239
  248SOL    HW110653  10.059   4.527   0.660 -1.0807  0.8332  0.4258
  248SOL    HW210654  10.027   4.639   0.546 -2.2718  0.7386  0.6655
  249SOL     OW10655   9.544   1.533   0.694  0.3190 -0.4744  0.2148
  249SOL    HW110656   9.532   1.550   0.596  0.3658 -0.5077  0.2030
  249SOL    HW210657   9.524   1.437   0.714  0.2144 -0.4445  0.2535
  250SOL     OW10658   0.462   4.363   0.682 -0.4382  0.5791  0.6474
  250SOL    HW110659   0.463   4.312   0.768  1.1857 -0.8664 -0.1966
  250SOL    HW210660   0.516   4.447   0.692 -1.1945  0.9795  1.3661
  251SOL     OW10661   9.680   4.354   0.643  0.4441 -0.3902  0.0685
  251SOL    HW110662   9.687   4.453   0.630 -1.0600 -0.0096  1.8255
  251SOL    HW210663   9.606   4.318   0.586 -1.1364  0.0479  1.7917
  252SOL     OW10664  10.098   1.095   2.079 -0.0486 -0.1065  0.3264
  252SOL    HW110665  10.187   1.142   2.074  0.7923 -1.6180  0.7708
  252SOL    HW210666  10.093   1.043   2.165 -0.2596 -2.1933 -0.9152
  254SOL     OW10667   1.878   0.584   2.124 -0.0881  0.2379  0.0895
  254SOL    HW110668   1.885   0.581   2.223  0.3296 -1.8672  0.0011
  254SOL    HW210669   1.914   0.500   2.084  2.5788  2.2472 -2.0198
  255SOL     OW10670   4.038   8.265   1.741  0.4850  0.1411  0.4520
  255SOL    HW110671   3.970   8.282   1.811 -0.0112  1.0719 -0.2352
  255SOL    HW210672   3.996   8.275   1.650  0.7645 -2.4766  0.0082
  257SOL     OW10673   1.000   5.090   0.834  0.4771  0.1599 -0.9237
  257SOL    HW110674   1.039   5.008   0.792  1.3675 -0.3774  0.8939
  257SOL    HW210675   1.071   5.159   0.845 -0.0605  0.8175 -1.5843
  258SOL     OW10676   0.934   6.425   1.278 -0.0615 -0.2947 -0.3490
  258SOL    HW110677   0.880   6.408   1.360  1.0086 -1.5278  0.1226
  258SOL    HW210678   0.942   6.341   1.224  0.0050  0.2778 -1.2595
  260SOL     OW10679   1.264   3.130   0.920 -0.1046 -0.2680  0.3986
  260SOL    HW110680   1.243   3.068   0.996  0.1065 -0.8239  0.0088
  260SOL    HW210681   1.337   3.089   0.864 -1.4727 -0.6750 -1.1023
  262SOL     OW10682   3.026   2.253   2.080 -0.0750  0.5552 -0.3631
  262SOL    HW110683   3.011   2.343   2.038  0.7059  0.9277  0.1594
  262SOL    HW210684   3.045   2.186   2.008 -0.9873  0.7273 -0.7804
  263SOL     OW10685   2.657   2.775   0.364  0.4680 -0.2965  0.0666
  263SOL    HW110686   2.682   2.861   0.409  1.1051 -0.0794 -0.6862
  263SOL    HW210687   2.576   2.736   0.408  0.1278  0.7337  0.3597
  264SOL     OW10688   3.595  10.054   2.316 -0.3688 -0.4582  0.3981
  264SOL    HW110689   3.619  10.085   2.408 -0.4721 -0.1134  0.3103
  264SOL    HW210690   3.590   9.955   2.315  1.9307 -0.5983  0.1925
  266SOL     OW10691   9.698   4.972   0.888  0.8571 -0.1525 -0.3600
  266SOL    HW110692   9.710   5.071   0.875  3.3561 -0.2126  1.2187
  266SOL    HW210693   9.700   4.927   0.799 -0.0480  1.1748 -1.0774
  267SOL     OW10694   1.229   4.298   0.394 -0.1166 -0.2067 -0.1277
  267SOL    HW110695   1.161   4.251   0.339 -1.3251  1.9516 -0.5575
  267SOL    HW210696   1.200   4.297   0.490  0.3533 -1.1867  0.0014
  268SOL     OW10697   4.073   2.130   2.168 -0.0682 -0.2718  0.1384
  268SOL    HW110698   4.143   2.195   2.199 -0.0333  0.0022 -0.5128
  268SOL    HW210699   4.102   2.037   2.193  0.5351 -0.1611 -0.1393
  269SOL     OW10700   2.470   7.908   0.701  0.3650  0.2187  0.0671
  269SOL    HW110701   2.411   7.890   0.622 -0.0577  0.4740  0.3212
  269SOL    HW210702   2.509   8.000   0.693  1.1970 -0.1680 -0.3931
  270SOL     OW10703   1.590   7.497   0.779 -0.2921  0.5891  0.3886
  270SOL    HW110704   1.642   7.496   0.865 -0.4020 -0.0164  0.4499
  270SOL    HW210705   1.590   7.590   0.742  3.2020  0.1073 -1.0552
  271SOL     OW10706   1.473   2.655   0.942  0.5798 -0.1526 -0.0360
  271SOL    HW110707   1.550   2.628   0.885 -0.1677  1.2330 -1.7487
  271SOL    HW210708   1.499   2.733   0.999  0.8712 -0.5947  0.4407
  272SOL     OW10709   4.341   3.022   1.917  0.6129  0.6200 -0.0754
  272SOL    HW110710   4.253   3.027   1.870  1.0816  1.1687 -0.9109
  272SOL    HW210711   4.373   2.927   1.919  0.2749  0.5022 -0.2774
  273SOL     OW10712   2.475   5.500   0.383 -0.6743 -0.0663  0.2042
  273SOL    HW110713   2.558   5.450   0.407 -0.3508  0.8011  0.9122
  273SOL    HW210714   2.459   5.573   0.450  0.0634  2.1703 -1.9979
  274SOL     OW10715   0.770   2.935   0.479  0.1601  0.2694  0.2027
  274SOL    HW110716   0.817   2.965   0.396 -1.7692  0.2605 -0.9243
  274SOL    HW210717   0.831   2.877   0.534  1.1260 -0.5456 -1.7071
  275SOL     OW10718   0.878   0.697   1.325  0.1594  0.0659  0.6131
  275SOL    HW110719   0.844   0.613   1.367 -0.4819  0.2014  0.3616
  275SOL    HW210720   0.955   0.732   1.379  0.5725 -0.8009  0.5947
  277SOL     OW10721   2.024   5.563   1.041  0.0993 -0.2635 -0.0041
  277SOL    HW110722   1.924   5.554   1.047  0.2180 -2.8009 -1.3820
  277SOL    HW210723   2.067   5.497   1.102  0.9853  1.7583  1.6367
  279SOL     OW10724   1.902   3.403   1.456  0.4317 -0.0674 -0.5029
  279SOL    HW110725   1.834   3.433   1.389 -0.2479  1.0242  0.6363
  279SOL    HW210726   1.981   3.365   1.410 -0.0525  0.6187 -1.9163
  280SOL     OW10727   2.371   4.154   1.438  0.0616 -0.7953 -0.0014
  280SOL    HW110728   2.349   4.190   1.347  1.7355 -0.4431 -0.2910
  280SOL    HW210729   2.344   4.058   1.443 -1.7007 -0.3252 -0.2498
  281SOL     OW10730   2.941   1.168   2.344 -0.0330  0.0390 -0.1769
  281SOL    HW110731   2.867   1.192   2.281  1.7614  2.6799 -1.3877
  281SOL    HW210732   2.934   1.225   2.426  0.1224 -0.3635  0.1154
  284SOL     OW10733   2.709   1.295   1.669  0.1562  0.0614 -0.2324
  284SOL    HW110734   2.685   1.390   1.687 -1.4898 -0.1939 -1.0177
  284SOL    HW210735   2.807   1.289   1.651  0.1730  1.6978 -0.7938
  285SOL     OW10736   2.014   9.434   1.455 -0.4646 -0.0791  0.4874
  285SOL    HW110737   2.060   9.347   1.434 -2.2289 -0.8805 -0.1220
  285SOL    HW210738   2.007   9.444   1.555 -2.1930 -1.7024  0.5640
  286SOL     OW10739   8.309   1.868   0.836  0.0729 -0.6778  0.0246
  286SOL    HW110740   8.279   1.871   0.741 -0.0856  3.4032  0.1344
  286SOL    HW210741   8.394   1.919   0.846 -0.2900 -0.4430  2.2106
  288SOL     OW10742   1.369  10.012   2.219  0.1539  0.1976  0.0742
  288SOL    HW110743   1.409   9.921   2.210  0.2045  0.3178 -0.9542
  288SOL    HW210744   1.434  10.081   2.187 -0.2296  0.5222 -0.0116
  290SOL     OW10745   4.063   3.389   1.807 -0.2192  0.3191 -0.5945
  290SOL    HW110746   4.084   3.373   1.903 -0.5181 -0.7276 -0.6979
  290SOL    HW210747   4.148   3.391   1.754 -0.0289  1.2460 -0.2646
  291SOL     OW10748   3.860   2.627   2.121  0.2924  0.1285  0.5224
  291SOL    HW110749   3.875   2.724   2.141 -2.0835  0.9671 -1.5169
  291SOL    HW210750   3.804   2.586   2.194  1.1009  0.3405  1.2662
  292SOL     OW10751   4.543   4.762   0.832  0.0461 -0.0462 -0.0328
  292SOL    HW110752   4.616   4.701   0.864  0.1136  0.4346  0.7430
  292SOL    HW210753   4.455   4.715   0.841 -0.1524  0.7279  2.6720
  293SOL     OW10754  10.234   2.403   0.928 -0.3790  0.7253  0.0086
  293SOL    HW110755  10.331   2.379   0.922 -0.1041  1.9146 -0.4612
  293SOL    HW210756  10.219   2.492   0.886 -2.0373 -0.3602 -1.7858
  294SOL     OW10757   2.346   1.498   1.786 -0.7412  0.5306  0.0699
  294SOL    HW110758   2.293   1.414   1.800  0.1363  0.2574  1.9122
  294SOL    HW210759   2.443   1.476   1.781 -0.7216  1.0626 -3.0438
  295SOL     OW10760   4.177   4.029   0.851 -0.1229  0.5020 -0.0780
  295SOL    HW110761   4.159   4.102   0.785  1.7926  1.8558  0.8523
  295SOL    HW210762   4.263   3.984   0.828 -0.9893 -1.0598 -0.2801
  296SOL     OW10763   0.812   7.548   0.557 -0.3643 -0.3580 -0.2071
  296SOL    HW110764   0.782   7.474   0.618 -1.2756  2.0428  2.3753
  296SOL    HW210765   0.737   7.613   0.545 -0.1037 -0.5973 -3.7572
  297SOL     OW10766   9.956   4.532   1.715 -0.1248 -0.0863 -0.1125
  297SOL    HW110767  10.006   4.563   1.796  0.7255 -2.3799  0.2744
  297SOL    HW210768   9.967   4.600   1.642  0.7714  1.0374  1.0362
  299SOL     OW10769  10.067   2.985   0.833  0.0622  0.3757  0.0213
  299SOL    HW110770  10.072   2.897   0.880 -1.7729 -0.4190 -1.2171
  299SOL    HW210771  10.123   2.981   0.750  0.4137  0.5692  0.2458
  301SOL     OW10772   0.968   7.525   2.039 -0.1720 -0.0261 -0.3153
  301SOL    HW110773   0.958   7.548   1.942 -0.2551 -0.2125 -0.3519
  301SOL    HW210774   0.909   7.447   2.060  0.2021 -0.2845 -0.2205
  302SOL     OW10775   2.485   3.669   0.575 -0.8349 -0.1148 -0.2157
  302SOL    HW110776   2.562   3.628   0.624 -0.6749  0.4536  0.0037
  302SOL    HW210777   2.516   3.706   0.487 -0.4457  1.9846  0.7852
  303SOL     OW10778   3.196   1.204   1.496 -0.2173 -0.2350  0.8511
  303SOL    HW110779   3.161   1.274   1.558  0.2090  0.0975  0.7158
  303SOL    HW210780   3.293   1.189   1.514 -0.0137  0.1094  0.0329
  304SOL     OW10781   1.487   6.859   0.374  0.1629  0.1541 -0.2194
  304SOL    HW110782   1.455   6.897   0.461 -1.8694 -0.8739 -0.4831
  304SOL    HW210783   1.539   6.775   0.392 -0.6058 -0.2824 -0.0132
  305SOL     OW10784   3.203   7.739   0.904  0.1377 -0.3153  0.4097
  305SOL    HW110785   3.252   7.821   0.934  0.1847 -0.4165  0.6128
  305SOL    HW210786   3.258   7.658   0.926 -0.5256 -0.4875  1.4450
  306SOL     OW10787  10.365   6.105   1.484 -0.6201  0.5445  1.0161
  306SOL    HW110788  10.279   6.070   1.446  0.2035 -0.9760  0.4849
  306SOL    HW210789  10.355   6.119   1.583 -0.9227 -1.4323  1.2804
  307SOL     OW10790   4.529   4.663   1.152 -0.1056 -0.6022 -0.1088
  307SOL    HW110791   4.482   4.576   1.164  0.7535 -1.1368 -0.5571
  307SOL    HW210792   4.626   4.646   1.135 -0.0972  0.4020 -1.1055
  308SOL     OW10793   9.516   4.244   0.432  0.2047  0.2244 -0.4185
  308SOL    HW110794   9.505   4.145   0.430 -0.0500  0.2451 -0.1247
  308SOL    HW210795   9.469   4.285   0.354  1.5094  0.0057 -1.3421
  309SOL     OW10796   1.667   7.645   1.146  0.2533 -0.1619  0.1218
  309SOL    HW110797   1.719   7.671   1.065 -0.0532  1.1914  0.3353
  309SOL    HW210798   1.715   7.675   1.228  0.9874 -2.3058  0.4927
  311SOL     OW10799   3.590   3.570   1.238  0.2112  0.2702 -0.3602
  311SOL    HW110800   3.631   3.639   1.297  0.7104  1.0639 -1.6096
  311SOL    HW210801   3.509   3.607   1.194  0.5458  0.1116 -1.1249
  312SOL     OW10802   4.235   0.955   0.836  0.1175  0.1966  0.1282
  312SOL    HW110803   4.302   1.014   0.880  1.3393 -2.4840  2.0484
  312SOL    HW210804   4.247   0.959   0.737  1.1583  1.9857  0.3094
  313SOL     OW10805   2.050   5.989   1.541  0.7808 -0.7704 -0.0436
  313SOL    HW110806   2.043   6.022   1.447 -0.4784  3.1256  1.3339
  313SOL    HW210807   2.141   6.008   1.577  0.9710 -1.4470 -0.1540
  314SOL     OW10808   2.229   5.669   2.279  0.8600 -0.0190  0.4309
  314SOL    HW110809   2.130   5.683   2.287  0.6781 -0.0019 -1.6654
  314SOL    HW210810   2.263   5.715   2.196  2.3215 -1.5318  0.1700
  315SOL     OW10811   0.580   7.913   0.896  0.4733 -0.6149  0.1133
  315SOL    HW110812   0.662   7.893   0.842  0.8121  1.8237 -0.3716
  315SOL    HW210813   0.594   7.999   0.945 -2.1821  0.3730 -0.7840
  316SOL     OW10814   2.336   4.407   1.954 -0.1895  0.0550  0.8299
  316SOL    HW110815   2.261   4.353   1.917  2.0938 -0.3982 -3.5749
  316SOL    HW210816   2.335   4.499   1.913  1.0352  0.3602  1.4449
  318SOL     OW10817   0.667  10.278   1.409 -0.0564 -0.8589  0.4833
  318SOL    HW110818   0.570  10.262   1.425  0.0111 -1.4645  0.2936
  318SOL    HW210819   0.721  10.216   1.466  0.2194 -0.7030  0.3937
  319SOL     OW10820   9.853   2.456   1.551 -0.3122  0.1615  0.1486
  319SOL    HW110821   9.844   2.513   1.632  0.6465  1.3951 -0.5973
  319SOL    HW210822   9.909   2.376   1.573  1.1279  1.2047  0.3622
  320SOL     OW10823   0.705   6.627   0.936  0.0141  0.1260  0.0294
  320SOL    HW110824   0.752   6.715   0.926  0.7229 -0.2468  0.0483
  320SOL    HW210825   0.620   6.628   0.884 -1.3532  1.7907  2.1691
  321SOL     OW10826   1.673   8.094   1.540 -0.0090 -0.0287 -0.1548
  321SOL    HW110827   1.690   8.178   1.591  0.1888  0.2553 -0.6813
  321SOL    HW210828   1.714   8.017   1.588  0.3040  0.2571  0.0378
  322SOL     OW10829   0.911   5.812   2.242  0.0868  0.3559  0.0001
  322SOL    HW110830   0.946   5.722   2.213 -0.9061 -0.2959  0.7740
  322SOL    HW210831   0.881   5.807   2.337  1.2244  1.8770  0.4582
  323SOL     OW10832   9.881   2.716   1.061 -0.1143  0.2059 -0.3163
  323SOL    HW110833   9.855   2.683   1.151 -0.3645  0.9716 -0.0968
  323SOL    HW210834   9.980   2.712   1.050 -0.1694 -0.8661 -0.4012
  325SOL     OW10835   3.450   1.483   0.378  0.1498 -0.4560 -0.2390
  325SOL    HW110836   3.353   1.469   0.358  0.3299 -0.1137 -1.4029
  325SOL    HW210837   3.503   1.408   0.338  0.1720 -1.9115  2.3910
  328SOL     OW10838   2.636   1.702   1.325  0.0471 -0.0498  0.3069
  328SOL    HW110839   2.635   1.696   1.226  0.3930 -1.6915  0.3862
  328SOL    HW210840   2.626   1.797   1.353 -1.0214  0.3213 -1.2783
  329SOL     OW10841   2.142   1.607   1.885 -0.3946  0.3889 -0.2320
  329SOL    HW110842   2.071   1.536   1.883  0.2793 -0.3186  0.8152
  329SOL    HW210843   2.225   1.573   1.840  0.5796 -0.2067  1.9757
  330SOL     OW10844   1.354   7.069   1.369  0.1242 -0.2383 -0.2093
  330SOL    HW110845   1.444   7.072   1.414 -0.0226 -0.9918  0.1364
  330SOL    HW210846   1.354   7.133   1.292  1.0061 -0.3319 -0.2982
  331SOL     OW10847   4.114   1.389   1.284  0.1986 -0.4469  0.2883
  331SOL    HW110848   4.016   1.383   1.300  0.4954  1.2928  2.9842
  331SOL    HW210849   4.152   1.297   1.272 -1.4484 -1.2289  1.0697
  332SOL     OW10850   1.179   0.391   1.869 -0.7475 -0.5961  0.1260
  332SOL    HW110851   1.232   0.428   1.792  0.0563 -1.2704  0.3415
  332SOL    HW210852   1.131   0.308   1.839  2.1686 -2.7438  1.1679
  334SOL     OW10853   2.907   8.850   0.752  0.4914  0.4660 -0.3573
  334SOL    HW110854   2.920   8.947   0.734 -0.2027  0.4929 -0.7412
  334SOL    HW210855   2.995   8.803   0.752  0.7543  0.9601 -0.9700
  335SOL     OW10856   1.773   9.115   2.125  0.4175  0.2430 -0.2010
  335SOL    HW110857   1.802   9.061   2.047 -1.8132 -0.7113 -0.4073
  335SOL    HW210858   1.798   9.068   2.210  0.4322 -0.0338 -0.3590
  336SOL     OW10859   4.518   1.915   1.782 -0.0034  0.1646 -0.5974
  336SOL    HW110860   4.424   1.946   1.783 -0.5390 -1.3727  2.2259
  336SOL    HW210861   4.527   1.837   1.720 -0.6728  0.1147 -0.6288
  337SOL     OW10862   0.892   3.479   1.662  0.1093 -0.3620 -0.0575
  337SOL    HW110863   0.855   3.526   1.742  0.1546 -0.8889  0.2708
  337SOL    HW210864   0.958   3.539   1.616  1.3422 -0.6816  1.2456
  339SOL     OW10865   1.201   2.211   0.402 -0.0603  0.5285  0.4796
  339SOL    HW110866   1.205   2.199   0.501  0.9706  0.1457  0.4037
  339SOL    HW210867   1.294   2.208   0.365 -0.4585  0.4326 -0.5232
  340SOL     OW10868   3.641   0.895   1.815  0.7324 -0.5233  0.0507
  340SOL    HW110869   3.570   0.864   1.879 -0.1032 -1.8757 -1.4765
  340SOL    HW210870   3.674   0.985   1.843 -2.0225  0.4131  0.4802
  341SOL     OW10871   1.384   3.186   0.359  0.5124 -0.3629 -0.1962
  341SOL    HW110872   1.431   3.163   0.273 -1.0470 -2.6064 -0.4948
  341SOL    HW210873   1.293   3.223   0.339  0.3586 -0.3669  0.4727
  342SOL     OW10874   0.682   7.518   0.952  0.2970 -0.3397  0.2739
  342SOL    HW110875   0.743   7.550   1.024 -1.1113 -1.6043  2.0961
  342SOL    HW210876   0.591   7.558   0.966 -0.1426 -1.0786 -0.4454
  343SOL     OW10877   3.855   9.460   2.256 -0.1214 -0.2313 -0.0783
  343SOL    HW110878   3.955   9.460   2.253 -0.1428 -0.7197 -0.8035
  343SOL    HW210879   3.823   9.367   2.275 -0.4917 -0.4046 -1.5229
  344SOL     OW10880   2.863   9.509   2.330 -0.0301 -0.3798  0.4159
  344SOL    HW110881   2.894   9.603   2.342  1.2344 -0.6910 -0.3134
  344SOL    HW210882   2.796   9.486   2.401 -0.8864  1.2916  0.1574
  346SOL     OW10883   1.798   2.613   1.358  0.0505  0.0018  0.1307
  346SOL    HW110884   1.751   2.646   1.440  0.7950 -0.1657  0.6228
  346SOL    HW210885   1.856   2.535   1.382 -0.2948 -0.5155 -0.6880
  347SOL     OW10886   2.948   8.440   0.591  0.0022  0.1489 -0.1884
  347SOL    HW110887   3.023   8.506   0.592 -0.4653  0.6828 -0.2488
  347SOL    HW210888   2.882   8.466   0.520  0.5147 -1.1715 -1.1640
  348SOL     OW10889   9.548   3.186   1.811 -0.2899 -0.5597  0.1284
  348SOL    HW110890   9.605   3.257   1.769 -0.2444 -0.0016  1.1213
  348SOL    HW210891   9.452   3.208   1.798 -0.2767 -0.7949 -0.3666
  350SOL     OW10892   1.384   5.321   2.082  0.1848 -0.2183 -0.2424
  350SOL    HW110893   1.390   5.325   1.982  1.4482  1.7757 -0.1233
  350SOL    HW210894   1.466   5.276   2.118  0.3514  0.2294 -0.0556
  351SOL     OW10895   1.602   4.396   2.200  0.3749 -0.0284 -0.3837
  351SOL    HW110896   1.654   4.340   2.264 -0.8736 -0.2824  0.4225
  351SOL    HW210897   1.548   4.463   2.251  0.6971  0.9156 -1.2636
  352SOL     OW10898   1.658   5.079   0.730  0.3605 -0.1004  0.2744
  352SOL    HW110899   1.703   5.166   0.749 -1.6173  0.6088  1.9543
  352SOL    HW210900   1.649   5.067   0.631 -0.6436  2.3290  0.0368
  353SOL     OW10901   4.079   4.845   2.087 -1.1108 -0.1065  0.0062
  353SOL    HW110902   4.074   4.861   2.186  2.7648 -0.7904  0.3961
  353SOL    HW210903   4.109   4.929   2.042 -2.0850 -0.0342 -0.5174
  354SOL     OW10904   0.794   5.317   1.019  0.2200  0.0357  0.1015
  354SOL    HW110905   0.704   5.360   1.020  0.4393  0.5175 -0.7298
  354SOL    HW210906   0.839   5.334   1.107 -0.1554  0.5107  0.2045
  356SOL     OW10907   4.780   4.143   0.551  0.3203  0.3381 -0.5894
  356SOL    HW110908   4.756   4.160   0.456 -1.3680  0.9345 -0.0653
  356SOL    HW210909   4.712   4.184   0.611  0.7209 -1.0459  0.8568
  357SOL     OW10910   0.532   3.891   0.580  0.0232  0.0903  0.1871
  357SOL    HW110911   0.564   3.945   0.658 -0.0778 -0.4741  0.6291
  357SOL    HW210912   0.608   3.875   0.517  0.4217 -0.5658  0.8312
  358SOL     OW10913  10.165   1.007   1.480  0.2805 -0.2720  0.3486
  358SOL    HW110914  10.098   1.058   1.426  0.4246 -0.9116 -0.4598
  358SOL    HW210915  10.128   0.987   1.570 -0.3875 -0.1062  0.1129
  360SOL     OW10916   1.685   8.509   1.268 -0.0640  0.0968  0.5128
  360SOL    HW110917   1.668   8.511   1.169  0.2598  1.7274  0.4820
  360SOL    HW210918   1.698   8.602   1.302 -0.9718 -0.3877  2.2455
  361SOL     OW10919   1.921   9.286   1.823 -0.1603 -0.3233  0.4875
  361SOL    HW110920   1.890   9.191   1.810 -2.6521  0.6664 -1.2389
  361SOL    HW210921   1.844   9.341   1.855  1.1188  1.2735  0.8595
  362SOL     OW10922   3.131   8.243   0.620 -0.0046  0.2077  0.9725
  362SOL    HW110923   3.197   8.257   0.546 -0.1022 -0.1265  0.8201
  362SOL    HW210924   3.048   8.295   0.601  0.3148  0.8443  1.2983
  363SOL     OW10925   1.358   3.747   1.355  0.4905  0.5432  0.0785
  363SOL    HW110926   1.351   3.846   1.350 -1.2116  0.4425  0.0724
  363SOL    HW210927   1.300   3.706   1.284  1.1267 -0.4537  0.1210
  364SOL     OW10928   2.615   0.926   0.417  0.0924  0.3412  0.0163
  364SOL    HW110929   2.531   0.976   0.396 -0.2225 -0.4267 -0.5683
  364SOL    HW210930   2.638   0.864   0.342 -0.8980 -2.2497  1.7544
  365SOL     OW10931   0.690   9.592   0.922 -0.1299  0.9502  0.1678
  365SOL    HW110932   0.718   9.514   0.867 -1.4408  0.8228 -0.3366
  365SOL    HW210933   0.769   9.627   0.973  0.4909 -0.6126  0.2997
  367SOL     OW10934   2.999   3.473   0.615 -0.2230 -0.0339 -0.2035
  367SOL    HW110935   3.045   3.412   0.679 -0.8065  1.1964  1.3969
  367SOL    HW210936   3.048   3.471   0.527  1.3660 -0.6993  0.6755
  368SOL     OW10937   9.025   3.816   2.174  0.2247 -0.3383 -0.1747
  368SOL    HW110938   8.974   3.761   2.109  1.8434 -0.5041 -1.3258
  368SOL    HW210939   9.086   3.758   2.228 -0.5822 -0.1105  1.0058
  369SOL     OW10940   2.486   5.697   1.532  0.0525  0.7343 -0.3985
  369SOL    HW110941   2.548   5.775   1.544  1.2888 -0.3196  0.1698
  369SOL    HW210942   2.516   5.643   1.453  1.3567 -1.1507  1.3347
  370SOL     OW10943   0.727   9.575   0.487 -0.5093  0.4338  0.1358
  370SOL    HW110944   0.824   9.580   0.465 -0.2794 -0.1359  0.9998
  370SOL    HW210945   0.697   9.663   0.526 -0.8949  1.4121 -2.2622
  371SOL     OW10946   3.600   1.408   1.237  0.0107 -0.5963 -0.3597
  371SOL    HW110947   3.614   1.424   1.139 -0.1472 -3.2062 -0.8336
  371SOL    HW210948   3.512   1.447   1.264  0.4367  0.8978 -1.0419
  372SOL     OW10949   0.589  10.056   0.432  0.0804 -0.0152 -0.1944
  372SOL    HW110950   0.563   9.969   0.474 -0.8950  0.6751  0.6882
  372SOL    HW210951   0.514  10.122   0.443  0.1319  0.4318 -2.3431
  374SOL     OW10952   2.929   6.294   1.088  0.4541  0.3118  0.0635
  374SOL    HW110953   3.007   6.350   1.059  0.0752  0.3913 -0.8167
  374SOL    HW210954   2.853   6.353   1.113  0.2118  0.2145 -0.4194
  376SOL     OW10955   1.289   9.692   0.591 -0.3230 -0.0897  0.0798
  376SOL    HW110956   1.232   9.615   0.563 -0.5531 -0.2033  0.8664
  376SOL    HW210957   1.233   9.774   0.597  0.2724  0.5528 -2.5774
  377SOL     OW10958   0.817   4.280   0.366  0.0040 -0.6694  0.4711
  377SOL    HW110959   0.776   4.198   0.326 -1.5826 -0.0441  0.7771
  377SOL    HW210960   0.855   4.337   0.293 -0.6555 -0.7353  0.0662
  380SOL     OW10961   4.614   2.105   1.612  0.0182 -0.0359  0.3607
  380SOL    HW110962   4.573   2.042   1.678 -1.5108  1.0813  0.4969
  380SOL    HW210963   4.612   2.063   1.521 -0.9142 -0.2416  0.4668
  382SOL     OW10964   0.918   9.545   1.106  0.3708 -0.3390 -0.1004
  382SOL    HW110965   0.941   9.621   1.166 -0.5252 -0.2358  0.1245
  382SOL    HW210966   0.973   9.551   1.023 -0.1301  0.9305 -0.3636
  383SOL     OW10967   4.927   3.401   2.202 -0.5497  0.0862  0.1867
  383SOL    HW110968   4.924   3.383   2.104  0.0319  1.3111 -0.0673
  383SOL    HW210969   4.889   3.323   2.252  1.5180 -1.6108 -0.8703
  384SOL     OW10970   0.805   5.476   0.594 -0.8887 -0.1081  0.4570
  384SOL    HW110971   0.884   5.433   0.638 -1.2450  0.0867  1.3016
  384SOL    HW210972   0.740   5.506   0.664 -1.8317 -0.4930 -0.2466
  385SOL     OW10973  10.314   9.124   1.099 -0.0841 -0.8065  0.3283
  385SOL    HW110974  10.320   9.047   1.036  1.1609 -0.8725  0.5248
  385SOL    HW210975  10.275   9.203   1.051 -0.9642 -1.4272  0.0155
  386SOL     OW10976   3.490  10.133   1.599 -0.2809  0.1668 -0.3719
  386SOL    HW110977   3.517  10.220   1.556 -1.7665  0.5244 -0.5915
  386SOL    HW210978   3.522  10.132   1.694  0.0734  0.7984 -0.4808
  388SOL     OW10979   4.916   1.459   2.042 -0.2942 -0.5010 -0.3992
  388SOL    HW110980   4.944   1.426   1.952 -0.4267 -1.4965 -0.0826
  388SOL    HW210981   4.823   1.428   2.061 -0.0957 -0.6923  0.2688
  389SOL     OW10982   1.521   2.056   1.430 -0.2013  0.0035 -0.1396
  389SOL    HW110983   1.479   2.122   1.492  0.4861 -1.8038  2.3430
  389SOL    HW210984   1.457   1.982   1.412  0.5181 -0.8131  0.5869
  390SOL     OW10985   2.912   8.191   1.161 -0.4698  0.3861  0.1393
  390SOL    HW110986   2.893   8.253   1.085 -1.5288 -0.6599 -0.4491
  390SOL    HW210987   3.000   8.217   1.203 -0.1701  1.3446 -1.0415
  392SOL     OW10988   9.759   1.206   1.113  0.3497  0.7603 -0.0690
  392SOL    HW110989   9.784   1.139   1.042  0.1278  0.4770  0.1181
  392SOL    HW210990   9.841   1.235   1.161  0.5548  1.2587 -0.7057
  393SOL     OW10991   1.128   2.897   2.058  0.8887  0.3732  0.2747
  393SOL    HW110992   1.214   2.876   2.011  0.8526 -0.2577  0.4895
  393SOL    HW210993   1.134   2.865   2.153  0.0252 -0.6154 -0.0024
  394SOL     OW10994   9.942   4.228   1.017 -0.1008  0.4896  0.6547
  394SOL    HW110995   9.859   4.273   0.985  0.9250  0.8480 -1.6062
  394SOL    HW210996  10.014   4.296   1.029  0.0727  0.0889  1.9849
  395SOL     OW10997   3.491   8.344   0.894  0.4455  0.4848 -0.3666
  395SOL    HW110998   3.577   8.331   0.844  0.4143  2.3232 -0.9611
  395SOL    HW210999   3.458   8.438   0.879 -0.7998  0.3217  1.2090
  396SOL     OW11000   2.616   3.988   1.122  0.5651  0.3777  0.1900
  396SOL    HW111001   2.651   3.968   1.214 -2.6298 -1.9155  1.0238
  396SOL    HW211002   2.618   4.087   1.106 -0.6803  1.0129  3.5536
  397SOL     OW11003   1.712   7.957   1.041  0.3836  0.0670 -0.5976
  397SOL    HW111004   1.689   7.970   1.137  0.5899 -1.6602 -0.3094
  397SOL    HW211005   1.637   7.911   0.994  0.1848  1.1157 -1.3278
  398SOL     OW11006   2.644   7.822   1.932 -0.0164 -1.0640 -0.4341
  398SOL    HW111007   2.729   7.783   1.969  0.3083  0.5909  0.5705
  398SOL    HW211008   2.626   7.781   1.842  0.5566 -3.1947  0.3812
  399SOL     OW11009   3.832   2.915   1.242  0.3261 -0.2237 -0.1785
  399SOL    HW111010   3.747   2.912   1.294  0.7890 -0.6774  0.5590
  399SOL    HW211011   3.874   2.825   1.240  0.8500  0.0213 -0.4457
  400SOL     OW11012   2.336   0.691   0.631 -0.0095 -0.0885 -0.3392
  400SOL    HW111013   2.359   0.594   0.638  2.4363  0.4028 -1.0999
  400SOL    HW211014   2.405   0.745   0.678  0.7374  1.4903 -3.1675
  401SOL     OW11015  10.233   2.166   2.226  0.1231 -0.3699 -0.2988
  401SOL    HW111016  10.271   2.154   2.318 -0.3605 -0.4098 -0.1018
  401SOL    HW211017  10.210   2.262   2.212  1.1371 -0.1831 -0.7526
  402SOL     OW11018   3.846   0.735   2.207  0.4538 -0.2154 -0.1911
  402SOL    HW111019   3.776   0.766   2.270  0.0611 -0.5125 -0.4797
  402SOL    HW211020   3.822   0.644   2.172  1.3352 -0.6301  0.2680
  403SOL     OW11021   4.815   4.587   0.670 -0.0830 -0.3891  0.0451
  403SOL    HW111022   4.759   4.622   0.595 -2.1808 -1.4321  1.0727
  403SOL    HW211023   4.763   4.594   0.756  1.6624 -0.7038  1.1430
  404SOL     OW11024   0.905   2.991   1.564  0.0441  0.1728  0.2026
  404SOL    HW111025   0.970   2.987   1.640  0.5484 -0.0314 -0.2345
  404SOL    HW211026   0.846   3.071   1.575  2.1795  1.9682 -0.8281
  406SOL     OW11027   9.947   2.131   2.235  0.0188  0.6177  0.8468
  406SOL    HW111028  10.044   2.120   2.254 -0.0997  0.4272  1.3461
  406SOL    HW211029   9.921   2.227   2.248  0.3265  0.8517 -0.1703
  407SOL     OW11030   1.617   0.476   0.376 -0.2554 -0.6220  0.1592
  407SOL    HW111031   1.636   0.459   0.472  1.6458  1.3595  0.1795
  407SOL    HW211032   1.696   0.450   0.321  0.1897  1.7888 -0.4295
  408SOL     OW11033   1.496   2.910   0.389  0.4355 -0.6121  0.3349
  408SOL    HW111034   1.556   2.886   0.465  0.6589 -1.2300 -0.0408
  408SOL    HW211035   1.463   3.004   0.402  1.2135 -0.3840  0.7097
  409SOL     OW11036   2.742   9.228   1.713  0.2107  0.3256  0.8482
  409SOL    HW111037   2.651   9.188   1.726 -0.2481  1.5438  1.4637
  409SOL    HW211038   2.747   9.270   1.622  0.1076  0.3950  0.8753
  410SOL     OW11039   9.739   3.308   2.211 -0.2222 -0.6342 -0.0051
  410SOL    HW111040   9.643   3.311   2.237  0.0184  1.2474  0.7649
  410SOL    HW211041   9.796   3.327   2.291  0.6753  0.7750 -0.9442
  411SOL     OW11042   3.560  10.169   0.719 -0.0397  0.1341 -0.2757
  411SOL    HW111043   3.652  10.197   0.744  0.0925 -0.7676  0.2683
  411SOL    HW211044   3.528  10.224   0.642  1.7214 -0.9444 -1.7951
  412SOL     OW11045   9.306   1.205   1.006 -0.0556  0.0530 -0.1008
  412SOL    HW111046   9.374   1.225   1.076 -0.2367  0.0819  0.0673
  412SOL    HW211047   9.218   1.185   1.050  0.0161 -0.6700 -0.2867
  413SOL     OW11048   0.689   0.669   0.716 -0.6457  0.0498  0.2144
  413SOL    HW111049   0.776   0.707   0.686 -1.6406  0.0147 -2.9092
  413SOL    HW211050   0.681   0.575   0.683 -2.1998  0.3361 -0.2745
  415SOL     OW11051   4.173   2.729   1.330  0.2465  0.7341 -0.2308
  415SOL    HW111052   4.225   2.793   1.275 -0.0906  0.7848 -0.4894
  415SOL    HW211053   4.090   2.701   1.281  0.1762  0.4294  0.0546
  416SOL     OW11054   1.079   3.830   2.060  0.1132 -0.0641  0.2955
  416SOL    HW111055   1.142   3.789   2.126  0.1245  0.1968  0.4446
  416SOL    HW211056   1.088   3.782   1.972  1.6950  1.0394 -0.1647
  417SOL     OW11057   1.122   0.810   2.045  0.1710  0.3053 -0.3111
  417SOL    HW111058   1.036   0.794   2.094  0.5256  0.9075  0.5215
  417SOL    HW211059   1.179   0.729   2.052  0.1960  0.3694  0.2264
  419SOL     OW11060   0.631   3.138   1.475  0.1417 -0.6113 -0.0368
  419SOL    HW111061   0.720   3.180   1.491  1.5896 -3.4409 -0.4263
  419SOL    HW211062   0.609   3.141   1.377  0.0263 -0.3173 -0.0008
  422SOL     OW11063   3.142   3.185   0.622  0.1055 -0.6597  0.2734
  422SOL    HW111064   3.149   3.223   0.714 -0.9327 -0.9636  0.4906
  422SOL    HW211065   3.154   3.086   0.626  0.0817 -0.6709  0.0772
  423SOL     OW11066   3.784   0.445   2.114 -0.0983  0.6528 -0.1937
  423SOL    HW111067   3.866   0.445   2.057 -1.0093  0.9517 -1.5199
  423SOL    HW211068   3.784   0.363   2.172 -0.1407 -0.7293 -2.0806
  424SOL     OW11069   1.395   8.823   1.968 -0.4423 -0.5322  0.2116
  424SOL    HW111070   1.339   8.793   2.046  0.2601 -0.3195  0.8003
  424SOL    HW211071   1.370   8.916   1.943  1.5608  0.6207  2.2855
  427SOL     OW11072   1.045   8.895   0.503  0.1581 -0.0543  0.3283
  427SOL    HW111073   0.974   8.928   0.565 -0.1586 -2.2154  1.1360
  427SOL    HW211074   1.134   8.909   0.545  0.1552  1.3104 -0.0707
  428SOL     OW11075   8.736   2.846   2.334 -0.0652 -0.1130 -0.2564
  428SOL    HW111076   8.658   2.802   2.290 -0.7907 -1.0128  1.8522
  428SOL    HW211077   8.790   2.777   2.383  0.9046  0.8001 -0.0083
  429SOL     OW11078  10.365   2.993   2.189  0.7058  0.4856  0.3174
  429SOL    HW111079  10.385   3.072   2.246 -0.8029  2.0170 -1.2086
  429SOL    HW211080  10.266   2.975   2.190  1.0250 -1.3361  0.5889
  430SOL     OW11081   1.849   1.670   2.124 -0.3797 -0.1922 -0.2455
  430SOL    HW111082   1.817   1.664   2.218 -1.1422  1.5240 -0.3774
  430SOL    HW211083   1.947   1.692   2.123 -0.1154 -1.3275  0.1387
  431SOL     OW11084   4.862   2.411   2.170 -0.5102  0.1408 -0.1465
  431SOL    HW111085   4.844   2.386   2.075  1.2575  1.2258 -0.7761
  431SOL    HW211086   4.933   2.481   2.174 -0.0703 -0.3947  2.0177
  432SOL     OW11087   2.575   6.662   0.822 -0.3845 -0.1679  0.5345
  432SOL    HW111088   2.559   6.577   0.772  0.3353  0.4477 -0.7845
  432SOL    HW211089   2.582   6.643   0.920 -0.6915 -1.5561  0.2985
  433SOL     OW11090   9.018   2.626   1.467 -0.0898  0.3744 -0.3621
  433SOL    HW111091   9.100   2.657   1.515 -0.1383  0.9926 -0.6928
  433SOL    HW211092   9.039   2.609   1.371  0.0102 -0.8969 -0.1260
  434SOL     OW11093   1.107   2.415   0.817  0.1396  0.2888  0.0872
  434SOL    HW111094   1.042   2.372   0.880  0.9326  0.6310  1.1564
  434SOL    HW211095   1.198   2.376   0.832  1.1983  3.3998  2.1730
  435SOL     OW11096   0.851   3.111   2.133 -0.3547  0.5068 -0.3393
  435SOL    HW111097   0.892   3.065   2.212 -1.7542  0.0677  0.1522
  435SOL    HW211098   0.769   3.061   2.105 -0.5943  1.4078 -1.2579
  436SOL     OW11099   2.592   5.081   1.603 -0.1328  0.4212 -0.1672
  436SOL    HW111100   2.675   5.028   1.617  0.0819  1.1429  1.3963
  436SOL    HW211101   2.605   5.174   1.639 -0.4746  1.5856 -2.9001
  437SOL     OW11102   0.743  10.290   0.388  0.2144  0.0311 -1.1508
  437SOL    HW111103   0.713  10.340   0.307 -0.6268  0.9800 -0.2492
  437SOL    HW211104   0.686  10.209   0.400  1.0226 -0.7116 -2.1002
  439SOL     OW11105   3.532   3.265   0.684  0.0232  0.2910  0.4991
  439SOL    HW111106   3.578   3.202   0.748 -0.8202  0.8465  1.6690
  439SOL    HW211107   3.535   3.358   0.721 -2.7717  0.2195  1.0226
  440SOL     OW11108   0.763   1.235   0.397 -0.4045 -0.3378  0.8075
  440SOL    HW111109   0.755   1.247   0.298 -2.2531  0.0996  0.9802
  440SOL    HW211110   0.700   1.298   0.443 -0.2413 -1.1900  2.2280
  441SOL     OW11111   3.842   1.312   0.791 -0.0602 -0.5761  0.0385
  441SOL    HW111112   3.793   1.243   0.738 -1.8792  1.3781 -0.8940
  441SOL    HW211113   3.779   1.362   0.849  1.4768 -0.6597  1.8519
  443SOL     OW11114   1.504   7.626   0.403  0.2207  0.1854 -0.0090
  443SOL    HW111115   1.407   7.641   0.384  0.2693  0.0232 -0.3825
  443SOL    HW211116   1.533   7.539   0.362  0.1380 -0.5357  1.4300
  444SOL     OW11117   1.431   7.534   1.169  0.3972 -0.0506 -0.0958
  444SOL    HW111118   1.439   7.435   1.181  0.7728  0.1738  1.5639
  444SOL    HW211119   1.521   7.573   1.150 -0.1771 -0.4045 -4.0065
  445SOL     OW11120   4.124   1.867   1.100  0.4310  0.3393 -0.6441
  445SOL    HW111121   4.132   1.768   1.090  0.0136  0.1472  0.8378
  445SOL    HW211122   4.191   1.912   1.040  0.4700 -0.8254 -1.4884
  446SOL     OW11123   1.398   1.101   0.953  0.2235  0.1758 -0.1299
  446SOL    HW111124   1.360   1.096   0.861 -2.2886  0.5041  0.8659
  446SOL    HW211125   1.497   1.085   0.949 -0.1061 -1.4844 -2.6866
  447SOL     OW11126   1.929   4.335   0.828 -0.7037 -0.0605 -0.7384
  447SOL    HW111127   1.892   4.313   0.738 -0.2776  0.9179 -1.1674
  447SOL    HW211128   1.915   4.432   0.846  0.2225 -0.0134 -0.2404
  448SOL     OW11129   3.184  10.162   0.849  0.1328  0.3847 -0.1657
  448SOL    HW111130   3.112  10.228   0.871 -2.0533 -1.4156 -1.6459
  448SOL    HW211131   3.205  10.108   0.930  0.4768  1.5313  0.5168
  449SOL     OW11132   0.880   9.759   1.939 -0.3351  0.1511 -0.4443
  449SOL    HW111133   0.829   9.733   1.857 -1.7577 -1.8607  1.0251
  449SOL    HW211134   0.976   9.775   1.916 -0.6559 -0.7108 -2.4404
  450SOL     OW11135   2.462   6.733   0.483 -0.4542 -0.2993 -0.0725
  450SOL    HW111136   2.543   6.748   0.539 -0.5253 -2.2488  0.6160
  450SOL    HW211137   2.434   6.819   0.441  1.6605  0.4954  0.0744
  451SOL     OW11138   3.226   8.592   2.278 -0.1491 -0.8487 -0.3957
  451SOL    HW111139   3.154   8.627   2.339 -0.8769 -1.7932 -0.6952
  451SOL    HW211140   3.231   8.493   2.286  1.3128 -0.7557 -0.1882
  452SOL     OW11141   3.191   8.421   0.883  0.1182  0.6210 -0.3471
  452SOL    HW111142   3.289   8.426   0.862  0.4060 -0.8047  0.5840
  452SOL    HW211143   3.148   8.352   0.825 -0.0974  0.3842  0.0950
  453SOL     OW11144   2.229   6.798   1.796 -0.7373  0.5779 -0.2090
  453SOL    HW111145   2.219   6.897   1.795 -0.6048  0.6049  0.7712
  453SOL    HW211146   2.236   6.766   1.890  1.3468 -0.1485 -0.5858
  454SOL     OW11147   0.810   3.904   1.308  0.0745 -0.2956 -0.1666
  454SOL    HW111148   0.871   3.844   1.361  0.3543 -0.8056 -1.0650
  454SOL    HW211149   0.722   3.912   1.356  1.2051  1.3200  1.6862
  456SOL     OW11150   1.465   4.734   0.667 -0.2508 -0.3913  0.4513
  456SOL    HW111151   1.468   4.646   0.621 -1.2615  0.1700 -0.7295
  456SOL    HW211152   1.476   4.721   0.766 -0.5213 -1.8360  0.3026
  459SOL     OW11153  10.400  10.258   0.465 -0.2470 -0.5144  0.6894
  459SOL    HW111154  10.377  10.328   0.533 -0.1170  0.5501 -0.3367
  459SOL    HW211155  10.331  10.258   0.392 -0.6045 -1.9220  1.0247
  461SOL     OW11156   2.771   2.139   0.828  0.2653  0.4317 -0.3835
  461SOL    HW111157   2.854   2.098   0.789  0.4461  2.0757 -1.7950
  461SOL    HW211158   2.691   2.096   0.787  0.4240 -0.4980  0.2745
  462SOL     OW11159   1.940   6.857   1.026  0.6179  0.2342 -0.3023
  462SOL    HW111160   1.908   6.917   1.099  0.3362  0.5519 -0.6868
  462SOL    HW211161   1.961   6.767   1.065  0.0418  0.2648  0.0978
  463SOL     OW11162   3.750   8.564   1.900 -0.0752 -0.1481  0.0204
  463SOL    HW111163   3.802   8.484   1.930 -2.1839 -0.9268  1.7540
  463SOL    HW211164   3.782   8.594   1.810  0.6736 -3.0052 -0.6884
  464SOL     OW11165   1.201   7.153   1.964 -0.1410  0.3691  0.1233
  464SOL    HW111166   1.274   7.142   2.031 -1.0531 -0.3673  0.9985
  464SOL    HW211167   1.127   7.089   1.983 -0.7953  0.7379 -1.0758
  465SOL     OW11168   3.206   0.959   2.240 -0.1242  0.2801 -0.0514
  465SOL    HW111169   3.128   0.948   2.179 -1.1055  0.8074  1.0950
  465SOL    HW211170   3.276   1.014   2.194 -1.1698  1.3260 -0.4066
  466SOL     OW11171   1.815   7.150   2.173 -0.4442  0.3807  0.2467
  466SOL    HW111172   1.877   7.152   2.251  1.8718  0.2445 -1.5315
  466SOL    HW211173   1.802   7.243   2.138 -0.8542  0.3501  0.3139
  467SOL     OW11174   4.031   3.478   0.723 -0.1893 -0.4556 -0.1964
  467SOL    HW111175   4.097   3.529   0.668 -0.9441 -1.2089 -1.8467
  467SOL    HW211176   4.037   3.507   0.819  2.0696 -0.0541 -0.4372
  468SOL     OW11177   1.939   5.762   0.827  0.5272  0.1321  0.5350
  468SOL    HW111178   2.027   5.773   0.872  0.6944  1.5370 -0.1130
  468SOL    HW211179   1.866   5.774   0.894  0.8121 -1.0150  1.0667
  470SOL     OW11180   4.048   4.317   0.763  0.3551  0.1541 -0.0907
  470SOL    HW111181   3.983   4.249   0.796 -0.4744  0.6160 -0.7540
  470SOL    HW211182   4.021   4.407   0.796  1.1134  0.2441  0.2898
  471SOL     OW11183   1.064   3.107   0.721  0.6269 -0.4208  0.4947
  471SOL    HW111184   0.977   3.064   0.744  1.4275 -2.4780 -0.1899
  471SOL    HW211185   1.125   3.103   0.800  0.2744  0.6323  0.8347
  472SOL     OW11186   3.182   8.898   1.058  0.0201 -0.5019  0.2673
  472SOL    HW111187   3.147   8.806   1.043  1.8188 -1.2682  0.6398
  472SOL    HW211188   3.191   8.945   0.970 -1.5112 -0.4423  0.1363
  473SOL     OW11189   1.014   1.772   1.981  0.1320 -0.0297  0.1608
  473SOL    HW111190   1.060   1.795   1.895  0.0822 -0.0702  0.1234
  473SOL    HW211191   0.996   1.673   1.984 -0.0145 -0.0034  0.1449
  474SOL     OW11192   2.895   2.860   1.325 -0.2607  0.0559 -0.1122
  474SOL    HW111193   2.796   2.873   1.315 -0.4016 -1.3705 -0.7201
  474SOL    HW211194   2.922   2.774   1.281  1.3246  0.6515 -0.3299
  475SOL     OW11195   1.391   1.087   0.678  0.3171  0.2465 -0.3302
  475SOL    HW111196   1.491   1.087   0.665  0.4035 -1.9328  0.1258
  475SOL    HW211197   1.354   1.000   0.647 -1.5538  1.3034 -1.1026
  476SOL     OW11198   2.345   4.686   1.909 -0.2360  0.1246 -0.1788
  476SOL    HW111199   2.401   4.728   1.981 -0.1658  1.3923 -0.9440
  476SOL    HW211200   2.264   4.743   1.893 -1.2518 -1.1917  0.2557
  477SOL     OW11201   0.537   9.993   1.322  0.5043 -0.3477  0.5570
  477SOL    HW111202   0.608  10.009   1.390 -0.0478  0.0186  1.0492
  477SOL    HW211203   0.472   9.925   1.356  0.8154 -0.9516 -0.0403
  478SOL     OW11204   2.352   2.650   1.335  0.0798  0.0583  0.2484
  478SOL    HW111205   2.423   2.685   1.274  0.5593  0.3793  0.9936
  478SOL    HW211206   2.300   2.727   1.372 -1.3003 -0.2125 -1.0573
  479SOL     OW11207  10.119   7.072   0.667 -0.2836  0.1138 -0.3773
  479SOL    HW111208  10.163   7.091   0.579 -0.0031 -0.4726 -0.3685
  479SOL    HW211209  10.095   7.158   0.712  1.1788  0.4489 -0.2166
  480SOL     OW11210  10.182   4.624   2.152 -0.2990  0.3131  0.3004
  480SOL    HW111211  10.162   4.709   2.201 -2.5084  1.4601 -2.4708
  480SOL    HW211212  10.275   4.595   2.174  1.0356  4.2305  0.2844
  481SOL     OW11213  10.273   6.087   2.252  0.0351 -0.3090 -0.7520
  481SOL    HW111214  10.241   5.992   2.259  2.1156 -0.9527  0.3748
  481SOL    HW211215  10.372   6.090   2.257 -0.0842  2.1223  2.1032
  482SOL     OW11216  10.340   8.861   0.968 -0.1711  0.5082 -0.1889
  482SOL    HW111217  10.284   8.780   0.956 -1.1064  0.9722  0.9558
  482SOL    HW211218  10.431   8.845   0.930 -1.2123 -0.0714 -2.5508
  483SOL     OW11219   2.564   0.380   0.940  0.5807 -0.0922  0.7502
  483SOL    HW111220   2.544   0.348   0.847  1.8797  0.1354  0.3705
  483SOL    HW211221   2.659   0.356   0.963  0.7073  1.0616  1.4924
  484SOL     OW11222   8.957   4.575   1.138 -0.9535 -0.0893 -0.1020
  484SOL    HW111223   8.945   4.479   1.165  0.5728 -0.4988 -0.8296
  484SOL    HW211224   8.933   4.634   1.215 -0.5473 -1.1061  0.8243
  487SOL     OW11225  10.369   0.879   2.213  0.0781  0.4165 -0.5719
  487SOL    HW111226  10.395   0.956   2.156  3.2949  0.4058  0.7666
  487SOL    HW211227  10.393   0.794   2.167  0.4282  0.3420 -0.2545
  488SOL     OW11228   1.207   3.701   2.259  0.8439 -0.1883 -0.2367
  488SOL    HW111229   1.249   3.629   2.204 -0.3143  1.0929 -2.8513
  488SOL    HW211230   1.275   3.771   2.280  1.4665 -1.0298  0.6368
  489SOL     OW11231   1.031   5.442   1.966 -0.2852  0.0849  0.5306
  489SOL    HW111232   0.997   5.394   1.885  2.3163  0.2584 -0.6981
  489SOL    HW211233   1.115   5.492   1.943  0.2200  0.5440  3.2188
  490SOL     OW11234   2.798   6.109   1.575 -0.7149 -0.5933  0.2401
  490SOL    HW111235   2.722   6.158   1.617 -0.2017 -0.2774  0.8283
  490SOL    HW211236   2.795   6.119   1.476 -1.6925 -0.9687  0.2335
  491SOL     OW11237   1.754   2.491   0.524 -0.3090  0.1026  0.3269
  491SOL    HW111238   1.828   2.426   0.510  1.5485  2.1620  0.3440
  491SOL    HW211239   1.771   2.574   0.471 -1.1392  1.7380  2.5183
  492SOL     OW11240   2.786   7.223   2.201 -0.0952  0.4748  0.1543
  492SOL    HW111241   2.708   7.166   2.225  0.5661  0.4482  2.4050
  492SOL    HW211242   2.870   7.170   2.209  0.1784  0.5147 -2.2134
  493SOL     OW11243   3.420   3.289   1.750  0.4570 -0.3068  0.6083
  493SOL    HW111244   3.355   3.257   1.681 -0.1315 -0.4336  1.2165
  493SOL    HW211245   3.476   3.362   1.711 -0.5449  0.3076  0.2946
  494SOL     OW11246   3.112  10.184   1.858  0.4561  0.1803  0.2822
  494SOL    HW111247   3.105  10.091   1.896 -2.2958  0.5036  0.6913
  494SOL    HW211248   3.188  10.188   1.793  2.1050 -1.7129  2.0127
  495SOL     OW11249   8.764   2.070   2.142 -0.0363  0.4037  0.3488
  495SOL    HW111250   8.674   2.113   2.140 -0.0529  0.3256 -0.8424
  495SOL    HW211251   8.776   2.015   2.059  0.3917 -1.0387  1.3560
  496SOL     OW11252   0.706   6.626   1.225  0.3124 -0.1506 -0.1643
  496SOL    HW111253   0.706   6.625   1.125 -1.6583  1.0320 -0.2122
  496SOL    HW211254   0.787   6.579   1.259  0.3392 -1.7490 -2.3110
  497SOL     OW11255   1.716   4.913   1.067 -0.0508  0.1013 -0.4030
  497SOL    HW111256   1.783   4.935   0.996 -0.1478 -0.2657 -0.6125
  497SOL    HW211257   1.727   4.976   1.144  1.1164 -0.5078 -0.0602
  498SOL     OW11258   9.171   5.019   2.247 -0.2922  0.4693  0.5084
  498SOL    HW111259   9.177   5.063   2.157  0.1296  0.1226  0.3677
  498SOL    HW211260   9.261   5.018   2.290  0.0791 -1.8844 -0.2610
  499SOL     OW11261   9.731   4.467   2.292  0.1263  0.3276  0.1810
  499SOL    HW111262   9.667   4.479   2.368 -0.8205 -2.1069 -0.1801
  499SOL    HW211263   9.731   4.548   2.235 -2.6923  0.3463  0.1785
  500SOL     OW11264   9.933   6.076   0.332 -0.1701  0.4205 -0.2935
  500SOL    HW111265   9.917   6.092   0.430  0.3678  1.1867 -0.3256
  500SOL    HW211266   9.944   5.978   0.316  1.9333  0.4614  0.7510
  501SOL     OW11267   2.366   0.477   2.087  0.1260 -0.1307  0.2049
  501SOL    HW111268   2.464   0.470   2.065  0.0611 -0.1416 -0.0929
  501SOL    HW211269   2.338   0.573   2.081  0.7904  0.2886  3.2919
  502SOL     OW11270   1.498   2.552   1.583 -0.1126 -0.3573 -0.0805
  502SOL    HW111271   1.540   2.467   1.551 -1.5891 -1.1569  0.0511
  502SOL    HW211272   1.405   2.533   1.615 -0.2858  1.2310  0.3903
  503SOL     OW11273   0.638   0.804   0.498 -0.2645 -0.0786 -0.0298
  503SOL    HW111274   0.647   0.755   0.584  1.1080  2.5773  1.4088
  503SOL    HW211275   0.545   0.793   0.463  0.0588 -3.8054  0.1062
  504SOL     OW11276   2.446   4.934   1.385  0.7911 -0.6669  0.5443
  504SOL    HW111277   2.474   4.955   1.479  2.1000  1.6707 -0.3028
  504SOL    HW211278   2.516   4.969   1.322 -1.2460  0.0169 -1.3912
  505SOL     OW11279   2.361   6.354   1.138  0.0791 -0.0450  0.6944
  505SOL    HW111280   2.303   6.348   1.057 -0.1278  1.1476  0.7441
  505SOL    HW211281   2.422   6.275   1.141  0.5519  0.2207 -0.9949
  506SOL     OW11282   9.888   1.292   0.732  0.5292 -0.2969  0.5504
  506SOL    HW111283   9.918   1.204   0.696  0.2179 -0.4122  0.5647
  506SOL    HW211284   9.792   1.307   0.708  1.4869  1.5688 -2.3904
  507SOL     OW11285   9.796   1.913   2.261 -0.1245  0.1613 -0.1646
  507SOL    HW111286   9.733   1.941   2.333 -1.2081 -0.8200 -0.6961
  507SOL    HW211287   9.869   1.980   2.251  0.0746  0.2703  1.8787
  509SOL     OW11288   1.789   2.716   0.337  0.0898 -0.4429 -0.1141
  509SOL    HW111289   1.737   2.765   0.267 -0.6213 -0.2139  0.5764
  509SOL    HW211290   1.831   2.781   0.399 -1.2380 -0.7128  1.0814
  510SOL     OW11291   2.468   8.609   1.764  0.3363 -0.4389  0.0676
  510SOL    HW111292   2.512   8.643   1.681 -1.0532  1.4475  0.0811
  510SOL    HW211293   2.472   8.509   1.765  0.9698 -0.4535 -1.9224
  512SOL     OW11294  10.092   2.936   2.152  0.0449  0.3996  0.1650
  512SOL    HW111295  10.058   2.962   2.062  0.0634  1.0928  0.3614
  512SOL    HW211296  10.018   2.944   2.219  0.3592  1.0755  0.4354
  513SOL     OW11297   3.550   2.448   1.479 -0.3631  0.3256 -0.2538
  513SOL    HW111298   3.462   2.465   1.524  0.5668  5.4161 -0.1144
  513SOL    HW211299   3.624   2.460   1.545  0.6069 -1.7914 -0.9117
  515SOL     OW11300   2.932   9.121   0.367 -0.0245 -0.0490  0.1087
  515SOL    HW111301   2.994   9.066   0.311  1.3332  0.3498  1.1906
  515SOL    HW211302   2.950   9.104   0.463 -2.5376 -0.9382  0.4558
  516SOL     OW11303   3.136   9.038   2.267 -0.2159  0.5015 -0.9487
  516SOL    HW111304   3.058   8.981   2.292 -0.1375  1.2159  1.0960
  516SOL    HW211305   3.220   8.986   2.278 -0.3088  0.2370 -1.5160
  517SOL     OW11306   3.814   3.532   0.585 -0.0390 -0.1677 -0.2551
  517SOL    HW111307   3.768   3.454   0.543  0.6684 -0.9786  0.4570
  517SOL    HW211308   3.899   3.501   0.627 -0.6561  0.6718  1.6363
  518SOL     OW11309   2.460   1.187   1.751  0.4175  0.5050  0.1230
  518SOL    HW111310   2.508   1.158   1.833  0.1441  1.4404  0.6250
  518SOL    HW211311   2.521   1.241   1.693 -0.5187  3.3152  1.6631
  519SOL     OW11312   1.254   6.477   2.021  0.5850  0.3591  0.1539
  519SOL    HW111313   1.221   6.412   2.089 -0.3915  0.1249 -0.5280
  519SOL    HW211314   1.185   6.549   2.007 -0.1626 -0.7389 -2.0806
  521SOL     OW11315   1.476   0.685   2.228 -0.3280 -0.2003 -0.1601
  521SOL    HW111316   1.516   0.748   2.161  0.2840  0.3497  0.7218
  521SOL    HW211317   1.400   0.635   2.185 -1.4343  1.8065 -0.5904
  523SOL     OW11318   2.032  10.080   0.615 -0.5441 -0.2252 -0.1143
  523SOL    HW111319   1.961  10.061   0.547  0.0140 -3.2261  0.0733
  523SOL    HW211320   2.108  10.016   0.603  1.6282  2.1543  0.4623
  524SOL     OW11321   3.978   3.818   1.292 -0.0934  0.2759  0.2782
  524SOL    HW111322   3.946   3.911   1.310 -0.9441  0.9052 -3.8382
  524SOL    HW211323   4.061   3.821   1.237 -0.6371 -1.3875 -0.6813
  525SOL     OW11324   1.914   2.809   1.888  0.5107 -0.2088 -0.0071
  525SOL    HW111325   1.939   2.900   1.920  1.3661 -1.0667  1.8816
  525SOL    HW211326   1.839   2.815   1.822 -0.0630  1.7761  0.8075
  527SOL     OW11327   2.316   3.032   1.258  0.2506  0.5138 -0.6288
  527SOL    HW111328   2.314   2.989   1.348 -0.9068 -0.2120 -0.9853
  527SOL    HW211329   2.410   3.044   1.228  0.6489  1.0505  0.8121
  528SOL     OW11330   1.952   3.239   1.022  0.3405 -0.3615 -0.2534
  528SOL    HW111331   1.897   3.286   1.090  3.3480 -0.4460  2.3557
  528SOL    HW211332   2.038   3.289   1.008  0.2675 -0.9648 -3.1711
  529SOL     OW11333   3.108   4.714   1.094 -0.7465  0.1248 -0.3652
  529SOL    HW111334   3.079   4.718   0.998 -0.9702 -1.6234 -0.3816
  529SOL    HW211335   3.207   4.702   1.098 -0.7374  0.1950 -0.3839
  530SOL     OW11336   2.542   4.833   1.005  0.3803 -0.2223 -0.4387
  530SOL    HW111337   2.490   4.915   0.981 -1.0615 -0.9104  0.2566
  530SOL    HW211338   2.639   4.855   1.010 -0.1330  1.8301  1.3741
  532SOL     OW11339   4.859   2.378   0.846  0.4214 -0.2227  0.1649
  532SOL    HW111340   4.826   2.440   0.917  1.9727  0.9960 -0.1622
  532SOL    HW211341   4.948   2.409   0.813  0.0639 -1.1900 -1.7939
  533SOL     OW11342   0.859   4.265   1.798 -0.4514  0.4154  0.4072
  533SOL    HW111343   0.956   4.240   1.793 -0.5972  0.0367 -0.7381
  533SOL    HW211344   0.810   4.222   1.723 -1.0400  2.6969 -0.5623
  534SOL     OW11345   1.479   8.695   1.739  0.4168 -0.2087  0.1932
  534SOL    HW111346   1.459   8.610   1.788 -0.5001 -0.4333 -0.5595
  534SOL    HW211347   1.448   8.773   1.793 -2.2077 -0.5325 -0.7793
  535SOL     OW11348   0.905   1.298   1.622  0.0239 -0.6404 -0.2414
  535SOL    HW111349   0.926   1.263   1.714  0.6409 -1.0611 -0.5339
  535SOL    HW211350   0.861   1.387   1.630  1.9792  0.2984  0.4248
  536SOL     OW11351   0.974   5.089   1.971 -0.0682 -0.3139 -0.0089
  536SOL    HW111352   0.917   5.008   1.977 -1.0191  0.4025  0.6800
  536SOL    HW211353   0.989   5.126   2.062 -0.3761  0.7994 -0.4058
  537SOL     OW11354   2.659   7.590   1.466 -0.2542  0.1138  0.1504
  537SOL    HW111355   2.576   7.549   1.428 -1.3071  3.0145 -0.7714
  537SOL    HW211356   2.706   7.642   1.396  0.9240  0.6891  1.3500
  538SOL     OW11357   1.774   5.115   1.256  0.6340 -0.0157 -0.3335
  538SOL    HW111358   1.824   5.096   1.341 -1.5561 -0.9165  0.7950
  538SOL    HW211359   1.759   5.214   1.247  0.7875  0.0724  0.3697
  539SOL     OW11360   4.045   9.458   0.875 -0.0868 -0.3785  0.0389
  539SOL    HW111361   4.087   9.498   0.956  0.0395 -0.7394  0.1494
  539SOL    HW211362   3.946   9.469   0.879 -0.1030 -0.6568  0.3792
  541SOL     OW11363   1.798   6.865   0.738  0.1823 -0.0508 -0.3061
  541SOL    HW111364   1.874   6.814   0.697  1.4204  0.9177  0.7256
  541SOL    HW211365   1.808   6.864   0.837 -0.2843  1.4078 -0.2363
  542SOL     OW11366   9.459   4.852   0.915  0.0337  0.4472 -0.1377
  542SOL    HW111367   9.535   4.915   0.899 -1.3718  2.4119  0.6418
  542SOL    HW211368   9.463   4.817   1.009 -0.2617  0.8835  0.0379
  545SOL     OW11369   9.401   4.075   2.130 -0.7101  0.0502 -0.2879
  545SOL    HW111370   9.379   3.987   2.091 -1.3556  1.3542 -2.9362
  545SOL    HW211371   9.370   4.148   2.070  3.6335  2.0646 -0.2983
  546SOL     OW11372   3.781   1.901   0.410  0.1397 -0.1439  0.0619
  546SOL    HW111373   3.813   1.962   0.482 -0.0173 -1.4021  1.2140
  546SOL    HW211374   3.803   1.806   0.434 -1.1187 -0.6942 -0.8978
  547SOL     OW11375   4.190   8.289   0.478  0.7103 -0.3055 -0.1193
  547SOL    HW111376   4.138   8.232   0.415 -0.5687  0.6452  0.0462
  547SOL    HW211377   4.227   8.233   0.552  0.9799 -1.1906 -0.9163
  549SOL     OW11378   4.590   1.901   2.074  0.0360 -0.2105  0.0519
  549SOL    HW111379   4.522   1.951   2.128 -0.1319  0.0764 -0.4243
  549SOL    HW211380   4.551   1.874   1.986  0.6803  0.3733 -0.4224
  550SOL     OW11381   1.041   1.940   2.210  0.2673  0.2948  0.4039
  550SOL    HW111382   0.960   1.992   2.240  0.1293  0.5953 -0.4762
  550SOL    HW211383   1.019   1.890   2.126  1.1666  0.8219 -0.1444
  551SOL     OW11384   0.802   6.479   1.528 -0.4092 -0.2518  0.4964
  551SOL    HW111385   0.713   6.434   1.527 -0.6353  0.1480  1.6838
  551SOL    HW211386   0.798   6.559   1.589  0.1547  1.0166 -1.1159
  552SOL     OW11387   0.533   1.877   0.518 -0.5153 -0.0059  0.0478
  552SOL    HW111388   0.604   1.926   0.569 -0.6477  0.2112  0.0210
  552SOL    HW211389   0.443   1.912   0.543 -0.5633  0.3538 -0.6070
  553SOL     OW11390   1.415   6.193   1.147 -0.5222 -0.0047  0.3195
  553SOL    HW111391   1.320   6.163   1.150 -0.6236 -0.1811 -2.6312
  553SOL    HW211392   1.474   6.116   1.121  0.1818  0.5462  0.2570
  554SOL     OW11393   2.754   9.583   1.586 -0.4088  0.3680 -0.1686
  554SOL    HW111394   2.830   9.546   1.639  1.0432  1.6886 -1.2774
  554SOL    HW211395   2.668   9.567   1.635  0.5873 -0.9805  1.1852
  556SOL     OW11396   1.825   2.991   0.396 -0.4193  0.7411 -0.1987
  556SOL    HW111397   1.894   2.951   0.457  0.9324 -0.2885 -2.3386
  556SOL    HW211398   1.753   3.033   0.451  0.2377 -1.0206  2.1142
  558SOL     OW11399   0.492   4.639   2.059 -0.0672 -0.1638 -0.7219
  558SOL    HW111400   0.539   4.552   2.050  1.0654  0.4273 -0.6487
  558SOL    HW211401   0.491   4.686   1.970  0.8652  0.5149 -0.3797
  559SOL     OW11402   3.088   9.183   1.180 -0.1641 -0.1442 -0.1665
  559SOL    HW111403   3.133   9.116   1.121  1.2319  1.2011 -0.6744
  559SOL    HW211404   3.149   9.206   1.256 -0.1330  1.4353 -0.6626
  560SOL     OW11405   2.649   2.144   2.132  0.3243 -0.1847 -0.0568
  560SOL    HW111406   2.683   2.193   2.051  2.3269 -0.2770  0.6826
  560SOL    HW211407   2.636   2.209   2.207 -0.0450 -0.3240 -0.0018
  561SOL     OW11408   1.758  10.075   1.545  0.7117 -0.0126  0.0893
  561SOL    HW111409   1.791   9.984   1.519  0.1105 -0.6949  1.6803
  561SOL    HW211410   1.729  10.125   1.463  1.6542 -1.0028 -0.8621
  562SOL     OW11411   2.460   9.153   1.455  0.3243  0.0537  0.0051
  562SOL    HW111412   2.481   9.088   1.381  0.1712  1.0154 -0.8968
  562SOL    HW211413   2.532   9.223   1.459 -0.3259  0.7291 -0.0720
  563SOL     OW11414   4.712   2.947   1.248  0.2755  0.5181 -0.2814
  563SOL    HW111415   4.699   2.999   1.332 -0.2669 -0.7743  0.4578
  563SOL    HW211416   4.672   2.997   1.171 -1.2309  0.6744  0.5905
  564SOL     OW11417   0.898   4.139   1.498  0.0908 -0.0933 -0.4194
  564SOL    HW111418   0.800   4.161   1.507  0.5642  1.8422  0.0780
  564SOL    HW211419   0.910   4.040   1.506 -1.8845 -0.3937 -0.9133
  566SOL     OW11420   1.536   6.821   0.661  0.0476  0.2932 -0.2197
  566SOL    HW111421   1.629   6.811   0.696 -0.3556  0.7239  0.9949
  566SOL    HW211422   1.486   6.736   0.676 -0.5771  0.9807  1.6254
  567SOL     OW11423   2.128   4.825   0.741 -0.0726  0.0598 -0.1808
  567SOL    HW111424   2.149   4.790   0.832  0.2504  0.4054 -0.1236
  567SOL    HW211425   2.045   4.880   0.745 -0.2211 -0.1665 -0.1493
  570SOL     OW11426   2.687   9.946   2.111 -0.0013 -0.2156  0.3457
  570SOL    HW111427   2.701  10.027   2.054  1.1113 -0.3116  0.4624
  570SOL    HW211428   2.708   9.967   2.206 -0.1587 -0.5110  0.4484
  571SOL     OW11429   1.617   4.035   0.564 -0.1699 -0.5479  0.5163
  571SOL    HW111430   1.566   4.004   0.483  0.2078  0.6347 -0.1807
  571SOL    HW211431   1.568   4.006   0.646 -1.6526  0.0285 -0.1375
  572SOL     OW11432   1.124   4.453   1.543 -0.3076  0.1414 -0.1868
  572SOL    HW111433   1.036   4.458   1.496 -0.1944 -1.7018 -0.6328
  572SOL    HW211434   1.121   4.379   1.610  1.2905 -0.7185 -1.0527
  573SOL     OW11435   0.828   0.478   1.506 -0.2900  0.0847 -0.0686
  573SOL    HW111436   0.747   0.430   1.472 -0.4080  0.5596 -0.4653
  573SOL    HW211437   0.799   0.552   1.566 -0.1196 -0.1514  0.3050
  575SOL     OW11438   9.052   4.315   1.549  0.0125  0.4095  0.2553
  575SOL    HW111439   9.043   4.294   1.646  4.8525  1.2883  1.0376
  575SOL    HW211440   9.063   4.231   1.497  1.4763  0.1258  1.0157
  577SOL     OW11441   9.261   4.223   1.752 -0.1245 -0.1616 -0.1340
  577SOL    HW111442   9.317   4.275   1.816 -0.5217  0.5510 -0.3558
  577SOL    HW211443   9.170   4.209   1.792 -0.0431 -0.6131 -0.1093
  578SOL     OW11444   1.155   5.729   1.730 -0.1977  0.2769 -0.2363
  578SOL    HW111445   1.253   5.710   1.735 -0.1567  0.6270  0.2595
  578SOL    HW211446   1.138   5.824   1.755 -0.8869 -0.3445  1.6945
  579SOL     OW11447   3.304   7.419   1.176 -0.2146 -0.6072 -0.1672
  579SOL    HW111448   3.341   7.334   1.138  0.9518 -0.5785  0.8716
  579SOL    HW211449   3.357   7.496   1.140 -0.2084 -0.4467  0.1932
  580SOL     OW11450   3.158   8.967   1.932  0.0937  0.0664  0.1705
  580SOL    HW111451   3.253   8.967   1.901  0.5867  0.3611  1.6063
  580SOL    HW211452   3.144   9.044   1.994 -0.6736 -0.8240  1.1228
  582SOL     OW11453   3.037   5.274   2.146 -0.2020 -0.1206  0.1485
  582SOL    HW111454   3.113   5.333   2.118  0.6471 -0.1454  2.2966
  582SOL    HW211455   2.990   5.240   2.065  0.6419  1.7487 -1.1734
  583SOL     OW11456   3.234   2.212   1.543 -0.1059  0.0156 -0.0423
  583SOL    HW111457   3.149   2.178   1.503  0.5478  0.2313 -1.6449
  583SOL    HW211458   3.306   2.143   1.531  0.2267  0.2977  0.3050
  585SOL     OW11459   4.132   3.018   1.748  0.3334 -0.2714 -0.1158
  585SOL    HW111460   4.058   3.085   1.755  0.0584 -0.8102  2.9333
  585SOL    HW211461   4.100   2.938   1.698 -0.7476  0.0439  0.0581
  586SOL     OW11462   2.925   3.160   1.213  0.0121 -0.0023  0.7860
  586SOL    HW111463   2.998   3.092   1.211  1.0346  1.0969  0.0960
  586SOL    HW211464   2.922   3.208   1.125  0.9793  2.5751  2.1267
  587SOL     OW11465   3.386   4.633   1.419  0.5840  0.4745  0.1840
  587SOL    HW111466   3.418   4.565   1.353 -0.7217  1.4398 -1.5082
  587SOL    HW211467   3.299   4.603   1.459 -1.4381  2.3071 -2.6182
  588SOL     OW11468   1.235   7.496   0.947  0.9574  0.4375  0.2503
  588SOL    HW111469   1.212   7.580   0.899 -0.6204 -0.6959 -1.0333
  588SOL    HW211470   1.289   7.517   1.028 -0.3423  2.7608  0.5380
  590SOL     OW11471   0.678   6.372   2.081 -0.1033 -0.1628  0.3568
  590SOL    HW111472   0.707   6.417   1.997 -2.6726  0.9916  0.0377
  590SOL    HW211473   0.586   6.334   2.068 -0.6099  0.2039  2.6950
  591SOL     OW11474   4.966   2.317   1.517 -0.4698 -0.2379  0.1171
  591SOL    HW111475   5.039   2.378   1.550 -1.4939  1.1724 -0.1728
  591SOL    HW211476   4.924   2.272   1.595  1.2718 -1.7413  0.2278
  592SOL     OW11477   3.073   6.525   2.166 -0.2736 -0.6373  0.0961
  592SOL    HW111478   3.054   6.473   2.249 -2.5136 -1.9112 -1.1831
  592SOL    HW211479   3.034   6.478   2.087 -0.8770  2.1282 -1.3098
  593SOL     OW11480   0.777   2.742   1.142  0.5903 -0.1600 -0.0592
  593SOL    HW111481   0.836   2.694   1.077  0.4815  1.1767 -1.1943
  593SOL    HW211482   0.720   2.677   1.192  0.6891 -1.2198 -1.3155
  595SOL     OW11483   4.098   3.523   1.489 -0.4214 -0.1924 -0.9482
  595SOL    HW111484   4.191   3.517   1.453  0.3876  2.9410  0.4507
  595SOL    HW211485   4.033   3.531   1.414  0.6804 -0.0254 -1.8899
  596SOL     OW11486   1.960   9.006   1.628  0.4275 -0.3682 -0.6788
  596SOL    HW111487   2.006   8.918   1.615 -2.1504 -1.2364 -4.8809
  596SOL    HW211488   2.010   9.077   1.579  0.9941  0.0555  0.4736
  597SOL     OW11489   3.404   8.127   1.901 -0.0418 -0.3068 -0.5496
  597SOL    HW111490   3.350   8.211   1.904  0.1894 -0.1089 -1.7573
  597SOL    HW211491   3.410   8.094   1.806 -1.5901 -2.6377  0.1011
  598SOL     OW11492   1.123   7.807   0.654 -0.7962 -0.4897  0.0903
  598SOL    HW111493   1.120   7.884   0.718 -1.2637 -0.5847  0.1808
  598SOL    HW211494   1.094   7.724   0.701  0.7064 -0.9221  0.2767
  599SOL     OW11495   8.983   3.141   1.994 -0.0267 -0.7146 -0.0835
  599SOL    HW111496   9.045   3.107   2.064  1.1823  2.0258  0.2287
  599SOL    HW211497   8.930   3.217   2.030  0.0326  0.2247 -1.8824
  601SOL     OW11498  10.133   1.339   0.855  0.1505  0.2961  0.4589
  601SOL    HW111499  10.197   1.399   0.806 -0.5612 -0.3844 -1.3630
  601SOL    HW211500  10.059   1.312   0.793  1.5949 -4.1934  0.5697
  602SOL     OW11501   0.811   9.334   0.808 -0.1249 -0.5392  0.1200
  602SOL    HW111502   0.799   9.253   0.865 -0.3365 -1.4669 -1.2431
  602SOL    HW211503   0.740   9.337   0.738  1.0612 -0.2309 -1.0793
  603SOL     OW11504   3.620   0.846   1.535 -0.3995 -0.8070 -0.1200
  603SOL    HW111505   3.696   0.825   1.474  0.8306 -2.5406  1.9257
  603SOL    HW211506   3.656   0.870   1.625 -2.2070  0.8377  0.1989
  605SOL     OW11507   2.092   4.323   2.231  0.0451 -0.1710 -0.3586
  605SOL    HW111508   2.025   4.282   2.170  0.2886  0.1924 -0.8760
  605SOL    HW211509   2.132   4.403   2.187 -1.5741  1.5790  1.2667
  606SOL     OW11510   4.169   1.125   1.199  0.3970 -0.2000  0.3212
  606SOL    HW111511   4.250   1.108   1.143  0.9685  2.2740  0.3135
  606SOL    HW211512   4.097   1.165   1.142  0.3695  0.7167  0.9894
  608SOL     OW11513   9.374   4.447   2.204  0.1915  0.1354 -0.3302
  608SOL    HW111514   9.290   4.501   2.203 -0.1707 -0.4170  0.0399
  608SOL    HW211515   9.416   4.452   2.295 -1.3764 -2.5432  0.5892
  611SOL     OW11516   2.145   6.320   1.479 -0.1141 -0.2411 -0.5687
  611SOL    HW111517   2.133   6.254   1.405 -0.0575  0.0922 -0.8759
  611SOL    HW211518   2.210   6.284   1.546 -2.0873 -1.6603  0.6377
  612SOL     OW11519   1.200   7.073   0.893 -0.3359 -0.2708  0.4863
  612SOL    HW111520   1.240   7.019   0.819 -2.9433 -2.0400  0.2801
  612SOL    HW211521   1.127   7.130   0.857 -0.0818  0.6072  1.3343
  613SOL     OW11522   4.020   0.913   1.836 -0.3578  0.0480 -0.0674
  613SOL    HW111523   4.099   0.955   1.792 -0.3753  0.0016 -0.1417
  613SOL    HW211524   3.969   0.983   1.887  1.2893 -0.3988  2.2917
  614SOL     OW11525  10.406   0.326   1.521  0.1254  0.2794 -0.2157
  614SOL    HW111526  10.316   0.348   1.483 -0.3401  1.4613  1.5008
  614SOL    HW211527  10.400   0.240   1.572  0.4969 -0.7495 -1.8680
  615SOL     OW11528   8.750   2.565   1.543 -0.1227 -0.3757  0.2650
  615SOL    HW111529   8.848   2.563   1.523  0.0336  1.8608  0.7403
  615SOL    HW211530   8.699   2.580   1.458  0.1654  2.1247  0.5047
  618SOL     OW11531   4.725   2.519   1.453 -0.7982  0.5000  0.6371
  618SOL    HW111532   4.814   2.485   1.483  0.2341  0.3877 -2.3779
  618SOL    HW211533   4.656   2.447   1.465  0.0869 -0.4183  0.3275
  619SOL     OW11534   3.846   1.436   1.357  0.4527 -0.4094  0.7768
  619SOL    HW111535   3.754   1.415   1.325  0.8206  0.5655 -0.9952
  619SOL    HW211536   3.849   1.530   1.392  1.2289  0.2841 -1.0914
  621SOL     OW11537   1.825   3.464   1.099 -0.3705  0.7311 -0.4599
  621SOL    HW111538   1.902   3.527   1.113  1.9790 -1.5951 -2.3959
  621SOL    HW211539   1.788   3.477   1.007 -1.4778  0.9475  0.0097
  622SOL     OW11540  10.351   4.363   1.256 -0.4574  0.0242 -0.3087
  622SOL    HW111541  10.432   4.305   1.258  0.0593  0.7323 -0.3887
  622SOL    HW211542  10.314   4.366   1.163  0.6283  1.3231 -0.7241
  623SOL     OW11543   0.716   4.193   2.258 -0.1728 -0.2180  0.2462
  623SOL    HW111544   0.761   4.250   2.188 -1.0032  0.2720  0.1062
  623SOL    HW211545   0.618   4.214   2.259 -0.5824 -2.0679 -0.2108
  624SOL     OW11546   9.142   2.406   0.574 -0.7190 -0.2695 -0.2096
  624SOL    HW111547   9.206   2.353   0.517  0.4826  0.9158  0.0194
  624SOL    HW211548   9.164   2.391   0.670 -0.8509  0.0846 -0.1266
  625SOL     OW11549   2.445   4.513   2.206  0.0121 -0.0917 -0.5254
  625SOL    HW111550   2.426   4.447   2.279  0.4853 -0.4848 -0.7587
  625SOL    HW211551   2.446   4.466   2.118  0.6130  0.1807 -0.6655
  626SOL     OW11552   2.521   2.129   1.787 -0.2499 -0.1419  0.7821
  626SOL    HW111553   2.614   2.100   1.764 -0.4034 -1.6361  1.9561
  626SOL    HW211554   2.489   2.077   1.866 -0.6992  2.9751  2.7396
  628SOL     OW11555   0.915   0.734   0.993 -0.7566  0.2910 -0.3849
  628SOL    HW111556   0.885   0.800   0.925  0.4960 -0.0499 -1.2971
  628SOL    HW211557   0.836   0.697   1.042 -1.5225  1.8084 -0.4639
  629SOL     OW11558   0.756   5.028   1.189  0.1802 -0.1080  0.4093
  629SOL    HW111559   0.777   5.078   1.104  0.5288  0.6333  0.9292
  629SOL    HW211560   0.840   5.011   1.240  0.0494 -1.1713  0.2698
  630SOL     OW11561   4.230   0.984   1.428 -0.3909  0.2581  0.7817
  630SOL    HW111562   4.203   1.051   1.359  0.7579  0.1790  0.2371
  630SOL    HW211563   4.180   0.898   1.412  2.0687 -0.7733 -1.8747
  631SOL     OW11564   3.370   3.421   0.989 -0.2767 -0.2941 -0.0910
  631SOL    HW111565   3.400   3.449   0.897 -1.4257 -0.9378 -0.6801
  631SOL    HW211566   3.350   3.502   1.044 -0.2681  0.0884 -0.6476
  632SOL     OW11567   0.556   1.238   0.854 -0.1219 -0.4342 -0.3280
  632SOL    HW111568   0.476   1.227   0.913  0.2441  0.0537  0.2676
  632SOL    HW211569   0.533   1.296   0.776 -0.3434 -0.2783 -0.1487
  633SOL     OW11570   8.704   1.797   0.351  0.4511 -0.1103  0.1918
  633SOL    HW111571   8.627   1.752   0.306  1.0970 -0.4951 -0.5297
  633SOL    HW211572   8.788   1.746   0.333  0.4605 -1.3012  3.3151
  634SOL     OW11573   3.370   9.918   1.898  0.2676 -0.4536 -0.4383
  634SOL    HW111574   3.332   9.924   1.990 -1.0835  1.2676 -1.0760
  634SOL    HW211575   3.448   9.980   1.889 -0.8771  0.9419 -1.0205
  635SOL     OW11576   1.631   9.427   1.086 -0.3124  0.3846  0.0639
  635SOL    HW111577   1.531   9.431   1.090 -0.2423  0.4779  2.2687
  635SOL    HW211578   1.668   9.413   1.178  1.6853 -0.3391 -0.8192
  636SOL     OW11579   0.831   7.882   1.113 -0.3234 -0.6606  1.2235
  636SOL    HW111580   0.858   7.932   1.030 -0.2380 -0.6212  1.2746
  636SOL    HW211581   0.878   7.921   1.192 -2.1154  0.7315  1.6192
  637SOL     OW11582   1.449   5.169   0.932 -0.4030 -0.0919 -0.3622
  637SOL    HW111583   1.533   5.143   0.883  0.1643  0.3452  0.3588
  637SOL    HW211584   1.384   5.094   0.930  0.3466 -0.7491 -0.2053
  638SOL     OW11585   0.591   3.599   1.549  0.1716  0.0820 -0.5445
  638SOL    HW111586   0.503   3.645   1.539 -0.1740 -0.3623  0.4498
  638SOL    HW211587   0.640   3.601   1.462 -0.4571  1.0772 -0.8754
  639SOL     OW11588   9.929   3.530   0.915  0.2329 -0.0404  0.5636
  639SOL    HW111589   9.972   3.616   0.890 -0.4396  0.0085 -0.4427
  639SOL    HW211590   9.958   3.458   0.851 -1.1978  0.0013 -0.1521
  640SOL     OW11591   5.298   2.838   1.403  0.9267  0.1538 -0.1046
  640SOL    HW111592   5.212   2.790   1.419  1.1853  0.0276  0.9905
  640SOL    HW211593   5.282   2.919   1.346 -0.1008  0.7136  0.9665
  641SOL     OW11594   0.668   5.489   1.477 -0.0961  0.2784  0.3845
  641SOL    HW111595   0.703   5.563   1.534 -0.2611 -0.6202  1.6778
  641SOL    HW211596   0.744   5.440   1.435  0.0179  1.0628 -0.3305
  642SOL     OW11597   3.736   8.787   0.414 -0.1380  0.5245 -0.1331
  642SOL    HW111598   3.699   8.726   0.344 -0.1387  1.5404 -1.0212
  642SOL    HW211599   3.759   8.734   0.496 -1.0136 -0.5199 -0.5605
  643SOL     OW11600   9.899   2.314   0.649  0.1487 -0.0307 -0.1222
  643SOL    HW111601   9.956   2.385   0.608  1.0237 -1.2958 -1.1282
  643SOL    HW211602   9.850   2.352   0.728  1.0998  1.5109 -0.2564
  644SOL     OW11603   2.106   8.813   1.922 -0.1981  0.0094 -0.4123
  644SOL    HW111604   2.138   8.899   1.962  0.9696 -0.4728 -0.2872
  644SOL    HW211605   2.006   8.810   1.926 -0.2569  1.4076 -0.5288
  645SOL     OW11606   3.065   0.425   0.860 -0.2028 -0.6409 -0.2939
  645SOL    HW111607   3.025   0.492   0.922 -0.1155 -0.3376 -0.5677
  645SOL    HW211608   3.009   0.418   0.778 -0.6473 -1.4707  0.0649
  646SOL     OW11609   1.070   6.614   1.124 -0.9416 -0.1515  0.1569
  646SOL    HW111610   1.029   6.538   1.174 -1.7262  0.0388 -0.1880
  646SOL    HW211611   1.118   6.579   1.043  0.9621 -0.5357  1.4044
  649SOL     OW11612   2.717   7.781   0.670 -0.1847 -0.1795  0.6512
  649SOL    HW111613   2.730   7.733   0.757 -0.1934  0.7585  1.1865
  649SOL    HW211614   2.631   7.832   0.673 -0.0467  0.0832  0.2036
  650SOL     OW11615   2.500   1.978   1.009  0.4297 -0.2019  0.2086
  650SOL    HW111616   2.521   1.980   0.911  0.0589  0.2003  0.1333
  650SOL    HW211617   2.543   2.056   1.055 -1.9562  1.3959 -0.1813
  651SOL     OW11618   1.073   9.463   0.874 -0.3626  0.0989  0.1814
  651SOL    HW111619   1.088   9.530   0.802  1.4384 -0.9232 -0.4103
  651SOL    HW211620   0.993   9.407   0.851 -0.3471  0.3775 -0.5657
  653SOL     OW11621   1.419   0.489   0.650 -0.1225  0.2409 -0.5214
  653SOL    HW111622   1.372   0.508   0.737  1.9408 -1.9411  1.1393
  653SOL    HW211623   1.369   0.532   0.575 -4.1850 -1.1130  1.2702
  658SOL     OW11624  10.323   1.191   0.987  0.0079  0.2823  0.3675
  658SOL    HW111625  10.258   1.243   0.930  0.5619  0.4342 -0.1333
  658SOL    HW211626  10.282   1.103   1.012  0.8350 -1.0110 -2.6365
  659SOL     OW11627   3.343   7.874   1.389  0.4902  0.1058 -0.0854
  659SOL    HW111628   3.285   7.950   1.362 -0.6581 -0.2835  1.2370
  659SOL    HW211629   3.290   7.809   1.444  1.3942 -1.7351 -1.3028
  660SOL     OW11630   1.083   5.709   1.443  0.0991 -0.7546 -0.5906
  660SOL    HW111631   1.017   5.783   1.457  1.5098  0.2672  0.6837
  660SOL    HW211632   1.109   5.670   1.531  1.5972 -0.8064 -1.0539
  662SOL     OW11633   2.291   9.921   0.955 -0.4531  0.6415  0.2525
  662SOL    HW111634   2.212   9.973   0.923 -1.3393  0.3484  1.8975
  662SOL    HW211635   2.287   9.912   1.055  2.7001  2.2956  0.5932
  663SOL     OW11636   2.602   9.185   0.384  0.1174  0.9432  0.4309
  663SOL    HW111637   2.699   9.193   0.406  0.7225 -1.1881 -1.3182
  663SOL    HW211638   2.580   9.245   0.308 -0.0516  1.7806  1.1344
  664SOL     OW11639   1.954   3.875   0.781  0.1469  0.1416 -0.2797
  664SOL    HW111640   1.880   3.937   0.806 -0.9847 -0.8297 -1.1758
  664SOL    HW211641   1.921   3.808   0.714  1.5986 -0.8469 -0.0401
  665SOL     OW11642   1.823   8.958   1.095  0.5214  0.1925  0.3444
  665SOL    HW111643   1.894   8.892   1.070  1.0006  1.6761 -2.5010
  665SOL    HW211644   1.863   9.031   1.150  0.7751 -0.0620  0.4966
  666SOL     OW11645   0.982   1.487   1.952 -0.5682  0.2037  0.3753
  666SOL    HW111646   0.927   1.425   2.008 -0.6660 -1.9429 -2.0091
  666SOL    HW211647   1.062   1.438   1.917 -0.3554  1.5781 -1.1318
  667SOL     OW11648  10.378   9.633   0.595  0.0708  0.3682  0.4007
  667SOL    HW111649  10.395   9.534   0.589  1.9226  0.6842  0.1925
  667SOL    HW211650  10.284   9.652   0.566 -0.2869 -1.3209  0.3826
  669SOL     OW11651   1.981   2.533   0.909 -0.7232 -0.5314 -0.2009
  669SOL    HW111652   2.029   2.572   0.830  0.2496 -2.1993 -0.4594
  669SOL    HW211653   2.035   2.548   0.992 -1.4275  0.6338  0.0574
  671SOL     OW11654   3.300   2.456   1.592  0.0502 -0.6956  0.2934
  671SOL    HW111655   3.282   2.515   1.671 -1.4332 -0.0064 -0.5250
  671SOL    HW211656   3.246   2.372   1.600 -0.2932 -0.5160 -0.0965
  672SOL     OW11657   9.598   5.603   0.887  0.1874  0.0697 -0.0462
  672SOL    HW111658   9.546   5.518   0.880 -0.3119  0.3630  0.0687
  672SOL    HW211659   9.539   5.681   0.865  0.7699  0.3493 -0.6427
  674SOL     OW11660   3.571   1.639   1.512  0.1726  0.2144 -0.1869
  674SOL    HW111661   3.564   1.724   1.564 -0.2874  0.5911 -0.8465
  674SOL    HW211662   3.499   1.637   1.443 -0.1995 -1.0084  0.2350
  675SOL     OW11663   3.723   2.607   1.885 -0.2759 -0.5368 -0.1948
  675SOL    HW111664   3.769   2.598   1.973  0.2562  1.1431 -0.2943
  675SOL    HW211665   3.692   2.701   1.872 -0.0153 -0.6753 -1.9723
  676SOL     OW11666   0.581   4.388   1.934  0.0594  0.5924 -0.2917
  676SOL    HW111667   0.667   4.338   1.945  1.0255  2.1267 -0.7184
  676SOL    HW211668   0.535   4.357   1.851  1.5638  1.7139 -1.5656
  678SOL     OW11669   1.285   3.411   0.882 -0.4744 -0.1109  0.1367
  678SOL    HW111670   1.369   3.427   0.830  0.5084 -0.8901  1.4536
  678SOL    HW211671   1.264   3.313   0.880  0.1518 -0.2978  2.0629
  679SOL     OW11672   1.018   0.642   0.494  0.0594  0.2049  0.3364
  679SOL    HW111673   1.011   0.548   0.527 -0.2433  1.4549  4.0931
  679SOL    HW211674   0.965   0.703   0.554  3.0163  3.2019  0.0760
  680SOL     OW11675   0.733   7.721   1.668 -0.3546  0.3993 -0.3593
  680SOL    HW111676   0.819   7.706   1.717 -1.0358 -0.8550  0.4832
  680SOL    HW211677   0.752   7.761   1.578  1.1971 -1.0349 -0.6920
  682SOL     OW11678   4.818   1.903   1.798 -0.5408  0.2038  0.0475
  682SOL    HW111679   4.859   1.814   1.819  0.4440  0.4375 -0.8436
  682SOL    HW211680   4.720   1.891   1.781 -0.3448 -0.7741 -0.4441
  683SOL     OW11681   9.078   4.523   0.509 -0.0430  0.8268 -0.0921
  683SOL    HW111682   9.130   4.514   0.594 -0.7223 -0.1076  0.2321
  683SOL    HW211683   9.077   4.435   0.461 -0.3218  1.1505 -0.6814
  684SOL     OW11684   1.401   4.931   0.494  0.0523  0.6540 -0.9912
  684SOL    HW111685   1.480   4.989   0.473  0.7541 -0.2905 -1.0432
  684SOL    HW211686   1.425   4.868   0.568 -0.1636 -0.6157 -1.9855
  685SOL     OW11687   2.741   6.062   0.843  0.4803 -0.0094 -0.1521
  685SOL    HW111688   2.714   6.157   0.858 -0.5553 -0.3209  0.0295
  685SOL    HW211689   2.775   6.022   0.928  2.6807  0.7362 -0.6518
  686SOL     OW11690   1.266   0.494   1.634  0.0479 -0.0391 -0.0450
  686SOL    HW111691   1.217   0.469   1.551  0.5650 -0.5087 -0.2097
  686SOL    HW211692   1.361   0.513   1.612  0.5541 -1.6899  0.6838
  687SOL     OW11693   2.226   9.283   1.236  0.7225  0.0431 -0.0231
  687SOL    HW111694   2.305   9.330   1.275  0.2477  0.6405  0.2336
  687SOL    HW211695   2.183   9.341   1.167  0.3111 -0.1293  0.0822
  688SOL     OW11696   3.649   8.165   1.983 -0.0568 -0.6841 -0.1619
  688SOL    HW111697   3.646   8.131   2.077  1.1119 -0.0609  0.1141
  688SOL    HW211698   3.572   8.127   1.931  0.4304 -2.6083  0.5035
  690SOL     OW11699   2.897   2.180   0.487  0.0590  0.0697  0.0809
  690SOL    HW111700   2.947   2.164   0.571 -0.9187  1.0503  0.8725
  690SOL    HW211701   2.958   2.171   0.408  0.6999 -2.0721  0.8095
  691SOL     OW11702   1.965   2.970   0.867  0.2754  0.6911  0.4718
  691SOL    HW111703   1.885   2.964   0.927 -0.4036 -1.7208 -0.6078
  691SOL    HW211704   2.048   2.954   0.920 -0.0517  1.7493  1.3276
  692SOL     OW11705   3.189   2.706   1.042 -0.3403 -0.1310  0.1878
  692SOL    HW111706   3.179   2.785   0.982 -1.7188  0.4841  1.2123
  692SOL    HW211707   3.099   2.670   1.065  0.2219 -1.0102  1.0370
  693SOL     OW11708   1.462   5.445   0.838  0.3433 -0.7021 -0.0746
  693SOL    HW111709   1.458   5.355   0.881 -1.4855 -0.4818  0.2335
  693SOL    HW211710   1.507   5.438   0.749  1.3530 -1.6864  0.5040
  694SOL     OW11711   0.583   7.691   0.465 -0.2793 -0.1997 -0.1692
  694SOL    HW111712   0.610   7.773   0.414 -4.1262  1.2662  0.0253
  694SOL    HW211713   0.541   7.625   0.402 -0.7404 -0.3813  0.3261
  695SOL     OW11714   1.494   6.684   1.793  0.5850 -0.0373  0.0212
  695SOL    HW111715   1.517   6.780   1.808 -0.8383  0.2424  0.5453
  695SOL    HW211716   1.394   6.674   1.795  0.7122 -1.4359 -0.5815
  696SOL     OW11717   1.294   6.508   0.981 -0.4624 -0.1685  0.2873
  696SOL    HW111718   1.380   6.518   1.031  1.0895  1.7187 -2.5618
  696SOL    HW211719   1.296   6.424   0.926  0.1238  0.5068 -0.7441
  697SOL     OW11720   9.950   1.050   0.609  0.3917 -0.4385  0.2430
  697SOL    HW111721   9.861   1.019   0.576  0.1030  1.0995 -0.4642
  697SOL    HW211722  10.022   0.997   0.565 -0.1030 -0.3562 -0.6756
  699SOL     OW11723   3.036   0.952   1.183  0.5219  0.1572  0.2279
  699SOL    HW111724   3.036   0.944   1.084  0.1097  1.4919  0.1116
  699SOL    HW211725   3.088   1.034   1.210 -1.0879  0.9443  1.0075
  702SOL     OW11726   2.025   7.816   1.494  0.2444 -0.0476  0.9834
  702SOL    HW111727   2.026   7.818   1.594  2.2930  0.1489  0.9853
  702SOL    HW211728   2.119   7.824   1.460 -0.6353  2.2522 -1.0093
  703SOL     OW11729   1.885   9.523   1.024 -0.0641  0.2868  0.5949
  703SOL    HW111730   1.908   9.456   0.954  0.1981  0.9435  0.0489
  703SOL    HW211731   1.788   9.515   1.047  0.1081 -0.7081  0.9971
  704SOL     OW11732   5.264   3.445   2.004  0.5011 -0.2693 -0.0684
  704SOL    HW111733   5.359   3.468   2.021  0.8164 -0.9273 -0.9561
  704SOL    HW211734   5.206   3.498   2.066  1.3608  1.0565 -0.3969
  706SOL     OW11735   1.265   4.881   1.146  0.1712 -0.2109 -0.3346
  706SOL    HW111736   1.178   4.899   1.101  0.0289  2.3238  0.8877
  706SOL    HW211737   1.273   4.939   1.228  2.2964 -1.5834  0.4700
  707SOL     OW11738   2.783   8.613   2.252 -1.0240  0.0241 -0.6426
  707SOL    HW111739   2.811   8.709   2.242  1.8230 -0.9000 -2.1782
  707SOL    HW211740   2.688   8.603   2.223 -1.2240  2.3019 -0.8998
  709SOL     OW11741   2.698   6.320   0.891 -0.3240 -0.1226  0.5033
  709SOL    HW111742   2.779   6.376   0.878 -0.1078 -0.1922  1.4754
  709SOL    HW211743   2.624   6.352   0.832  0.1268  0.5131  0.2898
  710SOL     OW11744   1.597   2.848   0.636  0.0565  0.7086 -0.4017
  710SOL    HW111745   1.627   2.759   0.670  0.3140  1.5675  1.6452
  710SOL    HW211746   1.659   2.919   0.669 -1.9653  2.0398  0.6158
  712SOL     OW11747   2.378   9.954   1.993 -0.3184  0.2845  0.0111
  712SOL    HW111748   2.454   9.957   2.057 -0.9335 -1.2044  0.8373
  712SOL    HW211749   2.412   9.926   1.903  0.2760  0.6964  0.1038
  714SOL     OW11750   2.415   5.838   0.493  0.5516 -0.4778 -0.0687
  714SOL    HW111751   2.379   5.756   0.536 -0.0205  0.4295  1.2118
  714SOL    HW211752   2.447   5.902   0.563  1.6833  0.0838 -1.0748
  716SOL     OW11753   4.103   2.548   2.138  0.3757  0.0805 -0.7878
  716SOL    HW111754   4.014   2.579   2.106  0.2417 -0.0692 -0.5551
  716SOL    HW211755   4.170   2.558   2.064  0.1320  0.0366 -1.0150
  717SOL     OW11756   1.007   9.626   0.420  0.1437 -0.4297 -0.7578
  717SOL    HW111757   1.024   9.724   0.433  0.1042 -0.5383  0.1502
  717SOL    HW211758   1.086   9.585   0.375  0.8523 -0.2815  0.3215
  718SOL     OW11759  10.353   5.824   2.107  0.1505 -0.1516  0.1069
  718SOL    HW111760  10.271   5.809   2.052  1.3037  0.4084 -1.7983
  718SOL    HW211761  10.344   5.776   2.194 -2.5991  0.6933  0.3195
  721SOL     OW11762   0.902   3.357   2.021 -0.4641  0.1964 -0.0929
  721SOL    HW111763   0.859   3.286   2.078 -1.8238  0.6539 -0.5218
  721SOL    HW211764   0.881   3.447   2.060 -0.5520  0.4611 -0.7562
  722SOL     OW11765   1.407   8.423   2.128  0.6863  0.6296  0.0508
  722SOL    HW111766   1.329   8.381   2.176  1.3384 -0.0773  0.4921
  722SOL    HW211767   1.491   8.373   2.150  1.1792  1.0366 -0.8825
  723SOL     OW11768   3.750   4.450   1.479 -0.4418 -0.1855 -0.1159
  723SOL    HW111769   3.850   4.451   1.478 -0.4192  0.1329 -2.9411
  723SOL    HW211770   3.718   4.402   1.560  2.0226 -2.2333 -0.2779
  726SOL     OW11771   3.131   9.624   0.472 -0.3078 -0.0682 -0.2867
  726SOL    HW111772   3.077   9.668   0.400 -1.4316 -0.9153  0.0100
  726SOL    HW211773   3.144   9.688   0.548 -0.0926  0.4564 -0.7696
  727SOL     OW11774   1.142   2.786   2.304 -0.4899 -0.2228 -0.2369
  727SOL    HW111775   1.127   2.698   2.259 -2.3225 -0.6975  1.2321
  727SOL    HW211776   1.169   2.769   2.399 -0.8802  0.8158  0.0553
  728SOL     OW11777   2.669   5.336   1.703 -0.2471 -0.3867  0.1808
  728SOL    HW111778   2.579   5.349   1.746  0.2400  1.2828  0.7407
  728SOL    HW211779   2.735   5.399   1.744  0.3294  1.0008 -2.7539
  729SOL     OW11780   4.242   3.525   1.215 -0.0288  0.1789  0.1715
  729SOL    HW111781   4.274   3.431   1.219 -0.6717 -0.0347  0.3405
  729SOL    HW211782   4.300   3.577   1.153 -0.7348 -0.7564 -1.3037
  731SOL     OW11783   0.902   6.484   0.334 -0.6626 -0.0311  0.4494
  731SOL    HW111784   0.973   6.533   0.284 -0.6363  1.2973  1.7813
  731SOL    HW211785   0.945   6.426   0.404 -0.8525  0.1922  0.7489
  732SOL     OW11786   0.974   2.947   1.845 -0.5133  0.0067  0.1260
  732SOL    HW111787   0.928   3.034   1.825  1.8678  0.7667 -2.3303
  732SOL    HW211788   1.018   2.952   1.934 -1.3233  0.9216  0.4859
  733SOL     OW11789   8.979   1.901   0.371  0.4284 -0.4623  0.0015
  733SOL    HW111790   8.915   1.939   0.305  0.2846 -1.2099 -0.2948
  733SOL    HW211791   8.935   1.826   0.421  0.3775  0.3854  1.2751
  734SOL     OW11792   4.899   2.149   1.024 -0.4227  0.0617  0.1457
  734SOL    HW111793   4.907   2.215   0.949  0.7953  0.1690  0.3641
  734SOL    HW211794   4.913   2.196   1.111  1.5290 -0.6847  0.2419
  735SOL     OW11795   9.633   2.847   1.445 -0.2268  0.3473 -0.8014
  735SOL    HW111796   9.534   2.864   1.444 -0.1676  0.7708  0.3733
  735SOL    HW211797   9.675   2.895   1.522  0.5816 -1.5578 -0.0120
  737SOL     OW11798   2.716   4.962   0.584 -0.3017  0.2129 -0.4099
  737SOL    HW111799   2.681   4.879   0.627 -0.0135  0.3995  0.1902
  737SOL    HW211800   2.810   4.946   0.552 -1.0082 -0.3847 -2.2936
  738SOL     OW11801   0.519   0.754   1.023  0.0864  0.0860  0.2392
  738SOL    HW111802   0.575   0.828   1.061 -0.6213  0.9780 -0.4209
  738SOL    HW211803   0.463   0.714   1.096  1.1302 -0.4017  0.7761
  740SOL     OW11804  10.301   3.551   1.069  0.0276  0.0370 -0.0888
  740SOL    HW111805  10.350   3.478   1.118  1.2335  1.2502  0.5636
  740SOL    HW211806  10.368   3.617   1.033 -1.1031  1.2876  0.0883
  741SOL     OW11807   3.428   8.603   0.925 -0.0266  0.6319  0.4722
  741SOL    HW111808   3.495   8.672   0.897  0.5956 -0.1524 -0.0016
  741SOL    HW211809   3.416   8.607   1.024  0.0359  1.3833  0.4580
  742SOL     OW11810   2.944   1.770   0.756  0.9348  0.1822 -0.0005
  742SOL    HW111811   2.963   1.672   0.755  0.2042  0.0390  0.2438
  742SOL    HW211812   2.871   1.791   0.691  0.4209  0.4297  0.6579
  743SOL     OW11813  10.351   3.093   1.511  0.4381 -0.1581 -0.9239
  743SOL    HW111814  10.434   3.149   1.514  1.1443 -1.2197  0.1183
  743SOL    HW211815  10.345   3.039   1.596 -1.6843  0.4296 -0.6818
  744SOL     OW11816   2.225   1.762   2.350 -0.0906  0.6248  0.1961
  744SOL    HW111817   2.185   1.765   2.258 -0.3425  1.7679  0.3379
  744SOL    HW211818   2.206   1.673   2.391  0.1034  0.0635 -0.8887
  746SOL     OW11819   0.629   4.640   1.752  0.3614 -0.4693  0.2098
  746SOL    HW111820   0.604   4.550   1.787 -1.0628 -0.1602 -0.0036
  746SOL    HW211821   0.652   4.634   1.655  0.9041 -0.7134  0.3523
  747SOL     OW11822   1.206   7.271   1.248 -0.3046 -0.2255  0.0906
  747SOL    HW111823   1.158   7.303   1.166 -0.0977 -1.3878 -0.4928
  747SOL    HW211824   1.140   7.227   1.310 -0.2282 -0.5730 -0.0750
  748SOL     OW11825  10.165   2.779   1.311  0.0764 -0.1849  0.4689
  748SOL    HW111826  10.257   2.776   1.349  1.0145 -1.9172 -1.8201
  748SOL    HW211827  10.116   2.694   1.334  0.4446 -0.9847 -1.5704
  749SOL     OW11828  10.372   5.255   1.731  0.2137  0.6735  0.6603
  749SOL    HW111829  10.400   5.258   1.827 -0.0805  2.0780  0.7232
  749SOL    HW211830  10.435   5.198   1.679 -0.1320 -0.8095  1.8434
  750SOL     OW11831   1.560   0.974   0.345  0.1281 -0.0720  0.0157
  750SOL    HW111832   1.597   0.883   0.328 -2.1090 -0.7182 -1.8112
  750SOL    HW211833   1.460   0.968   0.348  0.0075  2.1805  0.7925
  751SOL     OW11834   0.742   7.016   0.877 -0.0274 -0.2214 -0.6096
  751SOL    HW111835   0.816   6.950   0.888 -0.5999 -0.4803  2.1516
  751SOL    HW211836   0.760   7.097   0.934 -2.1404 -0.5943  0.6631
  752SOL     OW11837   3.570   3.703   1.967  0.3977  0.1615 -0.3282
  752SOL    HW111838   3.639   3.696   1.896  0.6948 -2.1719  0.1310
  752SOL    HW211839   3.612   3.690   2.057 -0.2255  1.4253  0.1648
  753SOL     OW11840   9.330   3.957   1.068 -0.0220  0.2362 -0.5488
  753SOL    HW111841   9.396   3.910   1.126 -2.1660 -0.0315  1.7873
  753SOL    HW211842   9.296   3.894   0.999  1.2813  0.0339 -1.0139
  754SOL     OW11843   1.231   9.417   0.600 -0.5371 -0.2648 -0.1225
  754SOL    HW111844   1.205   9.435   0.506  0.1608  0.2667 -0.2130
  754SOL    HW211845   1.331   9.412   0.607 -0.5375  0.8175  0.7886
  756SOL     OW11846   1.584   0.501   1.259  0.2283 -0.6059 -0.2835
  756SOL    HW111847   1.547   0.452   1.180  1.2371 -1.4468 -0.2449
  756SOL    HW211848   1.680   0.475   1.273  1.5503  3.1154 -1.7043
  757SOL     OW11849   2.200   1.163   1.692  0.1879 -0.1551 -0.0628
  757SOL    HW111850   2.298   1.164   1.713  0.4352 -0.2196 -1.1681
  757SOL    HW211851   2.185   1.204   1.603 -0.7172 -0.8082 -0.2205
  758SOL     OW11852   9.989   5.793   0.353  0.0087  0.2313 -0.3489
  758SOL    HW111853  10.011   5.696   0.347 -0.7752  0.0131  0.0964
  758SOL    HW211854  10.071   5.847   0.336  0.3513 -0.4969 -1.0769
  759SOL     OW11855   2.854   2.001   1.220  0.6780 -0.5571  0.2607
  759SOL    HW111856   2.775   2.045   1.177 -0.1783 -0.1097  2.2311
  759SOL    HW211857   2.904   1.948   1.152  1.0351  2.4844 -1.9400
  760SOL     OW11858   1.133  10.090   1.600 -0.1600  0.1741  0.0049
  760SOL    HW111859   1.228  10.061   1.606 -0.2647 -0.3724 -0.8722
  760SOL    HW211860   1.100  10.117   1.690  0.8961  0.5938  0.2653
  761SOL     OW11861   0.584   9.289   1.647 -0.2854  0.1006  0.1427
  761SOL    HW111862   0.650   9.217   1.624  0.2452  0.5042  0.4024
  761SOL    HW211863   0.492   9.250   1.647 -0.2182 -0.0633 -1.9315
  762SOL     OW11864   2.714   6.851   2.272  0.1516  0.1726 -0.1784
  762SOL    HW111865   2.718   6.814   2.179 -3.7728  1.6764 -1.0541
  762SOL    HW211866   2.646   6.925   2.275  1.0717  0.9495  3.6349
  763SOL     OW11867  10.078   3.837   0.605 -0.1945 -0.1041 -0.0463
  763SOL    HW111868  10.014   3.901   0.562  2.1988  2.0055 -0.5619
  763SOL    HW211869  10.033   3.792   0.682 -1.7500  2.6727  0.7323
  764SOL     OW11870  10.266   2.504   1.438 -0.7181  0.3021 -0.5641
  764SOL    HW111871  10.170   2.500   1.411 -0.3454 -1.2340 -1.7637
  764SOL    HW211872  10.311   2.418   1.413 -0.1213 -0.9357  4.2420
  766SOL     OW11873   2.049   2.522   2.178 -0.6668 -0.1309  0.3827
  766SOL    HW111874   1.981   2.589   2.152 -0.5369 -0.0780  0.1788
  766SOL    HW211875   2.124   2.567   2.227 -0.0467  0.0522 -0.7003
  767SOL     OW11876   0.704   8.889   2.071  0.1028 -0.1792 -0.5181
  767SOL    HW111877   0.793   8.863   2.034 -0.8834 -1.0641 -2.2995
  767SOL    HW211878   0.694   8.988   2.067  1.0916 -0.0517 -0.0881
  768SOL     OW11879   9.341   5.886   1.180 -0.1136  0.5210  0.3343
  768SOL    HW111880   9.293   5.799   1.170  0.9128 -0.1217  0.7875
  768SOL    HW211881   9.439   5.868   1.192  0.2738  1.7979 -0.7719
  770SOL     OW11882   1.958   1.379   1.702  0.7510  0.2290  0.4463
  770SOL    HW111883   2.012   1.301   1.731 -0.4551 -0.4860  0.8335
  770SOL    HW211884   1.909   1.417   1.780 -1.6440 -1.0123 -0.3849
  771SOL     OW11885   1.056   1.975   1.476 -0.3543 -0.4623 -0.1660
  771SOL    HW111886   1.110   2.031   1.414 -1.4329 -1.1330 -1.7385
  771SOL    HW211887   1.053   2.018   1.566  0.2078  1.1568 -0.9103
  772SOL     OW11888   9.056   2.342   1.101 -0.2709 -0.0232 -0.2235
  772SOL    HW111889   9.051   2.253   1.056  0.3011  0.2906 -0.9084
  772SOL    HW211890   9.093   2.330   1.193  0.0738 -0.4572 -0.4150
  773SOL     OW11891   3.702   3.346   1.170 -0.2444  0.0903 -0.3416
  773SOL    HW111892   3.657   3.435   1.178 -2.7366 -1.1195 -0.3072
  773SOL    HW211893   3.634   3.276   1.146  1.6969 -1.7752 -0.5936
  775SOL     OW11894   2.641   4.281   0.698  0.2104  0.2766  0.0129
  775SOL    HW111895   2.722   4.291   0.639 -0.4903  0.7006 -0.8902
  775SOL    HW211896   2.607   4.187   0.692  1.3775 -0.2478  1.3807
  776SOL     OW11897   0.636   2.841   0.923 -0.3707 -0.1334 -0.2661
  776SOL    HW111898   0.546   2.877   0.947 -0.9765 -2.6584  1.4695
  776SOL    HW211899   0.679   2.800   1.004  2.1977  0.6943 -1.1481
  777SOL     OW11900  10.271   7.501   1.695 -0.5661  0.4658  0.2066
  777SOL    HW111901  10.252   7.584   1.641 -0.2731  0.8096  0.6332
  777SOL    HW211902  10.305   7.527   1.785  2.3943 -0.1232 -0.6800
  780SOL     OW11903   5.588   2.924   1.243 -0.2921 -0.2908 -0.1286
  780SOL    HW111904   5.588   2.993   1.171 -0.3458  0.1672  0.3150
  780SOL    HW211905   5.497   2.882   1.248 -0.5256  0.2545  0.2294
  781SOL     OW11906   2.940   5.784   1.954  0.0310  0.0571 -0.3890
  781SOL    HW111907   2.911   5.870   1.995 -0.7126 -0.2599 -0.2323
  781SOL    HW211908   2.882   5.763   1.876  0.6930  0.0721 -0.8852
  782SOL     OW11909  10.435   4.334   1.712  0.5189  0.4976  0.0506
  782SOL    HW111910  10.354   4.298   1.759  1.5023  0.8786  2.0993
  782SOL    HW211911  10.407   4.408   1.650 -0.6922  0.7206  0.8386
  783SOL     OW11912   3.558   0.581   2.057 -0.2692  0.0932  0.1015
  783SOL    HW111913   3.567   0.646   1.981  0.8662  0.9883  0.9949
  783SOL    HW211914   3.646   0.538   2.075 -0.6839 -0.5916  0.4922
  784SOL     OW11915   0.934   2.964   1.272 -0.2335  0.1603  0.1897
  784SOL    HW111916   0.914   2.959   1.370 -2.2562  3.9168  0.0699
  784SOL    HW211917   0.886   2.890   1.224 -0.2188 -0.9676  1.8663
  785SOL     OW11918   2.052   5.839   1.113  0.0864 -0.3007  0.1540
  785SOL    HW111919   2.066   5.743   1.087 -0.5603 -0.5837  0.8257
  785SOL    HW211920   1.984   5.843   1.186 -0.6492  0.7539 -0.5759
  786SOL     OW11921   4.486   8.649   0.696  0.1588 -0.6936 -0.6988
  786SOL    HW111922   4.523   8.619   0.783 -1.0409  3.4892  1.3883
  786SOL    HW211923   4.403   8.597   0.675  0.9092 -2.2797  0.2226
  787SOL     OW11924   2.034   7.809   1.107 -0.4526  0.7172  0.0719
  787SOL    HW111925   2.131   7.799   1.088 -0.2393 -0.3385  1.6137
  787SOL    HW211926   2.021   7.874   1.183 -0.6347 -2.2425  2.6858
  788SOL     OW11927   9.931   5.508   1.989  0.0286  0.6002 -0.2875
  788SOL    HW111928   9.878   5.446   1.931  0.2918 -0.4452  0.5938
  788SOL    HW211929  10.014   5.536   1.941 -0.6685  1.2184 -1.1559
  789SOL     OW11930   1.490   0.562   1.504 -1.0907 -0.1413  0.1731
  789SOL    HW111931   1.551   0.520   1.570 -1.8219 -1.6963 -0.1161
  789SOL    HW211932   1.508   0.524   1.413 -1.6888  0.2615 -0.1182
  791SOL     OW11933   9.758   1.792   1.029 -0.0949  0.3165 -0.3036
  791SOL    HW111934   9.832   1.727   1.014 -1.8429 -1.4469 -1.5559
  791SOL    HW211935   9.789   1.884   1.005  2.0019 -0.2194  0.2157
  793SOL     OW11936   4.421   4.424   0.994  0.1699 -0.4209 -0.4150
  793SOL    HW111937   4.325   4.396   0.994 -0.1884  0.7268  2.4213
  793SOL    HW211938   4.479   4.343   1.000 -0.6180 -1.0679 -1.3446
  794SOL     OW11939  10.148   0.640   0.887  0.0505  0.0089  0.0654
  794SOL    HW111940  10.186   0.555   0.924  0.1126 -1.4112 -3.0807
  794SOL    HW211941  10.216   0.713   0.898  0.4386 -0.5695  1.8017
  795SOL     OW11942   0.529   5.022   2.190  0.2886  0.0880 -0.7280
  795SOL    HW111943   0.541   4.943   2.249  0.1639  0.6947  0.1104
  795SOL    HW211944   0.433   5.049   2.188  0.1224 -0.5497 -2.0189
  796SOL     OW11945   2.752   3.624   1.710 -0.3210  0.0720  0.2218
  796SOL    HW111946   2.731   3.613   1.808  1.3653  1.1291  0.7246
  796SOL    HW211947   2.793   3.540   1.676  0.1539  0.0993  0.7151
  797SOL     OW11948   1.568   2.635   1.853 -0.0948  0.0950 -0.4424
  797SOL    HW111949   1.537   2.593   1.768  2.0038 -1.2364 -0.5699
  797SOL    HW211950   1.583   2.564   1.922 -0.1518  1.0043  0.5209
  798SOL     OW11951   2.223   0.451   1.093  0.2824  0.2795 -0.0514
  798SOL    HW111952   2.261   0.544   1.098 -0.9049  0.7581  0.4715
  798SOL    HW211953   2.236   0.406   1.181  0.2808  0.1906 -0.0971
  799SOL     OW11954   2.538   7.657   1.076 -0.1855 -0.6934  0.2530
  799SOL    HW111955   2.611   7.673   1.009 -0.1249  0.8114  0.6569
  799SOL    HW211956   2.579   7.640   1.166 -0.3134 -0.7635  0.2983
  800SOL     OW11957   2.659   2.615   1.839  0.6890  0.5031 -0.1484
  800SOL    HW111958   2.696   2.663   1.918  0.0983  1.5415 -0.4914
  800SOL    HW211959   2.700   2.650   1.755  0.1663  0.5003 -0.4124
  801SOL     OW11960   0.451   6.060   0.337  0.0738  0.3296 -0.0335
  801SOL    HW111961   0.424   6.140   0.390 -0.4441 -1.7095  2.8894
  801SOL    HW211962   0.551   6.052   0.338  0.0515  0.1574  0.8444
  802SOL     OW11963   9.182   5.503   1.660  0.0273  0.2797  0.5390
  802SOL    HW111964   9.231   5.549   1.734 -0.9583  1.0384  0.7364
  802SOL    HW211965   9.128   5.570   1.610 -1.8892 -0.7471  1.1909
  804SOL     OW11966   0.975   0.364   0.528  0.2325 -0.0180 -0.0096
  804SOL    HW111967   1.046   0.293   0.531  0.2454  0.0020  0.1807
  804SOL    HW211968   0.899   0.333   0.472  0.3148 -0.1120 -0.0701
  805SOL     OW11969   0.832   5.368   1.276  0.6882  0.3685  0.0650
  805SOL    HW111970   0.916   5.319   1.297  0.7543  0.8151  0.8365
  805SOL    HW211971   0.851   5.466   1.263  0.0523  0.7400  1.8338
  806SOL     OW11972   1.099   3.174   1.359  0.5282 -0.0698  0.2910
  806SOL    HW111973   1.030   3.106   1.335 -0.7886  1.0795  0.7104
  806SOL    HW211974   1.054   3.253   1.401  1.9429  1.3712 -0.8600
  807SOL     OW11975   2.001   1.802   1.736  0.4253  0.3311  0.3640
  807SOL    HW111976   2.054   1.758   1.808 -1.1680 -0.6716  0.9481
  807SOL    HW211977   1.910   1.826   1.772 -1.2313 -2.2948 -1.9439
  808SOL     OW11978   3.393   7.934   1.016  0.6814  0.1097 -0.2888
  808SOL    HW111979   3.484   7.918   0.977  0.6699 -1.4546  0.2762
  808SOL    HW211980   3.397   8.011   1.080  1.5191  0.2784 -0.5362
  809SOL     OW11981   1.851   0.984   2.027 -0.1691 -0.2790  0.0511
  809SOL    HW111982   1.767   0.931   2.017 -0.0733 -0.4730  0.2668
  809SOL    HW211983   1.913   0.937   2.089  1.7908 -2.2204 -3.2243
  810SOL     OW11984   1.549   9.097   1.777  0.0959 -0.1848  0.5999
  810SOL    HW111985   1.556   9.054   1.687 -0.6457  0.4602  0.2191
  810SOL    HW211986   1.631   9.077   1.830  0.2454 -1.1393  0.0312
  812SOL     OW11987   9.494   1.270   0.759 -0.0374 -0.1255  0.2899
  812SOL    HW111988   9.533   1.181   0.738  2.6916  1.2404 -0.6408
  812SOL    HW211989   9.442   1.265   0.845  0.6459 -2.4186  0.5812
  814SOL     OW11990   1.069   5.100   0.515 -0.1003 -0.2780  0.3189
  814SOL    HW111991   0.973   5.097   0.489  0.3673 -1.5586 -1.3798
  814SOL    HW211992   1.108   5.008   0.510  1.9249  0.6380 -1.8971
  815SOL     OW11993   3.267   0.548   1.175  0.0872 -0.2831  0.1595
  815SOL    HW111994   3.356   0.507   1.195  1.2746  1.4727 -1.3345
  815SOL    HW211995   3.280   0.641   1.141 -2.1487 -0.9099 -2.6256
  816SOL     OW11996   1.222   2.998   1.179  0.3982  0.1416 -0.0356
  816SOL    HW111997   1.244   3.031   1.271 -1.4430  0.2315  0.3798
  816SOL    HW211998   1.144   2.936   1.184 -0.8977  1.6167 -1.7920
  817SOL     OW11999   3.660   9.177   1.573 -0.1887 -0.2080  0.6139
  817SOL    HW112000   3.642   9.123   1.655  0.8589 -0.4170  0.7125
  817SOL    HW212001   3.627   9.127   1.492  0.7662 -0.9967  0.7039
  818SOL     OW12002   3.073   4.354   0.438 -0.5437  0.4322 -0.1617
  818SOL    HW112003   3.062   4.275   0.377  1.0284  0.4829 -0.5280
  818SOL    HW212004   3.168   4.384   0.436 -1.1275  2.3307  0.0020
  819SOL     OW12005   1.475   8.445   1.401  0.5435 -0.7291  0.7098
  819SOL    HW112006   1.438   8.530   1.438 -0.2354 -0.5633 -0.4003
  819SOL    HW212007   1.561   8.465   1.353  0.9776 -0.7651  1.4679
  821SOL     OW12008   3.617   3.882   1.023 -0.8245 -0.2558 -0.0993
  821SOL    HW112009   3.681   3.891   1.099 -2.0596  1.1511  0.7872
  821SOL    HW212010   3.644   3.943   0.949 -0.7189 -0.2223 -0.0336
  822SOL     OW12011   9.552   5.997   2.174  0.6273  0.4130  0.2085
  822SOL    HW112012   9.630   5.965   2.121  2.0057  1.6747  1.4040
  822SOL    HW212013   9.559   5.962   2.268  0.1084  1.0421  0.4904
  823SOL     OW12014   9.260   4.100   0.346  0.4665 -0.0689  0.0841
  823SOL    HW112015   9.328   4.032   0.374  1.1703 -0.3782 -2.3012
  823SOL    HW212016   9.255   4.103   0.247 -0.5391  2.4209  0.1804
  824SOL     OW12017   2.404   6.986   1.557 -0.4829  0.1061  0.3836
  824SOL    HW112018   2.459   7.063   1.525 -0.8582  0.2534  0.0891
  824SOL    HW212019   2.461   6.925   1.612  0.0706  0.0499 -0.2458
  825SOL     OW12020   3.995   3.849   0.568  0.4685  0.0312  0.4588
  825SOL    HW112021   4.055   3.926   0.549  0.3702 -0.2554 -1.1196
  825SOL    HW212022   4.049   3.771   0.600  0.9263 -0.1465 -0.7156
  826SOL     OW12023   0.956   5.488   0.887 -0.8435 -0.1358 -0.6922
  826SOL    HW112024   0.997   5.432   0.814 -1.0292 -0.3734 -0.6171
  826SOL    HW212025   0.897   5.430   0.944  1.1503 -0.4515  1.0977
  827SOL     OW12026  10.373   1.166   1.594  0.2427  0.3688 -0.1164
  827SOL    HW112027  10.405   1.251   1.553 -1.5907  1.5462  0.8228
  827SOL    HW212028  10.286   1.139   1.554  0.9427 -1.2506 -0.6184
  828SOL     OW12029   0.705   6.980   1.591 -0.6186 -0.8362  0.0171
  828SOL    HW112030   0.700   7.080   1.590 -0.9447 -0.8004  1.9217
  828SOL    HW212031   0.752   6.948   1.510 -2.9989  0.7076 -2.0669
  829SOL     OW12032   4.158   1.984   1.356  0.1109 -0.1114 -0.5716
  829SOL    HW112033   4.150   1.949   1.263 -1.6665  1.8863 -1.2028
  829SOL    HW212034   4.220   2.063   1.357  0.4448 -0.3745  0.0170
  830SOL     OW12035   4.034   1.548   1.665  0.0222 -0.0969 -0.3664
  830SOL    HW112036   4.091   1.552   1.583 -0.2962  0.2180 -0.5706
  830SOL    HW212037   3.944   1.588   1.646 -0.6035 -1.4407 -0.3256
  831SOL     OW12038   0.770   9.898   2.168  0.2909  0.2879  0.5731
  831SOL    HW112039   0.813   9.876   2.081  0.7620 -1.2077  1.1708
  831SOL    HW212040   0.833   9.878   2.243 -1.0927 -1.0515  1.4081
  832SOL     OW12041   0.625   4.550   0.749 -0.5906 -0.5174 -0.2986
  832SOL    HW112042   0.723   4.529   0.752 -0.0192  1.9175 -0.9736
  832SOL    HW212043   0.607   4.632   0.803 -1.6860  1.0464 -2.9414
  833SOL     OW12044   1.979   2.010   0.375  0.1256 -0.6509  0.4342
  833SOL    HW112045   1.974   1.972   0.283  0.3418  1.1934 -0.3490
  833SOL    HW212046   1.915   1.962   0.435 -0.7721 -1.1459 -0.9270
  834SOL     OW12047   3.382   3.592   0.528 -0.4056  0.3237 -0.0182
  834SOL    HW112048   3.459   3.591   0.464 -1.0725  1.1692 -0.8378
  834SOL    HW212049   3.299   3.562   0.481 -0.2710 -2.3041  1.3017
  835SOL     OW12050   3.822   9.049   0.361  0.2049 -0.9626 -0.2160
  835SOL    HW112051   3.797   8.954   0.379  1.1263 -1.0687  0.5686
  835SOL    HW212052   3.922   9.057   0.358  0.1384  0.0280  0.0348
  836SOL     OW12053  10.417   3.115   0.773 -0.1150  0.3849 -0.0342
  836SOL    HW112054  10.449   3.047   0.706  2.1786  0.7432  0.6678
  836SOL    HW212055  10.344   3.170   0.732  0.4271 -0.1969 -1.8264
  837SOL     OW12056   0.718   7.806   2.000  0.5521  0.1224  0.1384
  837SOL    HW112057   0.739   7.743   2.075 -0.4869 -2.3253 -1.5552
  837SOL    HW212058   0.644   7.768   1.945 -0.4170  3.0924 -0.6827
  838SOL     OW12059   1.618   6.399   2.271  0.0442 -0.4577 -0.3688
  838SOL    HW112060   1.620   6.443   2.181 -0.6155 -2.5173 -1.4364
  838SOL    HW212061   1.689   6.438   2.329  0.6709  0.7079 -1.8861
  840SOL     OW12062   9.449   4.990   2.329  0.3515 -0.0999 -0.0977
  840SOL    HW112063   9.463   4.937   2.413  1.7807  0.0968 -0.2093
  840SOL    HW212064   9.456   4.929   2.250  1.1961  0.1074 -0.1844
  841SOL     OW12065   2.082   0.878   0.992 -0.2662  1.0644 -0.0180
  841SOL    HW112066   2.111   0.973   0.982 -0.8435  1.1868 -0.5612
  841SOL    HW212067   2.107   0.827   0.910 -0.5981  0.9109 -0.0214
  842SOL     OW12068   2.990   2.200   1.369 -0.2070 -0.3055 -0.4761
  842SOL    HW112069   2.902   2.204   1.417  0.0657  0.1296 -0.0104
  842SOL    HW212070   2.981   2.141   1.288 -1.1941  0.5362 -0.9934
  843SOL     OW12071   1.846   7.690   0.939  0.5937  0.0318  0.3410
  843SOL    HW112072   1.897   7.759   0.990  0.4556  0.1909  0.2645
  843SOL    HW212073   1.812   7.730   0.854  1.6710 -0.5059 -0.3600
  844SOL     OW12074  10.196   5.053   2.311 -0.3627 -0.3518  0.7340
  844SOL    HW112075  10.211   5.101   2.398 -3.0228  1.0232  0.4831
  844SOL    HW212076  10.129   4.981   2.324  0.0030 -0.8235  0.0282
  845SOL     OW12077   1.828   8.731   0.497  0.3810 -0.4300  0.3984
  845SOL    HW112078   1.848   8.689   0.585  1.2050  1.8560  1.3402
  845SOL    HW212079   1.770   8.670   0.443  1.8265 -2.9101  1.5416
  847SOL     OW12080   1.349   7.076   2.192  0.0361  0.2608 -0.1579
  847SOL    HW112081   1.364   7.145   2.263 -0.4213 -1.1087  1.3011
  847SOL    HW212082   1.300   6.998   2.232 -0.2966 -0.4864 -2.0088
  848SOL     OW12083   2.725   5.391   1.143  0.6791  0.5343  0.1907
  848SOL    HW112084   2.668   5.372   1.063  0.8328 -0.4943  0.3190
  848SOL    HW212085   2.704   5.325   1.215  0.6518  1.3625  0.9474
  849SOL     OW12086   0.648   3.161   0.961 -0.1155 -0.0871 -0.0657
  849SOL    HW112087   0.721   3.094   0.946 -1.0541 -1.3637  0.9118
  849SOL    HW212088   0.569   3.136   0.905 -1.0322 -0.7231  1.4978
  851SOL     OW12089   3.194   1.402   0.924 -0.5228 -0.2587 -0.1585
  851SOL    HW112090   3.234   1.311   0.933 -1.6997 -0.9965 -2.0674
  851SOL    HW212091   3.115   1.409   0.985 -0.4061 -0.4931  0.0225
  852SOL     OW12092   2.399   9.387   1.856 -0.0649 -0.1439  0.2146
  852SOL    HW112093   2.383   9.311   1.794  1.7173  2.3167 -3.4273
  852SOL    HW212094   2.311   9.421   1.890 -1.0972 -1.2127 -1.3303
  854SOL     OW12095   9.995   2.199   1.568 -0.2249 -0.2746 -0.1684
  854SOL    HW112096  10.093   2.216   1.582 -0.4971  0.7326  0.5819
  854SOL    HW212097   9.979   2.101   1.563  0.6209 -0.4993  1.2853
  855SOL     OW12098   1.506   4.402   0.958 -0.3985 -0.6824 -0.7595
  855SOL    HW112099   1.529   4.431   1.050  1.0288 -0.4671 -1.1784
  855SOL    HW212100   1.570   4.443   0.893 -0.8069 -1.5930 -1.7466
  856SOL     OW12101   3.176   0.922   1.515  0.2159 -0.4390  0.1344
  856SOL    HW112102   3.263   0.882   1.487 -0.6822  0.5091 -4.2527
  856SOL    HW212103   3.171   1.017   1.484 -1.7354  0.0475  1.8095
  857SOL     OW12104   4.095   4.712   1.166  0.2779 -0.2555  0.2294
  857SOL    HW112105   4.105   4.778   1.241 -1.7797  0.7501 -0.3376
  857SOL    HW212106   4.143   4.746   1.085  1.1257 -0.5541  0.6031
  858SOL     OW12107   9.117   5.292   1.362  0.0574  0.5622  0.4683
  858SOL    HW112108   9.041   5.272   1.423 -0.0890 -1.7510 -0.4083
  858SOL    HW212109   9.095   5.260   1.269  1.6464  0.8373 -0.0233
  859SOL     OW12110   0.744   5.622   1.964 -0.5037 -0.3640  0.1554
  859SOL    HW112111   0.679   5.630   2.039 -0.6411  0.1803 -0.0248
  859SOL    HW212112   0.835   5.603   2.001 -0.5490  0.0217  0.4657
  860SOL     OW12113   2.238   8.229   1.538 -0.2444 -0.4810 -0.0124
  860SOL    HW112114   2.273   8.149   1.587 -3.3124 -1.2096  1.0857
  860SOL    HW212115   2.206   8.202   1.448 -0.1376 -0.2657 -0.1147
  863SOL     OW12116   1.083   4.798   0.690  0.4502  0.1888 -0.0640
  863SOL    HW112117   1.102   4.720   0.629  1.6220  0.3522  0.0688
  863SOL    HW212118   1.169   4.844   0.712  0.0937 -0.1848  2.1654
  865SOL     OW12119   3.702   4.608   1.896 -0.3825  0.5610 -0.2609
  865SOL    HW112120   3.606   4.636   1.904  0.0175  1.7490  0.6412
  865SOL    HW212121   3.759   4.672   1.948  0.7034 -1.2245  0.7880
  868SOL     OW12122  10.212   5.274   0.836 -0.5011  0.0010  0.1947
  868SOL    HW112123  10.298   5.274   0.785 -0.9031 -1.0139 -0.5210
  868SOL    HW212124  10.214   5.344   0.907  0.3196  1.0355 -0.8230
  869SOL     OW12125   1.334   5.833   1.416  0.1331  0.4426  0.0368
  869SOL    HW112126   1.251   5.785   1.444  0.3945  0.0380  0.1262
  869SOL    HW212127   1.353   5.908   1.479 -0.2234  0.6050 -0.0483
  870SOL     OW12128   3.413   9.857   0.983  0.2797 -0.1852  0.7206
  870SOL    HW112129   3.388   9.791   1.054 -0.8228  1.5935  2.0595
  870SOL    HW212130   3.372   9.946   1.005  1.6174  0.9178 -1.0917
  871SOL     OW12131   2.282   4.179   1.182 -0.0406 -0.4619 -0.2719
  871SOL    HW112132   2.303   4.133   1.096  1.5420  0.9340 -0.6531
  871SOL    HW212133   2.203   4.238   1.170  0.0239 -0.4611 -0.7042
  872SOL     OW12134   4.785   3.326   1.625  0.1774  0.1883 -0.0781
  872SOL    HW112135   4.799   3.395   1.696  0.8104 -0.2480  0.2408
  872SOL    HW212136   4.724   3.254   1.660 -1.4864  1.2070 -0.8509
  873SOL     OW12137   1.854   1.651   0.947 -0.6490 -0.0911 -0.1815
  873SOL    HW112138   1.793   1.729   0.956  0.3358  0.6935 -0.2691
  873SOL    HW212139   1.871   1.612   1.037 -1.2315 -0.2812 -0.1508
  875SOL     OW12140   0.596   8.801   0.895  0.7535 -0.2303 -0.5081
  875SOL    HW112141   0.683   8.824   0.938  1.4974  0.4542 -2.3558
  875SOL    HW212142   0.610   8.731   0.826  0.0143  0.6556 -1.5697
  876SOL     OW12143   2.233   9.009   1.227 -0.6759  0.0544 -0.3309
  876SOL    HW112144   2.328   8.997   1.258 -0.1273 -0.2122 -2.0811
  876SOL    HW212145   2.216   9.106   1.211 -0.9971  0.2071  0.9026
  877SOL     OW12146   2.250   1.118   0.952 -0.7597  0.5400  0.1882
  877SOL    HW112147   2.338   1.089   0.914 -1.5879 -1.8020 -0.0528
  877SOL    HW212148   2.262   1.148   1.046  0.2602 -0.0697  0.2599
  878SOL     OW12149   3.285   2.337   2.151  0.3576 -0.0225  0.2713
  878SOL    HW112150   3.202   2.282   2.142  0.4947 -0.0337 -1.0048
  878SOL    HW212151   3.268   2.412   2.216 -0.0747 -1.0723  1.3881
  879SOL     OW12152   1.798   6.556   1.347  0.1320 -0.0083  0.2370
  879SOL    HW112153   1.865   6.575   1.275  0.1431 -0.3192  0.1655
  879SOL    HW212154   1.839   6.495   1.415 -0.4864 -1.2062 -0.4480
  880SOL     OW12155   3.157   2.084   2.255  0.5364 -0.0335 -0.0549
  880SOL    HW112156   3.090   2.131   2.198  0.6631 -0.9579 -0.9758
  880SOL    HW212157   3.232   2.052   2.198  1.2162  0.0215  0.8076
  881SOL     OW12158   1.790   1.835   0.481 -0.5169  0.1989 -0.0683
  881SOL    HW112159   1.825   1.778   0.407  0.5994  1.5434 -0.5931
  881SOL    HW212160   1.691   1.823   0.489 -0.7898  0.7355 -2.3909
  882SOL     OW12161   2.220   2.315   2.007  0.1819 -0.6364 -0.4779
  882SOL    HW112162   2.308   2.359   2.022  0.2124 -0.0224 -2.3501
  882SOL    HW212163   2.146   2.382   2.017  0.0296 -0.8142 -0.4015
  883SOL     OW12164   8.922   4.790   1.324 -0.5784  0.1802 -0.1141
  883SOL    HW112165   8.958   4.862   1.264  0.4354  0.1551  0.4523
  883SOL    HW212166   8.971   4.792   1.411  0.2529 -1.9393 -0.5077
  885SOL     OW12167   2.827   1.184   0.799 -0.0093  0.1156 -0.1649
  885SOL    HW112168   2.729   1.176   0.780 -0.0440 -2.5051  0.9672
  885SOL    HW212169   2.840   1.206   0.895  0.5446 -0.1047 -0.1907
  886SOL     OW12170   9.775   4.885   0.616 -0.1581  0.7100  0.4186
  886SOL    HW112171   9.866   4.894   0.655  0.4267  1.0246 -0.9653
  886SOL    HW212172   9.779   4.904   0.517 -1.8004  1.2060  0.4225
  887SOL     OW12173   3.775   9.557   0.923  0.0894 -0.1167 -0.1637
  887SOL    HW112174   3.795   9.630   0.988  1.2488 -0.1450 -0.4794
  887SOL    HW212175   3.728   9.594   0.843 -0.5260  0.0604  0.2753
  888SOL     OW12176   1.889   4.993   0.850 -0.1832 -0.0660  0.7591
  888SOL    HW112177   1.805   5.019   0.803 -1.9186 -0.1303  3.7334
  888SOL    HW212178   1.950   5.072   0.854 -0.5141  0.2601 -0.5603
  889SOL     OW12179   2.619   1.563   1.691 -0.2228  0.5481  0.1504
  889SOL    HW112180   2.570   1.648   1.713 -1.2187  0.0099  0.0345
  889SOL    HW212181   2.622   1.551   1.592 -0.0453  0.4580  0.1660
  891SOL     OW12182   2.218   9.670   1.395 -0.1921  0.4855 -0.5977
  891SOL    HW112183   2.224   9.668   1.494  0.7122 -0.6399 -0.6581
  891SOL    HW212184   2.122   9.662   1.367 -0.3277 -0.8066  0.1702
  892SOL     OW12185   2.447   1.344   1.302  0.2302 -0.4299 -0.5463
  892SOL    HW112186   2.496   1.303   1.225  2.1698 -0.0778  0.4808
  892SOL    HW212187   2.386   1.416   1.268 -1.3616 -2.4581 -2.0865
  893SOL     OW12188   2.463   6.995   0.794 -0.4245  0.6264  0.1714
  893SOL    HW112189   2.533   6.937   0.751 -1.6837 -0.7187 -0.1117
  893SOL    HW212190   2.381   6.996   0.737 -0.1113  3.4848 -0.2999
  894SOL     OW12191   0.904   0.724   2.170  0.2031  0.2004  0.0387
  894SOL    HW112192   0.853   0.731   2.256  1.2320  2.3012  0.5281
  894SOL    HW212193   0.840   0.725   2.093 -0.5970  0.9778  0.6968
  897SOL     OW12194   2.900   2.663   2.286 -0.0936 -0.2973  0.2115
  897SOL    HW112195   2.845   2.591   2.328 -1.4735 -0.5414 -1.9461
  897SOL    HW212196   2.943   2.629   2.203 -0.5649  1.2946 -0.7053
  898SOL     OW12197   3.336   1.762   2.899 -0.4006 -0.0753  0.6012
  898SOL    HW112198   3.420   1.709   2.907 -0.0725  0.4264  0.5522
  898SOL    HW212199   3.292   1.743   2.811  0.2399  0.4836  0.1574
  899SOL     OW12200   2.014   8.389   0.918 -0.0466 -0.2864  0.7492
  899SOL    HW112201   2.009   8.290   0.930  1.2848 -0.3928  0.5338
  899SOL    HW212202   1.991   8.413   0.824 -0.3352 -0.3944  0.7921
  900SOL     OW12203   2.846   4.600   1.397 -0.1004 -0.1616 -0.1463
  900SOL    HW112204   2.821   4.546   1.317 -1.0112  0.8435 -0.5525
  900SOL    HW212205   2.848   4.541   1.478  2.0369 -1.4359 -1.0858
  902SOL     OW12206   3.107   1.223   1.246  0.4113  0.5512 -0.3581
  902SOL    HW112207   3.071   1.308   1.209 -1.9859 -0.2622  0.0386
  902SOL    HW212208   3.129   1.235   1.343 -0.5277  0.5332 -0.1445
  903SOL     OW12209   2.269   5.175   0.547 -0.3029  0.7635 -0.2838
  903SOL    HW112210   2.273   5.136   0.640 -1.5032  1.0565 -0.0999
  903SOL    HW212211   2.361   5.177   0.508  0.2341  0.7494  0.9490
  904SOL     OW12212   0.675   3.601   0.513  0.6572  0.2093 -0.4095
  904SOL    HW112213   0.582   3.585   0.481  0.7039 -1.1888  0.1404
  904SOL    HW212214   0.704   3.693   0.486 -0.5336  0.3022 -1.4090
  905SOL     OW12215   1.494   6.361   1.572 -0.2398  0.7947 -0.3254
  905SOL    HW112216   1.508   6.428   1.498 -0.8077  1.2499 -0.0281
  905SOL    HW212217   1.434   6.401   1.641 -1.2808 -0.3479 -0.5591
  906SOL     OW12218   0.492   2.276   0.850  0.2707  0.4133 -0.0623
  906SOL    HW112219   0.503   2.345   0.779  1.5019 -1.5462 -1.8232
  906SOL    HW212220   0.535   2.190   0.821 -0.7299 -0.9488  2.3058
  908SOL     OW12221   2.469   8.344   1.656  0.4404 -0.1243 -0.1160
  908SOL    HW112222   2.550   8.361   1.599 -0.3569 -0.3940 -1.3323
  908SOL    HW212223   2.396   8.306   1.600 -0.7241  0.6296  0.8670
  910SOL     OW12224   4.679   4.666   1.538  0.2251  0.3714  0.8069
  910SOL    HW112225   4.639   4.755   1.518  0.1392  0.3393  0.8361
  910SOL    HW212226   4.695   4.659   1.637  2.0967  1.1457  0.5923
  911SOL     OW12227   3.917   3.189   1.711 -0.2537  0.2299  0.6389
  911SOL    HW112228   3.931   3.179   1.612 -0.4643 -0.3408  0.6626
  911SOL    HW212229   3.962   3.272   1.742 -1.2909  1.1035 -0.1516
  912SOL     OW12230   9.866   5.309   1.819  0.5578 -0.1513  0.3909
  912SOL    HW112231   9.807   5.310   1.738  1.3622  1.4147 -0.2040
  912SOL    HW212232   9.960   5.290   1.791  0.7523 -0.1223  1.0295
  914SOL     OW12233   4.432   4.270   1.367  0.1416 -0.1695 -0.2349
  914SOL    HW112234   4.420   4.183   1.318  1.2273 -0.0685 -0.6901
  914SOL    HW212235   4.526   4.277   1.400 -0.1449  0.5031  0.4571
  915SOL     OW12236   2.876   8.268   2.178  0.3407 -0.3747 -0.5697
  915SOL    HW112237   2.875   8.195   2.109  0.4262  1.1568 -2.2102
  915SOL    HW212238   2.829   8.348   2.142 -0.3783  0.1425  1.5111
  916SOL     OW12239   1.892   0.700   0.499 -0.3023 -0.1322  0.9418
  916SOL    HW112240   1.906   0.602   0.483 -0.3316  0.2718 -1.7206
  916SOL    HW212241   1.966   0.751   0.455 -2.1628  1.2183 -0.6935
  917SOL     OW12242  10.245   2.671   0.825 -0.0574  0.1799 -0.7838
  917SOL    HW112243  10.220   2.724   0.906 -0.4156 -1.7898  0.4455
  917SOL    HW212244  10.202   2.711   0.744 -0.7565  1.4287  0.1852
  918SOL     OW12245   1.244   3.784   1.624 -0.1197 -0.1714 -0.1555
  918SOL    HW112246   1.274   3.745   1.536 -0.1929  1.3252 -0.8549
  918SOL    HW212247   1.324   3.798   1.682 -0.0632 -1.1223  0.0044
  919SOL     OW12248   2.664   9.833   1.571 -0.6950 -0.6328 -0.2146
  919SOL    HW112249   2.638   9.869   1.481  1.1802 -0.1456 -0.5775
  919SOL    HW212250   2.683   9.736   1.563 -0.0488 -0.4880 -0.4453
  921SOL     OW12251   2.975   6.923   0.550 -0.5567 -0.3633  0.0454
  921SOL    HW112252   2.982   7.023   0.541  1.4284 -0.6233 -1.3371
  921SOL    HW212253   2.973   6.899   0.647 -1.8870  1.0657  0.3949
  922SOL     OW12254   0.961   5.967   1.353 -0.7680  0.1175 -0.0581
  922SOL    HW112255   0.894   5.977   1.426 -0.4611 -1.3865  0.4601
  922SOL    HW212256   0.915   5.946   1.267 -1.0851  1.1026 -0.1241
  923SOL     OW12257   4.969   2.029   0.547 -0.1866 -0.1787 -0.0292
  923SOL    HW112258   5.060   2.039   0.506 -0.5201 -0.4016 -0.8317
  923SOL    HW212259   4.963   1.941   0.594  0.6872  0.6909  1.7788
  924SOL     OW12260  10.286   8.080   1.196 -0.1950 -0.3894 -0.0907
  924SOL    HW112261  10.259   8.001   1.141 -0.8765  0.8836 -1.6290
  924SOL    HW212262  10.256   8.164   1.150  1.1260  0.7919  1.1804
  928SOL     OW12263   1.984   0.351   2.060 -0.2604 -0.2306 -0.0300
  928SOL    HW112264   1.980   0.252   2.058  1.2319 -0.4071  2.9522
  928SOL    HW212265   2.070   0.382   2.019 -0.5484 -0.1884 -0.6033
  929SOL     OW12266   0.585   4.205   1.179  0.3450  0.4470 -0.0622
  929SOL    HW112267   0.676   4.164   1.177  0.6719  1.1708 -0.3696
  929SOL    HW212268   0.567   4.250   1.092  0.5009  2.0161  0.6862
  931SOL     OW12269   4.085   2.233   1.851  0.1709 -0.4693 -0.4529
  931SOL    HW112270   3.999   2.245   1.902 -0.6999 -0.5678 -1.8589
  931SOL    HW212271   4.091   2.303   1.779  1.3676 -0.3467 -0.2426
  932SOL     OW12272   4.259   2.061   0.967 -0.6409  0.0228  0.6021
  932SOL    HW112273   4.273   2.148   1.016 -0.8789  0.7746 -0.6327
  932SOL    HW212274   4.338   2.044   0.909 -0.6346 -0.5591  0.7827
  933SOL     OW12275   1.323   1.855   1.414 -0.3425  1.0768 -0.9553
  933SOL    HW112276   1.236   1.880   1.455 -1.1576  2.3695 -3.4198
  933SOL    HW212277   1.309   1.781   1.348  1.0584 -1.4234  1.3945
  934SOL     OW12278   0.537   3.937   1.438 -0.2466  0.0749  0.3052
  934SOL    HW112279   0.502   3.932   1.531  1.3016  0.5491  0.9220
  934SOL    HW212280   0.461   3.954   1.375 -1.2628  0.0235  1.5026
  935SOL     OW12281   3.636   4.807   1.019  0.4042 -0.1276  0.3161
  935SOL    HW112282   3.725   4.787   1.061  0.6665 -0.9893 -0.6288
  935SOL    HW212283   3.610   4.901   1.040  1.3307 -0.0103  0.9761
  936SOL     OW12284   0.582   9.142   1.154 -0.4010 -0.0674  0.6020
  936SOL    HW112285   0.484   9.143   1.132 -0.3261 -1.2047  0.1857
  936SOL    HW212286   0.608   9.052   1.188  0.6086  0.0790  0.2365
  937SOL     OW12287   2.245   9.993   1.518 -0.0045  0.0216  0.2776
  937SOL    HW112288   2.182  10.026   1.448 -1.3255  0.6300  1.7222
  937SOL    HW212289   2.324  10.054   1.523  1.0268 -1.0860 -1.9552
  938SOL     OW12290   2.948   1.638   1.397 -0.1462  0.6019  0.0842
  938SOL    HW112291   2.848   1.631   1.400 -0.0784 -0.0655  1.1412
  938SOL    HW212292   2.976   1.733   1.408 -0.6704  0.7856 -0.1855
  939SOL     OW12293   2.889   1.626   0.343  0.1062  0.4043  0.2756
  939SOL    HW112294   2.945   1.672   0.412 -0.0463  1.3267 -0.2051
  939SOL    HW212295   2.817   1.573   0.388 -0.4236  1.5546  0.8191
  940SOL     OW12296   1.388   2.214   1.150 -0.1256  0.4079 -0.0117
  940SOL    HW112297   1.390   2.313   1.161  0.7729  0.3514  0.3649
  940SOL    HW212298   1.479   2.177   1.168 -0.3399 -0.4324 -0.6299
  941SOL     OW12299   1.976   1.300   0.847 -0.3379 -0.4599 -0.6038
  941SOL    HW112300   1.957   1.373   0.781  1.3901  0.7981  0.2588
  941SOL    HW212301   1.939   1.324   0.936 -0.4678 -1.0034 -0.5091
  943SOL     OW12302   1.564   5.038   1.947 -0.3218  0.0327  0.1450
  943SOL    HW112303   1.628   4.964   1.926  0.8559  1.1628 -0.2514
  943SOL    HW212304   1.531   5.079   1.862  0.2002  0.9707  0.3943
  944SOL     OW12305   2.678   6.863   0.606  0.5203  0.3000  0.1291
  944SOL    HW112306   2.676   6.955   0.567  0.3842  0.0476 -0.4726
  944SOL    HW212307   2.726   6.802   0.542  0.3221 -0.1135  0.3763
  945SOL     OW12308   1.279   4.648   1.792 -0.1800 -0.4973  0.2110
  945SOL    HW112309   1.280   4.619   1.696  1.4502 -1.9553  0.6531
  945SOL    HW212310   1.306   4.572   1.850 -0.6131  0.5419  1.8008
  946SOL     OW12311   3.166   7.647   0.427  0.1845 -0.6166 -0.4341
  946SOL    HW112312   3.165   7.732   0.480  1.2319 -0.7911 -0.1188
  946SOL    HW212313   3.195   7.571   0.487  1.3191 -0.8242 -1.2311
  949SOL     OW12314   4.025   2.795   1.590  0.0715 -0.2815 -0.1730
  949SOL    HW112315   3.940   2.753   1.558 -0.7334  0.1551  1.3228
  949SOL    HW212316   4.090   2.800   1.515 -1.4104 -0.1683 -1.4875
  950SOL     OW12317   4.457   2.755   1.937  0.1722 -0.2923  0.0771
  950SOL    HW112318   4.417   2.731   1.849 -2.0574  1.0852  0.6495
  950SOL    HW212319   4.503   2.675   1.976  1.3836 -0.8402 -2.4104
  951SOL     OW12320   4.744   2.439   0.548 -0.2385 -0.0259 -0.3090
  951SOL    HW112321   4.811   2.440   0.473  0.9860 -0.5849  0.7570
  951SOL    HW212322   4.747   2.528   0.595 -0.4833  0.0639 -0.4616
  952SOL     OW12323   1.344   4.136   2.075  0.3037 -0.0719 -0.0656
  952SOL    HW112324   1.267   4.173   2.127  0.8343 -0.0861  0.7375
  952SOL    HW212325   1.369   4.201   2.004  1.0891  1.0427  1.1971
  953SOL     OW12326  10.417   5.856   1.717  0.1213  0.2684  0.1116
  953SOL    HW112327  10.417   5.920   1.793 -0.8432 -0.1043  0.4298
  953SOL    HW212328  10.372   5.898   1.638 -2.6698 -0.8236  1.0394
  954SOL     OW12329   9.807   2.998   0.752 -0.0946  0.6341  0.4263
  954SOL    HW112330   9.742   2.950   0.811 -1.2104  1.9519  0.2940
  954SOL    HW212331   9.897   3.000   0.796 -0.4070 -0.2404  1.1138
  955SOL     OW12332   0.650   8.660   1.899 -0.2251 -0.0417 -0.0360
  955SOL    HW112333   0.606   8.721   1.964 -0.5784 -0.8769  0.5192
  955SOL    HW212334   0.702   8.590   1.948  2.9160  1.7318 -0.6686
  956SOL     OW12335   1.205   9.463   0.326 -0.7914  0.8258 -0.5656
  956SOL    HW112336   1.260   9.504   0.253 -1.7072  1.6685 -0.8061
  956SOL    HW212337   1.127   9.414   0.286 -1.2746  1.2566 -0.1647
  957SOL     OW12338   9.548   1.698   1.880  0.0593 -0.1956 -0.2250
  957SOL    HW112339   9.502   1.645   1.952 -0.0115 -0.7243 -0.6523
  957SOL    HW212340   9.596   1.775   1.921  1.2062 -1.3093  0.5672
  958SOL     OW12341   2.698   0.963   2.173 -0.4473 -0.1150  0.1295
  958SOL    HW112342   2.640   0.881   2.174  0.6611 -0.9077  2.6417
  958SOL    HW212343   2.677   1.020   2.252  2.5846 -0.7248  1.4353
  959SOL     OW12344   2.262   6.086   0.763  0.4084 -0.0299  0.0718
  959SOL    HW112345   2.246   6.164   0.824 -0.1522 -0.1491  0.0730
  959SOL    HW212346   2.361   6.074   0.751  0.4994  0.7928 -0.0674
  960SOL     OW12347   2.212   0.318   1.339 -0.1136 -0.7208 -0.6102
  960SOL    HW112348   2.178   0.385   1.406  1.8545  1.0484 -1.3479
  960SOL    HW212349   2.272   0.253   1.385 -0.2000 -0.5984 -0.3235
  961SOL     OW12350  10.336   6.210   1.106 -0.0384  0.3080  0.1449
  961SOL    HW112351  10.319   6.154   1.187 -2.4391  0.9123  0.1096
  961SOL    HW212352  10.369   6.300   1.134 -0.2069  0.2819  0.4351
  962SOL     OW12353   4.662   1.731   1.053 -0.8440 -0.2549 -0.6633
  962SOL    HW112354   4.739   1.703   0.997 -0.8153  0.5319 -1.0237
  962SOL    HW212355   4.580   1.738   0.996 -0.6648  1.2249 -0.7544
  963SOL     OW12356   3.876   4.413   1.066 -0.1287  0.3265 -0.2180
  963SOL    HW112357   3.830   4.326   1.084  1.9145 -0.2464  2.6126
  963SOL    HW212358   3.854   4.478   1.139  1.2828  0.9655 -0.3536
  964SOL     OW12359   4.449   2.413   0.562 -0.4848  0.0983  0.0431
  964SOL    HW112360   4.440   2.395   0.660 -0.4825  2.2813  0.4735
  964SOL    HW212361   4.546   2.415   0.538 -0.4810 -0.2950  0.0263
  966SOL     OW12362   9.388   3.974   1.403 -0.0300  0.0584  0.2360
  966SOL    HW112363   9.347   4.038   1.339  0.5358  1.5730  1.3546
  966SOL    HW212364   9.468   4.016   1.446 -0.2253 -1.0129  1.7112
  967SOL     OW12365   2.795   5.982   2.093 -0.5190  0.1936 -0.3964
  967SOL    HW112366   2.715   6.040   2.079 -0.4765  0.7639  1.5804
  967SOL    HW212367   2.855   6.024   2.160  0.4515 -1.2284 -0.3581
  968SOL     OW12368   2.602   2.447   0.644 -0.1645 -0.1434 -0.3688
  968SOL    HW112369   2.638   2.353   0.642 -0.7038 -0.3698  0.2313
  968SOL    HW212370   2.678   2.512   0.643  0.2757 -0.6144  0.7093
  969SOL     OW12371   9.106   2.410   2.302 -0.5315  0.0674 -0.0788
  969SOL    HW112372   9.075   2.371   2.216  0.5135 -0.3452 -0.2801
  969SOL    HW212373   9.042   2.385   2.375 -2.0721  1.4446 -0.9418
  971SOL     OW12374   3.715  10.123   0.382 -0.0898  0.4135 -0.1791
  971SOL    HW112375   3.723  10.066   0.300 -0.4239  0.0529  0.0403
  971SOL    HW212376   3.712  10.219   0.354 -0.6476  0.2722 -0.6213
  972SOL     OW12377   4.066   9.716   1.232 -0.2695 -0.7099  0.1424
  972SOL    HW112378   3.972   9.739   1.207 -1.0971 -1.5730  2.3354
  972SOL    HW212379   4.080   9.734   1.329  2.4418  1.3140 -0.5514
  973SOL     OW12380   2.550   5.261   2.043  0.3311 -0.3884 -0.0886
  973SOL    HW112381   2.595   5.238   2.129  0.3554  0.7866  0.2303
  973SOL    HW212382   2.488   5.338   2.059  1.1804  0.5774 -1.3481
  976SOL     OW12383  10.085   4.994   1.847  0.2061 -0.2668 -0.0537
  976SOL    HW112384  10.164   4.932   1.846  0.1934 -0.2996  0.7308
  976SOL    HW212385  10.017   4.960   1.912  0.7584  1.2590  1.3547
  977SOL     OW12386   9.357   1.742   0.481  0.4862 -0.0666  0.7631
  977SOL    HW112387   9.376   1.694   0.395  0.7061  0.7177  0.3698
  977SOL    HW212388   9.420   1.819   0.490  1.4078 -0.9803  2.3174
  979SOL     OW12389   2.039   4.710   1.434  0.4052 -0.5862  0.0653
  979SOL    HW112390   1.963   4.745   1.489  0.1948 -0.6842 -0.1623
  979SOL    HW212391   2.126   4.741   1.473  0.2479 -0.4794  0.3287
  980SOL     OW12392   1.571   9.744   1.177  0.2452  0.0537  0.2859
  980SOL    HW112393   1.546   9.839   1.157 -3.1371 -1.2403 -2.0520
  980SOL    HW212394   1.582   9.694   1.091  1.7098 -1.7655  1.4999
  982SOL     OW12395   9.091   4.123   2.115 -0.1483 -0.1682 -0.7337
  982SOL    HW112396   9.162   4.150   2.180  0.0499  1.8749 -1.7702
  982SOL    HW212397   9.058   4.031   2.138  1.2110 -0.2156  1.1225
  983SOL     OW12398  10.439   9.823   1.874  0.0952  0.3897  0.3922
  983SOL    HW112399  10.352   9.870   1.883 -0.0530 -0.1084  1.7760
  983SOL    HW212400  10.443   9.747   1.940  0.9463 -0.5594 -0.7309
  985SOL     OW12401   3.745   1.615   0.460 -0.1013 -0.2310 -0.3175
  985SOL    HW112402   3.677   1.633   0.531 -1.2153 -0.8926 -1.1961
  985SOL    HW212403   3.704   1.561   0.387  1.6087 -1.3356 -0.4935
  986SOL     OW12404   9.331   5.962   1.994  0.2395  0.1809 -0.4684
  986SOL    HW112405   9.236   5.947   2.022  0.9289 -2.6363  0.5067
  986SOL    HW212406   9.378   6.017   2.063  0.2849 -1.5889  0.9623
  988SOL     OW12407   3.807   4.658   1.179 -0.2865 -0.2009 -0.6728
  988SOL    HW112408   3.904   4.676   1.200 -0.5546  0.1572  0.3121
  988SOL    HW212409   3.751   4.691   1.255 -1.1688 -0.5877 -1.1582
  989SOL     OW12410   2.358   6.314   1.681  0.1983 -0.2659 -0.5086
  989SOL    HW112411   2.405   6.386   1.630  3.1677 -1.0229  1.0590
  989SOL    HW212412   2.305   6.354   1.756  0.4320  0.3946 -0.6952
  990SOL     OW12413   5.176   3.352   0.668  0.1112  0.5105  0.1727
  990SOL    HW112414   5.243   3.408   0.716  1.2558  0.2228 -1.0576
  990SOL    HW212415   5.222   3.272   0.629 -1.0158  0.1232 -0.3799
  991SOL     OW12416   2.912   6.033   1.048 -0.0936  0.3024  0.2136
  991SOL    HW112417   2.992   6.017   0.991  0.3599 -0.6328  1.1030
  991SOL    HW212418   2.907   6.131   1.071  1.2102  0.2500  0.7641
  992SOL     OW12419   4.565   3.361   2.143 -0.1827 -0.3980 -0.8052
  992SOL    HW112420   4.646   3.307   2.168  0.1084  0.1434 -0.5506
  992SOL    HW212421   4.553   3.435   2.210  0.9254  1.4133 -2.5446
  994SOL     OW12422   3.973   3.216   0.594  0.2898 -0.0237  0.7678
  994SOL    HW112423   4.009   3.301   0.632 -0.5787  0.3837  0.6862
  994SOL    HW212424   3.978   3.218   0.495 -0.0431  0.0784  0.7508
  995SOL     OW12425  10.232   3.139   0.531  0.1221  0.3409 -0.4442
  995SOL    HW112426  10.238   3.231   0.492 -1.8673  0.9175  0.5887
  995SOL    HW212427  10.299   3.079   0.486 -0.0438  1.7506 -2.5809
  996SOL     OW12428   3.476   7.639   1.054 -0.3197  0.3092  0.0873
  996SOL    HW112429   3.441   7.731   1.036 -2.2145  0.1233  2.4897
  996SOL    HW212430   3.543   7.643   1.128  0.1678 -0.1589 -0.3258
 1001SOL     OW12431   2.140   7.060   1.171 -0.1642  0.7864 -0.2709
 1001SOL    HW112432   2.203   7.136   1.189  0.8721 -0.4432  1.4526
 1001SOL    HW212433   2.179   6.999   1.103  0.6875 -0.1465  1.0302
 1002SOL     OW12434   1.294   9.517   1.347  0.1942  0.3159 -0.2838
 1002SOL    HW112435   1.329   9.602   1.309 -0.8533  0.2773 -1.3722
 1002SOL    HW212436   1.197   9.526   1.367  0.0725 -0.6119 -0.4002
 1003SOL     OW12437   1.506   2.218   0.365  0.1232  0.0709 -0.4865
 1003SOL    HW112438   1.603   2.243   0.359  0.4055 -0.6597  0.6998
 1003SOL    HW212439   1.463   2.227   0.275  1.2060  0.7434 -0.9466
 1004SOL     OW12440   1.705   2.856   1.721 -0.2132  0.0173  0.3493
 1004SOL    HW112441   1.688   2.847   1.622  0.4926 -0.3561  0.2548
 1004SOL    HW212442   1.658   2.782   1.770 -0.6518  0.2651  0.3021
 1005SOL     OW12443   2.564   4.261   1.130 -0.2229 -0.5668  0.2967
 1005SOL    HW112444   2.543   4.307   1.044 -0.4952  1.0052  1.1830
 1005SOL    HW212445   2.479   4.231   1.173 -0.1261 -0.8776  0.2693
 1006SOL     OW12446   2.091   2.572   1.170 -0.8383 -0.2711 -0.1113
 1006SOL    HW112447   2.071   2.506   1.242 -1.4082 -0.0032 -0.0204
 1006SOL    HW212448   2.129   2.655   1.209 -0.9752 -0.1972 -0.1321
 1007SOL     OW12449   2.020   4.018   1.510 -0.2662 -0.5097 -0.7486
 1007SOL    HW112450   1.961   4.096   1.492 -1.5899 -1.7973 -2.1464
 1007SOL    HW212451   1.984   3.966   1.588 -0.1232 -0.4507 -0.6432
 1008SOL     OW12452   3.484   1.860   0.900  0.3358  0.1659 -0.3561
 1008SOL    HW112453   3.487   1.945   0.953  0.4901  0.7252 -1.2527
 1008SOL    HW212454   3.424   1.872   0.821 -1.7470 -1.4090  0.9452
 1009SOL     OW12455   9.788   3.021   1.904 -0.2410  0.1651  0.3225
 1009SOL    HW112456   9.735   2.957   1.960 -0.2296 -0.1581 -0.0288
 1009SOL    HW212457   9.729   3.060   1.834 -0.2985  0.7070  0.6729
 1010SOL     OW12458   1.530   1.947   0.473 -0.1521  0.1506  0.0033
 1010SOL    HW112459   1.454   1.904   0.521  0.2766 -1.2622 -0.5677
 1010SOL    HW212460   1.507   2.042   0.453 -0.9786  0.2838  1.5623
 1011SOL     OW12461   2.891   1.301   0.553 -0.4238  0.1010  0.0066
 1011SOL    HW112462   2.867   1.251   0.635  0.5230 -0.4067 -0.0226
 1011SOL    HW212463   2.985   1.335   0.560 -0.9779  1.7007 -0.0519
 1012SOL     OW12464   4.398   1.671   0.998 -0.4219  0.3489 -0.3058
 1012SOL    HW112465   4.409   1.688   0.900 -0.6251 -0.9347 -0.5606
 1012SOL    HW212466   4.301   1.658   1.018 -0.3714  0.5407  0.0488
 1013SOL     OW12467   1.896   5.777   1.636 -0.0988 -0.0234  0.1837
 1013SOL    HW112468   1.932   5.686   1.620 -2.0468 -0.6053 -1.1770
 1013SOL    HW212469   1.951   5.844   1.586  0.9433 -0.5230  0.6570
 1015SOL     OW12470   0.901   2.916   2.317  0.1354  0.1940  0.3917
 1015SOL    HW112471   0.994   2.882   2.300 -0.1046 -0.0445 -0.4241
 1015SOL    HW212472   0.835   2.845   2.296 -0.2767  0.6166  0.2705
 1016SOL     OW12473   3.623   0.292   1.411  0.0132  0.0083 -0.7010
 1016SOL    HW112474   3.678   0.258   1.334  1.8082  0.0405  0.5490
 1016SOL    HW212475   3.683   0.328   1.482 -1.6523  0.4072  0.5377
 1017SOL     OW12476  10.385   0.439   0.679 -0.3120  0.0242 -0.5576
 1017SOL    HW112477  10.344   0.412   0.766  1.6905 -1.2689  0.0271
 1017SOL    HW212478  10.483   0.417   0.680  0.1515  1.8154 -2.3900
 1018SOL     OW12479   0.863   4.104   1.102  0.2186 -0.3421 -0.0123
 1018SOL    HW112480   0.874   4.045   1.182  2.0156 -1.1407 -0.8398
 1018SOL    HW212481   0.855   4.048   1.020  0.4510  0.5393 -0.6440
 1019SOL     OW12482   1.347   5.438   1.344  0.3880  0.1548  0.2677
 1019SOL    HW112483   1.250   5.430   1.368 -0.1130  2.3619 -0.8380
 1019SOL    HW212484   1.367   5.533   1.320  2.8744 -0.2605  0.6138
 1020SOL     OW12485   3.602   9.013   1.832 -0.4069  0.2266 -0.5364
 1020SOL    HW112486   3.578   8.918   1.850 -0.1789  0.2277 -0.2312
 1020SOL    HW212487   3.690   9.035   1.874 -0.6208  0.6680 -0.3097
 1022SOL     OW12488   2.980   2.483   1.755  0.0677  0.3935 -0.0243
 1022SOL    HW112489   2.911   2.528   1.699  1.2121 -1.5377 -3.0717
 1022SOL    HW212490   3.058   2.545   1.768 -0.2398  0.8735 -0.4642
 1025SOL     OW12491   4.154   3.647   2.011  0.4413 -0.3406  0.1922
 1025SOL    HW112492   4.187   3.590   2.086  0.2968 -1.7137 -0.7631
 1025SOL    HW212493   4.054   3.648   2.011  0.4435  0.3975  0.5535
 1026SOL     OW12494   4.162   4.035   0.460  1.0331 -0.0602 -0.0274
 1026SOL    HW112495   4.251   4.037   0.505  2.2185 -0.9572 -2.3007
 1026SOL    HW212496   4.165   3.976   0.380 -1.1381  1.2479 -1.1445
 1027SOL     OW12497   2.822   5.600   1.021 -0.6261 -0.0976 -0.3484
 1027SOL    HW112498   2.788   5.522   1.074 -0.3356  0.3847  0.5655
 1027SOL    HW212499   2.896   5.569   0.961 -1.8812 -0.9231 -1.5192
 1028SOL     OW12500   1.444   3.962   0.790 -0.3635  1.0409  0.0595
 1028SOL    HW112501   1.367   3.904   0.763 -1.1504  1.2250  1.8387
 1028SOL    HW212502   1.459   3.954   0.888  3.6922 -1.1745 -0.6149
 1029SOL     OW12503   2.275   8.891   1.722 -0.1177  0.1445  0.3091
 1029SOL    HW112504   2.257   8.847   1.635 -0.1534  0.1226  0.3267
 1029SOL    HW212505   2.212   8.856   1.791  0.0162  0.0412  0.3799
 1030SOL     OW12506   1.280   1.833   0.530 -0.1902  0.2090  0.5186
 1030SOL    HW112507   1.207   1.814   0.465  0.5621  1.7851 -0.8316
 1030SOL    HW212508   1.322   1.748   0.560 -0.1022 -0.5283 -1.5994
 1031SOL     OW12509   1.441   9.469   2.190  0.4753 -0.3688  0.5337
 1031SOL    HW112510   1.382   9.514   2.256 -0.9470  0.5261 -1.3192
 1031SOL    HW212511   1.436   9.370   2.203 -1.2884 -0.2855  0.4951
 1035SOL     OW12512   2.036   7.501   1.088  1.0017  0.1791  0.2293
 1035SOL    HW112513   1.996   7.590   1.065  0.2932  0.2761  1.7571
 1035SOL    HW212514   2.010   7.434   1.019  2.3325  1.3522 -1.4588
 1037SOL     OW12515   1.050   5.706   1.022 -0.1883  0.2098  0.2063
 1037SOL    HW112516   1.057   5.787   0.963 -0.3749  1.5285  1.9383
 1037SOL    HW212517   1.026   5.627   0.967 -0.0087  1.3305 -1.5393
 1038SOL     OW12518  10.125   4.628   1.162  0.2848 -0.7594 -0.3366
 1038SOL    HW112519  10.112   4.577   1.246  1.1235 -0.3873  0.0284
 1038SOL    HW212520  10.191   4.702   1.178 -0.6641  0.2240 -0.9389
 1039SOL     OW12521   3.821   8.108   1.022  0.2674  0.2940 -0.2929
 1039SOL    HW112522   3.754   8.055   1.073  0.3801 -0.0876 -0.5385
 1039SOL    HW212523   3.795   8.111   0.925  0.2830  0.6513 -0.2867
 1040SOL     OW12524   1.884   7.013   1.257 -0.3182  0.2617 -0.2312
 1040SOL    HW112525   1.973   7.028   1.212 -0.3558 -0.8427 -0.6833
 1040SOL    HW212526   1.894   7.027   1.355  0.3603  0.1339 -0.2785
 1041SOL     OW12527   1.837   4.911   2.158  0.0248 -0.1490  0.4424
 1041SOL    HW112528   1.825   5.009   2.169  0.1282 -0.2033  1.0887
 1041SOL    HW212529   1.780   4.863   2.225  0.5708 -0.5049  0.6571
 1042SOL     OW12530   4.982   3.132   1.749 -0.3748 -0.8509  0.7264
 1042SOL    HW112531   5.081   3.129   1.735 -0.4183 -1.4190  0.5175
 1042SOL    HW212532   4.947   3.221   1.720 -0.1727 -1.2940 -0.9776
 1043SOL     OW12533   4.122   0.584   1.619  0.2635  0.0275 -0.5248
 1043SOL    HW112534   4.201   0.593   1.680  0.6492 -0.3348 -0.9750
 1043SOL    HW212535   4.130   0.500   1.566 -0.1802  0.2421 -0.9330
 1044SOL     OW12536   8.782   2.529   1.812 -0.0450 -0.0559  0.3120
 1044SOL    HW112537   8.876   2.493   1.817  0.3199  0.9625  0.8968
 1044SOL    HW212538   8.763   2.559   1.719  0.2910 -0.0430  0.2453
 1045SOL     OW12539  10.332  10.108   1.888  0.1377 -0.2396 -0.1434
 1045SOL    HW112540  10.374  10.114   1.798 -1.0081 -2.6514 -0.8620
 1045SOL    HW212541  10.258  10.175   1.896  1.4861  1.3160 -0.2510
 1046SOL     OW12542   0.815   7.189   0.493  0.6253  0.1918 -0.1066
 1046SOL    HW112543   0.893   7.251   0.504  0.0978  0.7638  0.3920
 1046SOL    HW212544   0.739   7.238   0.451 -0.4306  0.3832  1.9882
 1047SOL     OW12545   3.432   8.754   1.455  0.1670 -0.0801 -0.6418
 1047SOL    HW112546   3.347   8.744   1.507  0.2658 -0.9610 -0.6350
 1047SOL    HW212547   3.436   8.845   1.414 -0.1374  0.4500  0.4946
 1050SOL     OW12548   1.131   6.356   0.770 -0.6778 -0.0056  0.0686
 1050SOL    HW112549   1.215   6.338   0.719 -0.7089  0.6850 -0.2394
 1050SOL    HW212550   1.089   6.441   0.736 -0.3949  0.7734  1.6183
 1051SOL     OW12551  10.408   1.862   2.349 -0.9284  0.1290 -0.0581
 1051SOL    HW112552  10.359   1.934   2.398 -0.7128  1.4077 -1.7001
 1051SOL    HW212553  10.393   1.872   2.251  1.9971  0.0984 -0.5410
 1052SOL     OW12554   4.042   3.338   0.325  0.2729 -0.5774 -0.1671
 1052SOL    HW112555   3.960   3.369   0.277 -0.4712 -1.6200  0.4087
 1052SOL    HW212556   4.120   3.394   0.298 -0.9132  1.3654  0.3571
 1054SOL     OW12557   3.244   4.962   2.231  0.2853  0.8104  0.0913
 1054SOL    HW112558   3.216   4.960   2.327 -1.2583  0.4003 -0.3544
 1054SOL    HW212559   3.187   5.026   2.181  0.7786  0.6782 -0.6451
 1055SOL     OW12560   9.800   0.853   1.807 -0.2839 -0.4411 -0.1865
 1055SOL    HW112561   9.818   0.832   1.710 -0.1113 -0.4249 -0.1587
 1055SOL    HW212562   9.715   0.905   1.815 -0.0493 -0.0306 -0.3724
 1056SOL     OW12563   9.572   2.371   1.668  0.3151  0.7632 -0.1681
 1056SOL    HW112564   9.552   2.460   1.710 -1.7716  0.6579 -0.8650
 1056SOL    HW212565   9.486   2.321   1.655  1.6557 -2.5537  2.7876
 1057SOL     OW12566   9.097   4.473   2.230 -0.8025 -0.2614 -0.0463
 1057SOL    HW112567   9.050   4.448   2.146  0.8223  0.9613 -1.3659
 1057SOL    HW212568   9.053   4.554   2.270 -1.2193 -0.4863 -0.0540
 1059SOL     OW12569   1.628   8.947   1.276  0.0296 -0.3656  0.1226
 1059SOL    HW112570   1.683   8.931   1.194  1.1574 -2.3631  1.2473
 1059SOL    HW212571   1.533   8.922   1.257 -0.5201  2.8385 -1.7362
 1060SOL     OW12572   2.435   1.720   0.684  0.5391  0.0089 -0.3447
 1060SOL    HW112573   2.389   1.739   0.597  0.9181 -0.4195 -0.6419
 1060SOL    HW212574   2.494   1.797   0.708 -0.6478  0.7463  0.2513
 1061SOL     OW12575   2.618   1.474   1.446  0.2714 -0.0014 -0.0046
 1061SOL    HW112576   2.554   1.406   1.410  1.9768 -0.7195 -1.7593
 1061SOL    HW212577   2.618   1.554   1.386  0.2035  0.4597  0.6099
 1062SOL     OW12578   2.272   5.621   0.619  0.5415 -0.1136  0.3307
 1062SOL    HW112579   2.234   5.598   0.530 -0.4844  0.1859  0.6842
 1062SOL    HW212580   2.246   5.551   0.686  1.9975 -0.7777  0.2280
 1063SOL     OW12581   1.523   9.079   2.245  0.2457 -0.1947  0.2631
 1063SOL    HW112582   1.432   9.107   2.214  0.2582 -0.3299  0.1073
 1063SOL    HW212583   1.593   9.124   2.190  0.2469 -2.5202 -1.6899
 1065SOL     OW12584   2.083  10.068   0.888  0.4111 -0.2420  0.1734
 1065SOL    HW112585   2.021  10.081   0.966 -0.2611  2.2685 -0.7260
 1065SOL    HW212586   2.033  10.084   0.803  1.6454 -0.9383 -0.7008
 1067SOL     OW12587   1.692   3.235   2.290  0.0529 -0.1412  0.3102
 1067SOL    HW112588   1.748   3.202   2.365  1.5619  0.7114 -0.4150
 1067SOL    HW212589   1.731   3.205   2.203 -0.8215  0.1642 -0.2041
 1069SOL     OW12590   1.049   4.329   0.809 -0.5864 -0.6174  0.1130
 1069SOL    HW112591   1.132   4.305   0.859  0.3621  0.8026 -0.7388
 1069SOL    HW212592   1.007   4.410   0.850  0.2918  0.6575 -1.4273
 1071SOL     OW12593   2.089   4.568   1.735 -0.1751 -0.1964 -0.7109
 1071SOL    HW112594   2.082   4.555   1.834  0.4916 -0.1277 -0.6478
 1071SOL    HW212595   2.134   4.488   1.695  0.6723  0.3064 -0.7902
 1072SOL     OW12596   4.364   2.860   0.662 -0.3640 -0.2519 -0.1537
 1072SOL    HW112597   4.393   2.863   0.758 -0.2295 -0.8657 -0.1737
 1072SOL    HW212598   4.289   2.924   0.648  0.6949  1.0504 -0.0006
 1073SOL     OW12599  10.337   9.111   0.509 -0.0931 -0.2035  0.1945
 1073SOL    HW112600  10.313   9.063   0.593  1.7734 -0.6389  0.5035
 1073SOL    HW212601  10.306   9.057   0.430 -0.2678 -0.6626  0.5715
 1074SOL     OW12602   2.050   3.668   1.909 -0.3774 -0.3194  0.0096
 1074SOL    HW112603   2.045   3.646   1.812 -1.6826  2.4973 -0.6161
 1074SOL    HW212604   1.960   3.658   1.951  0.2224 -1.7325  0.9969
 1075SOL     OW12605   1.686   4.502   0.786 -0.1353 -0.1842  0.1906
 1075SOL    HW112606   1.771   4.526   0.833 -0.2132 -0.1399  0.3081
 1075SOL    HW212607   1.681   4.553   0.700 -0.2202  0.0950  0.3605
 1076SOL     OW12608   2.123   8.865   1.031  0.2197  0.1404  0.1368
 1076SOL    HW112609   2.154   8.927   1.103 -1.1678  1.3474 -0.2746
 1076SOL    HW212610   2.138   8.770   1.059  0.9293  0.6252  1.4368
 1077SOL     OW12611   3.946   2.406   2.341  0.6151  0.3557  0.3822
 1077SOL    HW112612   3.990   2.323   2.376  1.5851  0.2973 -0.9126
 1077SOL    HW212613   4.007   2.450   2.275 -0.9040  0.8001 -0.7415
 1078SOL     OW12614   2.366   2.989   2.199 -0.4759 -0.1260 -0.2287
 1078SOL    HW112615   2.297   3.046   2.154  0.2970  0.2897 -0.9015
 1078SOL    HW212616   2.362   3.003   2.298 -0.0757  1.3532 -0.4065
 1079SOL     OW12617   2.185   6.533   1.279 -0.0652  0.0145 -0.1720
 1079SOL    HW112618   2.248   6.487   1.217 -1.1666 -0.3750 -1.0168
 1079SOL    HW212619   2.158   6.470   1.351  1.4998  0.5790  0.9336
 1080SOL     OW12620   4.618   4.434   0.466 -0.5028 -0.1815 -0.0214
 1080SOL    HW112621   4.620   4.347   0.417 -2.9908  0.6790 -1.7686
 1080SOL    HW212622   4.560   4.425   0.547  0.9696 -0.7158  0.9825
 1081SOL     OW12623   0.937   4.948   1.439  0.0181 -0.0694 -0.3305
 1081SOL    HW112624   0.856   4.982   1.488  0.1393  1.4035 -1.1113
 1081SOL    HW212625   1.015   4.944   1.502 -0.9115 -2.6596  0.7395
 1082SOL     OW12626   1.469   5.684   0.937  0.1132 -0.3977 -0.6347
 1082SOL    HW112627   1.421   5.686   1.025 -0.4481  1.2423 -0.9685
 1082SOL    HW212628   1.480   5.589   0.907 -0.7152 -0.9089  0.6422
 1083SOL     OW12629   9.008   1.560   2.105 -0.2051  0.1528 -0.4750
 1083SOL    HW112630   9.020   1.478   2.162 -0.4332  1.2061  1.1306
 1083SOL    HW212631   8.923   1.606   2.131  0.4171  1.4311 -0.6992
 1084SOL     OW12632   3.051   9.407   1.044 -0.4258 -0.1920 -0.4683
 1084SOL    HW112633   2.989   9.465   1.095  0.3179  1.6472 -1.6072
 1084SOL    HW212634   3.086   9.335   1.104 -1.2917  0.5866  0.9969
 1085SOL     OW12635   1.794   7.887   1.646  0.0444  0.3415 -0.3502
 1085SOL    HW112636   1.727   7.842   1.704  0.2595  0.2935 -0.1348
 1085SOL    HW212637   1.819   7.827   1.570  2.4515 -1.1145  1.4981
 1086SOL     OW12638   2.886   8.931   2.265 -0.6104 -0.0226  0.5384
 1086SOL    HW112639   2.899   8.944   2.167 -0.4001 -4.2101 -0.0630
 1086SOL    HW212640   2.789   8.938   2.287 -0.7464  0.0591 -0.0907
 1087SOL     OW12641   0.613   1.557   1.995  0.0701  0.4287  0.0764
 1087SOL    HW112642   0.514   1.573   1.999  0.1778  0.9492  0.7610
 1087SOL    HW212643   0.659   1.643   1.971  0.5416  0.7876  2.2244
 1088SOL     OW12644   1.965   0.513   0.736 -0.5239  0.0498  0.2003
 1088SOL    HW112645   2.041   0.469   0.690 -1.1434 -0.6394 -0.1744
 1088SOL    HW212646   1.979   0.512   0.835 -1.6157 -3.0470  0.3613
 1089SOL     OW12647   0.756   7.212   1.081 -0.2052  0.1356 -0.6722
 1089SOL    HW112648   0.828   7.166   1.133 -1.0644  1.6399  1.9693
 1089SOL    HW212649   0.795   7.291   1.033 -0.0448  1.0730  0.9193
 1092SOL     OW12650   1.336   9.161   0.829 -0.3375 -0.8356 -0.3170
 1092SOL    HW112651   1.392   9.242   0.813  1.8462 -2.4808 -1.3009
 1092SOL    HW212652   1.280   9.142   0.748 -0.5739 -0.5237 -0.2268
 1093SOL     OW12653   3.409   1.126   2.088  0.7027  0.2366 -0.5471
 1093SOL    HW112654   3.496   1.138   2.136 -0.3658 -0.8112  1.7272
 1093SOL    HW212655   3.387   1.209   2.037  1.2186  1.9310  1.9100
 1094SOL     OW12656   3.811   1.479   2.137 -0.1527  0.0919  0.5323
 1094SOL    HW112657   3.773   1.518   2.221 -0.0112  0.2575  0.5186
 1094SOL    HW212658   3.766   1.521   2.058  2.0541  2.3822  0.4388
 1095SOL     OW12659   1.991   5.888   2.206  0.4323 -0.0061  0.1487
 1095SOL    HW112660   2.052   5.933   2.272  0.2151 -0.5950  0.7540
 1095SOL    HW212661   2.021   5.909   2.113  0.7607  0.8006  0.4393
 1096SOL     OW12662   2.538   0.988   1.521 -0.1689 -0.2661 -0.3273
 1096SOL    HW112663   2.497   1.004   1.610 -1.6253  0.0846 -1.0415
 1096SOL    HW212664   2.588   1.070   1.492  0.1142 -0.2992  0.0667
 1097SOL     OW12665   4.050   3.526   1.017  0.0753  0.1899  0.2272
 1097SOL    HW112666   4.060   3.617   0.976  1.1895  0.1100  0.3082
 1097SOL    HW212667   4.074   3.531   1.114  0.4673 -0.2684  0.1518
 1098SOL     OW12668   9.263   5.621   1.246 -0.1642  0.0738  0.3265
 1098SOL    HW112669   9.186   5.662   1.294  0.4005  0.1571  1.1719
 1098SOL    HW212670   9.283   5.531   1.286  0.6427  0.3695  0.5897
 1099SOL     OW12671   2.077   5.210   0.895  0.2794  0.0760 -0.0804
 1099SOL    HW112672   2.092   5.222   0.993  0.1735 -0.7364  0.0324
 1099SOL    HW212673   2.163   5.188   0.850 -0.0729 -1.9719  0.1901
 1101SOL     OW12674   3.634   3.281   0.440 -0.1219 -0.1120  0.1867
 1101SOL    HW112675   3.601   3.264   0.533 -0.7647 -0.4699 -0.1085
 1101SOL    HW212676   3.557   3.293   0.378  0.3061  0.2582 -0.2845
 1102SOL     OW12677   2.879   5.486   1.473 -0.0837  0.9302 -0.7150
 1102SOL    HW112678   2.799   5.462   1.418  0.0349 -2.2035  0.4098
 1102SOL    HW212679   2.855   5.486   1.570  0.6529  2.6487 -0.5080
 1103SOL     OW12680   2.643   1.101   1.951 -0.2017 -0.3653 -0.1090
 1103SOL    HW112681   2.667   1.035   1.880  1.4647 -0.2429  0.3322
 1103SOL    HW212682   2.674   1.068   2.040 -2.1770 -0.4697  0.5809
 1104SOL     OW12683   3.270   1.762   1.135  0.1166 -0.3425  0.2235
 1104SOL    HW112684   3.174   1.770   1.110  0.1266 -4.2944 -1.4032
 1104SOL    HW212685   3.321   1.839   1.098 -1.9647  0.3495 -1.2689
 1105SOL     OW12686   2.134   1.279   1.452 -0.2956  0.0549  0.1594
 1105SOL    HW112687   2.118   1.377   1.454  3.7150  0.7656  1.2854
 1105SOL    HW212688   2.171   1.253   1.362  0.3114 -0.0925  0.4442
 1108SOL     OW12689   3.565   2.075   0.360  0.4865 -0.2688  0.2439
 1108SOL    HW112690   3.480   2.050   0.407  1.4219 -0.5484  1.8006
 1108SOL    HW212691   3.636   2.009   0.383  1.7041  1.1655  0.6457
 1109SOL     OW12692   5.307   3.805   0.874 -0.3062  0.1545 -0.4604
 1109SOL    HW112693   5.235   3.809   0.805 -1.2477  1.4372  0.5700
 1109SOL    HW212694   5.385   3.861   0.843  0.6515 -1.9493 -1.9816
 1110SOL     OW12695   2.488   0.348   1.184 -0.2077  0.0861 -0.0813
 1110SOL    HW112696   2.441   0.262   1.206 -1.6338  0.8100 -0.2541
 1110SOL    HW212697   2.486   0.363   1.085 -1.4318  1.1381  0.0945
 1111SOL     OW12698   2.886   8.181   0.413  0.0759  0.2361  0.2284
 1111SOL    HW112699   2.888   8.097   0.468  0.1319  0.3367  0.3804
 1111SOL    HW212700   2.889   8.261   0.474  1.4146  0.3450  0.0347
 1112SOL     OW12701   9.573   1.747   1.245  0.2048  0.0590 -0.1937
 1112SOL    HW112702   9.648   1.791   1.195  1.4537 -1.6575  0.1210
 1112SOL    HW212703   9.565   1.652   1.215  1.4268 -1.2366  3.2720
 1113SOL     OW12704   2.031   7.908   1.774  0.1883  0.4107  0.4014
 1113SOL    HW112705   2.070   7.998   1.792  0.1762  0.5668 -0.3234
 1113SOL    HW212706   1.946   7.918   1.721  0.6895 -0.0606 -0.5118
 1114SOL     OW12707   3.173   8.348   1.240 -0.2735  0.1692  0.7177
 1114SOL    HW112708   3.188   8.441   1.205  0.1136 -0.5989 -1.2522
 1114SOL    HW212709   3.140   8.352   1.334 -0.9109  2.3198  0.4235
 1116SOL     OW12710   1.710   9.581   2.134  0.1213 -0.1448  0.4417
 1116SOL    HW112711   1.639   9.514   2.156 -0.0835 -0.1635 -0.2588
 1116SOL    HW212712   1.713   9.595   2.035  0.6270  0.3704  0.5272
 1117SOL     OW12713   9.003   4.204   1.851 -0.4323 -0.1454 -0.1281
 1117SOL    HW112714   8.957   4.141   1.789  0.0604 -0.8723  0.2315
 1117SOL    HW212715   9.021   4.157   1.938 -0.1771  0.5321  0.1878
 1118SOL     OW12716   2.576   2.370   1.965 -0.1278  0.1729  0.1096
 1118SOL    HW112717   2.527   2.307   1.904  2.6599 -2.1566  0.1730
 1118SOL    HW212718   2.618   2.443   1.910  2.1624 -1.7739 -0.8163
 1119SOL     OW12719   2.630   3.870   1.743 -0.3899 -0.5279 -0.3288
 1119SOL    HW112720   2.712   3.821   1.714  0.2484  0.0843  0.4227
 1119SOL    HW212721   2.565   3.805   1.783 -1.1664 -1.3371 -2.8429
 1120SOL     OW12722   4.219   1.214   0.612  0.0681 -0.1964  0.2625
 1120SOL    HW112723   4.143   1.248   0.558  2.3762  1.8329 -1.7965
 1120SOL    HW212724   4.252   1.287   0.673  1.7246 -0.3740 -0.4121
 1121SOL     OW12725   3.301   1.137   0.985  0.0820 -0.6227 -0.0560
 1121SOL    HW112726   3.234   1.073   0.947  0.4484 -0.6992 -0.5709
 1121SOL    HW212727   3.308   1.121   1.084 -0.7542 -0.5228  0.0260
 1122SOL     OW12728   1.537   6.573   2.048 -0.3613 -0.6141  0.3484
 1122SOL    HW112729   1.554   6.605   1.955  2.0898 -1.3455  0.5184
 1122SOL    HW212730   1.454   6.516   2.048 -2.6027  2.5116 -0.6272
 1123SOL     OW12731   3.216   3.893   1.495 -0.7663  0.6068  0.2119
 1123SOL    HW112732   3.141   3.827   1.491 -0.5206  0.3968 -1.6945
 1123SOL    HW212733   3.286   3.867   1.428  0.6656  1.2185  1.4404
 1124SOL     OW12734   0.666   8.907   1.286 -0.0863  0.1550  0.4134
 1124SOL    HW112735   0.762   8.882   1.272  0.3227 -0.2693  3.4999
 1124SOL    HW212736   0.606   8.836   1.249  0.8593 -0.6647  0.4445
 1125SOL     OW12737   5.018   2.843   1.718  0.2706 -0.2458  0.6318
 1125SOL    HW112738   4.926   2.808   1.735  0.4119 -0.6849  0.4880
 1125SOL    HW212739   5.017   2.943   1.724 -0.6912 -0.0922 -1.6395
 1126SOL     OW12740   4.320   4.049   2.128 -0.1129 -0.4114  0.1086
 1126SOL    HW112741   4.358   4.127   2.077 -2.6076  0.0194 -1.2096
 1126SOL    HW212742   4.284   3.982   2.063 -0.0845 -1.5745  1.2890
 1127SOL     OW12743   3.998   4.274   0.489  0.0411 -0.0245 -0.2152
 1127SOL    HW112744   4.087   4.237   0.464  0.3581  0.4464  0.1982
 1127SOL    HW212745   3.942   4.202   0.530  0.2070 -0.3380 -0.5412
 1128SOL     OW12746   2.244   1.330   1.990  0.9762  0.1230  0.2907
 1128SOL    HW112747   2.314   1.307   2.058  0.9234 -0.3466  0.1890
 1128SOL    HW212748   2.181   1.253   1.981  2.2087 -0.6976 -1.8470
 1129SOL     OW12749   2.548  10.000   0.920  0.1118  0.2150 -0.1159
 1129SOL    HW112750   2.595  10.043   0.844  2.1202  0.0102  0.9630
 1129SOL    HW212751   2.454   9.980   0.895  0.5986  0.6438 -2.3349
 1131SOL     OW12752   2.997   5.108   1.558  0.4371 -0.2472 -0.1130
 1131SOL    HW112753   3.073   5.125   1.622  0.1378 -0.3330  0.2674
 1131SOL    HW212754   2.955   5.020   1.579 -1.8590  1.2298  1.8138
 1132SOL     OW12755   1.151   2.734   1.331 -0.3969 -0.3447 -0.8000
 1132SOL    HW112756   1.066   2.688   1.355 -0.3900 -0.7894 -1.6142
 1132SOL    HW212757   1.177   2.710   1.238  0.2328  0.3733 -0.8183
 1133SOL     OW12758   3.682   1.489   0.963  0.2524 -0.5432  0.4976
 1133SOL    HW112759   3.585   1.508   0.943  0.0693  0.2552  2.0554
 1133SOL    HW212760   3.734   1.574   0.960  1.2621 -1.2079 -2.0638
 1134SOL     OW12761   9.830   3.227   0.644  0.3628 -0.2556 -0.1572
 1134SOL    HW112762   9.910   3.282   0.668  0.1269 -0.4263  1.0379
 1134SOL    HW212763   9.832   3.141   0.695 -0.7864 -0.0967  0.1667
 1135SOL     OW12764   2.651   0.595   2.092 -0.0510 -0.0446 -0.3511
 1135SOL    HW112765   2.642   0.594   1.993 -0.7676 -2.1462 -0.2849
 1135SOL    HW212766   2.746   0.610   2.117  0.3853 -1.0138 -1.3805
 1136SOL     OW12767   2.195   0.412   0.646  0.0842  0.1134  0.0358
 1136SOL    HW112768   2.256   0.379   0.573 -1.0355  1.9010 -1.7469
 1136SOL    HW212769   2.215   0.361   0.730  1.8517 -1.5519 -1.3147
 1137SOL     OW12770  10.057   3.369   0.721 -0.0915 -1.0381 -0.0247
 1137SOL    HW112771  10.120   3.352   0.645  1.5909  3.0385  0.3397
 1137SOL    HW212772  10.095   3.328   0.805  2.1438  1.3500  0.1865
 1138SOL     OW12773   8.966   2.880   1.586 -0.5789  0.2806  0.4273
 1138SOL    HW112774   8.950   2.795   1.536  0.9047  0.8488 -1.0629
 1138SOL    HW212775   8.879   2.924   1.606 -1.2317 -0.3537 -0.9926
 1139SOL     OW12776   0.668   6.332   0.410 -0.4627 -0.2677 -0.9064
 1139SOL    HW112777   0.607   6.375   0.476 -0.9257 -2.5329  0.1862
 1139SOL    HW212778   0.746   6.392   0.393 -0.6567  0.6269  1.2131
 1140SOL     OW12779   2.310   5.666   1.320 -0.2729  0.1279  0.5518
 1140SOL    HW112780   2.358   5.704   1.399 -0.2604 -0.7476  0.9702
 1140SOL    HW212781   2.216   5.644   1.346  0.4822 -2.7070  1.1283
 1141SOL     OW12782   1.307   9.939   1.289 -0.3012 -0.2584 -0.3042
 1141SOL    HW112783   1.254  10.006   1.340 -2.2591  0.1910 -2.7938
 1141SOL    HW212784   1.399   9.973   1.275 -0.2026  0.2793  1.5425
 1142SOL     OW12785   3.916   0.985   0.773  0.5365  0.3990  0.7961
 1142SOL    HW112786   4.002   0.987   0.823  1.1854  0.4380 -0.2979
 1142SOL    HW212787   3.931   1.016   0.679 -0.2828 -1.3963  0.0350
 1143SOL     OW12788   1.105   4.205   1.700  0.5778 -0.1487 -0.2003
 1143SOL    HW112789   1.203   4.189   1.685  0.6596 -2.2492  2.2379
 1143SOL    HW212790   1.052   4.154   1.633  1.1461  0.4138 -1.0795
 1144SOL     OW12791   4.960   2.309   1.236  0.8206  0.6107  0.1515
 1144SOL    HW112792   4.879   2.365   1.257  0.7045 -0.1606  1.8659
 1144SOL    HW212793   5.002   2.278   1.322  2.3294  0.1329 -0.7451
 1147SOL     OW12794   9.600   2.375   1.381  0.4272 -0.2553  0.8211
 1147SOL    HW112795   9.627   2.415   1.469 -1.0760  0.8319  0.8209
 1147SOL    HW212796   9.503   2.393   1.366  0.3316 -1.7402 -0.3815
 1149SOL     OW12797   9.209   1.961   0.492 -0.4063  0.8473 -0.0058
 1149SOL    HW112798   9.127   1.935   0.442  0.4485  0.7926 -1.4053
 1149SOL    HW212799   9.255   1.879   0.525  0.5077  0.7402 -1.5316
 1150SOL     OW12800   0.639   9.948   0.795 -0.0838 -0.8562  0.2704
 1150SOL    HW112801   0.611   9.928   0.889 -0.8446 -0.7389  0.0787
 1150SOL    HW212802   0.698  10.028   0.794 -0.2542 -0.7245  0.6315
 1151SOL     OW12803   2.096   3.277   2.062  0.3190  0.1847 -0.1365
 1151SOL    HW112804   2.102   3.294   2.161 -0.5840 -1.1157  0.1643
 1151SOL    HW212805   2.011   3.317   2.027  0.1175 -0.2729 -0.1765
 1152SOL     OW12806   3.227   0.630   1.850  0.4938  0.3375 -0.2442
 1152SOL    HW112807   3.248   0.625   1.752  0.5589 -0.4224 -0.1882
 1152SOL    HW212808   3.206   0.539   1.885  0.4784  0.6061  0.4556
 1153SOL     OW12809  10.075   1.711   1.018 -0.2852 -0.4089  0.3818
 1153SOL    HW112810  10.058   1.632   1.077 -0.1655  0.0678  1.0733
 1153SOL    HW212811  10.074   1.794   1.074 -1.8831  0.2264 -0.5577
 1154SOL     OW12812  10.006   6.827   0.789 -0.0925 -0.6498 -0.3749
 1154SOL    HW112813  10.038   6.921   0.774  0.5424 -0.9489 -0.9144
 1154SOL    HW212814   9.981   6.786   0.701 -1.3312 -0.6418 -0.0277
 1155SOL     OW12815   0.492   0.665   2.060 -0.0051 -0.1705 -0.3634
 1155SOL    HW112816   0.581   0.677   2.017 -0.6712 -1.6468 -2.2266
 1155SOL    HW212817   0.444   0.589   2.016 -1.7278 -0.1190  1.3694
 1156SOL     OW12818   1.260   1.360   0.730 -0.0116 -0.3605 -0.1308
 1156SOL    HW112819   1.303   1.296   0.666  0.4637 -0.8476  0.6661
 1156SOL    HW212820   1.327   1.431   0.755 -1.0561  1.5023 -2.3726
 1157SOL     OW12821   2.258   4.962   1.028  0.1636  0.0615  0.0068
 1157SOL    HW112822   2.244   4.868   0.999 -0.6332  0.5320 -1.1664
 1157SOL    HW212823   2.217   4.976   1.118  0.4409 -0.7595  0.2575
 1158SOL     OW12824   3.681   4.236   1.043  0.4369  0.1848  0.4005
 1158SOL    HW112825   3.653   4.174   1.116 -1.0108 -0.3721 -0.6058
 1158SOL    HW212826   3.600   4.276   1.000  1.2477  0.3917 -0.9755
 1160SOL     OW12827   2.280   3.737   0.413 -0.1608  0.2822 -0.3297
 1160SOL    HW112828   2.310   3.689   0.495 -2.6633 -2.8997 -1.1597
 1160SOL    HW212829   2.208   3.802   0.437  0.6779  1.0034  0.2787
 1161SOL     OW12830   2.707   3.526   0.683  0.6966  0.0532  0.2210
 1161SOL    HW112831   2.678   3.537   0.778  1.0355 -2.1618  0.6110
 1161SOL    HW212832   2.806   3.513   0.680  1.0370  2.5375 -0.6738
 1162SOL     OW12833   0.973   6.012   0.468  0.0784  0.3627  0.3069
 1162SOL    HW112834   1.060   6.017   0.517  0.5380 -0.3959 -0.4260
 1162SOL    HW212835   0.990   5.993   0.371 -0.9790 -2.0820  0.5554
 1163SOL     OW12836   1.302   5.674   1.168 -0.6850 -0.1150  0.0515
 1163SOL    HW112837   1.313   5.745   1.237  0.2388 -0.6603  0.4719
 1163SOL    HW212838   1.217   5.690   1.117 -0.5670  1.1910  0.2488
 1165SOL     OW12839   0.499   5.648   1.313 -0.8053 -0.0112  0.8843
 1165SOL    HW112840   0.504   5.744   1.343 -2.2324 -0.3572  2.2653
 1165SOL    HW212841   0.559   5.592   1.371  0.8808  0.1803 -0.6138
 1166SOL     OW12842   2.793   4.924   1.691  0.2437  0.4130  0.1295
 1166SOL    HW112843   2.758   4.968   1.773 -0.3594 -0.5599  0.4041
 1166SOL    HW212844   2.805   4.826   1.708  2.2618  0.5602 -0.2315
 1168SOL     OW12845   0.858   9.769   0.733  0.5857 -0.5526  0.7183
 1168SOL    HW112846   0.795   9.846   0.739  0.3234 -0.8396  1.6956
 1168SOL    HW212847   0.901   9.768   0.642  0.2995  0.5063  0.5686
 1170SOL     OW12848   1.061   9.880   0.470  0.4564  0.3231 -0.2019
 1170SOL    HW112849   1.077   9.933   0.553  0.4492 -1.6984  1.1394
 1170SOL    HW212850   0.976   9.909   0.427 -1.2584 -0.7978  2.3255
 1171SOL     OW12851   2.458   9.067   2.184  0.0940  0.2784 -0.0195
 1171SOL    HW112852   2.486   9.136   2.117  2.2763 -1.0471 -0.5364
 1171SOL    HW212853   2.496   8.978   2.157 -3.1595 -1.2778  0.2836
 1172SOL     OW12854   2.713  10.096   0.700  0.1015 -0.1843 -0.1656
 1172SOL    HW112855   2.633  10.151   0.674 -0.1418 -0.6811 -0.4783
 1172SOL    HW212856   2.725  10.022   0.634  0.8894 -0.0464 -0.1862
 1173SOL     OW12857   1.804   8.242   1.321 -0.5119 -0.8307  0.3625
 1173SOL    HW112858   1.759   8.291   1.247  0.4401 -1.5912 -0.7355
 1173SOL    HW212859   1.838   8.307   1.389 -0.3776 -0.0614 -0.4370
 1174SOL     OW12860   1.240   1.429   1.831  0.1561  0.1221 -0.0923
 1174SOL    HW112861   1.319   1.467   1.879  0.1417 -0.4566  0.3893
 1174SOL    HW212862   1.245   1.454   1.734  0.8839  0.1588 -0.0453
 1175SOL     OW12863   0.722   8.168   1.670 -0.0667  0.4185 -0.3603
 1175SOL    HW112864   0.753   8.202   1.758  0.9013  0.8371 -0.8607
 1175SOL    HW212865   0.662   8.089   1.684  0.8909 -0.1404  0.6261
 1176SOL     OW12866   1.724   1.866   1.876 -0.1832  0.5312  0.6509
 1176SOL    HW112867   1.749   1.816   1.959 -0.3600  1.4554  1.2720
 1176SOL    HW212868   1.639   1.830   1.839  0.1969 -0.2638  0.5519
 1177SOL     OW12869   4.495   5.145   1.277 -0.2790  0.0692 -0.5139
 1177SOL    HW112870   4.497   5.109   1.184 -0.5597 -0.5502 -0.2909
 1177SOL    HW212871   4.401   5.170   1.301 -0.0597  1.0736 -0.7109
 1178SOL     OW12872   3.936   8.308   1.479 -0.2490  0.3325 -0.0311
 1178SOL    HW112873   3.977   8.305   1.388 -0.0371 -0.5764  0.0817
 1178SOL    HW212874   3.846   8.352   1.474 -0.2279  0.3075 -0.6754
 1179SOL     OW12875   0.651   6.243   1.218  0.4104  0.1287  0.3108
 1179SOL    HW112876   0.627   6.294   1.301  1.2878  0.5396  0.3132
 1179SOL    HW212877   0.633   6.146   1.233  2.7303 -0.1143  1.8181
 1180SOL     OW12878   2.699   1.890   0.517  0.5241  0.2364  0.6513
 1180SOL    HW112879   2.631   1.869   0.447  0.9133  0.0150  0.3382
 1180SOL    HW212880   2.759   1.964   0.485  2.6092 -1.8831 -0.5251
 1181SOL     OW12881   4.464   1.373   1.891 -0.2849  0.2652 -0.4492
 1181SOL    HW112882   4.364   1.368   1.889 -0.3417  0.3594  1.3168
 1181SOL    HW212883   4.492   1.453   1.944  0.7247 -0.4936  0.1797
 1182SOL     OW12884   3.050   2.059   0.737 -0.6326  0.0639  0.2486
 1182SOL    HW112885   3.081   1.967   0.716  1.3039  0.9720 -1.0578
 1182SOL    HW212886   3.099   2.094   0.817  0.2889  0.7691 -0.6132
 1183SOL     OW12887   3.640   8.573   1.367 -0.0593 -0.1081  0.0249
 1183SOL    HW112888   3.699   8.629   1.308 -0.9647 -0.7091 -1.4764
 1183SOL    HW212889   3.563   8.628   1.398  0.8017  0.4247  1.2958
 1185SOL     OW12890   1.066   5.167   1.200  0.2930  0.3966  0.0609
 1185SOL    HW112891   1.104   5.231   1.134  0.0061  1.5716  1.0069
 1185SOL    HW212892   1.140   5.112   1.239  0.6947  0.9320  0.0580
 1186SOL     OW12893   4.846   2.745   1.970 -0.0077 -0.1041  0.4594
 1186SOL    HW112894   4.894   2.791   2.044  0.7304  0.9662 -0.6659
 1186SOL    HW212895   4.788   2.673   2.008  1.6216 -0.6865  1.9408
 1187SOL     OW12896   1.175   4.427   1.156  0.1939 -0.5478  0.5358
 1187SOL    HW112897   1.092   4.374   1.171 -0.8028  1.2230  1.4915
 1187SOL    HW212898   1.244   4.370   1.111 -0.7399 -2.7051  1.7604
 1188SOL     OW12899   2.552   9.243   1.136  0.4120 -0.2839 -0.4632
 1188SOL    HW112900   2.537   9.292   1.222  1.5180 -0.9371  0.1115
 1188SOL    HW212901   2.640   9.272   1.096 -0.5252  0.7129 -1.8608
 1189SOL     OW12902   9.247   1.788   2.242  0.0267  0.2088  0.0992
 1189SOL    HW112903   9.340   1.794   2.280  0.8783 -2.8009 -1.4199
 1189SOL    HW212904   9.183   1.768   2.316  0.8731  0.1608  0.8370
 1191SOL     OW12905   2.795   8.990   1.999  0.0610  0.2853 -0.2702
 1191SOL    HW112906   2.806   9.075   1.947 -0.7104  0.7208  0.2617
 1191SOL    HW212907   2.698   8.963   1.996  0.2028 -0.2517  0.0668
 1192SOL     OW12908   1.640   5.438   0.629  0.7957  0.2098  0.0545
 1192SOL    HW112909   1.707   5.510   0.609 -0.4509  1.4605  0.3388
 1192SOL    HW212910   1.591   5.416   0.545  1.1024 -0.2412 -0.0077
 1193SOL     OW12911   4.704   3.020   1.526  0.1659 -0.3500  0.1814
 1193SOL    HW112912   4.652   3.066   1.598  2.6031 -1.1015  2.5203
 1193SOL    HW212913   4.707   2.921   1.545 -0.5674 -0.7802 -1.8736
 1194SOL     OW12914   9.646   2.621   0.941 -0.0905 -0.1901 -0.2248
 1194SOL    HW112915   9.586   2.635   1.019  0.8839  0.6145  0.4032
 1194SOL    HW212916   9.740   2.647   0.967  0.4243 -0.9247 -1.3342
 1195SOL     OW12917   0.474   4.300   2.177 -0.0636  0.1950 -0.7010
 1195SOL    HW112918   0.397   4.238   2.165  0.7699 -1.1205  0.5779
 1195SOL    HW212919   0.503   4.336   2.088 -0.9176 -0.7930 -1.3791
 1197SOL     OW12920   1.895   8.242   1.896  0.2517  0.3287  0.1708
 1197SOL    HW112921   1.983   8.214   1.857 -0.2805 -0.2825 -0.6030
 1197SOL    HW212922   1.907   8.264   1.993  0.8378 -1.8359  0.6080
 1198SOL     OW12923   3.113   8.633   1.051  0.2977 -0.5574  0.3455
 1198SOL    HW112924   3.025   8.672   1.023  1.7811  2.4765 -0.3203
 1198SOL    HW212925   3.144   8.566   0.983 -0.8041 -0.5646 -0.1471
 1200SOL     OW12926   3.455   4.900   2.076  0.0730  0.2275 -0.1328
 1200SOL    HW112927   3.365   4.923   2.113 -0.2275  1.0015 -1.3120
 1200SOL    HW212928   3.444   4.836   2.000  0.5106  0.4037 -0.3472
 1202SOL     OW12929  10.066   0.964   1.737  0.0559 -0.2596  0.1888
 1202SOL    HW112930   9.966   0.975   1.744  0.2585  1.4648  0.6580
 1202SOL    HW212931  10.108   0.997   1.822  0.8884 -3.1357  0.9384
 1203SOL     OW12932   2.164   9.817   0.571 -0.3044 -0.2069 -0.1833
 1203SOL    HW112933   2.248   9.830   0.625  0.9379 -1.8841 -1.6354
 1203SOL    HW212934   2.102   9.756   0.619 -0.5162  0.6893  0.6994
 1204SOL     OW12935   2.270   9.433   2.173 -0.0572  0.0107  0.0143
 1204SOL    HW112936   2.220   9.380   2.105 -0.8332  0.1046  0.5031
 1204SOL    HW212937   2.227   9.421   2.263  0.3908  0.6343  0.3142
 1205SOL     OW12938   1.651   3.958   1.393  0.1012  0.1392  0.1420
 1205SOL    HW112939   1.618   3.872   1.432 -1.6716 -0.0167 -1.5849
 1205SOL    HW212940   1.703   3.940   1.309 -1.8351  0.7853 -1.2575
 1207SOL     OW12941   3.812  10.213   2.247 -0.1048 -0.1018 -0.7200
 1207SOL    HW112942   3.890  10.193   2.305 -0.4932  1.0748  0.2412
 1207SOL    HW212943   3.739  10.147   2.265  0.3068 -0.6111 -0.9155
 1208SOL     OW12944   2.008   6.883   2.118  0.0804  0.0407 -0.5811
 1208SOL    HW112945   1.947   6.950   2.076  1.7146  1.3989 -0.8584
 1208SOL    HW212946   2.045   6.920   2.203  0.7927 -0.6046 -0.6040
 1209SOL     OW12947   0.975   2.689   1.762 -0.3700  0.2254  0.1276
 1209SOL    HW112948   0.929   2.666   1.676 -1.6463  0.1851  0.8210
 1209SOL    HW212949   0.984   2.788   1.769  1.2862  0.1722 -0.8436
 1210SOL     OW12950   1.087   8.706   1.618 -0.4500  0.4805  0.2207
 1210SOL    HW112951   1.111   8.654   1.700  1.5954 -1.0297 -1.2674
 1210SOL    HW212952   0.991   8.691   1.595 -0.1005 -2.0037  0.2897
 1211SOL     OW12953   5.181   2.818   0.780  0.1845 -0.3861  0.5645
 1211SOL    HW112954   5.164   2.731   0.826  0.0363 -0.2424  0.7819
 1211SOL    HW212955   5.179   2.892   0.847  0.5788 -0.2448  0.4212
 1212SOL     OW12956   2.422   3.713   0.838  0.0532 -0.3620  0.2849
 1212SOL    HW112957   2.472   3.796   0.863 -0.7332  0.7110 -1.6407
 1212SOL    HW212958   2.434   3.695   0.741 -1.3382 -1.4490  0.3075
 1213SOL     OW12959   9.460   3.290   1.452  0.4372  0.0024 -0.3911
 1213SOL    HW112960   9.529   3.340   1.399  1.0754 -0.8416 -0.3638
 1213SOL    HW212961   9.439   3.204   1.406 -0.5462  0.2156 -0.3575
 1214SOL     OW12962  10.193   5.150   2.052  0.6067  0.7954  0.2442
 1214SOL    HW112963  10.153   5.100   1.975  1.4753  2.3684 -1.2673
 1214SOL    HW212964  10.181   5.098   2.136 -1.1455 -0.5447 -0.8196
 1215SOL     OW12965   4.283   0.738   1.824  0.2677 -0.2790 -0.2896
 1215SOL    HW112966   4.190   0.704   1.837 -0.0800  1.6355  2.8612
 1215SOL    HW212967   4.282   0.816   1.762 -0.2014 -0.4917 -0.5460
 1216SOL     OW12968   2.113   2.887   1.077  0.3055 -0.6114 -0.6916
 1216SOL    HW112969   2.032   2.872   1.133  0.6075 -1.5371 -0.4885
 1216SOL    HW212970   2.184   2.932   1.131  0.2265 -0.5636 -0.6286
 1217SOL     OW12971   1.986   7.607   1.895 -0.0183 -0.3020  0.3060
 1217SOL    HW112972   2.083   7.589   1.878  0.4518  1.4432  0.9572
 1217SOL    HW212973   1.952   7.674   1.829 -0.4728 -0.0645  0.7685
 1218SOL     OW12974   0.886   1.640   1.742 -0.5799 -0.1551 -0.1726
 1218SOL    HW112975   0.831   1.707   1.792  2.3905  1.2923  1.2471
 1218SOL    HW212976   0.916   1.568   1.804  1.5183  0.6114 -0.2794
 1219SOL     OW12977   1.719   0.648   1.928  0.6048  0.8956  0.1766
 1219SOL    HW112978   1.760   0.655   1.837  2.6463 -0.9398  0.9062
 1219SOL    HW212979   1.791   0.635   1.996 -1.0159  0.3806  1.8454
 1220SOL     OW12980   3.910   0.537   0.735  0.1801 -0.1971  0.0721
 1220SOL    HW112981   3.922   0.592   0.652  1.4795 -0.2959  0.1855
 1220SOL    HW212982   3.988   0.549   0.795 -0.5289 -0.5197  1.0679
 1221SOL     OW12983   0.853   2.452   2.276  0.2961 -0.2039  0.3189
 1221SOL    HW112984   0.944   2.474   2.242  0.1083  0.6424  0.3651
 1221SOL    HW212985   0.850   2.468   2.375 -0.2736  0.9869  0.1101
 1222SOL     OW12986   9.698   4.303   0.906 -0.0285 -0.1198 -0.2014
 1222SOL    HW112987   9.684   4.326   0.810 -0.5916 -0.5048 -0.2117
 1222SOL    HW212988   9.620   4.251   0.940  1.4648 -2.5241 -0.3307
 1223SOL     OW12989   4.987   4.374   0.523 -0.0744  0.4272  0.2790
 1223SOL    HW112990   4.936   4.460   0.521  1.4586  1.3669  0.9731
 1223SOL    HW212991   4.924   4.298   0.540 -1.3402  1.4910  0.3866
 1224SOL     OW12992  10.257   2.356   1.871 -0.5047  0.0378 -0.0366
 1224SOL    HW112993  10.186   2.307   1.921  0.0785 -1.2091 -0.4291
 1224SOL    HW212994  10.279   2.307   1.787 -0.5634  1.4452 -0.9012
 1226SOL     OW12995   2.574   1.702   1.052 -0.1188 -0.3175  0.3775
 1226SOL    HW112996   2.546   1.797   1.041  1.7080  0.3671  1.3507
 1226SOL    HW212997   2.497   1.647   1.083 -1.0026  1.0010  0.5408
 1227SOL     OW12998   2.031   2.977   1.522  0.5815 -0.3012  0.0799
 1227SOL    HW112999   2.008   3.044   1.451  0.6931 -0.5137 -0.1531
 1227SOL    HW213000   2.021   3.021   1.612 -1.9491 -0.7213  0.0489
 1229SOL     OW13001   4.686   2.008   1.119  0.2437 -0.3667  0.0139
 1229SOL    HW113002   4.698   1.916   1.083  3.9070 -0.4381  1.2101
 1229SOL    HW213003   4.751   2.070   1.075 -1.2686  1.3772  0.1836
 1230SOL     OW13004   9.021   4.943   1.103 -0.3494  0.9355 -0.0110
 1230SOL    HW113005   8.991   4.900   1.017  1.9988  1.6827 -1.2400
 1230SOL    HW213006   9.048   5.037   1.085 -1.8971  1.7859  1.9900
 1231SOL     OW13007   0.751   5.041   1.601  0.2154 -0.1399 -1.1514
 1231SOL    HW113008   0.687   5.074   1.532  0.3039 -2.3750 -2.3739
 1231SOL    HW213009   0.703   5.025   1.687 -0.4386  0.2107 -1.4488
 1232SOL     OW13010  10.341   1.600   1.960 -1.0631 -0.2490  0.0939
 1232SOL    HW113011  10.270   1.670   1.972 -1.3273  0.2743 -4.0773
 1232SOL    HW213012  10.298   1.511   1.946 -0.9442 -0.0161 -1.9087
 1233SOL     OW13013   3.101   2.140   2.896 -0.0990 -0.5217 -0.0191
 1233SOL    HW113014   3.093   2.055   2.844  1.4609 -1.5666  1.4205
 1233SOL    HW213015   3.119   2.216   2.832 -1.9377 -1.1812 -1.3443
 1234SOL     OW13016   0.578   9.811   0.557 -0.2543 -0.2847 -0.1209
 1234SOL    HW113017   0.602   9.846   0.647  0.1405 -0.3268 -0.2087
 1234SOL    HW213018   0.498   9.751   0.565 -1.0042  0.7252  0.0076
 1235SOL     OW13019   3.673   1.178   0.583 -0.1099 -0.4542  0.3291
 1235SOL    HW113020   3.603   1.222   0.528  0.4129 -1.8523 -1.5220
 1235SOL    HW213021   3.630   1.123   0.655 -0.8556 -0.2629  0.0339
 1236SOL     OW13022   0.494   5.440   0.700 -0.4345 -0.2416  0.2758
 1236SOL    HW113023   0.441   5.497   0.637  0.6534 -0.1965 -0.6226
 1236SOL    HW213024   0.540   5.498   0.767 -0.9573 -0.2250  0.6194
 1237SOL     OW13025   1.289   2.848   0.664 -0.0989 -0.3770 -0.2150
 1237SOL    HW113026   1.387   2.834   0.649  0.1275 -0.4480  1.2962
 1237SOL    HW213027   1.271   2.946   0.672  0.0540 -0.4340  0.8601
 1238SOL     OW13028   9.939   0.724   1.143 -0.1408 -0.2923  0.3427
 1238SOL    HW113029   9.953   0.687   1.235 -0.5804 -1.0834  0.0902
 1238SOL    HW213030   9.990   0.670   1.076  1.4087  1.1923  0.2870
 1239SOL     OW13031   2.094   1.862   0.628  0.1904 -0.3991  0.2575
 1239SOL    HW113032   2.181   1.813   0.618  0.4376  0.2490 -0.8250
 1239SOL    HW213033   2.041   1.855   0.544  0.4668  1.6422 -0.1150
 1240SOL     OW13034   2.797   0.919   1.774  0.1472  0.9722 -0.5048
 1240SOL    HW113035   2.867   0.868   1.825 -0.5940  1.1289  0.6971
 1240SOL    HW213036   2.781   0.875   1.686 -0.6852 -1.0747  0.6215
 1241SOL     OW13037   3.829   1.166   1.204 -0.4120  0.1979  0.7383
 1241SOL    HW113038   3.803   1.093   1.141  0.2260  1.0457 -0.5302
 1241SOL    HW213039   3.786   1.252   1.176  0.5861  0.7717  0.9382
 1242SOL     OW13040   3.099   0.393   2.024  0.2023  0.0372 -0.7291
 1242SOL    HW113041   3.082   0.311   1.970  2.4193 -0.1433 -1.2254
 1242SOL    HW213042   3.152   0.370   2.105  1.5662  1.0591 -1.2968
 1243SOL     OW13043   1.388   2.848   2.011  0.2760  0.3419 -0.0415
 1243SOL    HW113044   1.404   2.782   2.084  2.5325  1.6157  0.6571
 1243SOL    HW213045   1.468   2.907   2.001 -1.5704  2.7885 -0.8634
 1244SOL     OW13046   0.553   4.997   0.491 -0.0061 -0.1036  0.2840
 1244SOL    HW113047   0.619   5.034   0.557 -1.2453 -0.4176  1.7397
 1244SOL    HW213048   0.548   4.897   0.502 -0.6158 -0.0962  0.0831
 1245SOL     OW13049   1.448   2.228   1.613  0.0366  0.4583 -0.1837
 1245SOL    HW113050   1.419   2.192   1.702 -0.4868  0.1602 -0.4730
 1245SOL    HW213051   1.367   2.262   1.564  0.2148 -0.1509 -0.8989
 1246SOL     OW13052   2.060   3.541   1.621 -0.5073 -0.2399  0.4041
 1246SOL    HW113053   2.123   3.478   1.667  0.3533  0.8180  0.6933
 1246SOL    HW213054   1.996   3.488   1.565 -0.8148 -1.4711  1.8716
 1247SOL     OW13055   3.765   0.985   1.023 -0.1030  0.3147  0.2702
 1247SOL    HW113056   3.709   0.904   1.033  1.1064 -0.5330  0.2653
 1247SOL    HW213057   3.809   0.985   0.933  0.6157  0.4983  0.6108
 1249SOL     OW13058   9.911   3.428   0.395  0.1673  0.0760 -0.1326
 1249SOL    HW113059   9.821   3.412   0.436  0.0079 -0.1998 -0.6013
 1249SOL    HW213060   9.914   3.521   0.358  0.4171  0.4431  0.7704
 1250SOL     OW13061   9.495   2.919   1.779  0.1173  0.1915 -0.4400
 1250SOL    HW113062   9.531   3.013   1.780 -0.2978  0.3742 -1.4541
 1250SOL    HW213063   9.396   2.921   1.789  0.3082 -0.2834  1.8062
 1251SOL     OW13064   3.801   3.205   2.128  0.0924 -0.9633  0.1775
 1251SOL    HW113065   3.762   3.278   2.184 -0.1608 -0.6197 -0.4327
 1251SOL    HW213066   3.782   3.225   2.031 -0.1254 -1.9340  0.0224
 1252SOL     OW13067   3.653   8.915   2.152 -0.2306 -0.0590 -0.0096
 1252SOL    HW113068   3.641   8.870   2.064  1.6955  1.5039 -1.1094
 1252SOL    HW213069   3.726   8.983   2.145 -1.5635  1.6665  2.2024
 1253SOL     OW13070   3.914   9.630   1.634  0.1788 -0.5814 -0.0025
 1253SOL    HW113071   3.941   9.611   1.729 -2.0541 -1.3495  0.5162
 1253SOL    HW213072   3.993   9.660   1.582  1.3456  0.3715  2.2532
 1254SOL     OW13073   0.877   2.252   0.660 -0.6695  0.2003 -0.1468
 1254SOL    HW113074   0.971   2.218   0.658 -0.5728  0.4672 -0.1654
 1254SOL    HW213075   0.859   2.305   0.578 -0.8431  0.1318 -0.1529
 1255SOL     OW13076   2.705   2.590   1.074 -0.3220  0.0748 -0.6288
 1255SOL    HW113077   2.659   2.535   1.005  0.9955  0.2829 -1.7015
 1255SOL    HW213078   2.665   2.573   1.163  1.3664 -4.2037 -0.5770
 1256SOL     OW13079  10.130   1.923   0.830 -0.2677 -0.2123  0.2066
 1256SOL    HW113080  10.063   1.955   0.763 -0.7704  0.6164  1.1011
 1256SOL    HW213081  10.094   1.843   0.878 -0.8469  0.5777  1.0844
 1257SOL     OW13082   1.199   6.770   1.751  0.2803 -0.4172 -0.0604
 1257SOL    HW113083   1.162   6.693   1.700 -2.3453 -0.1057  1.2724
 1257SOL    HW213084   1.214   6.847   1.689 -0.5684 -0.8211 -0.7866
 1259SOL     OW13085   0.968   0.775   1.619 -0.5286  0.1385 -0.7563
 1259SOL    HW113086   1.046   0.767   1.558 -2.0646  0.5707 -2.8517
 1259SOL    HW213087   0.904   0.843   1.584 -2.4364 -1.0793  0.2234
 1261SOL     OW13088   1.345   5.288   1.803  0.4362  0.1903 -0.0581
 1261SOL    HW113089   1.414   5.291   1.731  0.2536  3.3834 -0.1616
 1261SOL    HW213090   1.255   5.276   1.763  0.3967  1.3888 -0.3494
 1264SOL     OW13091   9.443   5.963   0.955 -0.1053  0.0236  0.5000
 1264SOL    HW113092   9.386   5.975   1.036  2.7584 -0.5606  2.6872
 1264SOL    HW213093   9.387   5.929   0.880 -3.0203  1.4807  1.9167
 1265SOL     OW13094   3.735   0.565   1.294 -0.3032 -0.3581 -0.6875
 1265SOL    HW113095   3.710   0.662   1.303  1.9868  0.2188 -0.1423
 1265SOL    HW213096   3.730   0.538   1.198  0.9575  0.8635 -1.1170
 1266SOL     OW13097   2.164   7.709   0.791 -0.0907 -0.3015  0.2939
 1266SOL    HW113098   2.102   7.653   0.736 -0.6872  0.3896  0.2414
 1266SOL    HW213099   2.215   7.651   0.854  1.6887 -1.3089 -1.9785
 1267SOL     OW13100   1.522   9.009   1.516  0.0252 -0.4760 -0.2018
 1267SOL    HW113101   1.583   9.035   1.441 -0.9955 -0.2390 -0.9612
 1267SOL    HW213102   1.478   8.923   1.494 -3.2956  1.5303 -1.7181
 1269SOL     OW13103   4.188   8.484   1.508 -0.4202 -0.1365  0.1890
 1269SOL    HW113104   4.149   8.406   1.460  0.8633 -0.0707 -0.9900
 1269SOL    HW213105   4.288   8.479   1.505 -0.3221  0.4779  1.8644
 1270SOL     OW13106  10.381   7.861   0.690  0.3437  1.0398 -0.5334
 1270SOL    HW113107  10.455   7.822   0.636 -0.3573 -1.9761  0.5942
 1270SOL    HW213108  10.417   7.892   0.779  0.1715 -1.1392  0.3273
 1272SOL     OW13109   1.345   9.486   1.027  0.5956 -0.1395 -0.0795
 1272SOL    HW113110   1.286   9.558   1.063  0.4396 -0.5041  0.4048
 1272SOL    HW213111   1.289   9.421   0.975  0.3533 -1.2007  1.4839
 1273SOL     OW13112   0.475   8.258   1.390  0.4587 -0.0118  0.0992
 1273SOL    HW113113   0.407   8.205   1.440  0.1116  0.4803  0.1528
 1273SOL    HW213114   0.452   8.355   1.395 -0.0024 -0.0192 -1.6870
 1274SOL     OW13115   2.568   6.173   1.680  0.1607  0.3024 -0.0697
 1274SOL    HW113116   2.576   6.110   1.757  0.3306  0.2018 -0.1708
 1274SOL    HW213117   2.487   6.231   1.693  0.1742  0.2685  0.1705
 1275SOL     OW13118   2.537   5.153   0.491 -0.3655 -0.2922  0.3226
 1275SOL    HW113119   2.599   5.079   0.518 -0.6633 -0.5084  0.4165
 1275SOL    HW213120   2.578   5.241   0.517  0.4955 -0.3531 -0.8059
 1277SOL     OW13121   0.504   0.356   1.938 -0.2114 -0.2364 -0.8807
 1277SOL    HW113122   0.511   0.258   1.957  2.5227  0.1695  0.4693
 1277SOL    HW213123   0.581   0.384   1.881 -0.6093  1.2627 -0.6874
 1279SOL     OW13124   9.715   5.586   1.167  0.8239  0.7804 -0.0002
 1279SOL    HW113125   9.803   5.632   1.155  1.7110 -0.9221 -0.1709
 1279SOL    HW213126   9.654   5.610   1.091  2.6567 -1.3834 -2.2351
 1280SOL     OW13127   9.315   3.826   2.037 -0.0689  0.0564  0.4534
 1280SOL    HW113128   9.350   3.843   1.945  1.4715 -0.2251  0.9684
 1280SOL    HW213129   9.215   3.828   2.036 -0.2469 -3.9816 -2.0442
 1281SOL     OW13130   1.904   4.593   0.915 -0.0148 -0.0284  0.1082
 1281SOL    HW113131   1.946   4.682   0.902  3.1527 -1.6990 -1.4425
 1281SOL    HW213132   1.895   4.574   1.013  1.3971  1.0226  0.4435
 1282SOL     OW13133   4.360   4.042   1.260 -0.4426 -0.1607 -0.9563
 1282SOL    HW113134   4.266   4.059   1.229 -1.3631 -0.4364  1.5723
 1282SOL    HW213135   4.382   3.945   1.248 -1.6819 -0.7736  1.4840
 1283SOL     OW13136   2.877   7.243   0.888  0.0269  0.1725  0.2407
 1283SOL    HW113137   2.778   7.246   0.878  0.0984 -0.2137 -0.6312
 1283SOL    HW213138   2.918   7.307   0.822  0.3287  0.8159  1.0485
 1284SOL     OW13139   4.278   8.746   1.255 -0.1455  0.3056  0.0442
 1284SOL    HW113140   4.263   8.806   1.176 -0.0165  0.0567 -0.1734
 1284SOL    HW213141   4.207   8.763   1.324 -0.9448 -0.2709 -0.6174
 1285SOL     OW13142   1.010   6.368   1.678 -0.2643  0.4155 -0.4176
 1285SOL    HW113143   1.046   6.283   1.641  0.1278  0.7191 -0.7358
 1285SOL    HW213144   0.933   6.399   1.621 -0.6118  0.1068 -0.1160
 1287SOL     OW13145   2.277   8.179   0.697  0.0407 -0.2157 -0.4098
 1287SOL    HW113146   2.309   8.142   0.609  0.1390 -1.4480  0.1382
 1287SOL    HW213147   2.205   8.120   0.734  1.3002 -0.7512  1.2449
 1288SOL     OW13148   1.746   4.717   0.606  0.2415 -0.5383 -0.1567
 1288SOL    HW113149   1.785   4.791   0.552 -0.1979 -0.5954 -0.5561
 1288SOL    HW213150   1.653   4.741   0.634  1.0627  0.2366  2.0543
 1289SOL     OW13151   1.907   6.361   1.587 -0.7003 -0.4576 -0.1516
 1289SOL    HW113152   1.893   6.274   1.635 -0.5628 -0.0511  0.6433
 1289SOL    HW213153   1.992   6.357   1.535 -0.0969 -0.3946  0.8178
 1290SOL     OW13154   2.116   1.056   1.932  0.2674  0.1405 -0.0638
 1290SOL    HW113155   2.149   1.086   1.842  0.5581 -1.5733 -0.5475
 1290SOL    HW213156   2.017   1.049   1.931  0.2453  0.4515 -0.1401
 1291SOL     OW13157   3.490   3.541   0.786 -0.3041 -0.1204 -0.3446
 1291SOL    HW113158   3.564   3.605   0.805 -3.0596  2.3278  2.6143
 1291SOL    HW213159   3.451   3.560   0.696  1.3584 -0.1639 -1.0896
 1293SOL     OW13160   2.853   7.702   2.052  0.9762 -0.4936 -0.4345
 1293SOL    HW113161   2.920   7.774   2.071 -0.7938  0.8386  0.9377
 1293SOL    HW213162   2.842   7.644   2.132 -0.2198 -0.0955 -0.2962
 1294SOL     OW13163   0.658   5.704   1.694 -0.2439  0.3746  0.1441
 1294SOL    HW113164   0.683   5.679   1.787 -1.2881  0.1146  0.3638
 1294SOL    HW213165   0.571   5.753   1.695  0.2984  1.3870 -0.5821
 1296SOL     OW13166  10.353  10.180   1.030  0.8275 -0.0059 -0.4747
 1296SOL    HW113167  10.280  10.132   1.080  1.9619  0.4688  1.7223
 1296SOL    HW213168  10.430  10.118   1.016  2.0154  0.8943  1.7539
 1297SOL     OW13169  10.127   5.548   1.473 -0.0076  0.1413  0.4243
 1297SOL    HW113170  10.082   5.471   1.428  2.4024 -0.0359 -1.7996
 1297SOL    HW213171  10.207   5.516   1.523 -1.7291  0.5829  3.5963
 1299SOL     OW13172   1.696   8.963   0.596  0.3629 -0.3275  0.1061
 1299SOL    HW113173   1.764   8.909   0.546  0.8157 -0.2918  0.6633
 1299SOL    HW213174   1.656   9.031   0.535  1.8281  0.5612  0.1018
 1300SOL     OW13175   9.319   2.936   0.390  0.2111  0.1083 -0.0318
 1300SOL    HW113176   9.383   2.990   0.335  2.0446 -1.3856  0.6241
 1300SOL    HW213177   9.236   2.920   0.337  1.7428 -0.8589 -2.1854
 1301SOL     OW13178   1.644   3.669   0.380  0.7261  0.2695  0.4225
 1301SOL    HW113179   1.656   3.651   0.282  0.0937  0.4898  0.3071
 1301SOL    HW213180   1.574   3.608   0.416  0.3747  0.7588  0.5661
 1302SOL     OW13181   1.300   6.773   1.184  0.0760 -0.1436 -0.5501
 1302SOL    HW113182   1.281   6.692   1.128  0.9831 -0.3052 -0.6281
 1302SOL    HW213183   1.295   6.750   1.281 -0.0046 -0.2089 -0.5698
 1304SOL     OW13184   4.239   0.947   0.561  0.2927  0.2073 -0.3063
 1304SOL    HW113185   4.214   0.926   0.466 -1.5287  1.7319 -0.2019
 1304SOL    HW213186   4.219   1.044   0.579  1.3254  0.1033  1.4155
 1306SOL     OW13187   4.327   2.990   0.976 -0.2339  0.0758 -0.2069
 1306SOL    HW113188   4.365   2.951   1.060  2.6461 -2.2559 -2.4704
 1306SOL    HW213189   4.238   2.949   0.958  0.9694 -2.5154 -0.4241
 1307SOL     OW13190   0.980   1.441   0.704  0.0585  0.0409 -0.1303
 1307SOL    HW113191   0.939   1.403   0.787 -0.2962  0.9836  0.1244
 1307SOL    HW213192   1.079   1.445   0.716 -0.0095  0.3802  0.3315
 1309SOL     OW13193   2.697   1.637   2.039  0.3998 -0.7061 -0.1799
 1309SOL    HW113194   2.599   1.643   2.023  0.3001 -0.6340  0.4506
 1309SOL    HW213195   2.726   1.541   2.034 -0.2003 -1.0676  2.4659
 1310SOL     OW13196   9.791   4.823   1.197  0.2788  0.0664 -0.0397
 1310SOL    HW113197   9.868   4.883   1.175 -0.0736  0.9034  0.9773
 1310SOL    HW213198   9.734   4.812   1.116  1.0346  0.0990 -0.5769
 1311SOL     OW13199   1.549   6.488   0.497  0.1501  0.8948  0.2359
 1311SOL    HW113200   1.613   6.457   0.566  0.9520  1.5356 -0.2122
 1311SOL    HW213201   1.471   6.532   0.541  0.6297  1.2473  0.7341
 1314SOL     OW13202   9.572   2.640   1.735 -0.6310  0.6375 -0.1410
 1314SOL    HW113203   9.540   2.734   1.749 -0.0685  1.1465 -2.0652
 1314SOL    HW213204   9.672   2.639   1.738 -0.6749 -0.2762  1.9234
 1315SOL     OW13205   2.548   7.079   2.224 -0.9848 -0.1568  0.3915
 1315SOL    HW113206   2.500   7.066   2.137 -1.1739 -1.6150  0.6947
 1315SOL    HW213207   2.497   7.144   2.281  0.5738  2.9454 -1.6366
 1316SOL     OW13208   0.604   3.015   2.031 -0.0774 -0.2622 -0.6958
 1316SOL    HW113209   0.605   3.107   1.992 -2.5856  1.2651  2.6248
 1316SOL    HW213210   0.514   2.997   2.070  1.5124 -2.7278  1.9340
 1317SOL     OW13211   2.636   6.380   2.298  0.1070  0.1087 -0.0238
 1317SOL    HW113212   2.585   6.415   2.376 -0.0341  0.5723 -0.3296
 1317SOL    HW213213   2.679   6.455   2.249 -0.9502 -0.0504 -1.2164
 1319SOL     OW13214   1.094   3.637   0.844  0.3590 -0.1473 -0.3439
 1319SOL    HW113215   1.132   3.545   0.857  0.4448  0.0719  1.0655
 1319SOL    HW213216   0.995   3.631   0.837  0.2407 -0.2296  1.1722
 1321SOL     OW13217   1.805   2.048   1.510  0.1997 -0.0117 -0.2319
 1321SOL    HW113218   1.801   2.145   1.533  1.8551  0.1641 -0.6478
 1321SOL    HW213219   1.716   2.019   1.476 -0.8890  0.8685  1.7956
 1322SOL     OW13220   1.159   1.767   1.754  0.4655  0.8577  0.0341
 1322SOL    HW113221   1.109   1.685   1.726  0.2475  0.6445  1.0552
 1322SOL    HW213222   1.156   1.834   1.680  0.6831 -0.0698 -0.8238
 1323SOL     OW13223   2.805   8.956   1.515 -0.1925  0.3794  0.3148
 1323SOL    HW113224   2.826   9.001   1.428 -1.2024 -0.2953 -0.2818
 1323SOL    HW213225   2.865   8.992   1.587  0.1961  1.4080 -0.5240
 1324SOL     OW13226   0.530   7.947   1.704  0.2239 -0.5502 -0.0849
 1324SOL    HW113227   0.455   7.954   1.638 -0.3414 -0.0363  0.6041
 1324SOL    HW213228   0.551   7.850   1.720 -2.4094 -0.8424  2.0437
 1326SOL     OW13229  10.312   3.956   0.422 -0.5962  0.2237 -0.1341
 1326SOL    HW113230  10.238   3.929   0.484 -0.2173 -2.0749 -0.6390
 1326SOL    HW213231  10.398   3.960   0.473 -0.5418 -0.1953 -0.1876
 1329SOL     OW13232   1.360   4.095   1.669 -0.1960 -0.3303  0.0213
 1329SOL    HW113233   1.401   4.013   1.709 -1.1541 -0.6328  0.4168
 1329SOL    HW213234   1.373   4.095   1.570  1.0261 -0.2550  0.1827
 1330SOL     OW13235  10.351   3.834   0.778 -0.0766  0.5586  0.2548
 1330SOL    HW113236  10.382   3.816   0.685 -1.3239  0.4525 -0.1398
 1330SOL    HW213237  10.428   3.822   0.841  0.9710  1.4041 -0.8309
 1332SOL     OW13238   2.841   4.423   1.871 -0.2497 -0.4486 -0.0016
 1332SOL    HW113239   2.746   4.413   1.902 -0.0948  0.5304  0.8585
 1332SOL    HW213240   2.899   4.358   1.920  0.0382  1.2838  2.0797
 1333SOL     OW13241   4.466   3.303   0.607  0.1076  0.4375  0.2898
 1333SOL    HW113242   4.402   3.367   0.565 -0.6621  1.2861  2.6953
 1333SOL    HW213243   4.483   3.226   0.544 -3.9216 -0.2428 -0.0599
 1334SOL     OW13244   2.506   5.436   0.839  0.0317 -0.4788  0.3074
 1334SOL    HW113245   2.530   5.343   0.810  1.2940 -0.1552  0.3077
 1334SOL    HW213246   2.407   5.447   0.834 -0.0060 -1.3237 -1.1961
 1335SOL     OW13247   3.960   2.160   1.602 -0.6850 -0.5706  0.0464
 1335SOL    HW113248   3.953   2.114   1.514  0.5779 -0.9393  0.1224
 1335SOL    HW213249   4.014   2.104   1.665  2.0832  1.5542 -0.2987
 1336SOL     OW13250   4.098   3.336   2.071  0.8901  0.2102  0.2959
 1336SOL    HW113251   4.023   3.359   2.133  0.7478  2.4611 -0.6327
 1336SOL    HW213252   4.184   3.368   2.109  0.9404  0.6244 -0.1583
 1337SOL     OW13253   4.743   3.166   2.196 -0.2212 -0.2264 -0.3478
 1337SOL    HW113254   4.682   3.147   2.273 -0.7271 -0.4693 -0.8115
 1337SOL    HW213255   4.760   3.082   2.145 -0.5135  0.0884 -0.9633
 1338SOL     OW13256   3.767   1.317   1.638 -0.5389 -0.5361 -0.0164
 1338SOL    HW113257   3.827   1.397   1.634  0.3651 -1.1554  0.9518
 1338SOL    HW213258   3.796   1.250   1.569  0.4808 -1.2304  1.0652
 1339SOL     OW13259  10.309   8.538   0.935 -0.5093 -0.0590  0.1605
 1339SOL    HW113260  10.321   8.508   1.030  1.0057  0.0196  0.0018
 1339SOL    HW213261  10.381   8.498   0.879  0.4434  2.3692 -0.3991
 1340SOL     OW13262   5.311   3.126   0.528  0.3791 -0.8618  0.4556
 1340SOL    HW113263   5.334   3.161   0.437 -1.8433 -0.4776  0.0023
 1340SOL    HW213264   5.391   3.132   0.588  1.1898  1.1053 -0.7861
 1341SOL     OW13265   3.348   2.003   2.082 -0.3802  0.2809 -0.7220
 1341SOL    HW113266   3.422   1.991   2.149 -0.1707  1.2598 -0.7686
 1341SOL    HW213267   3.387   2.035   1.996 -0.8318  0.6107 -0.8031
 1342SOL     OW13268   0.832   7.695   2.220 -0.4474 -0.1685  0.1102
 1342SOL    HW113269   0.809   7.648   2.305 -0.9049  1.3124  0.8359
 1342SOL    HW213270   0.916   7.658   2.183  0.5133  0.0952  1.9600
 1343SOL     OW13271   1.879   7.820   0.435 -0.4037 -0.0178  0.3814
 1343SOL    HW113272   1.968   7.865   0.426 -1.0013  1.4675  1.6253
 1343SOL    HW213273   1.892   7.721   0.439  1.2130  0.1986  0.8322
 1345SOL     OW13274   3.709   1.766   2.304  0.9410  0.4202 -0.2371
 1345SOL    HW113275   3.642   1.795   2.236 -0.5925 -0.7210  0.7377
 1345SOL    HW213276   3.730   1.842   2.366  0.1885  0.6647 -0.2788
 1346SOL     OW13277   1.604   8.824   0.822 -0.5185 -0.4578 -0.3521
 1346SOL    HW113278   1.619   8.865   0.732 -0.3593  0.3200  0.0179
 1346SOL    HW213279   1.535   8.877   0.871  0.8535  0.3479  0.7606
 1347SOL     OW13280   3.724   8.213   0.747 -0.6077 -0.7587  0.0553
 1347SOL    HW113281   3.735   8.115   0.734 -1.9797 -0.6492 -2.2264
 1347SOL    HW213282   3.802   8.262   0.707  0.1956 -0.9075  1.4075
 1348SOL     OW13283   0.488   3.005   1.230  0.3387  0.3324 -0.0124
 1348SOL    HW113284   0.437   3.086   1.261  2.2041  1.1323  1.0955
 1348SOL    HW213285   0.484   2.934   1.301  0.1266  0.1182 -0.2410
 1349SOL     OW13286   1.795   2.890   2.347  0.2635  0.6247 -0.2256
 1349SOL    HW113287   1.774   2.814   2.285  0.1397  0.5503 -0.0912
 1349SOL    HW213288   1.861   2.951   2.303  0.4825  0.3564 -0.2699
 1350SOL     OW13289   1.050   1.270   1.177  0.3074 -0.0632  0.3544
 1350SOL    HW113290   0.951   1.266   1.176  0.3693 -2.1252  0.7405
 1350SOL    HW213291   1.084   1.246   1.268  1.1728  0.2696  0.1242
 1351SOL     OW13292   4.194   3.042   0.558  0.1088  0.3181  0.1451
 1351SOL    HW113293   4.174   2.997   0.471  0.0431 -0.4969  0.5729
 1351SOL    HW213294   4.114   3.092   0.589 -0.8929 -1.8464  1.2032
 1352SOL     OW13295   0.788   9.716   1.676  0.2677  0.8910 -0.0826
 1352SOL    HW113296   0.747   9.667   1.599 -0.0747  2.3329 -0.8311
 1352SOL    HW213297   0.866   9.769   1.644  0.4803  1.0455  0.6777
 1353SOL     OW13298   1.560   0.843   2.030 -0.3324  0.1767 -0.2766
 1353SOL    HW113299   1.613   0.770   1.987 -1.4313 -0.1842 -1.0357
 1353SOL    HW213300   1.469   0.846   1.990 -0.4685  1.6306  0.1124
 1354SOL     OW13301   0.670   4.586   1.494 -0.1397 -0.4575  0.4396
 1354SOL    HW113302   0.759   4.542   1.499  0.4085  0.7406  1.4570
 1354SOL    HW213303   0.666   4.644   1.412  0.0408 -0.4410  0.4429
 1356SOL     OW13304   1.351   7.275   0.512  0.0580 -0.1597  0.2787
 1356SOL    HW113305   1.324   7.299   0.418 -0.9134  2.3676  1.1598
 1356SOL    HW213306   1.451   7.279   0.520 -0.0071  3.3388  0.2410
 1358SOL     OW13307   1.940   8.096   0.928 -0.4925  0.1515  0.3775
 1358SOL    HW113308   2.012   8.039   0.888 -1.2444 -1.0432  0.7002
 1358SOL    HW213309   1.878   8.039   0.982 -1.3416  1.2581  0.5988
 1359SOL     OW13310   9.704   6.109   1.498  0.3275  0.4565  0.0123
 1359SOL    HW113311   9.696   6.167   1.417 -0.3680 -1.5201 -1.3506
 1359SOL    HW213312   9.641   6.142   1.569  1.3989  2.5788  0.0426
 1360SOL     OW13313   1.509   1.639   1.163 -0.1140  0.4755  0.3807
 1360SOL    HW113314   1.413   1.652   1.188 -0.2646  0.2571 -0.0656
 1360SOL    HW213315   1.522   1.545   1.129  0.5973 -0.0088  1.9732
 1362SOL     OW13316  10.307   8.509   1.208 -0.4160 -0.6275  0.0331
 1362SOL    HW113317  10.406   8.492   1.206 -0.4557 -1.0918  1.2489
 1362SOL    HW213318  10.290   8.606   1.220 -0.1104 -0.4979 -0.5795
 1363SOL     OW13319   3.855  10.122   1.970 -0.3843  0.0812  0.6911
 1363SOL    HW113320   3.842  10.181   2.050  0.1298  0.7276  0.2962
 1363SOL    HW213321   3.945  10.139   1.930 -0.9980  0.4235 -0.5765
 1364SOL     OW13322   4.641   2.212   0.799 -0.0926 -1.1006  0.1304
 1364SOL    HW113323   4.709   2.277   0.834 -1.9877  0.7518  0.4486
 1364SOL    HW213324   4.658   2.195   0.702  0.5632 -0.3101  0.1009
 1367SOL     OW13325   1.877   3.267   0.763  0.1933  0.2578  0.2282
 1367SOL    HW113326   1.943   3.322   0.712  0.0288  1.0875  0.9050
 1367SOL    HW213327   1.920   3.228   0.844 -0.4184  1.7544  1.3097
 1368SOL     OW13328   3.427   7.574   0.785  0.5429 -0.4652 -0.3597
 1368SOL    HW113329   3.482   7.647   0.744 -0.1854  0.1417 -0.2610
 1368SOL    HW213330   3.464   7.552   0.875  1.0471 -0.5409 -0.5834
 1369SOL     OW13331   2.300   9.105   0.380 -0.8276  0.3432 -0.5328
 1369SOL    HW113332   2.368   9.174   0.354 -0.2200  0.8341  2.2481
 1369SOL    HW213333   2.232   9.146   0.440 -0.9716 -1.2622  0.4251
 1372SOL     OW13334   4.126   0.504   2.071 -0.0307  0.4542  0.1993
 1372SOL    HW113335   4.074   0.581   2.035  0.7100  1.8440  2.0194
 1372SOL    HW213336   4.212   0.495   2.021 -0.4947  0.2874 -0.5657
 1373SOL     OW13337   0.554   3.847   2.280 -0.6196 -0.1201  0.5173
 1373SOL    HW113338   0.647   3.871   2.255 -0.3659  0.4531  1.9535
 1373SOL    HW213339   0.522   3.908   2.353 -1.3651 -1.6386  1.4863
 1374SOL     OW13340   9.811   4.051   0.338  0.6745  0.3267 -0.6107
 1374SOL    HW113341   9.780   4.145   0.349 -0.6146 -0.1470 -0.1660
 1374SOL    HW213342   9.911   4.048   0.341  0.6300  1.1762  3.2732
 1375SOL     OW13343   1.133   4.317   2.163 -0.5254 -0.9201  0.0572
 1375SOL    HW113344   1.096   4.409   2.160 -0.5438 -0.8808  1.2209
 1375SOL    HW213345   1.058   4.250   2.157 -0.3403 -0.9163 -3.3171
 1376SOL     OW13346   2.645   7.733   0.415  0.9124  0.5124 -0.2276
 1376SOL    HW113347   2.690   7.718   0.504  0.2690 -0.0189  0.0118
 1376SOL    HW213348   2.675   7.821   0.377  1.0759  0.8158  0.5864
 1377SOL     OW13349   4.368   3.185   2.139  0.3882 -0.3661  0.7247
 1377SOL    HW113350   4.454   3.236   2.127  0.2501 -0.4469 -0.5914
 1377SOL    HW213351   4.353   3.126   2.061 -2.2575  1.6704 -0.3609
 1380SOL     OW13352   1.756   1.397   0.390 -0.1056 -0.0025  0.2906
 1380SOL    HW113353   1.762   1.489   0.352  0.1147 -0.0905  0.1149
 1380SOL    HW213354   1.722   1.402   0.484  0.7493  0.3272  0.5860
 1381SOL     OW13355   9.971   1.508   2.242 -0.1169  0.8166  0.0488
 1381SOL    HW113356  10.018   1.460   2.168  3.3732  1.6158  1.6781
 1381SOL    HW213357   9.907   1.444   2.286 -0.6362 -0.2890 -2.1923
 1382SOL     OW13358   2.788   1.936   1.617 -0.1167  0.2786  0.3615
 1382SOL    HW113359   2.703   1.927   1.566  0.3798 -0.3290 -0.3631
 1382SOL    HW213360   2.773   1.908   1.712 -0.6652 -0.0756  0.1724
 1383SOL     OW13361   0.658  10.011   1.072  0.3688  0.8129  0.0511
 1383SOL    HW113362   0.756   9.997   1.085  0.4757  1.6094  0.1089
 1383SOL    HW213363   0.614  10.026   1.160  0.2370  0.7304 -0.0001
 1384SOL     OW13364   1.296   5.751   0.682 -0.2458 -0.1447  0.1311
 1384SOL    HW113365   1.362   5.745   0.757 -1.5993  0.2297  1.3774
 1384SOL    HW213366   1.270   5.659   0.652 -0.2170 -0.3024  0.5896
 1386SOL     OW13367   2.552   7.319   1.217  0.3548 -0.1483 -0.6384
 1386SOL    HW113368   2.625   7.353   1.158  0.5398  0.0059 -0.3220
 1386SOL    HW213369   2.584   7.239   1.267  1.0286  1.2193  1.1348
 1387SOL     OW13370   0.599   7.485   1.694 -0.5396 -0.3925  0.3881
 1387SOL    HW113371   0.526   7.493   1.762  0.3344 -0.1330  1.3150
 1387SOL    HW213372   0.650   7.570   1.691  1.0470 -1.2815  1.3016
 1389SOL     OW13373  10.249   4.954   0.392 -0.4348  0.7621  0.1973
 1389SOL    HW113374  10.264   4.867   0.345 -1.9156  0.6111 -0.0187
 1389SOL    HW213375  10.242   5.028   0.324  0.9309  1.0782  0.3853
 1392SOL     OW13376   2.196   5.477   0.817  0.0946 -0.1540 -0.3310
 1392SOL    HW113377   2.219   5.523   0.902  1.3331 -1.2267 -0.0651
 1392SOL    HW213378   2.123   5.411   0.834 -0.5920  0.5802 -0.3906
 1393SOL     OW13379   1.551   6.321   0.853  0.1869  0.1833  0.1533
 1393SOL    HW113380   1.626   6.358   0.797  1.2121  0.9786  1.9633
 1393SOL    HW213381   1.532   6.385   0.928 -1.9750 -0.2698  0.0122
 1395SOL     OW13382   3.054   6.025   1.619  0.4021 -0.2332  0.3932
 1395SOL    HW113383   2.956   6.045   1.618  0.6174  0.9139  0.5603
 1395SOL    HW213384   3.069   5.927   1.613 -0.7187 -0.3271 -1.1086
 1396SOL     OW13385   1.693   2.614   0.764  0.1159 -0.0881 -0.2608
 1396SOL    HW113386   1.720   2.571   0.678  1.8934 -1.1847  0.7993
 1396SOL    HW213387   1.770   2.609   0.828 -1.7939 -1.0004  2.0123
 1397SOL     OW13388   9.970   4.292   1.574  0.0349 -0.5169 -0.0739
 1397SOL    HW113389   9.896   4.280   1.507  0.8716 -0.1441 -1.0875
 1397SOL    HW213390   9.952   4.373   1.629 -1.2737 -1.4971  0.9874
 1398SOL     OW13391   3.354   3.633   1.132  0.4463 -0.4010 -0.2045
 1398SOL    HW113392   3.339   3.698   1.057 -3.1939 -0.3332  0.4869
 1398SOL    HW213393   3.344   3.680   1.220  2.2534 -1.0071  0.3506
 1399SOL     OW13394  10.353   0.844   0.818  0.4421 -0.1017  0.2445
 1399SOL    HW113395  10.361   0.787   0.736 -0.7776 -1.7798  1.2716
 1399SOL    HW213396  10.440   0.842   0.867  0.8265  0.0216 -0.4172
 1401SOL     OW13397   1.867   7.855   1.983  0.1533  0.3556 -0.1389
 1401SOL    HW113398   1.916   7.813   2.060 -0.6218  1.6173  1.0597
 1401SOL    HW213399   1.933   7.893   1.918  0.8046 -0.3303  0.1071
 1402SOL     OW13400  10.406   7.022   2.114  0.2259  0.0247  0.2831
 1402SOL    HW113401  10.311   7.029   2.083  0.1756  4.4338  1.0985
 1402SOL    HW213402  10.413   6.952   2.185 -2.2037 -1.0247 -0.4658
 1404SOL     OW13403   2.702   5.018   1.224 -0.1571  0.5453 -0.1643
 1404SOL    HW113404   2.747   4.985   1.140 -0.6481 -2.1893  0.5905
 1404SOL    HW213405   2.748   4.978   1.304 -1.4881  0.8482  0.7600
 1405SOL     OW13406   3.333   7.789   2.336 -0.0991 -0.2171 -0.2090
 1405SOL    HW113407   3.326   7.842   2.252  0.5616 -1.3865 -1.0142
 1405SOL    HW213408   3.359   7.695   2.314 -1.3797 -0.9194  1.1811
 1406SOL     OW13409   1.532   8.091   0.662 -0.2511  0.0935  0.4134
 1406SOL    HW113410   1.614   8.148   0.667  0.2202 -0.5873  0.6399
 1406SOL    HW213411   1.526   8.035   0.745 -0.9991  0.2119  0.4418
 1407SOL     OW13412   1.999   6.079   1.022 -0.8493  0.3930  0.4415
 1407SOL    HW113413   1.901   6.094   1.009 -1.3637 -1.0764  2.4055
 1407SOL    HW213414   2.018   5.981   1.026  0.6063  0.6718  0.6241
 1409SOL     OW13415   2.433   2.201   0.647  0.4856 -0.1226  0.1319
 1409SOL    HW113416   2.405   2.228   0.555  1.2498 -0.4047 -0.1890
 1409SOL    HW213417   2.356   2.210   0.709  0.2615  1.1175 -0.3165
 1410SOL     OW13418   9.528   3.022   0.882  0.8296  0.1994 -0.0347
 1410SOL    HW113419   9.528   2.953   0.809  3.1957  0.2511 -0.1118
 1410SOL    HW213420   9.572   2.986   0.963  1.4381  1.3851  0.1715
 1412SOL     OW13421   0.518   1.481   1.585  0.3358 -0.5710 -0.1695
 1412SOL    HW113422   0.568   1.515   1.506 -0.6429 -0.3361 -0.7050
 1412SOL    HW213423   0.579   1.427   1.643  1.1127 -0.5698 -0.9729
 1413SOL     OW13424   2.543   2.431   0.917 -0.0013  0.0401  0.3894
 1413SOL    HW113425   2.447   2.436   0.946  0.1582 -0.3638  1.0044
 1413SOL    HW213426   2.548   2.429   0.817 -0.8825 -4.2365  0.3344
 1414SOL     OW13427   3.881  10.291   1.047  0.8020 -0.1790 -0.3225
 1414SOL    HW113428   3.858  10.218   1.112 -2.2571  0.2741 -0.8400
 1414SOL    HW213429   3.960  10.342   1.081 -1.2996  0.6558  3.5195
 1415SOL     OW13430   3.856   9.035   1.248  0.0295  0.6375 -0.0918
 1415SOL    HW113431   3.874   9.091   1.329 -1.4435  0.3976  0.4157
 1415SOL    HW213432   3.936   9.039   1.187  1.2620  0.5962  1.4757
 1416SOL     OW13433   1.836   2.383   2.310 -0.1823  0.4627 -0.8762
 1416SOL    HW113434   1.840   2.411   2.405 -0.1547 -0.8841 -0.4649
 1416SOL    HW213435   1.906   2.431   2.258  1.4707 -0.6595  0.2887
 1417SOL     OW13436   2.671   4.030   0.357 -0.1183 -0.8956 -0.1231
 1417SOL    HW113437   2.710   3.982   0.436 -0.9703 -0.7269  0.3999
 1417SOL    HW213438   2.613   3.967   0.306  1.2798 -1.3191 -1.2431
 1418SOL     OW13439   1.720   7.060   0.540  0.1682 -0.2217  0.0409
 1418SOL    HW113440   1.726   7.014   0.629  2.2651 -0.3724 -0.1481
 1418SOL    HW213441   1.663   7.141   0.548  0.3726 -0.2133  1.5360
 1419SOL     OW13442   4.358   3.123   1.619  0.3989  0.3678  0.3135
 1419SOL    HW113443   4.438   3.113   1.679  1.0585 -1.4089 -0.8039
 1419SOL    HW213444   4.280   3.078   1.662  0.4798  0.4562  0.5558
 1422SOL     OW13445   4.536   2.012   1.357  0.6359 -0.6230  0.7207
 1422SOL    HW113446   4.495   1.920   1.350  0.1262 -0.2672 -1.2724
 1422SOL    HW213447   4.612   2.019   1.293  2.6242 -0.6295  3.0315
 1424SOL     OW13448   9.354   4.407   1.205 -0.2226 -0.4738 -0.5594
 1424SOL    HW113449   9.307   4.426   1.291 -1.2832 -1.8278 -0.8256
 1424SOL    HW213450   9.453   4.398   1.222 -0.4464 -0.9036  0.5333
 1425SOL     OW13451  10.141   0.407   1.612 -0.5238 -0.2492 -0.4451
 1425SOL    HW113452  10.201   0.388   1.690 -1.8153 -0.1968  0.5892
 1425SOL    HW213453  10.078   0.481   1.637 -0.5655  0.1576 -1.7516
 1427SOL     OW13454   3.489   7.280   0.673 -0.0558 -0.3103 -0.1339
 1427SOL    HW113455   3.554   7.353   0.690 -0.5110 -0.1248  0.8303
 1427SOL    HW213456   3.475   7.269   0.574  1.0816 -0.0502 -0.3243
 1428SOL     OW13457   0.935   8.809   1.982 -0.5917  0.7811  0.1476
 1428SOL    HW113458   0.954   8.723   2.029 -2.4047  0.0385 -0.4520
 1428SOL    HW213459   0.989   8.813   1.897  0.7146  0.9764  0.9669
 1429SOL     OW13460   2.507  10.283   0.708 -0.5803 -0.9589  0.0264
 1429SOL    HW113461   2.419  10.264   0.753 -1.4407  1.3767 -0.5948
 1429SOL    HW213462   2.495  10.358   0.643  2.0113 -0.2421  0.3386
 1430SOL     OW13463   9.305   2.830   1.486 -0.2316  0.2484 -0.7323
 1430SOL    HW113464   9.324   2.737   1.517  1.5089  0.0287 -2.3563
 1430SOL    HW213465   9.260   2.827   1.397 -0.7259  0.9579 -0.5125
 1433SOL     OW13466   3.447   3.861   1.349  0.0258  0.2492  0.0068
 1433SOL    HW113467   3.451   3.925   1.273  2.1827 -1.2222 -1.1825
 1433SOL    HW213468   3.535   3.859   1.396 -0.5715 -0.5495  1.1143
 1434SOL     OW13469   3.430   4.282   0.940  0.6957  0.1403  0.2951
 1434SOL    HW113470   3.384   4.253   0.856 -0.2330  4.0783 -0.6713
 1434SOL    HW213471   3.361   4.299   1.011  1.3408 -1.3651  1.3142
 1435SOL     OW13472   2.093   9.747   2.114 -0.0738 -0.2132  0.4113
 1435SOL    HW113473   2.052   9.672   2.062 -0.7005  1.9627 -2.2973
 1435SOL    HW213474   2.191   9.728   2.128  0.4036 -0.2711 -2.6660
 1436SOL     OW13475   1.213   4.647   2.221  0.0652  0.5164  0.0605
 1436SOL    HW113476   1.198   4.740   2.187  2.1265  0.4660 -1.0242
 1436SOL    HW213477   1.222   4.584   2.144  0.2068 -0.3505  0.7778
 1438SOL     OW13478   3.333   0.344   0.683  0.0405  0.2640 -0.5167
 1438SOL    HW113479   3.256   0.401   0.711 -0.2824 -0.2990 -0.2453
 1438SOL    HW213480   3.330   0.258   0.733  0.2831 -0.1613 -1.2277
 1439SOL     OW13481   1.349   8.215   1.743 -0.2459 -0.0658  0.3441
 1439SOL    HW113482   1.359   8.201   1.645  3.7337  0.1650  0.6587
 1439SOL    HW213483   1.331   8.127   1.788  0.7096 -0.5914 -0.2999
 1440SOL     OW13484   2.145   5.550   0.377 -0.1206  0.6467  0.3831
 1440SOL    HW113485   2.140   5.614   0.301  0.3387  0.0760 -0.1282
 1440SOL    HW213486   2.103   5.463   0.350  3.4137 -0.8396 -0.5228
 1441SOL     OW13487  10.049   4.848   1.006 -0.6991  0.0507 -0.0187
 1441SOL    HW113488   9.999   4.876   0.924  0.3191 -2.3812 -1.5615
 1441SOL    HW213489  10.026   4.753   1.028 -0.8315  0.6147  2.4629
 1442SOL     OW13490   2.524   4.594   1.679  0.2983  0.0005  0.7318
 1442SOL    HW113491   2.475   4.638   1.754  1.0291  1.4127  0.4024
 1442SOL    HW213492   2.464   4.587   1.599 -0.6046 -1.8563  1.5399
 1444SOL     OW13493   3.587   9.045   1.355  0.2628  0.4851 -0.2002
 1444SOL    HW113494   3.526   9.015   1.282 -0.2378  0.8037  0.0837
 1444SOL    HW213495   3.681   9.044   1.322  0.2071 -0.9166 -0.3466
 1445SOL     OW13496   9.671   4.632   0.616 -0.1215 -0.7207  0.4777
 1445SOL    HW113497   9.718   4.719   0.630 -0.7158  0.0372 -2.1302
 1445SOL    HW213498   9.573   4.645   0.622 -0.2458 -1.0519 -0.7648
 1446SOL     OW13499  10.379   6.418   2.342 -0.4342 -0.1895  0.8175
 1446SOL    HW113500  10.394   6.320   2.330 -0.5737  0.0615 -1.6061
 1446SOL    HW213501  10.467   6.465   2.345 -0.4097 -0.1404 -0.4208
 1447SOL     OW13502   2.330   9.949   0.356  0.3946 -0.2641 -0.1734
 1447SOL    HW113503   2.339   9.867   0.298 -1.2612  0.3234 -1.3128
 1447SOL    HW213504   2.262   9.931   0.427 -0.2813  0.2480 -0.6834
 1448SOL     OW13505   3.891   9.859   1.883  0.2624  0.2349 -0.0559
 1448SOL    HW113506   3.883   9.947   1.929  1.2660  0.4925 -0.3643
 1448SOL    HW213507   3.888   9.872   1.784 -3.2495 -0.4426 -0.1090
 1449SOL     OW13508   1.509   9.780   2.183 -0.7254  0.4863  0.1255
 1449SOL    HW113509   1.459   9.731   2.111  0.7832  2.2942 -2.2391
 1449SOL    HW213510   1.603   9.744   2.188 -0.4895  1.1477  0.4363
 1451SOL     OW13511   9.786   3.982   1.880 -0.1086  0.2657 -0.1497
 1451SOL    HW113512   9.716   3.933   1.828  0.0875  1.4753 -1.5684
 1451SOL    HW213513   9.859   3.918   1.906 -1.2661 -0.7967  0.5362
 1452SOL     OW13514   3.472   3.172   1.453  0.4435 -0.5507 -0.7917
 1452SOL    HW113515   3.446   3.264   1.424  1.1488 -0.6681 -1.7886
 1452SOL    HW213516   3.571   3.163   1.452  0.4703 -0.7425  1.1237
 1453SOL     OW13517   1.864   7.209   0.359  0.0422 -0.0230  0.8225
 1453SOL    HW113518   1.800   7.152   0.411  0.1828 -0.4220  0.5575
 1453SOL    HW213519   1.812   7.281   0.311 -0.4151 -1.3269 -0.6996
 1455SOL     OW13520   0.973   0.587   1.864  0.1488 -0.1290  0.2089
 1455SOL    HW113521   0.996   0.620   1.773 -2.1251 -0.5835 -0.5558
 1455SOL    HW213522   1.049   0.532   1.900  0.9693 -0.1258 -1.4920
 1456SOL     OW13523   1.754   8.717   1.411 -0.7716  0.7517 -0.2797
 1456SOL    HW113524   1.835   8.695   1.466 -0.0156  2.0380 -0.8696
 1456SOL    HW213525   1.759   8.811   1.380 -1.9846  0.5180 -1.2298
 1457SOL     OW13526   0.448   2.016   1.617  0.1510 -0.1215  0.0572
 1457SOL    HW113527   0.431   1.930   1.666 -0.9724 -0.1732 -0.4026
 1457SOL    HW213528   0.544   2.020   1.589  0.4995 -0.6608  1.1609
 1461SOL     OW13529   1.998   6.479   2.292 -0.1350 -0.5356 -0.1882
 1461SOL    HW113530   1.970   6.389   2.257  0.3047 -0.7953  0.1135
 1461SOL    HW213531   1.917   6.534   2.310 -0.4348 -1.0558  0.0863
 1462SOL     OW13532   9.682   1.643   2.258  0.0420  0.1041  0.1861
 1462SOL    HW113533   9.704   1.738   2.236  0.5875  0.2620  1.3992
 1462SOL    HW213534   9.761   1.585   2.239 -0.5361 -0.2336 -1.2723
 1463SOL     OW13535   1.108   1.171   0.833 -0.3175  0.0444 -0.1068
 1463SOL    HW113536   1.017   1.212   0.826  0.6722  1.9518 -2.1654
 1463SOL    HW213537   1.175   1.228   0.785  1.9263 -1.5135  1.0668
 1464SOL     OW13538   3.804   2.611   1.525 -0.0987  0.4513 -0.2927
 1464SOL    HW113539   3.765   2.575   1.609 -0.8287  2.3585  0.2321
 1464SOL    HW213540   3.817   2.537   1.459 -0.3318 -0.9198  1.1797
 1465SOL     OW13541   1.158   4.869   0.330 -0.1038  0.3035  0.6996
 1465SOL    HW113542   1.236   4.902   0.382  1.2042 -0.4810 -0.7128
 1465SOL    HW213543   1.169   4.772   0.310 -1.2961  0.2486  0.2454
 1466SOL     OW13544  10.106   3.047   1.414  0.3767 -0.3008 -0.2204
 1466SOL    HW113545  10.104   2.947   1.405  1.6254 -0.4504  0.9443
 1466SOL    HW213546  10.194   3.075   1.452 -0.5281  1.1145  0.8924
 1467SOL     OW13547   3.484   8.236   0.365 -0.0917 -0.3654 -0.3174
 1467SOL    HW113548   3.541   8.299   0.313  0.9089 -0.1249  1.0323
 1467SOL    HW213549   3.508   8.141   0.342 -0.9355 -0.2762 -1.6352
 1468SOL     OW13550   9.137   2.034   1.712 -0.3997 -0.0059  0.1887
 1468SOL    HW113551   9.236   2.024   1.718 -0.0652  2.6439 -0.3296
 1468SOL    HW213552   9.093   1.982   1.786  1.4624  0.2398  1.4861
 1469SOL     OW13553   0.795   0.393   1.205  0.1385  0.5504 -0.3483
 1469SOL    HW113554   0.749   0.348   1.281 -1.4177 -0.3549 -1.7930
 1469SOL    HW213555   0.728   0.440   1.148  1.4808  2.6440 -0.2450
 1470SOL     OW13556   1.343   9.852   1.731 -0.1545  0.4086  0.0068
 1470SOL    HW113557   1.382   9.784   1.669  0.3973  2.8135 -2.3420
 1470SOL    HW213558   1.414   9.918   1.756 -1.6220  2.3627 -0.8873
 1471SOL     OW13559   3.018   5.491   2.335  0.5947  0.5612  0.0450
 1471SOL    HW113560   2.974   5.560   2.279  0.0439  0.5357  0.4463
 1471SOL    HW213561   2.993   5.400   2.302 -0.4326  0.5414  0.8797
 1473SOL     OW13562   9.369   3.727   1.748 -0.1439 -0.2258 -0.1115
 1473SOL    HW113563   9.368   3.826   1.735 -1.2261  0.0764  2.0227
 1473SOL    HW213564   9.457   3.690   1.716  1.3658  1.8116  1.5190
 1474SOL     OW13565  10.268   9.005   1.344 -0.2158  0.2217 -0.5806
 1474SOL    HW113566  10.275   9.063   1.263  0.8098  0.4209 -0.3634
 1474SOL    HW213567  10.253   9.062   1.425 -0.3730  0.0940 -0.5194
 1476SOL     OW13568   2.851   8.128   0.746  0.5146 -0.0465 -0.0878
 1476SOL    HW113569   2.780   8.130   0.817  0.9599  0.4434  0.3509
 1476SOL    HW213570   2.941   8.120   0.789  0.9377  2.2281 -0.4793
 1477SOL     OW13571   1.221   4.050   1.136 -0.2552  0.2306  0.1892
 1477SOL    HW113572   1.193   3.954   1.133 -1.3044  0.4863  1.1905
 1477SOL    HW213573   1.205   4.086   1.228 -2.4643  2.1237 -0.8924
 1479SOL     OW13574   5.126   2.917   0.528 -0.1138 -0.5838  0.6634
 1479SOL    HW113575   5.157   2.873   0.613  0.8241 -2.4291 -0.6041
 1479SOL    HW213576   5.164   3.009   0.523  0.6170 -0.8133  1.7937
 1480SOL     OW13577   1.272   0.568   2.082  0.1919 -0.1566 -0.2051
 1480SOL    HW113578   1.233   0.509   2.153  0.2047  1.2481  0.9979
 1480SOL    HW213579   1.274   0.519   1.995 -0.6206 -1.6073  0.5764
 1481SOL     OW13580   9.768   3.763   0.508 -0.1553  0.1119  0.1675
 1481SOL    HW113581   9.672   3.780   0.483 -0.2185 -0.6184 -0.0843
 1481SOL    HW213582   9.773   3.688   0.573  0.5245 -2.3493 -2.6174
 1482SOL     OW13583   3.708   3.694   0.769  0.2500  0.2689  0.0197
 1482SOL    HW113584   3.750   3.662   0.684  2.9788  1.4524  0.8729
 1482SOL    HW213585   3.700   3.794   0.766 -3.1918  0.0649 -0.3731
 1483SOL     OW13586   0.558   4.771   2.283  0.4297 -0.6022  0.2175
 1483SOL    HW113587   0.537   4.725   2.197  1.8515 -0.9187  0.0198
 1483SOL    HW213588   0.504   4.731   2.357 -1.7151  0.4973 -0.7261
 1484SOL     OW13589   2.528   9.532   2.233 -0.4497  0.1022 -0.1346
 1484SOL    HW113590   2.602   9.496   2.176  0.4984  0.4733  0.8238
 1484SOL    HW213591   2.442   9.488   2.208  0.0398 -0.1354 -1.4628
 1486SOL     OW13592   1.101   2.286   2.306  0.2166  0.0121 -0.0221
 1486SOL    HW113593   1.004   2.263   2.306 -0.2678  1.9177 -0.4904
 1486SOL    HW213594   1.149   2.230   2.238 -0.6982 -0.3697 -0.3670
 1487SOL     OW13595   2.621   4.487   0.507  0.2997  0.2302 -0.6137
 1487SOL    HW113596   2.587   4.581   0.506 -1.6445 -0.4495 -0.6549
 1487SOL    HW213597   2.604   4.446   0.596 -1.2697 -0.9245 -1.4269
 1489SOL     OW13598   4.010   1.647   2.301 -0.2489 -0.6436 -0.4974
 1489SOL    HW113599   4.002   1.594   2.216 -1.7484 -0.8529 -0.2293
 1489SOL    HW213600   3.920   1.662   2.340  0.2569  1.2663 -0.0213
 1490SOL     OW13601   1.751   4.026   0.869  0.1054 -0.2725 -0.2104
 1490SOL    HW113602   1.727   4.086   0.792 -0.4684  1.7188  1.4924
 1490SOL    HW213603   1.668   3.980   0.901  0.1707 -0.3678 -0.1809
 1491SOL     OW13604   1.390  10.261   1.345  0.1768  0.3855 -0.3543
 1491SOL    HW113605   1.386  10.226   1.439 -2.9106  0.0436 -0.5677
 1491SOL    HW213606   1.331  10.341   1.337  1.0072  0.8724 -1.8418
 1492SOL     OW13607   2.805   2.843   0.967  0.5131 -0.5036 -0.3764
 1492SOL    HW113608   2.854   2.844   1.055  0.7551 -0.2323 -0.5121
 1492SOL    HW213609   2.766   2.752   0.952 -1.6232  0.1298  1.1556
 1493SOL     OW13610   3.499   0.440   1.639  0.0949  0.2011  0.6469
 1493SOL    HW113611   3.599   0.437   1.633  0.1182 -0.8398  1.4812
 1493SOL    HW213612   3.465   0.518   1.586  1.4342  1.3474  1.4371
 1494SOL     OW13613   1.826  10.174   2.326 -0.3642  0.0231  0.2928
 1494SOL    HW113614   1.883  10.095   2.306 -0.9424 -0.2492 -0.2977
 1494SOL    HW213615   1.748  10.146   2.382 -1.5210 -0.1762 -1.3543
 1495SOL     OW13616   2.840   2.822   0.688 -0.2786  0.0919 -0.1970
 1495SOL    HW113617   2.827   2.898   0.623  2.6082  0.3626 -0.5184
 1495SOL    HW213618   2.835   2.857   0.781 -0.6874  0.3821 -0.3272
 1497SOL     OW13619   4.039   4.617   2.211  0.8728  0.5103  0.2997
 1497SOL    HW113620   4.059   4.704   2.165  1.6650 -0.1494 -0.6411
 1497SOL    HW213621   3.945   4.618   2.244 -0.0606  0.6316 -2.2423
 1498SOL     OW13622   0.727   1.002   0.848  0.0962 -0.2308  0.1292
 1498SOL    HW113623   0.673   1.076   0.807 -0.1601  0.2671  1.3273
 1498SOL    HW213624   0.767   0.946   0.776  1.5128  1.9454 -0.8480
 1500SOL     OW13625   2.718   5.381   0.463 -0.2994  0.1640 -0.0236
 1500SOL    HW113626   2.802   5.342   0.425 -0.6699  0.2118 -0.9070
 1500SOL    HW213627   2.736   5.415   0.555  1.1626  1.9770 -0.9398
 1501SOL     OW13628   4.904   1.860   0.924  0.4294 -0.0878  0.1218
 1501SOL    HW113629   4.929   1.957   0.927 -1.0201  0.2628  1.4799
 1501SOL    HW213630   4.891   1.832   0.829 -1.7740  1.7707 -0.1718
 1502SOL     OW13631   1.218   9.726   1.119 -0.4709 -0.1583 -0.6866
 1502SOL    HW113632   1.246   9.794   1.187  1.6575 -1.8963  0.2208
 1502SOL    HW213633   1.162   9.771   1.049 -0.5907  2.1631  0.8245
 1503SOL     OW13634   1.467   1.023   1.269  0.0978 -0.2885 -0.5587
 1503SOL    HW113635   1.441   0.942   1.321  0.2253  0.3419  0.4974
 1503SOL    HW213636   1.407   1.032   1.189 -0.5008 -0.9143 -0.1836
 1505SOL     OW13637   4.654   4.256   0.997  0.0283  0.2248  0.0237
 1505SOL    HW113638   4.650   4.159   1.020  0.3433 -0.5184 -2.9108
 1505SOL    HW213639   4.749   4.288   1.006  0.1019  0.0199 -0.0044
 1506SOL     OW13640   0.999   1.742   1.201 -0.7218 -0.1595 -0.5386
 1506SOL    HW113641   0.960   1.724   1.292 -0.0589 -1.6216 -0.5165
 1506SOL    HW213642   0.963   1.675   1.136  0.2575 -0.3021 -0.9388
 1507SOL     OW13643   9.248   3.273   1.834 -0.0854 -0.2758 -0.1745
 1507SOL    HW113644   9.156   3.286   1.870  0.1861 -1.1708  0.8792
 1507SOL    HW213645   9.244   3.257   1.736 -1.1832 -1.7665  0.0939
 1508SOL     OW13646   3.632   0.460   0.992 -0.8782  0.1743 -0.5995
 1508SOL    HW113647   3.718   0.412   1.009 -0.0724  2.1515  1.1390
 1508SOL    HW213648   3.564   0.395   0.958  0.5880 -1.9181  0.3349
 1509SOL     OW13649   2.282   9.758   1.666 -0.2277 -0.4173 -0.1776
 1509SOL    HW113650   2.252   9.836   1.611 -0.3951 -0.7992 -0.6360
 1509SOL    HW213651   2.338   9.791   1.742 -1.5273  0.2779  0.5087
 1510SOL     OW13652   1.041   6.042   2.279  0.1102  0.5440 -0.0259
 1510SOL    HW113653   0.965   6.105   2.292 -0.2715  0.1032 -0.1212
 1510SOL    HW213654   1.007   5.954   2.248  0.5411 -0.0862  1.2783
 1512SOL     OW13655   0.684   1.356   1.834 -0.0538  0.7571 -0.8058
 1512SOL    HW113656   0.663   1.432   1.895 -0.2734  1.0549 -1.2531
 1512SOL    HW213657   0.735   1.286   1.885 -0.0779  1.0827 -0.3291
 1513SOL     OW13658   1.613   7.419   2.198  0.6703  0.2383  0.6751
 1513SOL    HW113659   1.539   7.370   2.244  1.1922 -1.0727  0.1103
 1513SOL    HW213660   1.576   7.503   2.157 -0.4046 -0.1649  0.7922
 1515SOL     OW13661   2.319   9.486   0.434  0.2520  0.3262 -0.0380
 1515SOL    HW113662   2.295   9.496   0.337 -0.1786  2.0033  0.2364
 1515SOL    HW213663   2.409   9.526   0.450 -0.6257  2.0486  0.6781
 1516SOL     OW13664   3.035   6.824   2.278 -0.1618  0.1169  0.2991
 1516SOL    HW113665   3.060   6.742   2.226 -0.5781 -0.5638  1.1455
 1516SOL    HW213666   2.986   6.796   2.361 -2.3653  1.3442 -0.5594
 1517SOL     OW13667   3.119   2.347   1.041  0.0746 -0.6676  0.0690
 1517SOL    HW113668   3.141   2.436   1.079 -0.9609 -0.0252 -0.8102
 1517SOL    HW213669   3.047   2.356   0.972 -0.1345 -2.1917  0.0547
 1518SOL     OW13670   1.381   7.888   2.081  0.2419  0.1505  0.1493
 1518SOL    HW113671   1.325   7.963   2.046 -0.0839 -0.0950  0.1389
 1518SOL    HW213672   1.412   7.910   2.173 -1.0736 -0.3320  0.7230
 1519SOL     OW13673   1.603   2.985   1.973  0.2371 -0.1783 -0.0614
 1519SOL    HW113674   1.637   2.966   1.881 -1.0685 -2.7439 -0.0429
 1519SOL    HW213675   1.678   3.022   2.028  1.2949  0.4042 -1.8339
 1520SOL     OW13676   0.818   7.903   0.777 -0.1658 -0.5058 -0.0478
 1520SOL    HW113677   0.902   7.951   0.803 -0.1152 -0.4722 -0.2730
 1520SOL    HW213678   0.817   7.889   0.678 -0.9720  0.5207 -0.1944
 1521SOL     OW13679  10.404   6.853   0.691 -0.4946 -0.4005  0.2841
 1521SOL    HW113680  10.312   6.882   0.716 -1.4540 -0.9214 -2.4745
 1521SOL    HW213681  10.455   6.931   0.653 -1.0444 -0.9003 -1.5349
 1524SOL     OW13682   9.399   3.070   1.282  0.0327  0.1640  0.1551
 1524SOL    HW113683   9.396   3.014   1.200 -0.0005  2.6187 -1.5809
 1524SOL    HW213684   9.343   3.028   1.354 -0.5879 -1.5994 -1.3196
 1525SOL     OW13685   1.694   3.508   2.257 -0.0701 -0.8556 -0.4208
 1525SOL    HW113686   1.602   3.541   2.280 -0.6148 -0.5166 -2.9106
 1525SOL    HW213687   1.697   3.408   2.265 -1.2713 -1.0633 -2.2602
 1526SOL     OW13688  10.105   2.795   0.610 -0.2839  0.1061 -0.1606
 1526SOL    HW113689  10.182   2.759   0.557 -0.9734 -1.3140 -0.2300
 1526SOL    HW213690  10.028   2.731   0.605 -0.9421  0.7675  1.1625
 1527SOL     OW13691   4.255   3.121   1.350  0.0244  0.1093  0.1636
 1527SOL    HW113692   4.299   3.188   1.290  0.7737 -0.9365 -0.4758
 1527SOL    HW213693   4.304   3.117   1.437  0.8150 -0.5873 -0.3057
 1528SOL     OW13694   1.075   0.353   1.497 -0.0259 -0.1909 -0.1227
 1528SOL    HW113695   0.987   0.381   1.538  0.8271  0.7020  1.1612
 1528SOL    HW213696   1.092   0.257   1.518 -0.3289 -0.1530  0.3204
 1529SOL     OW13697   1.016   8.008   1.277  0.0045  0.0431  0.3687
 1529SOL    HW113698   1.101   7.979   1.231 -0.1134  0.7004 -0.2649
 1529SOL    HW213699   1.015   8.107   1.285  0.1089 -0.0791  1.9822
 1530SOL     OW13700   2.029   5.285   0.596 -0.1893 -0.2712 -0.0270
 1530SOL    HW113701   2.125   5.265   0.578  0.5850  1.2839  2.1965
 1530SOL    HW213702   2.004   5.252   0.687 -1.7397 -0.5447 -0.5297
 1531SOL     OW13703   4.871   2.149   1.738  0.2921 -0.3799 -0.6033
 1531SOL    HW113704   4.852   2.055   1.766  0.2282  0.7859  3.5955
 1531SOL    HW213705   4.790   2.188   1.695  0.4021 -2.2847 -2.6366
 1532SOL     OW13706   0.728   3.643   1.801 -0.1869  0.6925 -0.6578
 1532SOL    HW113707   0.672   3.701   1.861  1.0112  2.8001 -1.5025
 1532SOL    HW213708   0.677   3.624   1.717 -1.0343 -0.4596  0.1084
 1534SOL     OW13709   2.396   2.722   0.506 -0.0936 -0.3757  0.5768
 1534SOL    HW113710   2.351   2.676   0.430 -0.9141 -0.0987  0.8860
 1534SOL    HW213711   2.383   2.669   0.590  0.1192 -0.2734  0.6738
 1536SOL     OW13712   9.997   5.524   2.242  0.0918 -0.4137  0.6877
 1536SOL    HW113713   9.961   5.466   2.315  0.2836 -1.6970 -0.2160
 1536SOL    HW213714   9.952   5.501   2.156  0.6824  0.2814  0.1861
 1537SOL     OW13715   1.667   8.567   0.964 -0.6079 -0.4826  0.2388
 1537SOL    HW113716   1.663   8.497   0.892  0.7949 -0.9595  0.6136
 1537SOL    HW213717   1.671   8.658   0.922 -0.2992 -0.7302 -0.2771
 1538SOL     OW13718   2.381   5.466   2.148  0.4321  0.3573  0.5815
 1538SOL    HW113719   2.316   5.534   2.182  0.4329  0.7307 -0.1439
 1538SOL    HW213720   2.474   5.501   2.159  0.3959  0.8790 -0.6214
 1539SOL     OW13721   2.756  10.005   0.386  0.4009 -0.0209 -0.1093
 1539SOL    HW113722   2.686   9.939   0.413  0.0204  0.9653  1.3827
 1539SOL    HW213723   2.845   9.976   0.422  0.0265  0.8898  1.5789
 1540SOL     OW13724   0.972   7.221   1.425 -0.3046  0.2964 -0.7494
 1540SOL    HW113725   0.986   7.163   1.505 -0.1959  0.0721 -0.9294
 1540SOL    HW213726   0.933   7.166   1.351 -2.2084  0.9173 -0.2398
 1541SOL     OW13727   9.869   2.817   0.443  0.0615  0.4803  0.3397
 1541SOL    HW113728   9.791   2.873   0.472 -0.3304 -0.0231  0.2697
 1541SOL    HW213729   9.954   2.862   0.470 -0.2576  0.9138  0.6384
 1543SOL     OW13730   0.743   0.432   1.793 -0.2596  0.3152 -0.0752
 1543SOL    HW113731   0.765   0.504   1.727  1.1495 -0.4857 -0.5035
 1543SOL    HW213732   0.802   0.440   1.872 -2.1797  1.4803  1.2903
 1544SOL     OW13733   0.841   9.977   0.373  0.3213 -0.3158 -0.0109
 1544SOL    HW113734   0.856  10.007   0.279  1.4852  1.1783  0.6297
 1544SOL    HW213735   0.753  10.014   0.406  0.9401  0.9997  0.1992
 1545SOL     OW13736   3.693   1.608   1.944  0.7884 -0.0446  0.1695
 1545SOL    HW113737   3.710   1.706   1.929  1.2782 -0.0626  0.5920
 1545SOL    HW213738   3.653   1.568   1.861 -3.8400  1.4750  1.5390
 1546SOL     OW13739   9.141   5.005   1.753  0.1643 -0.4262  0.2229
 1546SOL    HW113740   9.056   4.983   1.705  0.1725 -0.8230  0.3897
 1546SOL    HW213741   9.198   5.065   1.695 -0.2800 -0.0570  0.1622
 1547SOL     OW13742   0.935   6.803   0.923  0.4487 -0.3483  0.2334
 1547SOL    HW113743   0.947   6.711   0.887 -0.3179 -0.5131  0.3887
 1547SOL    HW213744   1.013   6.827   0.981  1.9142  0.0971 -1.8547
 1548SOL     OW13745   0.507   6.009   1.960  0.0311 -0.2178 -0.2657
 1548SOL    HW113746   0.596   6.023   2.004 -0.3334 -2.1112  1.1226
 1548SOL    HW213747   0.452   5.946   2.014 -1.6513 -0.1516 -1.8318
 1549SOL     OW13748   2.991   9.966   0.541  0.0442 -0.2315 -0.2401
 1549SOL    HW113749   3.089   9.977   0.556 -0.2377 -0.1721  1.7713
 1549SOL    HW213750   2.947   9.945   0.629 -1.5000 -1.9586 -1.3975
 1550SOL     OW13751   3.479   9.679   1.907  0.0148  0.4490  0.2688
 1550SOL    HW113752   3.443   9.770   1.882 -1.6522 -0.2690 -0.0282
 1550SOL    HW213753   3.549   9.652   1.842  0.4980  1.5092  0.3370
 1552SOL     OW13754   2.795   9.578   1.139  0.0237  0.0941  0.4242
 1552SOL    HW113755   2.817   9.671   1.110 -0.4255  0.2478  0.5682
 1552SOL    HW213756   2.696   9.564   1.135  0.2953 -1.4017 -2.7522
 1553SOL     OW13757  10.005   1.667   1.310 -0.0092 -0.5715 -0.5395
 1553SOL    HW113758   9.990   1.764   1.295  0.0502 -0.4863 -0.0392
 1553SOL    HW213759   9.938   1.632   1.376 -0.0583 -0.8773 -0.7501
 1554SOL     OW13760   0.812   6.846   1.383  0.2964 -0.9765  0.6873
 1554SOL    HW113761   0.755   6.779   1.334  0.7227 -0.6470 -0.2894
 1554SOL    HW213762   0.893   6.799   1.420 -0.3282 -1.3418  1.6099
 1555SOL     OW13763   1.855   4.834   1.599  0.1607  0.0847  0.1569
 1555SOL    HW113764   1.784   4.774   1.563  1.5521 -0.6054 -1.4930
 1555SOL    HW213765   1.821   4.880   1.681 -1.6633 -1.3394  0.2330
 1559SOL     OW13766   9.211   3.528   1.867 -0.5191  0.1982  0.1004
 1559SOL    HW113767   9.239   3.433   1.857 -1.2984 -0.1511  1.1847
 1559SOL    HW213768   9.288   3.588   1.842 -0.3541 -0.6877 -1.5827
 1560SOL     OW13769   3.444   9.292   2.210 -0.5859 -0.5247 -0.5079
 1560SOL    HW113770   3.370   9.331   2.264 -0.1557  0.1196 -0.3797
 1560SOL    HW213771   3.503   9.365   2.176 -0.0957 -1.0217 -0.7418
 1561SOL     OW13772   3.741   3.244   1.422  0.4545 -0.1867 -0.6133
 1561SOL    HW113773   3.840   3.233   1.420  0.4922  0.3032 -2.0563
 1561SOL    HW213774   3.707   3.253   1.328 -1.3160 -3.5311 -0.3562
 1562SOL     OW13775   9.136   3.003   2.222 -0.0015  0.7434  0.2937
 1562SOL    HW113776   9.162   2.915   2.261 -0.3296  0.4798 -0.0780
 1562SOL    HW213777   9.209   3.069   2.239 -0.7011  0.9952  2.5105
 1563SOL     OW13778   9.406   5.337   1.952 -0.1347  0.4735  0.3574
 1563SOL    HW113779   9.390   5.239   1.967 -0.1320  0.6807  1.8755
 1563SOL    HW213780   9.433   5.352   1.857  1.0690 -1.1612  0.3962
 1565SOL     OW13781   0.522   5.427   1.155  0.4612  0.3471  0.5413
 1565SOL    HW113782   0.591   5.376   1.206 -0.0741  0.6310  1.5688
 1565SOL    HW213783   0.496   5.509   1.207 -0.7359  0.1774  0.2265
 1566SOL     OW13784   4.048   8.256   2.153 -0.1753  0.0491  0.5168
 1566SOL    HW113785   4.145   8.247   2.133 -0.2266 -1.0966  0.7622
 1566SOL    HW213786   4.037   8.297   2.244  0.0756  0.1943  0.4831
 1567SOL     OW13787   3.196   4.034   2.056  0.1311  0.1525 -0.1111
 1567SOL    HW113788   3.249   3.949   2.058 -0.1072 -0.0190 -0.8245
 1567SOL    HW213789   3.131   4.031   1.980 -1.0186  0.3002  0.8635
 1568SOL     OW13790   2.170   8.213   1.280  0.0036  0.0187  0.2657
 1568SOL    HW113791   2.081   8.202   1.236  0.7182  0.7568 -1.4043
 1568SOL    HW213792   2.235   8.146   1.241  0.7913  1.0619 -0.2478
 1569SOL     OW13793   1.413  10.240   1.624 -0.0136  0.0914 -0.2771
 1569SOL    HW113794   1.378  10.323   1.668 -1.1224 -0.3525 -0.3060
 1569SOL    HW213795   1.479  10.196   1.684  0.9706  1.2604 -0.4732
 1570SOL     OW13796   2.640   8.900   0.353  0.1662 -0.0484 -0.7132
 1570SOL    HW113797   2.731   8.893   0.396 -0.6123 -2.0226  0.6824
 1570SOL    HW213798   2.614   8.996   0.348  1.3947  0.4062  0.9166
 1571SOL     OW13799   3.186   9.684   1.334  0.1536  0.3082 -0.0117
 1571SOL    HW113800   3.089   9.660   1.345  0.6079 -0.5692  2.6023
 1571SOL    HW213801   3.240   9.633   1.401  2.3799  1.1426 -1.1362
 1572SOL     OW13802   2.508   3.269   2.079 -0.4675 -0.1268  0.3324
 1572SOL    HW113803   2.578   3.203   2.105 -0.8404 -0.6255  0.1086
 1572SOL    HW213804   2.539   3.321   2.000 -0.4225 -0.4814  0.1133
 1573SOL     OW13805   9.288   2.843   1.153  0.0163 -0.4046 -0.3110
 1573SOL    HW113806   9.212   2.829   1.089 -1.9714 -2.4138  2.3472
 1573SOL    HW213807   9.357   2.773   1.139 -0.4564 -0.8916 -0.2100
 1574SOL     OW13808   3.220   0.985   1.769 -0.1291  0.2060 -0.0276
 1574SOL    HW113809   3.230   0.908   1.833 -0.4224  0.3087  0.1412
 1574SOL    HW213810   3.233   0.952   1.676 -0.2302 -0.0439  0.0460
 1576SOL     OW13811   1.665   7.152   1.169  0.5833  0.2312 -0.0985
 1576SOL    HW113812   1.752   7.112   1.198  0.7791  0.3610 -0.4934
 1576SOL    HW213813   1.605   7.080   1.135  0.5339  0.1398  0.1836
 1578SOL     OW13814   2.049  10.075   1.350  0.9498 -0.0792  0.2861
 1578SOL    HW113815   2.019  10.148   1.412  0.4483  1.8135 -2.1174
 1578SOL    HW213816   2.037  10.104   1.255  1.2882 -3.0959 -0.7446
 1579SOL     OW13817   1.680   1.899   0.878 -0.3858 -0.0844 -0.2003
 1579SOL    HW113818   1.597   1.852   0.847 -0.1099  0.2976 -1.5619
 1579SOL    HW213819   1.720   1.950   0.802  1.3893 -0.6753  0.3045
 1580SOL     OW13820   3.100   5.312   1.403  0.3272  0.1477 -0.3672
 1580SOL    HW113821   3.038   5.390   1.408  1.2989  0.8208  1.6411
 1580SOL    HW213822   3.067   5.239   1.463  1.3566  0.4252  0.5461
 1581SOL     OW13823   1.588   8.399   0.779  0.2502  0.3267  0.6290
 1581SOL    HW113824   1.508   8.415   0.721  0.8036  0.4279 -0.1148
 1581SOL    HW213825   1.634   8.315   0.750  1.1438  0.9482  0.2187
 1583SOL     OW13826   2.504   8.018   0.980  0.5941  0.2726 -0.0127
 1583SOL    HW113827   2.479   7.978   0.892  1.3782  0.7258 -0.4447
 1583SOL    HW213828   2.428   8.007   1.044  0.4619 -1.1312 -0.3860
 1584SOL     OW13829   2.425   9.488   1.291 -0.0670  0.2425  0.0747
 1584SOL    HW113830   2.473   9.553   1.232 -0.2107  0.0818 -0.2187
 1584SOL    HW213831   2.360   9.537   1.349  0.4314  0.4611  0.4563
 1586SOL     OW13832   2.624   0.639   1.792  0.1688  0.6329  0.4640
 1586SOL    HW113833   2.549   0.683   1.743 -1.1024  0.7382  2.4569
 1586SOL    HW213834   2.658   0.561   1.739 -1.5229  0.4137 -0.3225
 1587SOL     OW13835   2.732   6.112   1.320 -0.1285 -0.1527 -0.0967
 1587SOL    HW113836   2.646   6.129   1.273 -0.0482  1.9744  0.4350
 1587SOL    HW213837   2.788   6.049   1.267 -2.2721 -2.0700 -0.1207
 1588SOL     OW13838   1.600   5.250   2.286 -0.5971 -0.2168  0.1776
 1588SOL    HW113839   1.570   5.307   2.363  1.8638 -1.8458  2.4059
 1588SOL    HW213840   1.550   5.163   2.287 -0.5956 -0.2237 -0.1358
 1589SOL     OW13841  10.184   0.621   1.982  0.6315  0.3261 -0.5184
 1589SOL    HW113842  10.239   0.665   1.911  0.5549  1.1490 -0.0632
 1589SOL    HW213843  10.113   0.684   2.013  0.6607 -0.0362  0.2921
 1591SOL     OW13844   2.402   0.734   1.623  0.2274 -0.4157 -0.2117
 1591SOL    HW113845   2.402   0.808   1.556  1.2896  0.1935  0.4525
 1591SOL    HW213846   2.311   0.725   1.663  0.0030  0.2758 -0.5684
 1592SOL     OW13847   1.716   8.316   1.704  0.2253  0.0846  0.7041
 1592SOL    HW113848   1.775   8.288   1.780 -0.1435  0.8461  1.2802
 1592SOL    HW213849   1.643   8.375   1.738  0.6281  1.2454 -0.3842
 1593SOL     OW13850  10.116   9.536   0.518 -0.4138  0.2069  0.0148
 1593SOL    HW113851  10.138   9.448   0.474 -0.3244 -0.0479  0.5641
 1593SOL    HW213852  10.036   9.575   0.474 -0.3307 -0.0454 -0.3787
 1594SOL     OW13853   1.293   1.341   1.064  0.6808 -0.6470  0.3239
 1594SOL    HW113854   1.324   1.279   0.993  0.9162  0.0360 -0.1694
 1594SOL    HW213855   1.210   1.306   1.106  0.1212 -0.6573 -0.8089
 1595SOL     OW13856   1.270   3.383   1.229 -0.2147 -0.2376 -0.0986
 1595SOL    HW113857   1.298   3.386   1.133 -0.4024  1.0893 -0.1246
 1595SOL    HW213858   1.200   3.313   1.242 -0.6812  0.0485 -1.0607
 1597SOL     OW13859   3.641   0.621   0.593 -0.2145  0.3244 -0.0540
 1597SOL    HW113860   3.572   0.679   0.637 -1.0872 -0.3686 -0.4927
 1597SOL    HW213861   3.711   0.597   0.659  0.1473  1.8588  0.1542
 1598SOL     OW13862   2.867   3.336   1.947  0.0011  0.1214 -0.1319
 1598SOL    HW113863   2.949   3.390   1.931  0.5371 -0.8351 -0.6640
 1598SOL    HW213864   2.864   3.305   2.042 -0.7198  1.7484  0.3900
 1599SOL     OW13865   1.131   4.201   1.366  0.0994 -0.0613  0.6625
 1599SOL    HW113866   1.037   4.186   1.397  0.1427 -2.3235 -0.2427
 1599SOL    HW213867   1.150   4.299   1.365 -2.1661  0.4123  1.0805
 1600SOL     OW13868   1.302   4.946   0.791 -0.2494 -0.1258 -0.0695
 1600SOL    HW113869   1.361   4.973   0.714 -0.3319  0.5159  0.0933
 1600SOL    HW213870   1.355   4.891   0.855 -0.4143 -1.4223 -1.0354
 1602SOL     OW13871   4.887   2.709   1.221 -0.3183  0.7179 -0.1530
 1602SOL    HW113872   4.810   2.772   1.227  0.0066  1.0657  0.4680
 1602SOL    HW213873   4.943   2.718   1.304 -0.7425 -1.0101  0.3403
 1603SOL     OW13874   4.974   4.039   0.726  0.0672 -0.2534  0.1068
 1603SOL    HW113875   4.909   4.077   0.661 -0.3255 -0.7014  0.2327
 1603SOL    HW213876   5.045   4.107   0.747 -0.7982  0.5086  0.5747
 1604SOL     OW13877   2.569   9.579   0.433 -0.8520  0.5197  0.3433
 1604SOL    HW113878   2.665   9.561   0.409 -0.7234 -0.9855  1.8367
 1604SOL    HW213879   2.556   9.677   0.446 -0.0519  0.9720 -2.0257
 1605SOL     OW13880   3.566   1.500   1.737  0.1301 -0.0165 -0.1329
 1605SOL    HW113881   3.555   1.405   1.709  0.1255 -0.1043  0.1636
 1605SOL    HW213882   3.563   1.559   1.657  0.1177 -0.2657 -0.3158
 1606SOL     OW13883   4.090   1.912   1.605 -0.5345  0.8799 -0.0140
 1606SOL    HW113884   4.159   1.959   1.660 -0.8975  0.4458  0.8212
 1606SOL    HW213885   4.090   1.950   1.512  1.3338  0.4029 -0.2440
 1607SOL     OW13886   8.598   2.601   1.306 -0.0172 -0.4130 -0.0110
 1607SOL    HW113887   8.658   2.533   1.263 -1.0068 -0.8707 -0.6862
 1607SOL    HW213888   8.504   2.569   1.302 -0.3581  0.4899  0.6835
 1608SOL     OW13889   3.326   1.691   2.354  0.0035 -0.1013  0.0773
 1608SOL    HW113890   3.362   1.605   2.320 -0.1776 -0.5432  0.9866
 1608SOL    HW213891   3.272   1.736   2.282  1.3494 -0.0104 -0.8890
 1609SOL     OW13892  10.390  10.064   1.636 -0.3782 -0.4717  0.1599
 1609SOL    HW113893  10.345  10.040   1.551 -1.0470  1.7582 -0.1641
 1609SOL    HW213894  10.453   9.991   1.663 -1.8283 -2.1963 -1.0375
 1610SOL     OW13895   0.873   4.761   0.849  0.4738 -0.0088  0.0299
 1610SOL    HW113896   0.952   4.776   0.790 -1.0870  1.1323 -1.8218
 1610SOL    HW213897   0.793   4.806   0.810 -1.2576 -1.6971  1.5343
 1611SOL     OW13898   1.588   6.972   2.105 -0.9598 -0.0918  0.3453
 1611SOL    HW113899   1.501   6.995   2.149 -0.5190 -0.0414  1.1994
 1611SOL    HW213900   1.663   7.013   2.156 -0.4670  0.3406 -0.7171
 1612SOL     OW13901   1.053  10.233   0.840  0.2120 -0.0733  0.0320
 1612SOL    HW113902   1.058  10.331   0.860  0.6616 -0.1972  0.5203
 1612SOL    HW213903   1.133  10.187   0.878  0.2934 -0.5452 -0.7076
 1613SOL     OW13904   2.856   9.214   0.954  0.1443  0.3493  0.1919
 1613SOL    HW113905   2.808   9.223   0.867  0.4448  1.1721  0.1052
 1613SOL    HW213906   2.930   9.282   0.959 -0.0982  0.5462  1.2358
 1614SOL     OW13907   1.367   1.798   0.839  0.2314 -0.1028  0.1793
 1614SOL    HW113908   1.340   1.889   0.871  0.2192 -0.3511  0.8794
 1614SOL    HW213909   1.315   1.729   0.888  0.1402 -0.4866 -0.4540
 1615SOL     OW13910   3.010   9.958   1.951 -0.0530 -0.0812  0.3629
 1615SOL    HW113911   2.983   9.888   1.885 -2.3321  0.0783  1.0775
 1615SOL    HW213912   3.022   9.916   2.041  0.3477  0.1429  0.4128
 1616SOL     OW13913   3.244   2.924   1.530  0.1805  0.1851  0.3537
 1616SOL    HW113914   3.213   3.019   1.528  0.1038  0.1466 -0.4725
 1616SOL    HW213915   3.327   2.916   1.584 -1.1416  0.3323  2.4371
 1617SOL     OW13916   1.010   7.467   1.676 -0.0989  0.3952  0.1852
 1617SOL    HW113917   0.927   7.479   1.622 -0.5132 -1.2213  0.4669
 1617SOL    HW213918   1.027   7.370   1.691  1.3576  0.7473  0.8861
 1618SOL     OW13919   4.038   3.788   0.924 -0.6194  0.3151 -0.8188
 1618SOL    HW113920   4.098   3.867   0.917  1.3797 -1.2038 -1.2643
 1618SOL    HW213921   3.958   3.801   0.865 -0.9613  2.5423  0.1224
 1619SOL     OW13922   1.166   3.505   1.486  0.2521 -0.5049 -0.1652
 1619SOL    HW113923   1.208   3.472   1.571 -3.2098 -1.3987  1.2940
 1619SOL    HW213924   1.204   3.455   1.409  1.3851 -1.7260  1.1526
 1620SOL     OW13925   4.400   0.652   1.453  0.0772 -0.2887  0.2380
 1620SOL    HW113926   4.409   0.610   1.543 -2.5164 -2.2679 -0.3385
 1620SOL    HW213927   4.367   0.746   1.464  1.3717  0.0558  1.3821
 1621SOL     OW13928   0.624   3.961   0.868 -0.1692 -0.0253 -0.1687
 1621SOL    HW113929   0.678   3.894   0.918  0.2187  0.6035  0.2574
 1621SOL    HW213930   0.684   4.022   0.817 -0.5448 -0.3970 -1.0798
 1623SOL     OW13931   2.998   3.991   1.883  0.2285 -0.2267  0.2081
 1623SOL    HW113932   2.910   4.029   1.853 -0.3261 -0.4772  1.5116
 1623SOL    HW213933   2.984   3.898   1.915  1.0493 -0.3972  0.0589
 1624SOL     OW13934   9.449   4.873   0.432 -0.8286 -0.2156  0.3023
 1624SOL    HW113935   9.494   4.962   0.423 -0.1642 -0.6279 -0.5453
 1624SOL    HW213936   9.433   4.854   0.529  0.2807  0.2194  0.5852
 1625SOL     OW13937   0.764   9.421   1.813  0.3312  0.4474 -0.2421
 1625SOL    HW113938   0.714   9.393   1.731 -0.7973 -0.3302  0.6997
 1625SOL    HW213939   0.854   9.376   1.814 -0.8517 -1.9568  0.4692
 1626SOL     OW13940   3.315   0.876   0.513  0.3739  0.3119  0.8144
 1626SOL    HW113941   3.280   0.969   0.504  0.2143  0.3870  2.1310
 1626SOL    HW213942   3.360   0.849   0.428 -2.1569  0.5171 -0.6574
 1627SOL     OW13943   2.624   9.832   0.554  0.2713  0.8418  0.2415
 1627SOL    HW113944   2.530   9.831   0.590 -0.3729  0.9584 -1.4306
 1627SOL    HW213945   2.681   9.773   0.611 -1.0437 -0.0409  0.6787
 1628SOL     OW13946   2.114   8.811   1.495 -0.5978 -0.1588 -0.4844
 1628SOL    HW113947   2.149   8.846   1.408 -0.6349 -1.0523 -0.8616
 1628SOL    HW213948   2.108   8.712   1.491  0.2386 -0.2750  0.8570
 1629SOL     OW13949  10.228   6.721   2.258 -0.5953 -0.0972 -0.0684
 1629SOL    HW113950  10.176   6.641   2.287 -0.3530 -0.0183  0.5977
 1629SOL    HW213951  10.304   6.736   2.322 -0.8677  0.8942  0.0391
 1630SOL     OW13952  10.429   9.541   1.331  0.1179 -0.1740  0.3356
 1630SOL    HW113953  10.505   9.494   1.286  0.1331  0.7352 -0.5844
 1630SOL    HW213954  10.436   9.526   1.430  0.5478 -1.4764  0.1230
 1631SOL     OW13955   2.163   4.302   1.596 -0.4317  0.3361 -0.1025
 1631SOL    HW113956   2.233   4.246   1.552  0.3351  1.1106  0.1042
 1631SOL    HW213957   2.114   4.354   1.526 -1.2685 -0.7263 -0.3099
 1632SOL     OW13958   9.678   1.761   0.783  0.0510 -0.8242  0.4400
 1632SOL    HW113959   9.655   1.666   0.765 -1.1513 -0.7303  1.4096
 1632SOL    HW213960   9.681   1.776   0.882 -0.2738  0.2625  0.2921
 1634SOL     OW13961   4.150   4.364   1.091  0.0083 -0.3643 -0.1896
 1634SOL    HW113962   4.109   4.285   1.136 -0.7405 -0.1941 -0.5593
 1634SOL    HW213963   4.097   4.446   1.113  1.8159  0.3488  1.6402
 1635SOL     OW13964   9.975   1.247   1.293 -0.1707 -0.8597 -0.4787
 1635SOL    HW113965  10.057   1.289   1.330 -1.1382  1.0666 -0.4632
 1635SOL    HW213966   9.997   1.155   1.260  1.2284 -1.6886  2.5850
 1636SOL     OW13967   1.148   0.738   1.142  1.0167 -0.2582  0.1166
 1636SOL    HW113968   1.173   0.832   1.119 -0.0487 -0.1764 -0.7032
 1636SOL    HW213969   1.055   0.719   1.113 -0.0504 -0.4704  3.4503
 1637SOL     OW13970   1.995   6.591   1.120  0.1648 -0.1374 -0.0774
 1637SOL    HW113971   2.079   6.569   1.169  0.0050  0.1566  0.3382
 1637SOL    HW213972   2.010   6.583   1.022  0.8166  0.3904 -0.0266
 1638SOL     OW13973   3.300   4.475   0.470 -0.2879 -0.0318 -0.1980
 1638SOL    HW113974   3.311   4.541   0.544 -1.3540 -0.6894  0.5453
 1638SOL    HW213975   3.388   4.431   0.452  0.1182  0.5949  0.2379
 1639SOL     OW13976   0.876   7.836   1.464 -0.2807 -0.1175 -0.4104
 1639SOL    HW113977   0.907   7.896   1.390  1.0623 -0.9367 -0.5286
 1639SOL    HW213978   0.941   7.761   1.475 -1.0962 -0.6507  0.8221
 1640SOL     OW13979   1.867   9.229   1.147  0.1956  0.6937 -0.3981
 1640SOL    HW113980   1.829   9.293   1.213  2.2241  1.8801 -0.3254
 1640SOL    HW213981   1.922   9.280   1.080  2.8016 -1.0680  0.3391
 1641SOL     OW13982   9.463   1.824   1.486  0.1747  0.2838  0.0167
 1641SOL    HW113983   9.487   1.805   1.390 -3.1738 -0.0199 -0.7985
 1641SOL    HW213984   9.513   1.761   1.545  2.3415  0.5152 -1.4996
 1642SOL     OW13985   1.857   8.440   1.501 -0.5510 -0.8706 -0.2005
 1642SOL    HW113986   1.805   8.390   1.570  0.1772  1.6861  2.3155
 1642SOL    HW213987   1.793   8.489   1.442 -1.1471  1.5768  2.3537
 1643SOL     OW13988   1.753  10.010   1.980 -0.5714 -0.1831  0.5499
 1643SOL    HW113989   1.828  10.016   1.914 -0.6596  1.0052  0.5456
 1643SOL    HW213990   1.781   9.953   2.057  0.1989 -0.0683  0.3608
 1644SOL     OW13991   1.008   4.907   1.056  0.3648 -0.6638  0.3312
 1644SOL    HW113992   0.945   4.847   1.006 -1.3249 -0.6246  2.3553
 1644SOL    HW213993   1.002   4.999   1.019 -0.0912 -0.8626 -0.1048
 1645SOL     OW13994   4.365  10.218   0.963 -0.2793  0.2345  0.0232
 1645SOL    HW113995   4.328  10.153   1.030 -0.6258  0.7115  0.2939
 1645SOL    HW213996   4.361  10.177   0.872 -0.1151 -0.2862  0.2480
 1646SOL     OW13997   1.659   0.726   0.344 -0.8840  0.3724 -0.3865
 1646SOL    HW113998   1.752   0.733   0.381 -0.5805  0.0675 -1.0627
 1646SOL    HW213999   1.626   0.632   0.354 -0.6379  0.1851 -1.2394
 1647SOL     OW14000   3.972   2.382   0.942  0.6779 -0.0099  0.0944
 1647SOL    HW114001   4.012   2.292   0.926  0.3867 -0.2771  0.8509
 1647SOL    HW214002   4.044   2.449   0.959  1.0081  0.2950 -2.3538
 1648SOL     OW14003   4.461   2.014   0.808 -0.2103  0.0405 -0.1224
 1648SOL    HW114004   4.538   2.064   0.848  0.9027 -2.4399  0.9812
 1648SOL    HW214005   4.450   2.039   0.712 -0.5669  3.3614  0.7412
 1649SOL     OW14006   2.341   2.529   0.687  0.0094  0.1082 -0.3579
 1649SOL    HW114007   2.300   2.457   0.743  0.0490  1.2419  1.1724
 1649SOL    HW214008   2.430   2.499   0.653 -0.3400 -0.8704 -0.4143
 1650SOL     OW14009   0.497   6.780   1.747  0.0027  0.6866 -0.1679
 1650SOL    HW114010   0.498   6.843   1.669  0.8232 -0.1559 -0.8483
 1650SOL    HW214011   0.417   6.799   1.804 -0.0579  1.9736 -0.6674
 1651SOL     OW14012   0.966   3.909   1.621  0.1499  0.7573  0.0035
 1651SOL    HW114013   1.045   3.932   1.678 -0.0561 -0.0591  0.6380
 1651SOL    HW214014   0.925   3.824   1.655 -0.4014  0.6441 -0.9378
 1652SOL     OW14015   1.830   4.576   1.822 -0.3106 -0.1173  0.3341
 1652SOL    HW114016   1.801   4.495   1.872  1.0962 -0.2765  0.9091
 1652SOL    HW214017   1.910   4.554   1.766  0.6278  1.0951  1.1835
 1653SOL     OW14018   1.327   4.623   1.243  0.6725 -0.6047  0.1851
 1653SOL    HW114019   1.310   4.711   1.198 -0.6625 -1.5382 -1.2076
 1653SOL    HW214020   1.246   4.565   1.233  0.5789 -1.0832  3.2858
 1654SOL     OW14021   1.957  10.013   1.794  0.7154  0.0883 -0.1603
 1654SOL    HW114022   1.998   9.929   1.758 -0.1063 -1.2128  1.8874
 1654SOL    HW214023   1.903  10.057   1.722  0.6287 -1.4554 -1.0557
 1655SOL     OW14024   3.093   9.301   2.324  0.6583  0.8567 -0.3425
 1655SOL    HW114025   3.095   9.204   2.300  2.4410  0.1571  2.3442
 1655SOL    HW214026   3.008   9.342   2.292 -0.7301 -1.9244 -0.3297
 1656SOL     OW14027   1.580  10.031   1.762  0.8308 -0.3116 -0.3167
 1656SOL    HW114028   1.641  10.024   1.841  1.3528 -1.7372 -0.8385
 1656SOL    HW214029   1.634  10.039   1.678  0.2800  1.7331 -0.5055
 1657SOL     OW14030  10.170   3.379   0.436  0.0304 -0.1965  0.1306
 1657SOL    HW114031  10.078   3.397   0.402 -0.0444 -0.7211  0.0558
 1657SOL    HW214032  10.220   3.465   0.444  0.1320 -0.0870 -1.5630
 1659SOL     OW14033   2.456   9.340   0.743 -0.9133  0.0980  0.0905
 1659SOL    HW114034   2.453   9.271   0.815  0.4737 -1.3699 -1.2273
 1659SOL    HW214035   2.366   9.383   0.734 -1.8005 -1.5475  0.9190
 1660SOL     OW14036   1.479   0.311   1.072 -0.3216 -0.0619 -0.0259
 1660SOL    HW114037   1.419   0.367   1.015  0.1517 -0.3042 -0.7850
 1660SOL    HW214038   1.436   0.294   1.160 -0.0590  2.2740  0.5791
 1662SOL     OW14039   9.815   5.907   1.819 -0.3352  0.1905 -0.1062
 1662SOL    HW114040   9.834   5.848   1.898  0.2068  0.4685 -0.0262
 1662SOL    HW214041   9.835   5.856   1.735 -1.2040 -0.2070 -0.0776
 1663SOL     OW14042   2.459   0.996   1.139 -0.4369 -0.0736  0.1282
 1663SOL    HW114043   2.497   1.086   1.120 -1.1055  0.1670 -0.1048
 1663SOL    HW214044   2.528   0.938   1.183  0.0538  0.4843  0.0911
 1664SOL     OW14045   2.523   6.399   0.712 -0.4414  0.2123  0.0397
 1664SOL    HW114046   2.434   6.429   0.678  0.2397  0.6594 -1.3820
 1664SOL    HW214047   2.566   6.338   0.645  1.2038  1.6321 -0.2642
 1666SOL     OW14048   4.339   3.613   0.393 -0.2053 -0.1128 -0.7316
 1666SOL    HW114049   4.439   3.614   0.391 -0.1884  1.3702  0.0472
 1666SOL    HW214050   4.305   3.688   0.337 -0.9103 -0.9011 -1.3782
 1667SOL     OW14051   2.213   6.437   1.888  0.5067  0.1213 -0.7140
 1667SOL    HW114052   2.268   6.493   1.950  0.5592 -1.1004  0.3750
 1667SOL    HW214053   2.120   6.474   1.883 -0.3713 -1.4840  2.5075
 1669SOL     OW14054   3.926   9.954   1.624 -0.0433  0.0596  0.4900
 1669SOL    HW114055   3.844   9.963   1.567  1.1248  0.9892 -1.0735
 1669SOL    HW214056   3.967  10.044   1.638  0.6960 -0.3955  1.3066
 1670SOL     OW14057   1.537   1.717   1.546  0.6398  0.2757  0.3994
 1670SOL    HW114058   1.443   1.736   1.520  0.4642 -0.4011  0.5193
 1670SOL    HW214059   1.595   1.719   1.465  0.2387 -0.9754  0.0692
 1671SOL     OW14060   1.172   7.766   1.204 -0.2238 -0.1853  0.0376
 1671SOL    HW114061   1.194   7.689   1.264  0.2561  0.7884  1.1362
 1671SOL    HW214062   1.214   7.849   1.240  0.1937  0.3958 -1.7327
 1674SOL     OW14063  10.297   0.446   1.001  0.2763 -0.5892 -0.3527
 1674SOL    HW114064  10.333   0.356   1.027  1.4387 -0.3465 -1.0947
 1674SOL    HW214065  10.325   0.514   1.068  1.3434 -0.3757 -1.0015
 1675SOL     OW14066   2.658   7.131   0.564 -0.3993 -0.0511  0.6787
 1675SOL    HW114067   2.580   7.132   0.501 -0.9906  1.9614  1.4024
 1675SOL    HW214068   2.636   7.186   0.645  1.2162 -0.7145  1.5847
 1676SOL     OW14069  10.340   4.764   1.567 -0.1205 -0.1418 -0.1546
 1676SOL    HW114070  10.374   4.822   1.494 -0.5190  0.2088 -0.0661
 1676SOL    HW214071  10.339   4.668   1.537  0.3362 -0.0755 -0.3734
 1678SOL     OW14072   0.621   7.265   1.542  0.0343 -0.9347  1.1523
 1678SOL    HW114073   0.654   7.286   1.450 -0.8628 -0.2555  0.9775
 1678SOL    HW214074   0.650   7.337   1.605  2.9775 -2.7687  1.9598
 1679SOL     OW14075  10.423   8.044   0.503 -0.4056 -0.4498 -0.1444
 1679SOL    HW114076  10.392   7.998   0.586 -3.3992  0.2559 -0.8236
 1679SOL    HW214077  10.408   7.984   0.424  2.3805 -1.0999 -0.2376
 1680SOL     OW14078   3.003   8.368   1.678 -0.1064 -0.0946  1.1428
 1680SOL    HW114079   2.927   8.434   1.682  0.1983  0.2225  1.7777
 1680SOL    HW214080   3.077   8.399   1.738  0.3413 -0.6395  0.8737
 1681SOL     OW14081   0.967   4.728   1.270  1.0325  0.0047  0.2860
 1681SOL    HW114082   0.949   4.799   1.338  2.2772  1.0313 -0.4615
 1681SOL    HW214083   1.011   4.767   1.190 -1.7810 -0.9093 -1.8148
 1682SOL     OW14084   1.434   1.216   1.452  0.6595  0.3267  0.3556
 1682SOL    HW114085   1.434   1.165   1.538 -2.1894 -0.5090 -0.1006
 1682SOL    HW214086   1.404   1.157   1.377  1.5372  1.4905 -0.9526
 1684SOL     OW14087   3.235  10.089   1.582  0.2968  0.2699  0.2958
 1684SOL    HW114088   3.220   9.995   1.611 -0.1987  0.3069  0.1580
 1684SOL    HW214089   3.332  10.111   1.590  0.5308 -0.4912 -0.4022
 1687SOL     OW14090   2.428   3.317   1.100  0.3887 -0.7852  0.5728
 1687SOL    HW114091   2.497   3.376   1.143  0.4705 -0.8121  0.4800
 1687SOL    HW214092   2.439   3.224   1.133 -1.1770 -0.3364  2.4275
 1688SOL     OW14093  10.072   6.227   2.341  0.9701  0.4252 -0.0045
 1688SOL    HW114094  10.000   6.165   2.370  0.1788  1.2426 -0.1939
 1688SOL    HW214095  10.152   6.175   2.311 -0.1409 -0.5261 -1.3544
 1689SOL     OW14096   2.101   6.069   0.516  0.3307 -0.1068 -0.1905
 1689SOL    HW114097   2.188   6.058   0.563  0.6809  0.0286 -0.8027
 1689SOL    HW214098   2.027   6.036   0.575  0.7879 -0.1952  0.3410
 1690SOL     OW14099   8.993   1.948   1.478 -0.3053  0.0327 -0.4826
 1690SOL    HW114100   9.015   1.853   1.458 -0.7757 -0.3341  0.6960
 1690SOL    HW214101   9.013   1.967   1.574  0.4207  1.3082 -0.8781
 1691SOL     OW14102   8.835   2.038   1.253 -0.0482  0.5850 -0.3303
 1691SOL    HW114103   8.787   2.124   1.270 -1.0232 -0.2425  1.1651
 1691SOL    HW214104   8.896   2.018   1.329  0.2573 -0.0056 -0.7272
 1693SOL     OW14105   3.973   4.565   0.869 -0.2494 -1.1362  0.5719
 1693SOL    HW114106   3.911   4.522   0.935 -2.6954 -0.1566 -1.0296
 1693SOL    HW214107   3.995   4.658   0.901 -1.0121 -0.8549  0.3030
 1694SOL     OW14108   0.932   2.373   1.594 -0.1317  0.0423 -0.2488
 1694SOL    HW114109   0.971   2.399   1.683 -0.2323 -1.5047  0.2742
 1694SOL    HW214110   0.834   2.358   1.604  0.0428 -1.2309 -0.3563
 1696SOL     OW14111   0.989   5.965   1.762  0.3778  0.1314 -0.1200
 1696SOL    HW114112   0.893   5.947   1.784  0.4503 -0.3346 -0.1740
 1696SOL    HW214113   1.046   5.947   1.843  0.7587 -2.5562 -0.9414
 1697SOL     OW14114   2.531   8.851   2.013  0.0166 -0.3396  0.3507
 1697SOL    HW114115   2.479   8.766   2.023 -0.9580  0.1415 -0.6002
 1697SOL    HW214116   2.529   8.880   1.917  0.0930  0.9313  0.7329
 1699SOL     OW14117   2.572   1.227   1.099  0.0020 -0.0293  0.3582
 1699SOL    HW114118   2.564   1.272   1.010 -1.5707 -1.7128 -0.3797
 1699SOL    HW214119   2.667   1.199   1.113  0.0379 -0.8864 -1.3975
 1701SOL     OW14120   3.139   1.090   0.515  0.1237  0.6400  0.2222
 1701SOL    HW114121   3.108   1.085   0.420  2.4365 -2.7047 -0.4760
 1701SOL    HW214122   3.076   1.039   0.573  1.3180 -1.5453 -0.3455
 1702SOL     OW14123  10.358   0.712   0.591 -0.1941  0.6760  0.1069
 1702SOL    HW114124  10.275   0.722   0.536  1.2460  0.2310 -2.2178
 1702SOL    HW214125  10.370   0.616   0.617 -1.6706  1.1120  2.5471
 1703SOL     OW14126   1.464   1.823   1.772  0.1542 -0.3198 -0.4997
 1703SOL    HW114127   1.489   1.780   1.685  0.0749 -0.1215 -0.6199
 1703SOL    HW214128   1.379   1.782   1.805  1.1011 -1.6402  0.3620
 1704SOL     OW14129   2.719   5.059   1.913 -0.0976  0.1597 -0.1849
 1704SOL    HW114130   2.793   5.127   1.911 -0.4608  0.5489 -0.4400
 1704SOL    HW214131   2.642   5.096   1.965 -0.1760 -0.1814 -0.0604
 1705SOL     OW14132   2.439  10.179   1.587  0.5255  0.2995 -0.0802
 1705SOL    HW114133   2.388  10.234   1.652  0.3468 -1.4545  1.2909
 1705SOL    HW214134   2.536  10.203   1.591  0.5713 -0.0640  1.1170
 1706SOL     OW14135   3.230   8.242   1.518  0.2377 -0.0216 -0.3350
 1706SOL    HW114136   3.156   8.272   1.578  0.2933  0.2153 -0.3850
 1706SOL    HW214137   3.318   8.259   1.563  0.2230 -1.5970  0.3229
 1707SOL     OW14138   1.954   8.062   2.191  0.9724 -0.2078 -0.3431
 1707SOL    HW114139   2.037   8.036   2.141  0.7669 -2.2831  0.3483
 1707SOL    HW214140   1.939   8.160   2.180  2.8213 -0.0106 -1.5128
 1708SOL     OW14141   3.262   7.458   0.583  0.0931  0.7368  0.7172
 1708SOL    HW114142   3.239   7.361   0.576 -0.0153  0.8064  0.0763
 1708SOL    HW214143   3.293   7.478   0.676  2.0406 -0.3380  0.3362
 1711SOL     OW14144   2.802   7.459   0.732 -0.2540  0.4436  0.0073
 1711SOL    HW114145   2.715   7.415   0.709  0.7911 -1.5471 -0.2918
 1711SOL    HW214146   2.842   7.500   0.650  1.3892 -2.8908 -0.9525
 1712SOL     OW14147   2.728   6.759   1.986 -0.1805  0.4862 -0.4905
 1712SOL    HW114148   2.700   6.663   1.990 -1.7442  1.0217  2.8125
 1712SOL    HW214149   2.666   6.809   1.926 -0.3860 -0.2332 -0.8876
 1713SOL     OW14150   1.851   5.047   1.794 -0.0953 -0.2301  0.5308
 1713SOL    HW114151   1.819   4.983   1.863  0.4920 -0.5846  0.4725
 1713SOL    HW214152   1.951   5.043   1.786 -0.0448  0.7123  0.5479
 1714SOL     OW14153   3.375   9.204   1.941  0.4422 -0.0751 -0.0606
 1714SOL    HW114154   3.433   9.166   1.870  0.4177  1.7022 -1.0649
 1714SOL    HW214155   3.425   9.208   2.028  1.4696  0.4453 -0.6742
 1715SOL     OW14156   9.495   3.707   0.524 -0.2152 -0.1343  0.1395
 1715SOL    HW114157   9.449   3.692   0.612  0.5232 -0.7969  0.4122
 1715SOL    HW214158   9.467   3.636   0.459  0.7540 -0.7878  0.4367
 1717SOL     OW14159   9.915   5.954   1.469  0.3598  0.5913  0.1243
 1717SOL    HW114160   9.904   5.861   1.505  0.8509 -0.5000 -2.4308
 1717SOL    HW214161   9.829   6.004   1.482 -0.9786 -1.2599 -1.2800
 1718SOL     OW14162   3.471   0.362   1.903  0.5644  0.2894 -0.5578
 1718SOL    HW114163   3.474   0.393   1.808 -0.5334  0.1764 -0.6351
 1718SOL    HW214164   3.509   0.433   1.962  2.0464  0.0101 -1.1569
 1719SOL     OW14165   4.830   1.770   2.191 -0.6012  0.0138  1.1239
 1719SOL    HW114166   4.916   1.719   2.181 -0.9887 -0.2507 -1.0532
 1719SOL    HW214167   4.805   1.809   2.103 -1.4690  2.1353  2.2910
 1720SOL     OW14168   0.554   2.298   1.102  0.0354  0.2629  0.2571
 1720SOL    HW114169   0.509   2.306   1.013 -0.5375 -0.5033  0.4669
 1720SOL    HW214170   0.629   2.232   1.095 -0.8198 -0.7643  0.6433
 1721SOL     OW14171   2.827   8.355   0.948  0.3836  0.1213 -0.3191
 1721SOL    HW114172   2.877   8.382   0.867  1.5677  2.0036  1.0254
 1721SOL    HW214173   2.730   8.345   0.925  0.7260  0.4604 -1.9770
 1722SOL     OW14174   5.111   2.371   0.623  0.1461 -0.3097 -0.0263
 1722SOL    HW114175   5.032   2.313   0.606 -0.2519  0.1641  0.2152
 1722SOL    HW214176   5.091   2.465   0.594  0.0937  0.1298  1.3849
 1724SOL     OW14177   4.541   3.782   1.950  0.2468 -0.6710  0.2956
 1724SOL    HW114178   4.641   3.779   1.951  0.2879  0.4563 -0.1634
 1724SOL    HW214179   4.507   3.718   1.880  0.7562  1.2764 -1.7869
 1726SOL     OW14180   2.122   7.065   2.315 -0.5157  0.0601  0.3629
 1726SOL    HW114181   2.165   7.081   2.226 -0.5861 -0.7488  0.1812
 1726SOL    HW214182   2.080   7.150   2.347  2.7982  1.3863  1.4113
 1727SOL     OW14183   0.858   1.331   0.912 -0.7918  0.1838 -0.3034
 1727SOL    HW114184   0.762   1.304   0.896 -0.4097 -0.8698 -0.9002
 1727SOL    HW214185   0.892   1.284   0.993 -0.3378 -0.6205 -0.9458
 1728SOL     OW14186   9.994   4.068   1.273 -0.0006 -0.1736  0.2725
 1728SOL    HW114187  10.031   3.986   1.228 -0.8642 -1.7505  2.3684
 1728SOL    HW214188   9.970   4.135   1.203  1.2804 -1.4471 -1.4713
 1729SOL     OW14189   2.626   6.422   1.969 -0.0251 -0.2416 -0.6198
 1729SOL    HW114190   2.606   6.324   1.968 -1.8492  0.1056 -0.6830
 1729SOL    HW214191   2.691   6.443   1.896  2.1737 -1.7372  0.8487
 1730SOL     OW14192   9.995   1.000   1.197  0.2314  0.3740 -0.2249
 1730SOL    HW114193   9.950   0.911   1.204  0.0244  0.4377 -0.7401
 1730SOL    HW214194  10.063   0.998   1.124  0.0730  0.7036 -0.3866
 1731SOL     OW14195   1.148   9.595   1.677 -0.3091 -0.5978 -0.2139
 1731SOL    HW114196   1.115   9.533   1.749 -2.4965  2.6276  1.6996
 1731SOL    HW214197   1.245   9.615   1.692 -1.0185  0.9730  2.6446
 1734SOL     OW14198   3.272   3.270   1.992 -0.3682  0.3432 -0.4960
 1734SOL    HW114199   3.347   3.318   2.038  0.1304 -1.6862  0.8523
 1734SOL    HW214200   3.301   3.244   1.900  0.8513 -0.9907  0.2403
 1735SOL     OW14201   1.905   9.336   2.206  0.1561 -0.7706  0.1835
 1735SOL    HW114202   1.835   9.268   2.183 -0.4150 -0.7328  1.7969
 1735SOL    HW214203   1.865   9.406   2.264  1.7218 -1.1516  1.7577
 1736SOL     OW14204   1.611   5.819   1.701  0.1055 -0.0497 -0.5776
 1736SOL    HW114205   1.555   5.737   1.711 -1.4326  1.1471  1.0136
 1736SOL    HW214206   1.702   5.794   1.669 -0.9433 -2.1680 -1.9961
 1737SOL     OW14207   1.934   6.524   1.942 -0.9872 -0.2202 -0.0376
 1737SOL    HW114208   1.914   6.588   2.016 -1.5998 -0.1751 -0.2352
 1737SOL    HW214209   1.872   6.542   1.866 -0.3818 -0.2843 -0.5508
 1741SOL     OW14210   3.507   1.617   0.614  0.6317 -0.1141  0.5685
 1741SOL    HW114211   3.457   1.578   0.692  1.9818  1.7052  2.3772
 1741SOL    HW214212   3.491   1.560   0.533  0.7154 -3.0917  2.5802
 1742SOL     OW14213   3.580   7.961   0.635  0.1492  0.6373 -0.6939
 1742SOL    HW114214   3.491   7.991   0.670  0.1108 -0.0360 -0.2208
 1742SOL    HW214215   3.585   7.982   0.537  0.1971  2.3768 -0.3338
 1743SOL     OW14216   2.486   2.777   1.141 -0.0876 -0.8523  0.3576
 1743SOL    HW114217   2.569   2.725   1.121  1.3281  1.6118 -0.3485
 1743SOL    HW214218   2.436   2.794   1.056  0.3948  0.4716  0.3315
 1744SOL     OW14219   1.541  10.017   1.149  0.1095 -0.0306  0.1572
 1744SOL    HW114220   1.580  10.045   1.061  1.3090 -0.0816  0.6621
 1744SOL    HW214221   1.561  10.087   1.218  0.4642 -0.6932  0.7301
 1745SOL     OW14222   2.574   6.218   0.513  0.0130  0.5840  0.4633
 1745SOL    HW114223   2.670   6.200   0.495 -0.2698 -0.6683  0.1613
 1745SOL    HW214224   2.530   6.252   0.430  0.0921  0.7101  0.4734
 1746SOL     OW14225   3.079   7.039   2.012  0.4604 -0.6512 -0.2244
 1746SOL    HW114226   3.094   6.943   1.988 -2.5133 -1.3476  0.5850
 1746SOL    HW214227   3.092   7.051   2.110  1.9551  0.0334 -0.4909
 1747SOL     OW14228   4.321   4.338   0.705  0.2943  0.7967 -0.8129
 1747SOL    HW114229   4.232   4.331   0.750  0.6634 -1.1507 -0.3512
 1747SOL    HW214230   4.308   4.363   0.610 -0.7826  0.1720 -0.8380
 1748SOL     OW14231   2.327   6.005   1.560  0.2647 -0.0676  0.0920
 1748SOL    HW114232   2.341   5.996   1.461 -0.2820  0.9951 -0.0814
 1748SOL    HW214233   2.396   6.066   1.598 -0.6917  1.0626  0.0517
 1749SOL     OW14234   2.686   3.060   2.177 -0.0833 -0.5162  0.0788
 1749SOL    HW114235   2.724   2.970   2.158  1.6003  0.0786  0.5240
 1749SOL    HW214236   2.615   3.053   2.247  0.3044 -1.4328  0.3811
 1750SOL     OW14237   1.647   9.122   0.342  0.4695 -0.2387 -0.0418
 1750SOL    HW114238   1.569   9.168   0.384  1.0135  1.8311 -1.2519
 1750SOL    HW214239   1.615   9.059   0.272 -0.2374 -1.0662  1.0182
 1752SOL     OW14240   0.903   4.584   1.844  0.1863 -0.5619 -0.2011
 1752SOL    HW114241   0.821   4.633   1.812  0.3051 -0.0912  0.2024
 1752SOL    HW214242   0.904   4.492   1.805 -0.1637 -0.3249 -0.7846
 1755SOL     OW14243   1.874   6.251   1.990 -0.4297  0.8078  0.1987
 1755SOL    HW114244   1.870   6.214   1.897  2.9620 -1.3896  0.8113
 1755SOL    HW214245   1.885   6.350   1.986 -2.4858  1.0113 -1.6463
 1756SOL     OW14246   2.455   1.930   1.963 -0.1139  0.1127 -0.3124
 1756SOL    HW114247   2.373   1.960   2.011  0.3000 -0.1680  0.5625
 1756SOL    HW214248   2.527   1.910   2.028  0.2127 -0.9871 -1.0017
 1757SOL     OW14249   0.918  10.048   0.678  0.0249  0.2046 -0.3221
 1757SOL    HW114250   0.964  10.078   0.762  2.5736  0.0499 -1.5955
 1757SOL    HW214251   0.894  10.129   0.624  2.9811  0.2172 -1.7411
 1758SOL     OW14252   2.900   4.558   0.378 -0.0798  0.3121  0.2513
 1758SOL    HW114253   2.810   4.545   0.419  0.5203  1.9692  2.1561
 1758SOL    HW214254   2.961   4.484   0.406 -0.2426  0.3598  0.7298
 1759SOL     OW14255   1.719   0.453   0.620  0.2309 -0.0718 -0.1340
 1759SOL    HW114256   1.810   0.456   0.662  0.2881 -2.1094 -0.0437
 1759SOL    HW214257   1.654   0.502   0.679  0.7210 -1.0995  1.3069
 1760SOL     OW14258   1.448   9.558   1.636 -0.4909  0.5637 -0.3669
 1760SOL    HW114259   1.461   9.465   1.602  1.0809  0.5639  0.2160
 1760SOL    HW214260   1.466   9.623   1.563 -0.1637  0.4577 -0.3820
 1761SOL     OW14261   3.512   1.872   1.672  0.3077 -0.0574 -0.2444
 1761SOL    HW114262   3.542   1.917   1.756 -0.4224 -1.0634  0.5698
 1761SOL    HW214263   3.426   1.824   1.689  0.5773 -0.9490 -1.3494
 1762SOL     OW14264  10.395   0.903   1.352  0.0849 -0.6024 -0.0647
 1762SOL    HW114265  10.322   0.942   1.409  0.6035  2.1138 -1.1572
 1762SOL    HW214266  10.484   0.933   1.388  0.4590  0.1632 -1.5784
 1764SOL     OW14267   9.607   3.605   1.578  0.6305  0.5630  0.1979
 1764SOL    HW114268   9.571   3.539   1.512  1.5433  0.9060 -0.6596
 1764SOL    HW214269   9.615   3.694   1.534  0.4614  0.9845  1.0210
 1765SOL     OW14270   0.458   7.661   0.920  0.1574  0.4591 -0.3203
 1765SOL    HW114271   0.369   7.670   0.875 -0.0880 -0.6524 -0.0811
 1765SOL    HW214272   0.504   7.750   0.922 -1.3650  1.2510  0.4284
 1766SOL     OW14273   3.055   2.546   2.076  0.2520 -0.1803 -0.0671
 1766SOL    HW114274   3.100   2.545   2.166  0.5712  0.3122 -0.2199
 1766SOL    HW214275   3.118   2.582   2.008 -0.7883  1.7797 -0.0556
 1768SOL     OW14276   2.544   9.608   0.812 -0.3521  0.4549 -0.3481
 1768SOL    HW114277   2.522   9.511   0.801  1.8680 -0.0715 -0.3808
 1768SOL    HW214278   2.640   9.623   0.790 -0.6584  2.6702 -0.2882
 1769SOL     OW14279   1.491   7.953   2.325  0.3757  0.6372 -0.2520
 1769SOL    HW114280   1.590   7.944   2.323  0.3533  0.2557  0.4770
 1769SOL    HW214281   1.467   8.049   2.344  0.5980  0.9529 -1.5228
 1770SOL     OW14282   1.170   6.967   1.535  0.0581  0.8201 -0.7451
 1770SOL    HW114283   1.230   7.005   1.464 -0.2547  1.5698 -0.6131
 1770SOL    HW214284   1.127   7.041   1.586  1.1986  0.2899  1.0246
 1771SOL     OW14285   0.683   1.153   2.191  0.3491 -0.2109 -0.1395
 1771SOL    HW114286   0.659   1.100   2.272 -0.8017  2.4750  1.3293
 1771SOL    HW214287   0.734   1.235   2.218 -1.5772  1.6446 -1.9055
 1772SOL     OW14288   3.243  10.164   0.383  0.0211 -0.5406  0.0853
 1772SOL    HW114289   3.161  10.214   0.355  1.7925  1.5354 -1.5933
 1772SOL    HW214290   3.236  10.140   0.480 -3.4692 -2.2866 -0.5173
 1773SOL     OW14291   3.510   5.169   2.062  0.4178  0.5155  0.4469
 1773SOL    HW114292   3.464   5.080   2.063  0.9324  0.2340 -0.3974
 1773SOL    HW214293   3.601   5.160   2.102  1.5437  0.0510 -2.1294
 1774SOL     OW14294   2.306   6.761   0.744  0.2599  0.1467 -0.0068
 1774SOL    HW114295   2.290   6.766   0.645  0.8004 -2.5761 -0.2717
 1774SOL    HW214296   2.401   6.735   0.760  0.3048  1.0745  1.2568
 1775SOL     OW14297   1.889   8.322   2.179  0.1455  0.2851 -0.1525
 1775SOL    HW114298   1.794   8.325   2.210 -0.1274 -0.0137 -0.9409
 1775SOL    HW214299   1.934   8.409   2.199  0.4614 -0.4759  2.5839
 1777SOL     OW14300   5.160   3.567   2.240  0.4856  0.1926  0.7195
 1777SOL    HW114301   5.139   3.639   2.306  0.0215 -0.0747  0.8630
 1777SOL    HW214302   5.078   3.513   2.221  0.1653  1.3385 -1.3803
 1778SOL     OW14303  10.135   4.412   1.010 -0.6624 -0.4022 -0.7054
 1778SOL    HW114304  10.131   4.505   1.047  1.3284 -0.5002 -0.1860
 1778SOL    HW214305  10.136   4.415   0.910 -2.0742  0.0382 -0.7260
 1779SOL     OW14306   3.560   4.476   1.261  0.0669 -0.0892 -0.4573
 1779SOL    HW114307   3.621   4.464   1.339 -1.9909  1.6512  1.4877
 1779SOL    HW214308   3.596   4.548   1.201  0.1261  0.6863  0.4979
 1780SOL     OW14309   1.534   4.451   1.219  0.1153 -0.3048 -0.1540
 1780SOL    HW114310   1.451   4.498   1.250 -1.0413 -1.7119 -1.0851
 1780SOL    HW214311   1.543   4.364   1.266 -0.7186 -1.6576 -2.3748
 1781SOL     OW14312   2.099   7.442   2.151 -0.2647 -0.3152 -0.5006
 1781SOL    HW114313   2.034   7.491   2.093  0.8507  1.1742 -0.4992
 1781SOL    HW214314   2.116   7.351   2.112 -2.6759 -0.9041 -0.2558
 1782SOL     OW14315   4.149   8.757   0.827 -0.2788  0.3080 -0.1512
 1782SOL    HW114316   4.201   8.825   0.879  1.4190 -0.8302 -0.3184
 1782SOL    HW214317   4.051   8.780   0.831 -0.0689  0.8988  2.5584
 1784SOL     OW14318   1.841   3.668   0.622  0.3958  0.3484 -0.6712
 1784SOL    HW114319   1.907   3.601   0.588 -0.1635 -1.1128  1.0407
 1784SOL    HW214320   1.790   3.706   0.545  0.2481 -1.7054 -1.6342
 1785SOL     OW14321   1.996   2.937   0.601 -0.0017  0.0341 -0.1392
 1785SOL    HW114322   1.987   2.952   0.699  0.9941  0.3703 -0.0949
 1785SOL    HW214323   2.064   2.999   0.564 -0.6690  0.1960 -1.1195
 1786SOL     OW14324   1.953   3.610   2.333 -0.8263  0.4444  0.0817
 1786SOL    HW114325   1.861   3.592   2.299 -1.2364  0.4433  1.1503
 1786SOL    HW214326   1.997   3.679   2.275 -1.2462 -0.0477 -0.8288
 1787SOL     OW14327   9.273   5.130   0.436 -0.4779 -0.2834 -0.0704
 1787SOL    HW114328   9.363   5.106   0.397 -0.0053  2.2420 -0.6246
 1787SOL    HW214329   9.203   5.073   0.393  0.4906 -0.1439 -1.9218
 1788SOL     OW14330   3.540   4.164   1.317 -0.4489  0.2300  0.3427
 1788SOL    HW114331   3.515   4.175   1.413 -0.9966  2.0538 -0.0088
 1788SOL    HW214332   3.471   4.206   1.259  0.8687  0.8553 -0.7927
 1789SOL     OW14333   9.689   3.653   0.745 -0.1887 -0.2512  0.0337
 1789SOL    HW114334   9.662   3.745   0.771  1.6217 -0.0129  1.1965
 1789SOL    HW214335   9.689   3.594   0.827 -0.6705 -1.1115 -0.5750
 1790SOL     OW14336   1.342   4.030   1.387  0.0814 -0.4761  0.3518
 1790SOL    HW114337   1.412   4.101   1.382 -0.6549  0.2981  0.9207
 1790SOL    HW214338   1.253   4.072   1.401 -0.6058 -1.4210 -1.1398
 1791SOL     OW14339   3.104   4.710   1.864  0.6853  0.4345 -0.0001
 1791SOL    HW114340   3.164   4.724   1.784 -0.5339  0.7263 -0.8726
 1791SOL    HW214341   3.009   4.706   1.834  0.3040 -0.6911  1.3066
 1792SOL     OW14342   1.031   2.535   0.594 -0.4484 -0.2870 -0.4039
 1792SOL    HW114343   1.039   2.486   0.681  0.5837 -2.4299 -1.6679
 1792SOL    HW214344   1.120   2.573   0.568 -1.2717  2.4182  0.6278
 1793SOL     OW14345  10.284   4.125   2.039  0.5196  0.0540 -0.2210
 1793SOL    HW114346  10.244   4.166   1.957  0.5209  0.2834 -0.1053
 1793SOL    HW214347  10.322   4.036   2.015  0.2095 -0.0352 -0.3981
 1795SOL     OW14348   0.447   1.739   1.712  0.1531  0.2902 -0.6753
 1795SOL    HW114349   0.470   1.647   1.680  0.2978 -0.3590  1.2548
 1795SOL    HW214350   0.403   1.733   1.801 -0.8744  2.0277 -1.0503
 1796SOL     OW14351   4.714   2.255   2.317 -0.1331 -0.1259  0.3073
 1796SOL    HW114352   4.770   2.299   2.247 -0.0158 -0.7269  0.0219
 1796SOL    HW214353   4.629   2.307   2.329 -0.2730 -0.1647 -0.4671
 1797SOL     OW14354   2.089   4.120   0.801  0.1935  0.2188 -0.8337
 1797SOL    HW114355   2.034   4.036   0.803  1.4309 -0.5812  1.8686
 1797SOL    HW214356   2.029   4.199   0.813 -0.6931 -0.4437 -0.8366
 1800SOL     OW14357   2.949   4.250   2.059  0.0741 -0.0484 -0.3982
 1800SOL    HW114358   2.912   4.273   2.149  0.9632 -0.3562  0.0438
 1800SOL    HW214359   2.995   4.161   2.064 -1.7467 -1.1128 -1.6549
 1801SOL     OW14360   2.015   8.581   0.315  0.0415  0.4606  0.4010
 1801SOL    HW114361   2.030   8.505   0.379  0.2053 -0.2042 -0.4199
 1801SOL    HW214362   1.981   8.660   0.365  0.4832  0.0469  1.3665
 1802SOL     OW14363   2.140   6.319   0.941  0.0835 -0.5026 -0.1290
 1802SOL    HW114364   2.090   6.237   0.969 -0.8518  0.4397  1.0285
 1802SOL    HW214365   2.117   6.341   0.846 -1.2567 -0.4248  0.2019
 1804SOL     OW14366   3.451   4.302   1.937 -0.1663  0.6452  0.7154
 1804SOL    HW114367   3.450   4.213   1.892 -1.7591  0.5375  0.9409
 1804SOL    HW214368   3.358   4.339   1.942  0.4076  2.1116  1.0457
 1805SOL     OW14369   1.972   5.159   0.316  0.3526  0.9164  0.0197
 1805SOL    HW114370   1.957   5.191   0.410 -2.4550 -2.8355  0.9485
 1805SOL    HW214371   1.886   5.166   0.264  1.1823  0.3777 -1.4560
 1807SOL     OW14372   3.145   4.735   0.635 -0.0189 -0.4997 -0.0429
 1807SOL    HW114373   3.192   4.817   0.666  1.1883  0.1165 -3.2686
 1807SOL    HW214374   3.056   4.761   0.595 -0.1591 -0.8940  0.0072
 1808SOL     OW14375   1.250   5.042   1.368  0.3238  0.3598 -0.5592
 1808SOL    HW114376   1.340   5.078   1.395  0.8329 -1.0216 -0.3671
 1808SOL    HW214377   1.207   4.997   1.446 -0.0531  0.0597 -0.9385
 1809SOL     OW14378  10.357   2.272   1.309 -0.3891 -0.5838  0.9700
 1809SOL    HW114379  10.423   2.272   1.234 -1.2658  0.6164  0.1705
 1809SOL    HW214380  10.301   2.189   1.303  2.1692 -2.5220  2.7287
 1811SOL     OW14381   0.715   8.101   1.406  0.0366  0.3512 -0.4339
 1811SOL    HW114382   0.747   8.107   1.501  0.9041  2.1205 -0.8032
 1811SOL    HW214383   0.624   8.142   1.399  0.0162  0.3139 -0.3818
 1812SOL     OW14384   4.630   4.935   1.496  0.0466 -0.3129 -0.3718
 1812SOL    HW114385   4.599   5.013   1.549 -0.8335 -0.2322 -0.9961
 1812SOL    HW214386   4.697   4.966   1.428 -0.1250 -0.1423 -0.4629
 1813SOL     OW14387   3.721   1.893   1.877  0.0618 -0.1193 -0.3180
 1813SOL    HW114388   3.758   1.856   1.792  1.6865 -1.4984  0.9586
 1813SOL    HW214389   3.779   1.969   1.908 -0.2005  0.0126 -0.1509
 1815SOL     OW14390  10.437   2.404   2.084  0.1419  0.5703 -0.2409
 1815SOL    HW114391  10.417   2.500   2.107 -1.1950  0.2504  0.0247
 1815SOL    HW214392  10.388   2.380   2.000 -1.0377 -0.3968  0.7075
 1816SOL     OW14393   9.212   2.346   0.867  0.2129  0.8037  0.1228
 1816SOL    HW114394   9.261   2.291   0.935 -0.5702 -0.6788 -0.4964
 1816SOL    HW214395   9.133   2.389   0.910  0.7654  1.3595  0.5856
 1817SOL     OW14396   0.892   9.000   2.304  0.0280 -0.3362  0.0705
 1817SOL    HW114397   0.845   8.972   2.221  1.8486 -1.5138 -0.5993
 1817SOL    HW214398   0.862   8.943   2.381 -0.3813 -0.4024 -0.1397
 1819SOL     OW14399   9.103   5.979   1.234  0.0141 -0.6624 -0.3849
 1819SOL    HW114400   9.199   5.958   1.250  0.1303  0.7353  0.8663
 1819SOL    HW214401   9.092   6.077   1.217 -1.4328 -0.3927  1.7782
 1821SOL     OW14402   2.207   9.508   0.718 -0.1856  0.6679  0.1467
 1821SOL    HW114403   2.252   9.546   0.637  0.2979  1.7020  0.8931
 1821SOL    HW214404   2.126   9.562   0.739 -0.6247  0.0601  0.0365
 1823SOL     OW14405   2.048   2.129   0.689  0.8237 -0.2776  0.3576
 1823SOL    HW114406   1.949   2.115   0.693  0.8901 -0.5462  1.0194
 1823SOL    HW214407   2.093   2.044   0.662  0.9975 -0.5846  1.5915
 1824SOL     OW14408   3.279   9.839   1.664 -0.4856 -0.2459 -0.3704
 1824SOL    HW114409   3.268   9.740   1.663 -0.3699 -0.2888  1.1361
 1824SOL    HW214410   3.285   9.871   1.759 -1.9515  1.3451 -0.7748
 1825SOL     OW14411   4.879   3.333   1.930 -0.2808 -0.2573  0.0357
 1825SOL    HW114412   4.790   3.289   1.940  0.1595 -1.4145 -1.0555
 1825SOL    HW214413   4.949   3.264   1.912  0.5083  0.8355 -1.1925
 1826SOL     OW14414   1.018   7.370   1.054  0.2670 -0.1854  0.2147
 1826SOL    HW114415   1.106   7.408   1.027 -0.6947  1.0074 -1.3076
 1826SOL    HW214416   0.979   7.318   0.978 -0.1526 -1.0941  1.0307
 1827SOL     OW14417  10.131   0.973   0.943 -0.2400  0.0855  0.3601
 1827SOL    HW114418  10.193   0.926   0.881 -0.7823 -2.0279  1.3981
 1827SOL    HW214419  10.065   1.026   0.890 -0.8829 -1.9240 -0.8983
 1828SOL     OW14420   3.903   3.615   1.990  0.4343  0.2140 -0.1727
 1828SOL    HW114421   3.895   3.550   1.914 -2.1933 -0.0911  0.3038
 1828SOL    HW214422   3.850   3.697   1.969  0.6566  0.6137  0.8210
 1829SOL     OW14423   2.345   6.765   1.138 -0.0779  0.1271  0.5153
 1829SOL    HW114424   2.269   6.743   1.199 -0.9293  1.0432 -0.2035
 1829SOL    HW214425   2.312   6.772   1.044  1.1139 -0.6441  0.0267
 1830SOL     OW14426   1.245   2.130   0.675 -0.4279  0.6477  0.1160
 1830SOL    HW114427   1.250   2.166   0.768 -0.7578 -0.1763  0.4584
 1830SOL    HW214428   1.276   2.034   0.674  2.2759  1.4840 -1.1011
 1832SOL     OW14429   3.530   1.121   0.816  0.3392  0.2373 -0.3824
 1832SOL    HW114430   3.557   1.074   0.900  0.9758 -0.9160 -1.2209
 1832SOL    HW214431   3.439   1.160   0.827  0.3079 -0.1401  0.7478
 1833SOL     OW14432   1.684   2.313   1.504 -0.1955 -0.0420 -0.1426
 1833SOL    HW114433   1.678   2.302   1.405  1.0333  0.8940 -0.3358
 1833SOL    HW214434   1.610   2.263   1.548 -2.4224  1.8241 -1.6758
 1834SOL     OW14435   2.959   3.709   1.470 -0.6548 -0.1395 -0.2946
 1834SOL    HW114436   2.903   3.693   1.551 -2.1922  0.7355 -1.1394
 1834SOL    HW214437   2.923   3.789   1.421 -0.2521 -1.1375 -2.2555
 1835SOL     OW14438   3.331   2.300   1.884 -0.2263 -0.0358 -0.0816
 1835SOL    HW114439   3.307   2.326   1.978  2.0486  1.3682  0.1400
 1835SOL    HW214440   3.284   2.361   1.820 -0.6345 -0.0583  0.1941
 1838SOL     OW14441   4.009   4.496   1.517  0.1755  0.5161 -0.9211
 1838SOL    HW114442   4.060   4.545   1.447  1.0892 -0.5782 -1.0368
 1838SOL    HW214443   4.069   4.478   1.595  0.2699 -1.5974 -1.4340
 1839SOL     OW14444   9.478   4.201   1.035  0.0230 -0.2692 -0.3192
 1839SOL    HW114445   9.434   4.287   1.061 -0.1737 -1.2813  2.8566
 1839SOL    HW214446   9.411   4.141   0.991 -0.2888  0.4407 -0.8268
 1840SOL     OW14447   3.800   2.012   1.118 -0.0254 -0.1398 -0.0532
 1840SOL    HW114448   3.892   1.999   1.080  0.8196 -0.0910  1.8722
 1840SOL    HW214449   3.760   2.096   1.082  0.9583  0.1771 -0.4315
 1841SOL     OW14450   0.999   6.282   0.498  0.3127  0.6497 -0.7137
 1841SOL    HW114451   0.985   6.285   0.597 -0.5500 -0.1228 -0.8090
 1841SOL    HW214452   0.987   6.189   0.465 -0.1057  1.0288 -1.6440
 1842SOL     OW14453   0.868   2.309   0.943  0.4278  0.4228  0.0017
 1842SOL    HW114454   0.853   2.241   1.015 -1.9724  0.7488 -0.1376
 1842SOL    HW214455   0.846   2.269   0.854  0.4771  0.9233 -0.2401
 1843SOL     OW14456   9.992   6.440   1.700  0.4626 -0.1412  0.9971
 1843SOL    HW114457  10.067   6.473   1.757 -0.6686  1.8870  1.3467
 1843SOL    HW214458   9.936   6.375   1.751  0.7320 -0.0069  1.4614
 1844SOL     OW14459   3.007   1.858   1.004 -0.3896  0.2662  0.3501
 1844SOL    HW114460   3.039   1.951   0.987  0.5174  0.1414  1.2880
 1844SOL    HW214461   2.999   1.809   0.918  1.1195  0.5888  0.0066
 1845SOL     OW14462   3.336   1.665   1.860  0.2118 -0.6246 -0.0661
 1845SOL    HW114463   3.321   1.572   1.826  2.1018 -0.5636 -1.1830
 1845SOL    HW214464   3.424   1.668   1.909  0.4984  0.7216 -0.6451
 1846SOL     OW14465   4.311   2.315   1.102  0.3394 -0.2463 -0.0350
 1846SOL    HW114466   4.327   2.271   1.191  2.1386 -0.2989 -0.3654
 1846SOL    HW214467   4.260   2.399   1.115  0.0256 -0.5908  0.9918
 1847SOL     OW14468   1.428   8.945   0.994 -0.2000 -0.2470  0.1157
 1847SOL    HW114469   1.395   8.928   1.087 -1.0159 -2.8798 -0.6329
 1847SOL    HW214470   1.399   9.037   0.965 -1.2668 -0.0135  1.8627
 1848SOL     OW14471   2.089   9.195   0.563  0.7156 -0.4218 -0.6914
 1848SOL    HW114472   2.062   9.291   0.552 -0.7567 -0.7874 -0.4377
 1848SOL    HW214473   2.126   9.181   0.654  1.9508  0.1281 -1.1005
 1851SOL     OW14474  10.053   6.606   0.960  0.0234  0.0350  0.1218
 1851SOL    HW114475   9.967   6.577   1.002  0.0219  0.5071  0.4548
 1851SOL    HW214476  10.041   6.697   0.919  1.1029  1.3361  2.5756
 1854SOL     OW14477   1.925   3.122   1.324 -0.0525  0.1726 -0.4098
 1854SOL    HW114478   1.914   3.053   1.253 -0.5134  1.4449 -1.6114
 1854SOL    HW214479   1.975   3.201   1.286 -0.3581  0.8859  0.6542
 1855SOL     OW14480   5.370   3.304   0.322  0.3313  0.2493  0.1832
 1855SOL    HW114481   5.447   3.362   0.296  0.1528  1.0722  1.4994
 1855SOL    HW214482   5.315   3.284   0.240  0.3906  1.9230 -0.2845
 1859SOL     OW14483   1.349   8.260   0.372  0.2050  1.2228  0.0180
 1859SOL    HW114484   1.338   8.170   0.414 -1.3909  0.8619 -1.0955
 1859SOL    HW214485   1.438   8.265   0.327 -0.5508 -0.6664 -1.8226
 1860SOL     OW14486   3.813   1.695   1.409  0.0197 -0.2763  0.4094
 1860SOL    HW114487   3.714   1.683   1.423 -0.2964 -0.9177 -2.2210
 1860SOL    HW214488   3.830   1.787   1.374  0.2429 -0.5797 -0.2696
 1861SOL     OW14489   4.154   8.525   1.776 -0.1469  0.1359  0.3687
 1861SOL    HW114490   4.131   8.428   1.775 -0.9346  0.3108  1.0700
 1861SOL    HW214491   4.186   8.553   1.685  1.2664 -1.0454  0.4802
 1862SOL     OW14492   0.947   9.981   1.116 -0.2973 -0.2972  0.8550
 1862SOL    HW114493   1.001   9.930   1.048  0.4130 -1.2019  2.0781
 1862SOL    HW214494   0.979  10.076   1.118  0.5204 -0.5631  0.7866
 1864SOL     OW14495   2.774   4.102   1.779 -0.0905 -1.0628 -0.1005
 1864SOL    HW114496   2.750   4.190   1.821  1.1227 -0.9251  0.3174
 1864SOL    HW214497   2.695   4.068   1.727 -1.3707 -0.8743  1.6665
 1865SOL     OW14498   1.124   7.196   1.695  0.7140  0.8129 -0.1421
 1865SOL    HW114499   1.205   7.221   1.642  1.6200 -1.8446 -0.1213
 1865SOL    HW214500   1.152   7.152   1.780 -0.7581  0.9812  0.4440
 1866SOL     OW14501  10.403   4.507   1.490 -0.1619  0.2043  0.1342
 1866SOL    HW114502  10.395   4.455   1.405  2.2398  0.1928 -0.1195
 1866SOL    HW214503  10.495   4.546   1.497 -1.0653  2.1638  1.6202
 1868SOL     OW14504   2.227   3.374   1.765 -0.5264 -0.3112 -0.2051
 1868SOL    HW114505   2.319   3.335   1.771 -0.2378  0.3158 -0.5035
 1868SOL    HW214506   2.205   3.420   1.852 -1.0105 -1.4453  0.2782
 1871SOL     OW14507   2.401   2.624   1.743  0.0009  0.3986  0.3380
 1871SOL    HW114508   2.392   2.562   1.665 -0.9080  0.5057  0.3461
 1871SOL    HW214509   2.490   2.612   1.786  0.6576  0.6013 -0.9476
 1872SOL     OW14510   4.917   3.145   1.396 -0.5193  0.3570  0.8543
 1872SOL    HW114511   4.858   3.089   1.455 -2.0222 -0.4218 -1.3382
 1872SOL    HW214512   4.869   3.229   1.371  0.0758  0.6326  0.6280
 1873SOL     OW14513   2.128  10.043   2.311  0.0146  0.4727 -0.6975
 1873SOL    HW114514   2.123  10.056   2.212  2.1605 -0.4803 -0.9526
 1873SOL    HW214515   2.184   9.963   2.332 -0.0127  0.9471  1.3122
 1874SOL     OW14516   1.808   8.973   1.847  0.3912 -0.6924 -0.2803
 1874SOL    HW114517   1.781   8.877   1.842  0.0356 -0.6880  1.2961
 1874SOL    HW214518   1.850   9.000   1.760 -2.8586 -1.2461 -2.1127
 1875SOL     OW14519  10.165   5.575   0.424 -0.2508 -0.0587  0.4010
 1875SOL    HW114520  10.258   5.609   0.440 -0.4556  0.7335 -0.0466
 1875SOL    HW214521  10.148   5.496   0.483  0.7913 -0.3712  0.3000
 1876SOL     OW14522   9.157   2.645   1.821  0.2273  0.6368  0.0212
 1876SOL    HW114523   9.231   2.630   1.887  0.7004  0.7257 -0.4849
 1876SOL    HW214524   9.124   2.738   1.829  0.6938  0.8331 -0.2711
 1877SOL     OW14525  10.367   9.807   1.452  0.1339  0.5289 -0.1564
 1877SOL    HW114526  10.290   9.793   1.391 -0.0296  0.6680  0.0131
 1877SOL    HW214527  10.371   9.733   1.519  0.0390  0.6112 -0.0569
 1878SOL     OW14528   3.190   0.690   2.294 -0.7331  0.7086  0.5486
 1878SOL    HW114529   3.203   0.787   2.313 -1.7244  0.8677  0.4627
 1878SOL    HW214530   3.136   0.679   2.210  1.4940  0.0449 -0.8557
 1879SOL     OW14531   3.895   3.267   1.002  0.0965 -0.1848  0.1769
 1879SOL    HW114532   3.959   3.342   0.988 -0.6741  0.1636 -1.4975
 1879SOL    HW214533   3.823   3.296   1.065 -1.4278  1.2365 -2.1645
 1880SOL     OW14534   4.175   0.388   1.036  0.2783 -0.0796  0.3944
 1880SOL    HW114535   4.169   0.468   0.977  1.4725 -1.1371 -1.1929
 1880SOL    HW214536   4.257   0.336   1.013 -0.3998 -1.6772  1.5249
 1881SOL     OW14537   1.723   3.494   0.839  0.0638  0.3932 -0.0228
 1881SOL    HW114538   1.762   3.410   0.803 -1.7036 -0.3709 -0.2017
 1881SOL    HW214539   1.726   3.566   0.769  1.0936  0.3216 -0.0466
 1882SOL     OW14540   3.561   9.507   2.134 -0.0908 -0.1894  0.2054
 1882SOL    HW114541   3.559   9.542   2.040  0.0824 -0.0936  0.2367
 1882SOL    HW214542   3.616   9.568   2.191 -1.9874  0.9596  0.8515
 1883SOL     OW14543   9.182   4.818   0.406 -0.4644 -0.4651 -0.0120
 1883SOL    HW114544   9.171   4.750   0.478  0.8161 -0.1745  0.4681
 1883SOL    HW214545   9.277   4.819   0.376 -0.2602  1.8348  0.6894
 1884SOL     OW14546  10.345   9.821   1.095  0.0561  0.2353  0.2407
 1884SOL    HW114547  10.355   9.772   1.009  0.3679 -0.3558  0.6151
 1884SOL    HW214548  10.418   9.795   1.158 -0.6219  0.0759  0.9704
 1886SOL     OW14549   4.252   5.169   1.477 -0.5632 -0.1304 -0.0514
 1886SOL    HW114550   4.258   5.239   1.548  1.4929  1.4301 -1.7032
 1886SOL    HW214551   4.286   5.082   1.513  1.5063  0.9085  0.6006
 1887SOL     OW14552   3.664   4.802   1.352  0.4990  0.3824  0.1937
 1887SOL    HW114553   3.684   4.756   1.439 -0.0242 -0.8090 -0.2933
 1887SOL    HW214554   3.671   4.901   1.364 -0.5577  0.2843  1.8655
 1888SOL     OW14555   0.563   3.726   2.048  0.3591  0.4186  0.2795
 1888SOL    HW114556   0.554   3.791   2.123  2.7499 -0.4872  1.4104
 1888SOL    HW214557   0.510   3.644   2.069  0.6846  0.3358  0.7926
 1889SOL     OW14558   2.971   0.679   1.826 -0.0933  0.2479 -0.6056
 1889SOL    HW114559   2.929   0.595   1.791 -0.3703 -0.7156  1.9252
 1889SOL    HW214560   3.070   0.670   1.824 -0.1350 -0.8968  1.3382
 1890SOL     OW14561   1.162   0.774   1.419 -0.1218 -0.0841  0.0648
 1890SOL    HW114562   1.155   0.788   1.320  1.5369 -3.7420 -0.6497
 1890SOL    HW214563   1.254   0.802   1.450 -0.3051  0.1427  0.4073
 1892SOL     OW14564   4.598   3.983   2.105 -0.9457 -0.8826 -0.0846
 1892SOL    HW114565   4.540   3.926   2.048 -1.9594  1.7704 -1.8204
 1892SOL    HW214566   4.689   3.990   2.064 -1.3463  0.1393 -0.8125
 1894SOL     OW14567   4.433   2.399   0.849 -0.1722  0.0285 -0.6044
 1894SOL    HW114568   4.497   2.322   0.842 -1.2416 -0.9920  0.7272
 1894SOL    HW214569   4.375   2.387   0.929 -0.2767  2.2917 -0.3158
 1895SOL     OW14570   1.331   8.664   1.506  0.4007  0.1414 -0.4825
 1895SOL    HW114571   1.389   8.679   1.586 -0.1926 -4.0160  0.8609
 1895SOL    HW214572   1.235   8.673   1.533  0.1826 -1.7691 -0.6076
 1896SOL     OW14573   2.318   2.187   1.576 -0.8876  0.2319 -0.2011
 1896SOL    HW114574   2.229   2.165   1.615 -0.9324  0.9604  0.1155
 1896SOL    HW214575   2.389   2.134   1.622 -1.1756 -0.4935 -0.5873
 1897SOL     OW14576   2.922   4.357   0.661 -0.2203 -0.3681 -0.3758
 1897SOL    HW114577   2.984   4.374   0.585  0.8441  2.7635  1.1185
 1897SOL    HW214578   2.974   4.330   0.742 -1.2088 -2.0530 -0.2711
 1898SOL     OW14579   0.656   2.079   1.973  0.1537 -0.6854  0.6750
 1898SOL    HW114580   0.557   2.066   1.965  0.3857 -2.3339  0.1191
 1898SOL    HW214581   0.675   2.163   2.023 -1.5374 -0.6606  1.3229
 1900SOL     OW14582   2.479   9.941   1.719  0.4533 -0.1699  0.2770
 1900SOL    HW114583   2.461  10.030   1.676  0.1864  0.2829  1.3303
 1900SOL    HW214584   2.531   9.885   1.655  1.5322  1.1163  0.0015
 1902SOL     OW14585   1.352   8.433   0.611  0.0977  0.9712 -0.4168
 1902SOL    HW114586   1.365   8.531   0.619 -0.9792  1.1893 -1.1671
 1902SOL    HW214587   1.285   8.414   0.539 -0.1899 -0.2821  0.1655
 1903SOL     OW14588   1.554   6.696   2.300  0.1913 -0.3654  0.2108
 1903SOL    HW114589   1.568   6.668   2.205 -0.1733 -0.3759  0.1604
 1903SOL    HW214590   1.491   6.774   2.303  0.1481 -0.4092  0.4492
 1904SOL     OW14591   1.485   9.750   1.456 -0.0051 -0.1605  0.0268
 1904SOL    HW114592   1.581   9.774   1.470 -0.1650  0.3313  0.2839
 1904SOL    HW214593   1.473   9.718   1.362  0.5598 -0.9864  0.2219
 1905SOL     OW14594   3.803  10.280   0.768 -0.3425 -0.1427  0.4019
 1905SOL    HW114595   3.839  10.272   0.861  1.3824  1.0762 -0.1246
 1905SOL    HW214596   3.824  10.371   0.732  1.3777 -1.4940 -2.1394
 1906SOL     OW14597   3.104   1.851   1.812 -0.0339 -0.0436 -0.4329
 1906SOL    HW114598   3.024   1.814   1.765 -1.1925  0.9536  0.7370
 1906SOL    HW214599   3.168   1.776   1.833 -1.0327 -0.9561 -0.6282
 1907SOL     OW14600   2.412   7.478   1.400 -0.8081 -0.4979 -0.0597
 1907SOL    HW114601   2.429   7.432   1.313  0.1511 -1.1528  0.4619
 1907SOL    HW214602   2.321   7.453   1.433 -1.3038  0.0056 -1.0249
 1908SOL     OW14603   0.946   4.088   2.189  0.0752  0.0562  0.1872
 1908SOL    HW114604   0.857   4.120   2.223  0.0849  0.0149  0.2505
 1908SOL    HW214605   0.940   4.073   2.090 -0.2188 -0.7221  0.3190
 1909SOL     OW14606   2.557   1.953   1.357 -0.2920  0.0063  0.1792
 1909SOL    HW114607   2.567   2.053   1.362  0.1231  0.0950 -1.8336
 1909SOL    HW214608   2.462   1.930   1.336  0.0888  0.1105 -1.7687
 1910SOL     OW14609   2.512   8.977   1.257 -0.6598 -0.3691  0.3971
 1910SOL    HW114610   2.464   8.909   1.201 -1.8167  0.8183 -0.0688
 1910SOL    HW214611   2.596   9.004   1.211 -1.3344  0.1986 -0.5119
 1911SOL     OW14612   1.443   3.768   2.010 -0.3048  0.0494 -0.3053
 1911SOL    HW114613   1.498   3.830   2.066 -0.6167  1.1548 -1.1899
 1911SOL    HW214614   1.404   3.819   1.933 -0.0616 -1.3963 -1.4058
 1912SOL     OW14615   1.374   6.271   2.256 -0.3509  0.5330 -0.0578
 1912SOL    HW114616   1.440   6.340   2.286 -0.0118 -0.5241  1.7034
 1912SOL    HW214617   1.423   6.191   2.221 -0.6325 -0.8482  2.6077
 1913SOL     OW14618   9.721   5.061   2.259 -0.8156  0.4709 -0.1214
 1913SOL    HW114619   9.772   5.103   2.334 -1.0931  3.2001 -1.4164
 1913SOL    HW214620   9.624   5.056   2.284 -0.5732 -0.8222  0.6251
 1915SOL     OW14621   1.417   2.485   1.162  0.1828  0.1660 -0.5330
 1915SOL    HW114622   1.416   2.513   1.066  1.5049  1.2916 -0.2201
 1915SOL    HW214623   1.458   2.556   1.218  0.2865 -0.8788  0.7519
 1916SOL     OW14624   2.596   4.259   1.605 -0.0303 -0.3436 -0.0729
 1916SOL    HW114625   2.526   4.214   1.551 -0.2678 -1.5818  1.2249
 1916SOL    HW214626   2.554   4.305   1.683  0.6982 -2.2451  1.4811
 1917SOL     OW14627   1.063   9.826   0.900  0.4416 -0.1322  0.0912
 1917SOL    HW114628   1.132   9.872   0.844  0.3746 -0.3293 -0.1517
 1917SOL    HW214629   0.985   9.801   0.843 -0.6515  1.7421  0.7013
 1918SOL     OW14630   0.777   9.590   1.431  0.1883 -0.4396  0.0064
 1918SOL    HW114631   0.818   9.664   1.377 -2.3967 -0.4899 -2.1296
 1918SOL    HW214632   0.724   9.530   1.371 -0.2586 -2.2867  2.1753
 1921SOL     OW14633   1.430   7.741   1.386  0.0403 -0.5309  0.3252
 1921SOL    HW114634   1.392   7.678   1.319  1.9551 -0.5249 -0.8042
 1921SOL    HW214635   1.493   7.804   1.341  0.5089  0.1964  1.9442
 1922SOL     OW14636   1.663   5.013   0.455 -0.0287 -0.2816  0.4825
 1922SOL    HW114637   1.637   5.092   0.400 -0.7304 -0.1455  1.0122
 1922SOL    HW214638   1.744   4.970   0.415 -0.4905 -0.1423 -0.6162
 1924SOL     OW14639  10.307   6.687   0.977 -0.1365 -0.4204 -0.2937
 1924SOL    HW114640  10.209   6.668   0.971 -0.1919 -0.2777  0.1768
 1924SOL    HW214641  10.323   6.785   0.975 -0.0083 -0.4397 -0.2678
 1925SOL     OW14642   2.775   1.373   2.002  0.2855 -0.4950  0.2254
 1925SOL    HW114643   2.726   1.290   1.974  0.2590 -0.2681 -0.4160
 1925SOL    HW214644   2.873   1.354   2.006  0.3617 -0.3315 -0.7615
 1927SOL     OW14645  10.172   5.649   1.216 -0.0448  0.4162 -0.3653
 1927SOL    HW114646  10.244   5.717   1.203 -1.2109  2.1634  1.8625
 1927SOL    HW214647  10.163   5.629   1.313 -1.6398 -0.7819 -0.7457
 1928SOL     OW14648   4.457   1.635   0.711  0.1353 -0.3505 -0.4414
 1928SOL    HW114649   4.478   1.538   0.708 -3.6176 -1.4009  2.7425
 1928SOL    HW214650   4.378   1.654   0.652  0.6913  0.7260 -0.8540
 1929SOL     OW14651   3.413   9.818   2.340  0.0402 -0.5095  0.0381
 1929SOL    HW114652   3.415   9.733   2.288 -3.0079 -0.8840  0.4208
 1929SOL    HW214653   3.445   9.801   2.433  1.8459 -0.6623 -0.5923
 1930SOL     OW14654   3.414   8.871   2.242  0.6479 -0.1072  0.0364
 1930SOL    HW114655   3.509   8.895   2.221  0.4478  1.3322  0.6988
 1930SOL    HW214656   3.377   8.813   2.169  1.7027  0.2118 -0.7539
 1931SOL     OW14657   2.929   3.564   1.234  0.4674 -0.4936 -0.1546
 1931SOL    HW114658   2.835   3.579   1.206  0.3084  0.0650  0.6437
 1931SOL    HW214659   2.948   3.617   1.317  1.6150 -0.2389 -0.5648
 1932SOL     OW14660   1.734   9.613   1.851  0.1877  0.2555  0.3663
 1932SOL    HW114661   1.640   9.645   1.865  0.2943  1.1084 -0.8492
 1932SOL    HW214662   1.760   9.625   1.756  1.5668  0.0780  0.7070
 1933SOL     OW14663   4.263   2.036   1.804  0.0431 -0.2828 -0.1893
 1933SOL    HW114664   4.297   2.005   1.893 -1.5929 -1.9359 -0.1040
 1933SOL    HW214665   4.200   2.113   1.817 -1.2806 -1.4040  0.2509
 1934SOL     OW14666   3.105   0.949   0.907 -0.0705 -0.1294  0.4367
 1934SOL    HW114667   3.154   0.875   0.860  1.4456  1.5217 -0.6763
 1934SOL    HW214668   3.054   1.002   0.840  1.3241  1.6693  0.7751
 1935SOL     OW14669   1.179   7.503   2.222  0.9657 -1.1943 -0.4880
 1935SOL    HW114670   1.094   7.509   2.170  0.8076  0.5322 -0.0768
 1935SOL    HW214671   1.257   7.508   2.159  0.7747  1.0518 -0.5802
 1936SOL     OW14672   2.947   9.566   1.366  0.5490  0.2561  0.2670
 1936SOL    HW114673   2.895   9.574   1.281  1.3938 -2.4393 -0.5689
 1936SOL    HW214674   2.886   9.538   1.440  0.1720  0.5302  0.0586
 1937SOL     OW14675   2.573   1.155   0.701 -0.5251  0.7290 -0.0977
 1937SOL    HW114676   2.577   1.070   0.753  1.3095  1.0353  0.3008
 1937SOL    HW214677   2.501   1.149   0.632 -0.5995 -1.0271  0.1168
 1938SOL     OW14678   5.329   3.531   0.840  0.1395 -0.4722  0.8180
 1938SOL    HW114679   5.269   3.504   0.915 -0.8427  1.1944  0.6530
 1938SOL    HW214680   5.323   3.630   0.827 -0.5651 -0.8600 -2.1678
 1939SOL     OW14681   2.748   3.570   1.969  0.2459  0.1266  0.0891
 1939SOL    HW114682   2.683   3.592   2.042  0.5572  1.7646 -0.1106
 1939SOL    HW214683   2.770   3.472   1.973 -0.3855  0.0248  1.6584
 1941SOL     OW14684   2.709   3.847   0.918  0.1508 -0.4731  0.2102
 1941SOL    HW114685   2.669   3.893   0.997  1.7655 -2.1403  2.0487
 1941SOL    HW214686   2.767   3.912   0.868 -2.4482  1.1314 -0.7816
 1942SOL     OW14687   1.484   3.852   1.752  0.0048  0.0608  0.2437
 1942SOL    HW114688   1.508   3.755   1.753 -0.4085 -0.0365  1.5266
 1942SOL    HW214689   1.565   3.907   1.770  0.0409 -0.0939  0.5511
 1943SOL     OW14690   1.690   4.639   1.517  0.0091 -0.3411  0.6180
 1943SOL    HW114691   1.725   4.546   1.531 -1.3085 -0.9345  0.0870
 1943SOL    HW214692   1.687   4.658   1.419 -0.3992 -0.0007  0.6981
 1944SOL     OW14693   2.262   2.658   1.973  0.5220 -0.2580 -0.0708
 1944SOL    HW114694   2.311   2.651   1.886 -1.1155 -1.3435 -0.9455
 1944SOL    HW214695   2.165   2.675   1.956 -0.2722 -2.8432  1.4175
 1945SOL     OW14696   1.875   6.257   0.452  0.2431 -0.6514 -0.2112
 1945SOL    HW114697   1.897   6.159   0.449  2.7168 -0.2540  2.3937
 1945SOL    HW214698   1.885   6.296   0.361  0.2766 -2.6000 -1.0860
 1946SOL     OW14699   2.179   3.399   0.994 -0.0432 -0.4051 -0.1578
 1946SOL    HW114700   2.262   3.357   1.030  0.1054  0.1494  0.1465
 1946SOL    HW214701   2.193   3.497   0.982 -0.2362 -0.5072 -1.3134
 1947SOL     OW14702   8.526   2.688   2.228 -0.4586 -0.9712 -0.6337
 1947SOL    HW114703   8.449   2.624   2.235 -0.3323 -1.2000 -1.3353
 1947SOL    HW214704   8.562   2.688   2.135 -1.6393  1.5089 -1.1374
 1948SOL     OW14705  10.361   5.314   2.193 -0.5220  0.2057  0.9443
 1948SOL    HW114706  10.312   5.258   2.126  0.3101 -0.6166  1.0083
 1948SOL    HW214707  10.345   5.278   2.284 -0.5197  0.4763  1.0514
 1949SOL     OW14708   0.707   6.062   0.417 -0.0509  0.4467  0.2834
 1949SOL    HW114709   0.704   6.159   0.441 -1.4668  0.1916  1.2137
 1949SOL    HW214710   0.799   6.025   0.434 -0.1818  1.0321  2.3027
 1950SOL     OW14711   3.419  10.224   1.199 -0.9779  0.3493 -0.2129
 1950SOL    HW114712   3.443  10.272   1.283 -1.5252 -0.4129  0.3830
 1950SOL    HW214713   3.497  10.170   1.168 -0.2000  1.9524 -1.1386
 1953SOL     OW14714   3.396   1.579   1.307  0.1460  0.2482  0.2695
 1953SOL    HW114715   3.321   1.567   1.372 -1.0308 -2.2314 -1.4611
 1953SOL    HW214716   3.363   1.631   1.228  0.5431  0.1015  0.0077
 1954SOL     OW14717  10.050   2.198   1.959  0.3456  0.2652  0.3279
 1954SOL    HW114718  10.034   2.141   2.040 -0.5383  1.8143  1.2792
 1954SOL    HW214719   9.965   2.246   1.936 -0.3826 -2.5946 -3.4956
 1955SOL     OW14720   4.171   9.196   1.090  0.3308 -0.5384 -0.0325
 1955SOL    HW114721   4.163   9.184   0.991 -0.8176 -0.1970  0.0215
 1955SOL    HW214722   4.162   9.293   1.113 -1.4330 -0.8490  0.6012
 1957SOL     OW14723   1.744   1.154   1.280 -0.2937  0.5326 -0.2221
 1957SOL    HW114724   1.648   1.137   1.302 -0.1010 -1.1013 -0.5171
 1957SOL    HW214725   1.798   1.157   1.364 -0.2283 -1.1532 -0.1871
 1958SOL     OW14726   1.479   4.276   0.676 -0.0054  0.4082  0.8356
 1958SOL    HW114727   1.475   4.314   0.769 -0.9609  2.4143  0.0097
 1958SOL    HW214728   1.437   4.186   0.675  1.7390 -0.4769  2.7316
 1959SOL     OW14729  10.166   1.817   1.969 -0.1280 -0.0625 -0.3269
 1959SOL    HW114730  10.091   1.801   2.033  0.1229 -0.4807 -0.1352
 1959SOL    HW214731  10.133   1.870   1.891 -0.1185  1.7406  0.8534
 1960SOL     OW14732   9.508   4.870   1.306 -0.7619  0.3527 -0.0298
 1960SOL    HW114733   9.509   4.956   1.356 -0.9058  0.3012  0.0612
 1960SOL    HW214734   9.601   4.833   1.300 -0.6809  0.5812 -0.1849
 1961SOL     OW14735   0.810   0.662   0.317  0.0481  1.3841  0.5731
 1961SOL    HW114736   0.761   0.744   0.345 -2.7044 -0.7000  2.1940
 1961SOL    HW214737   0.873   0.634   0.390  0.8967  1.9458  0.0712
 1963SOL     OW14738   2.881   6.386   0.528 -0.2687 -0.5082 -0.2495
 1963SOL    HW114739   2.942   6.308   0.541 -0.4994 -0.6178  0.2149
 1963SOL    HW214740   2.850   6.389   0.433  1.0785  0.0097 -0.6764
 1965SOL     OW14741   3.855   3.850   2.224 -0.3766 -1.0468  0.2521
 1965SOL    HW114742   3.884   3.883   2.134  0.3232 -0.2508  0.7621
 1965SOL    HW214743   3.755   3.848   2.228 -0.4339  0.3917 -0.0286
 1966SOL     OW14744   1.654   7.304   0.968 -1.3597 -0.4197 -0.4499
 1966SOL    HW114745   1.660   7.250   1.051 -0.1598 -2.3745 -1.7621
 1966SOL    HW214746   1.558   7.316   0.942 -1.7780  0.8173  1.5610
 1967SOL     OW14747   9.197   1.582   1.196 -0.5674  0.4051  0.1287
 1967SOL    HW114748   9.099   1.562   1.188  0.2659 -3.3658 -1.8870
 1967SOL    HW214749   9.246   1.539   1.120  2.6345  2.6465  0.8261
 1968SOL     OW14750   1.617   7.823   1.855  0.5876  0.6969  0.3351
 1968SOL    HW114751   1.537   7.837   1.914 -0.5129  0.4010 -1.0585
 1968SOL    HW214752   1.700   7.852   1.903 -0.5087  2.2496  1.3071
 1969SOL     OW14753   3.384   3.422   1.374  0.0597 -0.2421 -0.0065
 1969SOL    HW114754   3.288   3.409   1.349 -0.3888 -0.2195  1.6527
 1969SOL    HW214755   3.436   3.453   1.294 -1.7059  1.6781 -0.4336
 1970SOL     OW14756   3.807   3.727   0.346  0.2803  0.3125 -0.3792
 1970SOL    HW114757   3.774   3.652   0.403 -0.0193 -0.0329 -0.9943
 1970SOL    HW214758   3.875   3.780   0.396 -1.5193  1.3026  1.0725
 1971SOL     OW14759   4.528   1.053   0.361  0.3014 -0.6545  0.2639
 1971SOL    HW114760   4.435   1.021   0.380  0.0089  0.1294  0.1801
 1971SOL    HW214761   4.524   1.132   0.300  1.0524 -0.9183 -0.1368
 1972SOL     OW14762   2.044   5.619   1.374 -0.1945 -0.0617  0.0658
 1972SOL    HW114763   1.973   5.678   1.336 -0.6444 -0.2257  0.6359
 1972SOL    HW214764   2.004   5.531   1.399  0.1661 -0.0890  0.5671
 1973SOL     OW14765   8.358   2.451   1.281 -0.0100  0.0255  0.2187
 1973SOL    HW114766   8.390   2.362   1.249  0.5246  0.2498  0.1293
 1973SOL    HW214767   8.303   2.495   1.210  1.7904  0.8505 -0.7099
 1974SOL     OW14768   0.565   8.248   0.650 -0.5511 -0.4457 -0.0001
 1974SOL    HW114769   0.512   8.179   0.600  1.6891 -0.7153 -2.1158
 1974SOL    HW214770   0.587   8.324   0.589  0.6062  0.1332  1.1222
 1975SOL     OW14771   1.008   0.452   1.009 -0.6138  0.2321  0.1428
 1975SOL    HW114772   0.987   0.541   0.970 -2.0959  0.2710  1.0134
 1975SOL    HW214773   0.942   0.430   1.081  0.8536 -0.7466  1.2220
 1978SOL     OW14774   1.507   1.631   0.538  0.5471  0.1578  0.4458
 1978SOL    HW114775   1.474   1.561   0.475  0.8381  0.1039  0.3530
 1978SOL    HW214776   1.573   1.591   0.601  0.7139  0.3465  0.3914
 1979SOL     OW14777   3.415   1.555   0.869  0.1646 -0.1635  0.2918
 1979SOL    HW114778   3.340   1.493   0.895  0.2832 -0.7755 -0.8113
 1979SOL    HW214779   3.407   1.640   0.922  0.3149 -1.3134  2.2263
 1980SOL     OW14780   0.562   5.981   1.310 -0.2774 -0.4641  0.1533
 1980SOL    HW114781   0.634   5.942   1.367 -0.5712 -0.9586  0.1897
 1980SOL    HW214782   0.489   6.016   1.369  0.9055  2.0363  0.2257
 1981SOL     OW14783   1.837   5.205   2.206  0.1109  0.3236  0.2648
 1981SOL    HW114784   1.874   5.283   2.156 -0.2176  0.3024 -0.0178
 1981SOL    HW214785   1.750   5.231   2.248  0.2132  0.2365  0.5323
 1982SOL     OW14786   0.713   6.737   0.563  0.0626 -0.7210 -0.0990
 1982SOL    HW114787   0.695   6.819   0.617  1.0500 -0.5544 -0.0012
 1982SOL    HW214788   0.682   6.750   0.469  0.4603 -0.1298 -0.1496
 1983SOL     OW14789   1.991   4.768   1.171 -0.2238 -0.6734  0.2790
 1983SOL    HW114790   1.928   4.846   1.172  1.5109  0.8454 -2.3255
 1983SOL    HW214791   2.006   4.737   1.265 -2.1487  1.1208  1.2399
 1984SOL     OW14792   4.419   4.294   2.027 -0.1974  0.0757 -0.2191
 1984SOL    HW114793   4.473   4.321   1.947  1.3867  0.7117  1.0447
 1984SOL    HW214794   4.349   4.363   2.046 -0.5306 -0.0441 -1.0017
 1985SOL     OW14795   3.270   9.613   2.168 -0.6131 -0.3089  0.0654
 1985SOL    HW114796   3.185   9.661   2.148 -0.1626  0.5022  0.0481
 1985SOL    HW214797   3.330   9.617   2.088 -0.0127  0.3224  0.5406
 1987SOL     OW14798   1.459   2.146   2.138 -0.0468 -0.3451  0.0537
 1987SOL    HW114799   1.476   2.224   2.198  0.2321 -1.1066  0.9929
 1987SOL    HW214800   1.545   2.100   2.118 -0.4056 -1.4408  0.9571
 1989SOL     OW14801   2.845   4.051   0.799 -0.3055 -0.1091  0.3050
 1989SOL    HW114802   2.863   4.143   0.832 -0.5208  0.0490 -0.0119
 1989SOL    HW214803   2.928   4.013   0.759 -0.5656  0.4874 -0.8416
 1990SOL     OW14804   3.386   8.663   1.196 -0.1095  0.2509  0.2500
 1990SOL    HW114805   3.412   8.669   1.293 -0.8700  1.5432  0.3848
 1990SOL    HW214806   3.308   8.723   1.179  0.1244  0.1525 -1.2077
 1991SOL     OW14807   0.857   4.504   0.915  0.0580  0.5320 -0.0059
 1991SOL    HW114808   0.761   4.502   0.944  0.2156  0.8847  0.5566
 1991SOL    HW214809   0.885   4.599   0.903  0.7778  0.4909  1.3282
 1992SOL     OW14810   2.623   2.489   1.318  0.1469 -0.2122 -1.0515
 1992SOL    HW114811   2.662   2.398   1.304 -1.7631 -0.7821 -2.8255
 1992SOL    HW214812   2.589   2.497   1.412  2.8395 -0.3100 -0.0101
 1993SOL     OW14813   2.827   4.866   1.418  0.1677  0.4701 -0.2203
 1993SOL    HW114814   2.824   4.894   1.515  0.4047  0.8024 -0.3074
 1993SOL    HW214815   2.823   4.766   1.412  0.0432  0.4523  0.1287
 1994SOL     OW14816   3.117   8.325   2.333 -0.3579  0.0762  0.3098
 1994SOL    HW114817   3.044   8.347   2.269 -0.5760  1.7320  1.1159
 1994SOL    HW214818   3.089   8.349   2.426  0.7879 -0.3058  0.7632
 1995SOL     OW14819   4.580   4.228   2.233 -0.2605  0.1137 -0.0565
 1995SOL    HW114820   4.510   4.281   2.185 -0.0298 -0.6482 -1.2622
 1995SOL    HW214821   4.607   4.151   2.176  0.4169 -0.4980  1.0886
 1996SOL     OW14822  10.429   5.646   0.503  0.3374 -0.0058  0.0335
 1996SOL    HW114823  10.506   5.668   0.443  0.1568  2.1271  0.5375
 1996SOL    HW214824  10.420   5.718   0.572 -1.1033 -1.0757  0.9750
 1999SOL     OW14825   2.486   1.929   2.256 -0.4393 -0.2475 -0.3347
 1999SOL    HW114826   2.545   2.010   2.258  0.0316 -0.5509 -1.3559
 1999SOL    HW214827   2.417   1.936   2.328  0.0048  0.7532  0.0028
 2000SOL     OW14828   2.318   2.756   0.934 -0.1079 -0.2276  0.1212
 2000SOL    HW114829   2.245   2.781   0.998  0.5880 -0.0272  0.8402
 2000SOL    HW214830   2.280   2.752   0.842 -0.7926  1.0142  0.3242
 2001SOL     OW14831   4.670   0.656   1.379 -0.2697  0.3457 -0.3726
 2001SOL    HW114832   4.576   0.661   1.412 -0.5577  0.8217 -1.2705
 2001SOL    HW214833   4.674   0.595   1.300  0.0524  0.9020 -0.7835
 2002SOL     OW14834   0.653   9.135   2.176 -0.7881 -0.1275  0.0713
 2002SOL    HW114835   0.706   9.219   2.164 -2.1446  0.6994 -0.3204
 2002SOL    HW214836   0.620   9.130   2.271  1.2745 -1.4337  0.7430
 2004SOL     OW14837   0.900   4.497   1.397 -0.6983 -0.2304  0.0252
 2004SOL    HW114838   0.941   4.579   1.356 -0.2467  0.2505  1.4069
 2004SOL    HW214839   0.873   4.434   1.325 -0.1744  0.7241 -1.0238
 2006SOL     OW14840  10.405   1.167   2.097 -0.3797  0.1040 -0.1543
 2006SOL    HW114841  10.496   1.187   2.062  0.1934 -1.2289  0.5092
 2006SOL    HW214842  10.396   1.205   2.190 -1.1878  1.8919 -0.9422
 2007SOL     OW14843   1.634   3.724   1.491  0.3171 -0.2839 -0.0724
 2007SOL    HW114844   1.602   3.700   1.400  0.7542 -0.8041 -0.0912
 2007SOL    HW214845   1.581   3.674   1.560  0.3459 -0.3011 -0.0626
 2009SOL     OW14846  10.425   9.676   0.864  0.8383 -0.5158  0.2570
 2009SOL    HW114847  10.391   9.668   0.770  1.3246  0.1764  0.0123
 2009SOL    HW214848  10.523   9.654   0.866  0.2659 -3.0979  1.0614
 2012SOL     OW14849   1.084   1.218   1.441  0.2459 -0.7990 -0.3815
 2012SOL    HW114850   1.088   1.123   1.471 -2.0653 -1.0346 -0.7671
 2012SOL    HW214851   1.017   1.268   1.496  0.3573  0.2360 -1.1684
 2013SOL     OW14852   1.797   7.374   1.969 -0.6774  0.4981  0.3366
 2013SOL    HW114853   1.732   7.391   2.043 -2.1427 -0.6219 -0.6728
 2013SOL    HW214854   1.856   7.454   1.958 -0.7376  0.8603  2.3995
 2016SOL     OW14855   9.633   3.905   0.816 -0.1380 -0.6524  0.1452
 2016SOL    HW114856   9.682   3.910   0.904 -1.0616  1.5119  0.5690
 2016SOL    HW214857   9.683   3.958   0.747 -1.7521  1.4596  0.5476
 2017SOL     OW14858   2.402   8.348   1.244  0.6046  0.1408  0.2081
 2017SOL    HW114859   2.394   8.409   1.165  2.8046  1.1262  0.6907
 2017SOL    HW214860   2.314   8.304   1.262  0.1339 -0.3101 -2.9488
 2018SOL     OW14861   2.334   0.967   2.065  0.1689 -0.6110 -0.2356
 2018SOL    HW114862   2.255   1.009   2.020  0.3763  0.0722  0.0292
 2018SOL    HW214863   2.418   1.003   2.024  0.3512 -2.2970 -1.4040
 2019SOL     OW14864   3.626   4.041   2.075  0.1385  0.0040 -0.2386
 2019SOL    HW114865   3.713   4.065   2.034  0.8486 -3.1040 -0.6710
 2019SOL    HW214866   3.573   3.986   2.011 -0.2197 -1.9338  1.6577
 2020SOL     OW14867   3.258   4.895   1.454  0.0468  0.4572 -0.2992
 2020SOL    HW114868   3.324   4.830   1.416  1.1558  0.8413  0.9063
 2020SOL    HW214869   3.189   4.918   1.385  1.6267  0.6485 -1.8458
 2021SOL     OW14870   1.227   9.965   0.713 -0.0652  0.1954  0.4861
 2021SOL    HW114871   1.224  10.061   0.685  1.5933 -0.3907 -1.7778
 2021SOL    HW214872   1.298   9.954   0.782  1.5245  0.1461 -1.1311
 2022SOL     OW14873  10.161   2.684   2.119  0.0430 -0.3569 -0.0330
 2022SOL    HW114874  10.146   2.772   2.164  3.7784  0.7010 -0.6444
 2022SOL    HW214875  10.133   2.691   2.023 -0.7412 -0.1886  0.2091
 2023SOL     OW14876   2.277   3.913   1.526 -0.0359  0.4684  0.1449
 2023SOL    HW114877   2.287   3.849   1.602  0.0538  0.2064 -0.0875
 2023SOL    HW214878   2.184   3.950   1.526 -0.8499 -1.5012 -1.1771
 2024SOL     OW14879   9.478   3.307   2.321 -0.6534  0.0309 -1.1436
 2024SOL    HW114880   9.436   3.237   2.263 -1.7175 -1.8049  1.7008
 2024SOL    HW214881   9.414   3.383   2.334 -0.3775  0.4864 -2.4063
 2026SOL     OW14882   3.175   5.162   1.158 -0.1751  0.0201 -0.0991
 2026SOL    HW114883   3.203   5.232   1.223  0.3140  0.1341 -0.4334
 2026SOL    HW214884   3.121   5.092   1.206  1.7747 -0.8954  0.8448
 2027SOL     OW14885   3.470   1.100   1.235  0.5111 -0.1804  0.2062
 2027SOL    HW114886   3.457   1.113   1.333  1.5978 -0.7253  0.4266
 2027SOL    HW214887   3.529   1.173   1.200 -2.8782  2.2393 -0.7742
 2029SOL     OW14888   9.100   5.233   1.100 -0.6328  1.0158 -0.1362
 2029SOL    HW114889   9.062   5.302   1.039 -0.1303 -0.0974 -1.7364
 2029SOL    HW214890   9.176   5.187   1.055 -1.8333 -1.5293  0.3945
 2030SOL     OW14891   9.235   4.926   1.321  0.4491 -0.3284 -0.5896
 2030SOL    HW114892   9.178   4.929   1.239  1.2447  0.1705 -1.1431
 2030SOL    HW214893   9.329   4.905   1.295  0.7646  0.1167  0.1575
 2031SOL     OW14894   0.760   3.564   1.328 -0.4995  0.4071 -0.0844
 2031SOL    HW114895   0.846   3.596   1.368  0.3821 -2.4117  0.3332
 2031SOL    HW214896   0.772   3.553   1.229 -0.7480  1.0858 -0.1984
 2034SOL     OW14897   2.752   9.467   2.088 -0.3851 -0.0539 -0.1032
 2034SOL    HW114898   2.817   9.490   2.160 -2.4014  2.1381  1.1089
 2034SOL    HW214899   2.750   9.541   2.021 -0.5586 -0.7950 -0.9205
 2035SOL     OW14900   1.023   8.296   1.245 -0.6802  0.1025  0.0462
 2035SOL    HW114901   0.961   8.298   1.167 -0.2954  1.7503 -0.2447
 2035SOL    HW214902   1.044   8.390   1.273  0.1007 -0.4612  1.3972
 2036SOL     OW14903   2.251   1.116   1.252  0.0942 -0.1788 -0.0585
 2036SOL    HW114904   2.329   1.069   1.210  0.2464  0.0188 -0.0004
 2036SOL    HW214905   2.193   1.050   1.299  0.1840 -0.3373 -0.1696
 2037SOL     OW14906   3.276   4.129   2.333 -0.9217 -0.2594 -0.1380
 2037SOL    HW114907   3.372   4.152   2.344 -0.5040 -2.2822  0.7589
 2037SOL    HW214908   3.260   4.094   2.241 -1.0570  1.2395 -0.6880
 2038SOL     OW14909   9.539   5.696   2.030  0.5848 -0.2638 -0.2917
 2038SOL    HW114910   9.498   5.775   1.983  0.4839 -0.6910 -0.9249
 2038SOL    HW214911   9.483   5.615   2.014  0.4069 -0.3519  0.8001
 2040SOL     OW14912   1.010   7.593   0.758 -0.5738 -0.0841  0.4447
 2040SOL    HW114913   1.061   7.510   0.784  1.3220  1.2274  1.0414
 2040SOL    HW214914   0.937   7.569   0.694  2.0875 -1.7770 -2.0706
 2041SOL     OW14915   1.628   9.594   0.418  0.1864  0.5750  0.0537
 2041SOL    HW114916   1.633   9.523   0.348 -1.7415  0.7140 -0.2570
 2041SOL    HW214917   1.720   9.628   0.438  0.9623 -0.8962 -0.9251
 2043SOL     OW14918   3.575  10.113   0.999 -0.2717 -0.5058 -0.2521
 2043SOL    HW114919   3.654  10.064   0.962 -1.1910 -3.9446  2.1188
 2043SOL    HW214920   3.509  10.130   0.926  0.1806 -2.6677 -1.2095
 2044SOL     OW14921   3.905   8.877   0.779 -0.0944 -0.7727 -0.1842
 2044SOL    HW114922   3.832   8.822   0.741 -0.7940 -0.8211  1.2006
 2044SOL    HW214923   3.868   8.941   0.847  1.1385 -0.8576  0.6034
 2045SOL     OW14924  10.283  10.074   1.374  0.5123  0.2530 -0.2206
 2045SOL    HW114925  10.211  10.036   1.316  1.1448 -0.7544 -0.3660
 2045SOL    HW214926  10.371  10.067   1.328  0.9859 -0.3314  0.7463
 2046SOL     OW14927   3.699   3.663   1.736 -0.0151 -0.4082  0.5062
 2046SOL    HW114928   3.789   3.673   1.693 -1.1496 -0.1588 -1.9076
 2046SOL    HW214929   3.645   3.595   1.686 -1.1988 -0.5397  1.9077
 2047SOL     OW14930   3.018   2.887   0.382 -0.1965  0.1087 -0.0796
 2047SOL    HW114931   2.960   2.837   0.447  1.0888 -1.0927  0.1796
 2047SOL    HW214932   2.962   2.919   0.306 -1.5344  0.5937  1.0776
 2048SOL     OW14933   1.144   0.906   0.780  0.1920 -0.0501  0.3150
 2048SOL    HW114934   1.218   0.854   0.738  1.1530  1.0065  0.6531
 2048SOL    HW214935   1.173   1.001   0.792 -1.3225  0.4409  0.2088
 2051SOL     OW14936   4.079   9.792   1.504  0.5399 -0.3637 -0.2509
 2051SOL    HW114937   4.014   9.850   1.553  0.9813 -0.6234  0.6464
 2051SOL    HW214938   4.165   9.842   1.491  0.3593 -0.2245 -0.9392
 2052SOL     OW14939   1.147   9.170   0.629  0.1279  0.2752 -0.0312
 2052SOL    HW114940   1.183   9.263   0.630  0.0469  0.2977  1.9545
 2052SOL    HW214941   1.048   9.172   0.619  0.2198  0.3491 -1.0162
 2054SOL     OW14942   9.423   5.548   1.537  0.1275  0.0440 -0.4789
 2054SOL    HW114943   9.425   5.648   1.544 -1.7491  0.0008  1.1433
 2054SOL    HW214944   9.334   5.515   1.567  1.1275 -2.2105  0.0855
 2055SOL     OW14945   0.914   8.224   0.971 -0.2580  0.4164 -0.5544
 2055SOL    HW114946   0.823   8.266   0.967  0.6704  2.4738 -0.9056
 2055SOL    HW214947   0.975   8.271   0.907  1.3049 -0.2706  0.4148
 2056SOL     OW14948   4.601   3.814   0.579 -0.1726 -0.0873  0.5526
 2056SOL    HW114949   4.589   3.785   0.674  0.4193 -3.7094 -0.4211
 2056SOL    HW214950   4.669   3.757   0.534  0.0552  2.0010 -1.9083
 2057SOL     OW14951   9.868   2.605   1.785  0.2372  0.8266 -0.5823
 2057SOL    HW114952   9.832   2.622   1.877  0.9014 -0.7768 -0.0097
 2057SOL    HW214953   9.960   2.643   1.778 -0.5502  2.6697 -1.2273
 2058SOL     OW14954   4.987   3.356   0.476 -0.1961  0.2697  0.0622
 2058SOL    HW114955   4.985   3.280   0.411 -0.9555  0.3764 -0.0395
 2058SOL    HW214956   5.063   3.343   0.540 -0.2729 -0.5411 -0.0076
 2060SOL     OW14957   1.167   7.545   1.370 -0.0043  0.0123  0.0230
 2060SOL    HW114958   1.070   7.542   1.393  0.1965  0.1064  0.8924
 2060SOL    HW214959   1.199   7.453   1.348 -0.0579 -0.1770  0.7232
 2061SOL     OW14960   3.726   2.264   1.019  0.3555 -0.3610 -0.6589
 2061SOL    HW114961   3.679   2.305   1.097  0.4274 -0.8231 -0.3679
 2061SOL    HW214962   3.811   2.315   1.001 -0.6452  0.9672 -1.6950
 2062SOL     OW14963   2.734   1.491   1.015 -0.0899  0.6409  0.2258
 2062SOL    HW114964   2.660   1.451   0.960  0.9435  0.3934 -1.0079
 2062SOL    HW214965   2.720   1.590   1.023 -0.7930  0.5313  0.3568
 2064SOL     OW14966   2.744   5.738   1.783  0.7285  0.3160 -0.3308
 2064SOL    HW114967   2.672   5.690   1.834  1.4998 -0.1939  0.2757
 2064SOL    HW214968   2.710   5.760   1.692  0.3295 -1.3098 -0.6001
 2065SOL     OW14969   1.821   5.273   0.768  0.5323  0.6715  0.1076
 2065SOL    HW114970   1.810   5.304   0.863 -3.2737 -1.4148  0.4514
 2065SOL    HW214971   1.778   5.340   0.707 -1.5346 -0.3928  0.3252
 2066SOL     OW14972   0.891   7.523   1.410 -1.2964  0.1946  0.2419
 2066SOL    HW114973   0.855   7.556   1.322 -2.8980 -0.4691  0.6513
 2066SOL    HW214974   0.891   7.423   1.411  0.0873  0.1778  0.4558
 2068SOL     OW14975   3.595   0.747   0.955  0.5704  0.3232 -0.5952
 2068SOL    HW114976   3.603   0.650   0.978 -2.1841  0.1134 -0.3123
 2068SOL    HW214977   3.561   0.757   0.862 -1.6797  0.9198  0.2425
 2069SOL     OW14978   1.123   6.345   2.250  0.6465 -0.7274 -1.0826
 2069SOL    HW114979   1.217   6.317   2.232  0.2896 -2.0958 -0.8455
 2069SOL    HW214980   1.115   6.375   2.345  0.9327 -0.2030 -1.2204
 2070SOL     OW14981   1.015   9.471   1.486 -0.4877  0.0507 -0.0762
 2070SOL    HW114982   1.069   9.513   1.559 -0.9586 -0.4881  0.5889
 2070SOL    HW214983   0.924   9.513   1.483 -0.7477 -0.4841  0.1853
 2071SOL     OW14984   1.851   1.283   2.095  0.5057 -0.7418  0.9570
 2071SOL    HW114985   1.848   1.280   2.194  0.7015 -0.7720  0.9620
 2071SOL    HW214986   1.884   1.195   2.060  0.6111 -0.6690  0.8729
 2072SOL     OW14987   0.973   8.576   2.109 -0.3518 -0.2116 -0.3474
 2072SOL    HW114988   1.036   8.505   2.140  0.1718  0.1081 -0.6770
 2072SOL    HW214989   0.885   8.534   2.088 -0.0167 -0.7838 -0.6379
 2073SOL     OW14990   0.909   7.045   1.244  0.2758  0.2903  0.1412
 2073SOL    HW114991   0.968   6.998   1.178  1.0499  1.6638 -0.1761
 2073SOL    HW214992   0.852   6.979   1.292  0.6737 -0.8598 -0.9594
 2074SOL     OW14993   1.172   2.148   1.297  0.2302 -0.0718 -0.6449
 2074SOL    HW114994   1.170   2.238   1.340  0.7635  0.2361 -1.2528
 2074SOL    HW214995   1.263   2.131   1.259  0.6846 -1.6083  1.0259
 2075SOL     OW14996   4.402   1.090   1.028 -0.1175 -0.3327  0.1458
 2075SOL    HW114997   4.479   1.046   1.075 -0.5778 -1.3204  0.0063
 2075SOL    HW214998   4.426   1.184   1.005  0.6889 -0.3264  0.9661
 2076SOL     OW14999  10.106   6.126   1.319 -0.2323  0.6981  0.4131
 2076SOL    HW115000  10.038   6.074   1.370  1.6342 -1.6163  0.6475
 2076SOL    HW215001  10.110   6.220   1.353 -2.7794  0.6643  0.8442
 2077SOL     OW15002   3.948   0.408   1.343  0.0132 -0.0393  0.2547
 2077SOL    HW115003   4.038   0.452   1.338 -1.0638  2.4098  1.4718
 2077SOL    HW215004   3.877   0.478   1.343 -1.7765 -1.7939  2.0309
 2078SOL     OW15005   1.102   8.387   0.434  0.2736 -0.0503  0.2713
 2078SOL    HW115006   1.024   8.363   0.376  0.4343  0.5050 -0.1747
 2078SOL    HW215007   1.185   8.348   0.396  0.2565 -0.4293  0.6120
 2079SOL     OW15008   8.967   4.434   1.992  0.1713 -0.4224  0.1196
 2079SOL    HW115009   9.024   4.377   1.933  0.0499 -0.6036  0.1759
 2079SOL    HW215010   8.886   4.382   2.021 -1.0370  0.4939 -1.5555
 2080SOL     OW15011   3.560   2.853   0.317  0.0746  0.1261 -0.0780
 2080SOL    HW115012   3.607   2.768   0.293 -0.2820 -0.1037  0.0268
 2080SOL    HW215013   3.563   2.866   0.416  1.6263  1.1222 -0.2438
 2082SOL     OW15014   2.219   5.105   1.322 -0.1502  0.8863  0.3047
 2082SOL    HW115015   2.292   5.036   1.328 -0.3547  0.3461 -2.4198
 2082SOL    HW215016   2.251   5.191   1.361  0.7885 -0.2108  2.0428
 2083SOL     OW15017   2.832   4.651   1.708  0.6385 -0.2104 -0.1005
 2083SOL    HW115018   2.750   4.624   1.657  0.3527 -0.0931  0.2940
 2083SOL    HW215019   2.866   4.573   1.760  1.2520 -0.4832 -0.8994
 2084SOL     OW15020   9.622   5.878   1.214 -0.5319  0.0152 -0.3039
 2084SOL    HW115021   9.609   5.929   1.129  1.9999  0.1386 -0.6633
 2084SOL    HW215022   9.714   5.895   1.249 -1.2540 -0.7121  2.0243
 2085SOL     OW15023  10.410   5.727   1.009 -0.2722  0.5724 -0.0014
 2085SOL    HW115024  10.495   5.679   1.030 -1.6468 -1.4178  1.2361
 2085SOL    HW215025  10.392   5.797   1.078  0.6507  1.3992 -0.5960
 2086SOL     OW15026   4.229   8.521   0.716 -0.7127 -0.1945  0.0456
 2086SOL    HW115027   4.182   8.502   0.629  0.4159 -0.7846 -0.4496
 2086SOL    HW215028   4.186   8.599   0.761 -1.7078 -0.2760 -0.7457
 2087SOL     OW15029   9.404   3.995   1.774  0.5822 -0.4833  0.0642
 2087SOL    HW115030   9.497   4.015   1.741  0.5688 -0.6581 -0.0806
 2087SOL    HW215031   9.346   4.075   1.759  1.1785  0.3394  1.9123
 2088SOL     OW15032   3.395   2.566   1.145  0.1575 -0.4920 -0.1303
 2088SOL    HW115033   3.307   2.609   1.128  0.1219  0.3605  2.0115
 2088SOL    HW215034   3.381   2.480   1.193  0.5681  0.7627  2.3010
 2089SOL     OW15035   3.785   9.756   1.134  1.0305  0.2694  0.0017
 2089SOL    HW115036   3.714   9.763   1.204  1.1444 -2.1377  0.3968
 2089SOL    HW215037   3.753   9.798   1.049 -0.8906 -0.8629  0.1424
 2091SOL     OW15038   1.869   3.814   1.652 -0.3313  0.2504  0.1001
 2091SOL    HW115039   1.781   3.804   1.606 -0.7781 -0.7755  1.1308
 2091SOL    HW215040   1.931   3.742   1.622  0.6407  1.7713 -1.6389
 2092SOL     OW15041   2.521   6.853   1.319  0.0529 -0.1555  0.1569
 2092SOL    HW115042   2.453   6.805   1.264  0.2580 -1.7778  1.3026
 2092SOL    HW215043   2.523   6.815   1.411  1.6291  0.7158  0.5032
 2093SOL     OW15044   9.951   0.765   0.759 -0.4005  0.1764 -0.1429
 2093SOL    HW115045   9.939   0.736   0.664  2.1592  0.5790 -0.6240
 2093SOL    HW215046  10.039   0.730   0.793 -0.8448  0.8773  1.7485
 2094SOL     OW15047   4.278   2.640   0.504  0.4082  0.3948 -0.8471
 2094SOL    HW115048   4.306   2.726   0.546 -0.1189  0.3257 -0.3437
 2094SOL    HW215049   4.342   2.567   0.531 -1.8416 -0.3767  2.6895
 2095SOL     OW15050   0.942   1.735   1.478 -0.0171  0.5164  0.0056
 2095SOL    HW115051   0.991   1.818   1.454 -2.6009  2.6496  1.8039
 2095SOL    HW215052   0.931   1.730   1.577 -0.8168 -1.4528 -0.1538
 2096SOL     OW15053   1.853   3.116   2.088  0.1507  0.0688  0.0936
 2096SOL    HW115054   1.930   3.066   2.126  0.3140  0.2615  0.0145
 2096SOL    HW215055   1.886   3.189   2.029 -0.1027 -0.1123 -0.2705
 2097SOL     OW15056   4.780   1.886   0.315  0.0372 -0.2290  0.3803
 2097SOL    HW115057   4.738   1.832   0.388 -0.2884  0.0610  0.4044
 2097SOL    HW215058   4.768   1.983   0.334  1.5871 -0.1286  0.9119
 2099SOL     OW15059   9.574   2.248   0.735  0.2156 -0.1462 -0.1480
 2099SOL    HW115060   9.655   2.265   0.791  0.0118 -0.9488  0.3971
 2099SOL    HW215061   9.526   2.334   0.717  0.3751  0.1287  0.7554
 2100SOL     OW15062   2.562   6.130   2.178  0.2816 -0.2441  0.3564
 2100SOL    HW115063   2.561   6.221   2.219  0.4064 -0.6964  1.3921
 2100SOL    HW215064   2.471   6.107   2.145 -0.1386 -0.3913  1.5792
 2101SOL     OW15065   1.502   2.894   1.150  0.1873  0.3585  0.0545
 2101SOL    HW115066   1.479   2.840   1.232 -1.7391  0.5253 -0.3544
 2101SOL    HW215067   1.422   2.945   1.121  1.0374  0.7582 -1.6096
 2102SOL     OW15068   1.128   8.585   1.872  0.1454 -0.0032  0.4842
 2102SOL    HW115069   1.098   8.492   1.890 -0.2574  0.0279 -0.0471
 2102SOL    HW215070   1.140   8.633   1.959  2.5535 -1.2395  0.8753
 2104SOL     OW15071   1.043  10.242   1.216  0.1717 -0.1148 -0.9113
 2104SOL    HW115072   0.954  10.260   1.258 -0.4296 -1.7052 -1.4454
 2104SOL    HW215073   1.101  10.323   1.224 -1.4584  1.0844 -0.9146
 2106SOL     OW15074   9.869   6.191   0.838  0.6339 -0.6543 -0.0644
 2106SOL    HW115075   9.942   6.232   0.892  1.8527 -2.2322 -0.4929
 2106SOL    HW215076   9.903   6.169   0.747 -0.9015  0.3122 -0.8998
 2107SOL     OW15077   3.984   1.248   2.165  0.2651 -0.1471  0.1549
 2107SOL    HW115078   3.928   1.329   2.149 -1.2524 -1.0690  0.7247
 2107SOL    HW215079   3.959   1.206   2.252  1.0375 -1.2179 -0.1286
 2108SOL     OW15080   4.215   0.516   1.275  0.3893  0.2807 -0.4837
 2108SOL    HW115081   4.182   0.457   1.201  0.0814 -0.1033 -0.0417
 2108SOL    HW215082   4.315   0.518   1.274  0.4953 -2.0367  0.8622
 2109SOL     OW15083   1.261   2.576   1.720  0.2005 -0.2929 -0.1821
 2109SOL    HW115084   1.260   2.675   1.736  1.4718 -0.2630 -0.1773
 2109SOL    HW215085   1.173   2.536   1.746 -0.7581  1.0210 -1.4138
 2110SOL     OW15086   2.468   2.768   2.104  0.3399  0.2546 -0.3313
 2110SOL    HW115087   2.401   2.697   2.081 -1.0600  0.2669  3.4248
 2110SOL    HW215088   2.420   2.849   2.136  2.1028  1.0314  0.3675
 2112SOL     OW15089   0.840   8.001   2.179  0.6819  0.6254 -0.1136
 2112SOL    HW115090   0.825   7.916   2.229  1.3838  0.2286 -0.5816
 2112SOL    HW215091   0.798   7.994   2.088 -0.3968  1.2630  0.3256
 2113SOL     OW15092   2.313   1.602   1.101  0.4882 -0.5050  0.3315
 2113SOL    HW115093   2.265   1.526   1.145 -0.7410  1.2459  2.1269
 2113SOL    HW215094   2.249   1.678   1.088  2.0780  0.8046  0.0301
 2114SOL     OW15095   0.672   9.405   1.222  0.5619  0.2275  0.2595
 2114SOL    HW115096   0.734   9.450   1.157  1.7997 -0.1898  1.1349
 2114SOL    HW215097   0.649   9.314   1.189  0.4408  0.3710 -0.0528
 2116SOL     OW15098   2.879   3.378   1.599 -0.4643  0.0015 -0.6109
 2116SOL    HW115099   2.862   3.362   1.502 -1.6170 -1.9176 -0.1164
 2116SOL    HW215100   2.870   3.292   1.649 -0.2905  1.0470  1.2647
 2117SOL     OW15101   2.850   1.677   1.816 -0.2898  0.0631  0.0631
 2117SOL    HW115102   2.820   1.682   1.912 -0.9263 -0.0459 -0.1273
 2117SOL    HW215103   2.777   1.637   1.761  0.7827 -1.6098 -0.1675
 2118SOL     OW15104   3.262   2.541   2.332 -0.0660 -0.0709 -0.4379
 2118SOL    HW115105   3.190   2.529   2.400 -1.5717  1.0970 -1.7895
 2118SOL    HW215106   3.344   2.576   2.376 -0.9691  0.5123  0.8011
 2119SOL     OW15107   2.004   9.277   0.899  0.4666 -0.4411 -0.3946
 2119SOL    HW115108   2.081   9.228   0.858  0.6719 -0.5221  0.0810
 2119SOL    HW215109   1.919   9.241   0.861  0.5839 -1.6745  0.4536
 2121SOL     OW15110   3.160   8.583   1.853  0.8746  0.0491 -0.1404
 2121SOL    HW115111   3.082   8.642   1.872  1.1079  0.1857  0.3989
 2121SOL    HW215112   3.236   8.606   1.914  1.2559 -0.2432 -0.4965
 2122SOL     OW15113   3.602   3.432   1.601  0.2693  0.0744  0.0879
 2122SOL    HW115114   3.520   3.449   1.547 -0.5388  1.0659  1.5720
 2122SOL    HW215115   3.674   3.395   1.543 -0.9382  0.0397 -1.4107
 2124SOL     OW15116   4.304   2.415   1.900 -0.1089 -0.1838  0.3912
 2124SOL    HW115117   4.300   2.483   1.828  0.9021  0.9068  1.3435
 2124SOL    HW215118   4.272   2.327   1.864 -0.8060  0.6220 -1.0199
 2126SOL     OW15119   4.290   1.430   2.219 -0.7373  0.6335 -0.9658
 2126SOL    HW115120   4.247   1.435   2.130  0.0984  3.2030 -1.2838
 2126SOL    HW215121   4.291   1.521   2.261 -1.4166 -0.5861  1.8090
 2128SOL     OW15122   1.499   9.828   0.441 -0.5177  0.2059  0.1714
 2128SOL    HW115123   1.558   9.748   0.432  0.4055  0.7507  1.2505
 2128SOL    HW215124   1.414   9.801   0.486 -1.2008 -0.6263 -1.5949
 2129SOL     OW15125   3.472   0.438   0.482 -0.3131 -0.3685  0.1645
 2129SOL    HW115126   3.428   0.389   0.557  1.3922 -3.2935 -0.6859
 2129SOL    HW215127   3.544   0.497   0.519 -2.2037  1.3636  1.1679
 2130SOL     OW15128   9.839   4.205   2.018  0.1474 -0.1402 -0.4558
 2130SOL    HW115129   9.818   4.119   1.971  0.5455 -0.9732  0.8695
 2130SOL    HW215130   9.791   4.280   1.973  0.0055 -1.0148 -1.7940
 2131SOL     OW15131   1.732   6.136   0.892  0.1511  0.1656  0.2234
 2131SOL    HW115132   1.646   6.187   0.895  0.6017  0.9356  0.1918
 2131SOL    HW215133   1.770   6.140   0.799  0.0205 -0.5116  0.1364
 2132SOL     OW15134   2.670   3.408   0.960 -0.0830  0.1378  0.4839
 2132SOL    HW115135   2.632   3.316   0.974  1.5463 -0.3026  2.2895
 2132SOL    HW215136   2.638   3.469   1.032 -1.7389  1.2066 -1.1214
 2133SOL     OW15137   9.621   2.239   1.160  0.6695  0.1349 -0.3823
 2133SOL    HW115138   9.643   2.143   1.175 -1.9445 -0.3579  0.5881
 2133SOL    HW215139   9.622   2.288   1.247 -1.9286  0.0767 -0.2739
 2134SOL     OW15140   1.441   5.285   1.559 -0.3850 -0.5857  0.1156
 2134SOL    HW115141   1.459   5.191   1.530 -1.2086 -1.5513  2.5934
 2134SOL    HW215142   1.412   5.339   1.480 -0.0467 -2.4426 -1.3161
 2135SOL     OW15143   1.980   0.470   0.405 -0.4171  0.1593 -0.4088
 2135SOL    HW115144   2.066   0.436   0.368 -0.4880 -0.0717 -0.3633
 2135SOL    HW215145   1.947   0.408   0.476  0.0625  0.9688  0.5338
 2136SOL     OW15146   2.961   6.125   0.469 -0.6740 -0.3727  0.1006
 2136SOL    HW115147   2.973   6.139   0.370  0.5114 -1.2601  0.1031
 2136SOL    HW215148   2.987   6.032   0.492 -1.9988 -0.4957  1.0974
 2137SOL     OW15149   1.725   0.900   1.129 -0.0077 -0.8462  0.7881
 2137SOL    HW115150   1.639   0.923   1.174  0.9410  0.9064  1.7608
 2137SOL    HW215151   1.744   0.966   1.057 -0.0205 -1.8828 -0.1700
 2138SOL     OW15152   2.255   5.756   2.015 -0.3102  0.0571  0.6557
 2138SOL    HW115153   2.276   5.795   1.925  1.3854 -0.7447  0.6800
 2138SOL    HW215154   2.162   5.720   2.014 -1.8647  3.8134  0.5589
 2140SOL     OW15155   4.310   3.383   0.934 -0.1368 -0.1304  0.3552
 2140SOL    HW115156   4.219   3.356   0.901  0.2753  1.2352 -1.9781
 2140SOL    HW215157   4.380   3.330   0.887  0.3994  0.7493  0.1585
 2141SOL     OW15158   0.881   3.195   1.791  0.0079 -0.1267 -0.3093
 2141SOL    HW115159   0.863   3.270   1.728  0.7552 -0.6704 -1.1699
 2141SOL    HW215160   0.887   3.231   1.885 -3.3208  0.3783 -0.2478
 2142SOL     OW15161   9.521   1.299   1.173 -0.2366  0.4122  0.3047
 2142SOL    HW115162   9.518   1.387   1.124  1.3528  1.1273  1.4467
 2142SOL    HW215163   9.602   1.248   1.145 -2.1302 -1.6202 -1.7950
 2143SOL     OW15164   4.218   0.326   1.523  0.1861 -0.3906 -0.4821
 2143SOL    HW115165   4.244   0.244   1.472 -1.7234 -0.2120 -1.7965
 2143SOL    HW215166   4.300   0.370   1.559  1.1884 -3.5215  1.2998
 2146SOL     OW15167   2.284   8.213   2.018 -0.0292  0.4874 -0.3148
 2146SOL    HW115168   2.356   8.282   2.015  0.4043  0.0026 -1.0766
 2146SOL    HW215169   2.321   8.127   2.052 -0.4932  0.5283  0.3117
 2147SOL     OW15170   1.779   2.051   0.662 -0.5172  0.1579  0.1452
 2147SOL    HW115171   1.725   2.134   0.649  0.9472  0.9498 -1.1458
 2147SOL    HW215172   1.759   1.986   0.588  2.1573  1.5284 -1.8905
 2148SOL     OW15173   2.578   3.356   1.825  0.3095  0.2231 -0.0144
 2148SOL    HW115174   2.661   3.307   1.850 -1.1592 -2.4134 -0.0612
 2148SOL    HW215175   2.557   3.338   1.728 -0.2520  0.9209 -0.0252
 2149SOL     OW15176   2.192   2.020   1.968  1.0382  0.0012  0.2927
 2149SOL    HW115177   2.160   2.034   1.874  3.9962  0.7520 -0.6574
 2149SOL    HW215178   2.198   2.108   2.014 -1.6086 -0.4773  1.6616
 2151SOL     OW15179   3.046   4.961   1.254  0.9162  0.3432 -0.2119
 2151SOL    HW115180   3.026   4.882   1.195  2.3832 -1.5054  1.6958
 2151SOL    HW215181   2.962   4.990   1.299  0.0380  0.9386 -2.1565
 2154SOL     OW15182   0.685   6.098   1.744 -0.1004  0.3747  0.1932
 2154SOL    HW115183   0.648   6.071   1.833  2.6267  1.1196  1.6025
 2154SOL    HW215184   0.651   6.189   1.719  1.0284  1.2003  1.6333
 2155SOL     OW15185   9.437   5.823   1.530  0.1873  0.4166  0.2293
 2155SOL    HW115186   9.513   5.860   1.477 -0.4350  0.7506 -0.4346
 2155SOL    HW215187   9.435   5.866   1.620  1.2368 -0.1390  0.5359
 2156SOL     OW15188   4.073   0.889   2.256 -0.6061 -0.3932  0.1106
 2156SOL    HW115189   4.101   0.940   2.175  1.5732 -0.2169  0.9657
 2156SOL    HW215190   3.992   0.834   2.234  0.9690 -1.7015 -2.7125
 2157SOL     OW15191   1.822   3.600   2.033 -1.1158  0.2951  0.1120
 2157SOL    HW115192   1.763   3.644   1.966 -0.7682  0.0486 -0.3582
 2157SOL    HW215193   1.770   3.583   2.117 -1.8283 -0.2801 -0.4354
 2159SOL     OW15194   9.009   4.300   0.918  0.0931 -0.4319  0.2196
 2159SOL    HW115195   8.942   4.292   0.845  1.2785 -0.5256 -0.8746
 2159SOL    HW215196   8.962   4.314   1.005 -1.2469  3.2613 -1.0142
 2160SOL     OW15197   2.303   7.825   1.078  0.7079  0.0331 -0.2043
 2160SOL    HW115198   2.293   7.878   1.162 -1.0350 -1.0115  0.2659
 2160SOL    HW215199   2.391   7.777   1.079  0.0285 -1.2408  1.7803
 2162SOL     OW15200   2.876   2.556   0.652  0.0385 -0.3253 -0.1954
 2162SOL    HW115201   2.872   2.653   0.675  2.0572 -0.3336  0.2843
 2162SOL    HW215202   2.893   2.546   0.554 -0.9414 -0.2131 -0.3823
 2163SOL     OW15203   2.388   3.422   2.276 -0.4640  0.4043  0.4801
 2163SOL    HW115204   2.403   3.362   2.197 -2.0073 -0.5842  0.9015
 2163SOL    HW215205   2.437   3.386   2.355 -1.9588 -0.7363  0.9146
 2164SOL     OW15206   1.195   0.482   1.293 -0.6295 -0.2988  0.2882
 2164SOL    HW115207   1.136   0.462   1.371 -1.0551  0.3174  0.1296
 2164SOL    HW215208   1.171   0.571   1.255 -0.3417 -0.5416 -0.4758
 2165SOL     OW15209   1.836   2.699   2.134 -0.0090 -0.0111  0.2705
 2165SOL    HW115210   1.756   2.647   2.103 -1.5362  1.7324  1.2427
 2165SOL    HW215211   1.884   2.736   2.055 -1.4248  0.7732 -0.2441
 2167SOL     OW15212   0.951   2.528   1.355 -0.2157 -0.0646 -0.1763
 2167SOL    HW115213   0.875   2.528   1.290  0.6598 -0.2571 -1.2189
 2167SOL    HW215214   0.936   2.458   1.425  0.1728 -1.7689 -1.7737
 2168SOL     OW15215   2.322   4.036   0.940 -0.2479 -0.2536  0.1171
 2168SOL    HW115216   2.393   4.012   0.874 -1.0240 -2.7070  0.0888
 2168SOL    HW215217   2.243   4.073   0.892 -0.1430 -0.4001 -0.1701
 2170SOL     OW15218   9.268   5.086   1.996  0.1139  0.0745  0.6444
 2170SOL    HW115219   9.229   5.060   1.908  2.0690  3.2884 -1.2518
 2170SOL    HW215220   9.329   5.013   2.028  1.3061 -0.0979 -1.9167
 2173SOL     OW15221   4.262   8.932   1.064  0.2361  0.6872 -0.4836
 2173SOL    HW115222   4.360   8.920   1.079 -0.4356 -1.8899  2.5383
 2173SOL    HW215223   4.232   9.019   1.103  0.9471  0.3687  0.8184
 2174SOL     OW15224   4.499   4.960   1.051  0.5097  0.4895 -0.6056
 2174SOL    HW115225   4.573   4.914   1.001  1.5426 -0.8270  2.0427
 2174SOL    HW215226   4.414   4.908   1.041  0.8893 -0.1755 -0.3745
 2175SOL     OW15227   0.954   8.314   1.564  0.0640  0.0775 -0.2643
 2175SOL    HW115228   0.858   8.299   1.586  0.2731  0.4215  0.8823
 2175SOL    HW215229   0.962   8.340   1.467 -1.0236  0.4376 -0.2599
 2177SOL     OW15230  10.343   2.737   0.466 -0.3663  0.1713 -0.4758
 2177SOL    HW115231  10.406   2.661   0.456 -0.6298 -0.0930 -0.1437
 2177SOL    HW215232  10.294   2.751   0.380  1.4483  1.5497 -1.3113
 2178SOL     OW15233   1.712   1.807   1.288 -0.2842 -1.0219  0.2205
 2178SOL    HW115234   1.685   1.899   1.260  0.1210 -0.6888  0.9182
 2178SOL    HW215235   1.639   1.743   1.266  0.1886 -0.8519 -2.0305
 2180SOL     OW15236   2.684   0.897   1.237  0.5289 -0.0211 -0.2374
 2180SOL    HW115237   2.679   0.847   1.323 -1.3494  1.2394  0.4080
 2180SOL    HW215238   2.770   0.875   1.191  0.4835 -2.5405  0.8129
 2181SOL     OW15239   1.169   8.105   2.053 -0.6847  0.5827  0.2645
 2181SOL    HW115240   1.162   8.082   1.956 -0.2392 -0.1036  0.3915
 2181SOL    HW215241   1.088   8.072   2.101  0.4280 -1.6840  0.6287
 2182SOL     OW15242   1.652   9.340   0.827  0.1221 -0.2828  0.0388
 2182SOL    HW115243   1.692   9.249   0.838 -0.0017 -0.5084 -1.3387
 2182SOL    HW215244   1.622   9.373   0.916 -1.2496 -2.2381  0.3476
 2183SOL     OW15245   2.623   2.787   1.420 -0.0752 -0.4832 -0.0437
 2183SOL    HW115246   2.706   2.739   1.449 -0.0710 -0.1144  0.5691
 2183SOL    HW215247   2.543   2.735   1.449 -0.0590 -0.9943 -0.9046
 2184SOL     OW15248   2.638   3.356   1.303  0.3036  0.2226 -0.2197
 2184SOL    HW115249   2.633   3.431   1.370  1.2343 -0.5459  0.7244
 2184SOL    HW215250   2.701   3.286   1.335  0.8448 -0.1236 -1.9629
 2185SOL     OW15251   2.580   4.747   0.693  0.2739 -0.1775  0.3097
 2185SOL    HW115252   2.526   4.756   0.609  0.1918  0.5464  0.4423
 2185SOL    HW215253   2.521   4.717   0.768 -0.0602  1.1706  0.5896
 2186SOL     OW15254   9.762   4.584   1.348 -0.3678 -0.3607  0.1681
 2186SOL    HW115255   9.806   4.607   1.434  1.3222 -0.8262 -0.5654
 2186SOL    HW215256   9.789   4.650   1.278 -0.2811 -1.0535 -0.4540
 2187SOL     OW15257   0.763   8.455   2.042 -0.3388 -0.1975  0.0739
 2187SOL    HW115258   0.727   8.403   2.119  0.3450 -1.6982 -0.6000
 2187SOL    HW215259   0.790   8.393   1.968  4.0618  0.7285  0.7182
 2188SOL     OW15260   2.292   7.320   1.152 -0.5977  0.0203 -0.0681
 2188SOL    HW115261   2.253   7.372   1.076  1.9112 -1.3605 -2.3506
 2188SOL    HW215262   2.390   7.336   1.157  0.1253 -3.8212 -0.3341
 2189SOL     OW15263  10.269   1.211   1.858 -0.2276  0.5299  0.0485
 2189SOL    HW115264  10.311   1.204   1.948 -0.4869 -1.0484  0.0530
 2189SOL    HW215265  10.336   1.187   1.787 -1.0517 -1.9525  0.0547
 2190SOL     OW15266   2.398   4.648   1.426  0.3023 -0.3947 -0.0827
 2190SOL    HW115267   2.339   4.596   1.365  1.4161 -0.1452 -1.4041
 2190SOL    HW215268   2.417   4.738   1.385  0.6248 -0.0153  0.8846
 2191SOL     OW15269   3.553   5.108   1.153  0.1646 -0.0782 -1.0373
 2191SOL    HW115270   3.467   5.121   1.105 -1.2437 -1.7874  0.9558
 2191SOL    HW215271   3.556   5.167   1.233  0.9647  0.1348 -1.2175
 2192SOL     OW15272   1.715   4.183   2.331 -0.2019  0.1137 -0.1941
 2192SOL    HW115273   1.656   4.124   2.387 -0.6007  0.2910 -0.4245
 2192SOL    HW215274   1.810   4.168   2.356 -0.5337  2.0325  2.2957
 2193SOL     OW15275   2.798   9.677   0.730  0.6647 -0.2704  0.2962
 2193SOL    HW115276   2.859   9.602   0.704  0.3895 -0.7328  0.9801
 2193SOL    HW215277   2.852   9.750   0.774  0.9412 -0.0303 -0.4309
 2194SOL     OW15278   2.324   5.590   1.061 -0.4271 -0.1546  0.3640
 2194SOL    HW115279   2.356   5.631   1.146  1.6172  0.0873 -0.5022
 2194SOL    HW215280   2.295   5.662   0.998  0.8926 -0.1518 -0.2543
 2195SOL     OW15281   1.214   1.584   0.943  0.1735  0.2024 -0.2106
 2195SOL    HW115282   1.247   1.510   1.001  0.0783  1.8952  2.0943
 2195SOL    HW215283   1.114   1.585   0.945  0.1556 -0.0723 -0.8593
 2196SOL     OW15284   2.306   2.916   1.512 -0.0073  0.2648  0.0700
 2196SOL    HW115285   2.236   2.986   1.530  0.4591  1.0485 -1.1029
 2196SOL    HW215286   2.349   2.888   1.598  0.7157  2.3846  0.4129
 2197SOL     OW15287   9.906   5.711   1.606  0.1849 -0.5261 -0.0134
 2197SOL    HW115288   9.835   5.656   1.562 -0.2862  0.0992 -0.0326
 2197SOL    HW215289   9.992   5.661   1.604 -0.3186 -1.4166  0.2624
 2199SOL     OW15290   1.496   7.856   0.903 -0.4368  0.0680  0.1312
 2199SOL    HW115291   1.508   7.812   0.814  0.7786 -1.7278  1.1537
 2199SOL    HW215292   1.403   7.841   0.935  0.0130 -1.9914  0.5542
 2200SOL     OW15293   4.688   1.352   2.120  0.1097 -0.2976 -0.0417
 2200SOL    HW115294   4.655   1.299   2.042 -0.1633 -0.7127  0.3610
 2200SOL    HW215295   4.656   1.311   2.205  0.2447  0.2691  0.2858
 2202SOL     OW15296   2.069   5.539   2.008 -0.1079  0.1074 -0.8324
 2202SOL    HW115297   2.113   5.450   2.020  0.8728  0.8433  1.2992
 2202SOL    HW215298   1.970   5.528   2.020  0.3632 -0.0432  3.9274
 2204SOL     OW15299   2.670   5.160   2.260 -0.0484 -0.5107  0.1375
 2204SOL    HW115300   2.643   5.216   2.339  1.3909 -0.4951  0.6272
 2204SOL    HW215301   2.761   5.124   2.275  0.2885 -0.4034 -1.5904
 2205SOL     OW15302   3.034   6.455   1.899  0.3798 -0.2206  0.1394
 2205SOL    HW115303   2.950   6.465   1.846  1.2657  1.5061 -1.0054
 2205SOL    HW215304   3.072   6.364   1.886 -0.7588 -0.6540 -0.1798
 2206SOL     OW15305   3.901   1.078   0.486  0.1941  0.0665  0.2563
 2206SOL    HW115306   3.814   1.114   0.520 -0.1066  0.7387 -1.1975
 2206SOL    HW215307   3.975   1.141   0.511 -0.1437  1.0150 -1.0595
 2207SOL     OW15308   2.178   4.711   0.978  0.1853 -0.1745 -0.2808
 2207SOL    HW115309   2.104   4.722   1.044 -0.7342 -0.4721 -1.2591
 2207SOL    HW215310   2.255   4.664   1.021  0.3197  1.2786  1.1123
 2210SOL     OW15311   2.175   1.377   1.199 -0.3900  0.6707 -0.1496
 2210SOL    HW115312   2.089   1.373   1.148  0.3646  1.5061 -1.5484
 2210SOL    HW215313   2.215   1.286   1.204 -0.4494  0.5825 -1.1260
 2211SOL     OW15314   1.299   7.604   1.603 -0.7681 -0.1721 -0.0990
 2211SOL    HW115315   1.366   7.666   1.562  0.1706 -0.6392  0.7048
 2211SOL    HW215316   1.248   7.557   1.531  2.4535 -2.7332 -0.8622
 2212SOL     OW15317   0.467   6.687   1.346 -0.4207 -0.1388  0.1870
 2212SOL    HW115318   0.546   6.646   1.300 -0.7697 -0.4750 -0.1226
 2212SOL    HW215319   0.448   6.776   1.304 -2.1201 -1.4277 -1.8821
 2213SOL     OW15320   1.627   8.281   2.270 -0.7560 -0.8704  0.1997
 2213SOL    HW115321   1.574   8.246   2.347 -2.1150 -1.6446 -1.0500
 2213SOL    HW215322   1.622   8.215   2.195  2.0619 -1.0017  0.0766
 2214SOL     OW15323   9.233   2.978   1.777  0.2847 -0.1562  0.2513
 2214SOL    HW115324   9.210   3.065   1.821 -0.6656 -0.3333  0.1241
 2214SOL    HW215325   9.207   2.982   1.681 -1.4451 -1.2127  0.6611
 2215SOL     OW15326   3.951   3.579   2.287  0.6198 -0.1942  0.0058
 2215SOL    HW115327   3.884   3.588   2.213  1.1530  2.0517 -0.2226
 2215SOL    HW215328   3.996   3.666   2.303  3.9133 -1.7858 -0.1726
 2216SOL     OW15329   0.763   3.472   1.060  0.1632 -0.0416  0.0234
 2216SOL    HW115330   0.823   3.392   1.065  0.0958 -0.1725 -1.1343
 2216SOL    HW215331   0.684   3.451   1.002  0.0686  0.8104 -0.1584
 2218SOL     OW15332   2.088   4.341   1.104  0.0020  0.0626 -0.1526
 2218SOL    HW115333   2.127   4.345   1.012  1.4583 -1.3240  0.3842
 2218SOL    HW215334   1.988   4.342   1.097  0.0880  1.9464 -1.6365
 2219SOL     OW15335   2.570   3.655   2.206  0.1017  0.0169 -0.9308
 2219SOL    HW115336   2.505   3.590   2.245  0.8465 -0.7139 -0.9157
 2219SOL    HW215337   2.591   3.727   2.273  1.6469 -1.4210  0.1540
 2220SOL     OW15338  10.324   8.769   1.212 -0.0867  0.5801  0.2652
 2220SOL    HW115339  10.344   8.814   1.125 -0.6244  3.0012  1.3553
 2220SOL    HW215340  10.285   8.835   1.275  0.0233 -1.2264  2.2726
 2221SOL     OW15341   0.577   6.121   0.953 -0.4406 -0.2224  0.0167
 2221SOL    HW115342   0.621   6.207   0.926  0.8297 -0.3597  1.5569
 2221SOL    HW215343   0.516   6.138   1.030  0.9671 -0.9251  1.3214
 2222SOL     OW15344   2.026   1.858   0.895  0.1130  0.4148  0.4061
 2222SOL    HW115345   1.951   1.792   0.898 -0.1111  0.6506  0.0548
 2222SOL    HW215346   2.072   1.854   0.806  1.1669 -0.4339  0.9783
 2223SOL     OW15347   9.769   2.348   0.879 -0.0911  0.6063 -0.4100
 2223SOL    HW115348   9.706   2.413   0.921  1.1305  3.2331 -2.5056
 2223SOL    HW215349   9.855   2.347   0.930 -0.3029  0.1907 -0.0537
 2224SOL     OW15350   9.221   1.663   0.735 -0.3001  0.0054  0.5711
 2224SOL    HW115351   9.145   1.642   0.673 -0.2956 -1.4851  1.0489
 2224SOL    HW215352   9.306   1.667   0.683 -0.5526  0.6284  0.1986
 2225SOL     OW15353   1.919   0.962   1.691  0.0769 -0.2859  0.1147
 2225SOL    HW115354   1.985   0.949   1.617  1.1709  0.1328  1.0059
 2225SOL    HW215355   1.859   1.038   1.669  1.2711  0.7107  0.2489
 2226SOL     OW15356   2.466   7.323   1.665  0.0667 -0.0222  0.5133
 2226SOL    HW115357   2.369   7.339   1.643  0.8912  1.2618 -2.5045
 2226SOL    HW215358   2.514   7.410   1.667  1.5273 -0.8054  0.0551
 2228SOL     OW15359  10.414   7.016   1.492 -0.1301  0.1174 -0.1260
 2228SOL    HW115360  10.424   7.015   1.393  1.4255  0.8862  0.0083
 2228SOL    HW215361  10.381   7.105   1.523  1.4179  0.5846  0.2151
 2229SOL     OW15362   1.609   2.519   2.080 -0.2765  0.3240 -0.5467
 2229SOL    HW115363   1.642   2.450   2.144 -0.2536  0.5316 -0.3314
 2229SOL    HW215364   1.560   2.590   2.131  2.1666  1.9786 -0.4086
 2230SOL     OW15365  10.226   3.635   0.496 -0.2412  0.4152 -0.8502
 2230SOL    HW115366  10.280   3.661   0.415  0.6273  0.4766 -0.2557
 2230SOL    HW215367  10.168   3.711   0.523  0.2797  0.7785 -0.7555
 2232SOL     OW15368   2.384   7.401   1.956  0.5027  0.5434 -0.0397
 2232SOL    HW115369   2.353   7.330   2.019 -0.1270 -1.1900 -2.2476
 2232SOL    HW215370   2.474   7.377   1.921  0.6463  1.2608 -0.1759
 2233SOL     OW15371   4.844   3.691   0.551  0.8982 -0.5446  0.3446
 2233SOL    HW115372   4.894   3.655   0.630 -0.2881  1.4909  2.0713
 2233SOL    HW215373   4.902   3.755   0.501  0.4931  0.8505  1.6207
 2235SOL     OW15374   9.727   3.827   1.082  0.3803 -0.1951  0.3172
 2235SOL    HW115375   9.825   3.834   1.096  0.1269  0.4162  1.8327
 2235SOL    HW215376   9.707   3.744   1.029  1.8572  0.6794 -1.6836
 2237SOL     OW15377   2.367   6.485   0.503 -0.2469  0.0668  0.4544
 2237SOL    HW115378   2.418   6.571   0.501 -0.7762  0.3925  0.6502
 2237SOL    HW215379   2.387   6.432   0.420 -0.6338  0.8052 -0.1212
 2238SOL     OW15380   9.638   4.390   1.186  0.7446 -0.1912  0.8768
 2238SOL    HW115381   9.683   4.435   1.263  1.2221  0.6257  0.1364
 2238SOL    HW215382   9.704   4.377   1.111 -0.0993  0.5428 -0.0165
 2239SOL     OW15383  10.364   9.409   1.009 -0.2424  0.0176 -0.3761
 2239SOL    HW115384  10.419   9.434   1.088 -0.5642  0.9861 -0.4612
 2239SOL    HW215385  10.345   9.490   0.954  0.0146 -0.6566 -1.4704
 2241SOL     OW15386   0.652   8.457   0.489 -0.2005  0.1021 -0.2453
 2241SOL    HW115387   0.593   8.492   0.415  0.3488 -1.7870 -1.6151
 2241SOL    HW215388   0.741   8.501   0.483 -0.4573  0.6470 -0.1247
 2242SOL     OW15389   1.782   4.344   1.464 -0.5662 -0.4386  0.3091
 2242SOL    HW115390   1.878   4.345   1.436 -1.0149  0.0532 -1.2201
 2242SOL    HW215391   1.770   4.275   1.536  0.3700 -2.5079 -1.4707
 2243SOL     OW15392   4.143   1.601   1.104 -0.1504 -0.1953 -0.1289
 2243SOL    HW115393   4.076   1.607   1.030  0.2783  0.3210 -0.4880
 2243SOL    HW215394   4.124   1.522   1.161 -0.4378 -0.6507 -0.8522
 2244SOL     OW15395   2.292  10.213   1.834  0.5234  0.7139  0.1209
 2244SOL    HW115396   2.247  10.301   1.850 -1.5238 -0.1722 -0.6232
 2244SOL    HW215397   2.251  10.143   1.893 -0.3837 -0.5122 -1.9317
 2245SOL     OW15398  10.052   6.463   0.698 -0.2590  0.5412  0.3020
 2245SOL    HW115399  10.095   6.463   0.788  2.1457  0.0684 -0.8272
 2245SOL    HW215400  10.090   6.390   0.643 -1.3842  1.1271 -1.2875
 2246SOL     OW15401   9.934   1.733   2.103 -0.3125  0.5303  0.1428
 2246SOL    HW115402   9.889   1.803   2.160 -0.2684  1.0873 -0.5102
 2246SOL    HW215403   9.943   1.649   2.157 -1.6054  0.5925  0.4922
 2247SOL     OW15404   0.794   2.761   1.550  0.4448  0.3680 -0.3474
 2247SOL    HW115405   0.828   2.702   1.476 -0.4556  0.1899 -0.6274
 2247SOL    HW215406   0.839   2.850   1.544 -1.7494  1.3986 -2.9687
 2248SOL     OW15407   2.355   7.755   1.418  1.2322  0.3582 -0.0269
 2248SOL    HW115408   2.399   7.768   1.507  0.8141 -2.5945  0.6589
 2248SOL    HW215409   2.375   7.663   1.384 -0.7437  0.5503 -1.7850
 2249SOL     OW15410   1.487   3.418   0.723 -0.2268  0.1068 -0.1494
 2249SOL    HW115411   1.478   3.471   0.639  0.8452  2.0963  0.9383
 2249SOL    HW215412   1.568   3.448   0.773  1.4148 -3.7674 -0.2884
 2250SOL     OW15413   3.704   4.734   0.761  0.0359  0.5128 -0.0583
 2250SOL    HW115414   3.660   4.743   0.850 -0.5693  0.4932 -0.3545
 2250SOL    HW215415   3.801   4.760   0.769  0.2225 -0.4425  0.8092
 2251SOL     OW15416   9.141   2.604   1.207  0.1801 -0.0114 -0.2346
 2251SOL    HW115417   9.115   2.513   1.175  0.2532  0.0002 -0.3289
 2251SOL    HW215418   9.184   2.654   1.132 -0.9283  0.5283 -0.5139
 2253SOL     OW15419   2.183   0.972   0.543  0.3392  0.0757  0.0297
 2253SOL    HW115420   2.161   0.936   0.452 -0.6602  0.3215  0.1741
 2253SOL    HW215421   2.160   0.904   0.612  1.9183 -0.4600  0.0508
 2255SOL     OW15422   2.229   2.302   0.815  0.1443 -0.1304  0.3165
 2255SOL    HW115423   2.235   2.306   0.915 -1.1309 -0.7453  0.4350
 2255SOL    HW215424   2.165   2.230   0.789  2.5827 -1.8589 -1.0251
 2256SOL     OW15425   3.349   7.938   2.076  0.3221  0.4905  0.9832
 2256SOL    HW115426   3.250   7.939   2.084  0.3435 -0.1644  1.4091
 2256SOL    HW215427   3.378   7.997   2.001 -0.4078  0.4495  0.6710
 2259SOL     OW15428   3.892   4.162   2.016  0.2236  0.0592 -0.1742
 2259SOL    HW115429   3.833   4.242   2.028  0.2679 -0.1479  1.5545
 2259SOL    HW215430   3.960   4.160   2.090  0.5125 -1.3230 -0.4625
 2263SOL     OW15431   3.449   2.066   1.062  0.1705  0.1455 -0.2290
 2263SOL    HW115432   3.438   2.036   1.156 -2.3457 -0.6286 -0.7365
 2263SOL    HW215433   3.515   2.141   1.058  0.4402  0.0499  2.0969
 2264SOL     OW15434   2.249   3.391   0.700 -0.4316 -0.3589 -0.0146
 2264SOL    HW115435   2.346   3.364   0.700  0.0804  1.4503  1.1943
 2264SOL    HW215436   2.214   3.389   0.794 -0.9333  1.2648 -0.1660
 2265SOL     OW15437  10.428   9.530   1.611  0.6619  0.3843 -0.0419
 2265SOL    HW115438  10.358   9.510   1.680 -0.2045  0.5995 -0.8375
 2265SOL    HW215439  10.505   9.468   1.623 -1.1479 -2.2198 -1.2602
 2267SOL     OW15440   1.376   1.803   2.111 -0.0512 -0.2861  0.1780
 2267SOL    HW115441   1.398   1.866   2.036  0.1600  0.8987  1.2106
 2267SOL    HW215442   1.439   1.726   2.108  0.8793  0.4661 -0.0261
 2271SOL     OW15443   0.854   1.181   1.975 -0.1733  0.0859  0.0248
 2271SOL    HW115444   0.791   1.162   2.050 -1.3164 -0.3016 -1.0211
 2271SOL    HW215445   0.899   1.096   1.947 -1.4740 -0.1903 -1.2566
 2272SOL     OW15446   2.893   9.823   1.733 -0.2758  0.5219  0.0049
 2272SOL    HW115447   2.916   9.726   1.721  1.4885  1.0834 -1.2607
 2272SOL    HW215448   2.829   9.850   1.662 -1.0463  0.2043  0.5710
 2273SOL     OW15449   1.293   0.655   0.453  0.2322 -0.3432 -0.3342
 2273SOL    HW115450   1.194   0.662   0.467  0.3420 -0.5358  0.5795
 2273SOL    HW215451   1.311   0.613   0.364 -0.5303 -2.2560  0.3843
 2274SOL     OW15452   5.033   2.694   1.460 -0.6189  0.6433  0.6983
 2274SOL    HW115453   5.101   2.621   1.469 -0.9003  0.1719 -0.9036
 2274SOL    HW215454   5.031   2.747   1.545  1.4031  0.3705  0.9539
 2275SOL     OW15455   0.825   2.095   2.301 -0.2317  0.2239  0.1596
 2275SOL    HW115456   0.773   2.053   2.375  0.0136  0.8316  0.6751
 2275SOL    HW215457   0.763   2.147   2.242 -0.1600  1.2224  0.9613
 2276SOL     OW15458  10.059   1.923   1.189 -0.0795  0.3067 -0.7190
 2276SOL    HW115459  10.153   1.957   1.185  0.1520 -0.3537 -0.9965
 2276SOL    HW215460  10.001   1.989   1.236  1.1326 -0.6439  2.1802
 2277SOL     OW15461   4.379   3.653   0.998 -0.0186 -0.0463 -0.6054
 2277SOL    HW115462   4.372   3.562   0.958  0.4242  0.2936 -1.4729
 2277SOL    HW215463   4.426   3.714   0.934  1.1589  0.3750  0.6319
 2278SOL     OW15464   4.627   3.136   1.758  0.2333 -0.8547 -0.3530
 2278SOL    HW115465   4.622   3.068   1.831  0.3858 -0.0310  0.4311
 2278SOL    HW215466   4.591   3.224   1.791 -1.6318 -0.9921 -1.8892
 2279SOL     OW15467   1.108   3.308   0.549 -0.2827  0.2599  0.3262
 2279SOL    HW115468   1.122   3.272   0.457 -0.0736  1.9209 -0.3045
 2279SOL    HW215469   1.095   3.232   0.613  1.3195 -0.9754 -0.7814
 2280SOL     OW15470   2.134   8.169   1.775 -0.0547 -0.2177 -0.3445
 2280SOL    HW115471   2.203   8.193   1.842 -0.4668  1.1371 -0.3911
 2280SOL    HW215472   2.152   8.217   1.689  0.2461 -1.6365 -1.0955
 2281SOL     OW15473   4.463   1.761   1.261 -0.1185 -0.1571 -0.0040
 2281SOL    HW115474   4.374   1.765   1.215 -0.7269  0.4397  1.1970
 2281SOL    HW215475   4.534   1.738   1.195 -1.1955 -0.8217 -0.9370
 2283SOL     OW15476   4.004   4.402   1.883  0.2157 -0.6489  0.0971
 2283SOL    HW115477   4.068   4.388   1.808  0.4431 -1.3080  0.4091
 2283SOL    HW215478   3.970   4.313   1.915 -1.8086 -0.2623 -0.8842
 2286SOL     OW15479   2.664   3.073   0.982 -0.2810 -0.2441 -0.2525
 2286SOL    HW115480   2.737   3.007   0.963  2.2770  2.1906  0.6530
 2286SOL    HW215481   2.639   3.068   1.079 -0.0912  0.0794 -0.1846
 2287SOL     OW15482  10.203   6.622   0.361  0.3475 -0.4407 -0.1232
 2287SOL    HW115483  10.193   6.559   0.284 -2.3573 -1.6769  1.1627
 2287SOL    HW215484  10.112   6.651   0.392  1.4564  1.7115  1.2660
 2289SOL     OW15485   1.377   8.841   1.293 -0.1399 -0.2364 -0.6561
 2289SOL    HW115486   1.299   8.902   1.304  0.3193  0.2890 -0.3083
 2289SOL    HW215487   1.374   8.770   1.362 -0.8990 -0.8544 -1.3153
 2290SOL     OW15488   2.882   5.456   1.822 -0.2674 -0.1024  0.2128
 2290SOL    HW115489   2.833   5.530   1.867 -0.2794  0.5977 -0.9304
 2290SOL    HW215490   2.974   5.487   1.798 -0.1409 -0.5842  0.0608
 2291SOL     OW15491   1.094   6.933   1.096 -0.1175 -0.9471  0.3339
 2291SOL    HW115492   1.134   6.994   1.028 -0.7538 -0.2982  0.5407
 2291SOL    HW215493   1.164   6.869   1.129  0.8526  0.4167  0.9710
 2292SOL     OW15494   0.596   8.501   1.119  0.3314 -0.0929 -0.1941
 2292SOL    HW115495   0.661   8.575   1.105 -0.2433  0.3847 -0.3889
 2292SOL    HW215496   0.614   8.428   1.053 -1.0861  1.2676 -2.1592
 2293SOL     OW15497   1.933  10.167   1.096 -0.0606 -0.1106 -0.0006
 2293SOL    HW115498   1.843  10.132   1.068 -1.4093  1.1276  2.6156
 2293SOL    HW215499   1.940  10.264   1.072  0.0987  0.1044  0.9089
 2294SOL     OW15500   0.737   3.176   1.232 -0.1214 -0.3650  0.3297
 2294SOL    HW115501   0.808   3.106   1.236  0.8647  0.6544  0.9481
 2294SOL    HW215502   0.686   3.166   1.147  3.0845  1.1151 -1.8709
 2295SOL     OW15503   3.609   2.899   0.831 -0.2080  0.4115  0.1781
 2295SOL    HW115504   3.580   2.883   0.925 -2.0242 -0.0136 -0.4445
 2295SOL    HW215505   3.670   2.978   0.827  1.3439 -0.6468  1.9564
 2297SOL     OW15506   0.925   9.564   2.187 -0.9866  0.2136  0.5032
 2297SOL    HW115507   0.850   9.617   2.149  0.0052  0.4037 -1.2364
 2297SOL    HW215508   0.966   9.614   2.263 -2.0362  0.5090  0.8850
 2298SOL     OW15509   0.756   7.311   1.988  1.0339 -0.4845 -0.2978
 2298SOL    HW115510   0.658   7.296   1.978  0.9191 -0.9912  1.3402
 2298SOL    HW215511   0.806   7.255   1.923  0.2731 -1.2055 -0.2668
 2299SOL     OW15512   2.970   2.602   1.179 -0.5180  0.0427  0.2778
 2299SOL    HW115513   3.000   2.548   1.257 -0.1311  1.6231  1.2505
 2299SOL    HW215514   2.881   2.570   1.148 -0.7266 -0.5281  1.4457
 2301SOL     OW15515   1.975   0.336   1.558  0.4108  0.2505 -0.0279
 2301SOL    HW115516   2.045   0.404   1.582  0.5880  0.1918 -0.3752
 2301SOL    HW215517   1.945   0.288   1.641  2.6819 -1.5729 -0.2160
 2302SOL     OW15518   1.517   6.587   1.432 -0.0182  0.6161  0.1317
 2302SOL    HW115519   1.500   6.680   1.466  0.2913  1.2997 -1.5364
 2302SOL    HW215520   1.607   6.583   1.390 -0.5750 -0.0646 -1.0242
 2303SOL     OW15521   1.364   4.585   1.509  0.1343  0.1916 -0.1932
 2303SOL    HW115522   1.372   4.643   1.428  0.4041 -0.3791 -0.5782
 2303SOL    HW215523   1.283   4.527   1.500 -1.0025  1.5929  0.8914
 2304SOL     OW15524  10.126   2.175   1.057 -0.7054  0.4291 -0.6983
 2304SOL    HW115525  10.162   2.101   0.999  1.7412 -0.3262  1.6737
 2304SOL    HW215526  10.158   2.263   1.022  3.0043 -0.1756  0.8700
 2307SOL     OW15527   2.822   9.139   1.283 -0.0902  0.4822 -0.3617
 2307SOL    HW115528   2.915   9.150   1.247  0.7556  1.0533  1.9392
 2307SOL    HW215529   2.765   9.095   1.213  1.4765  1.5939 -2.4080
 2309SOL     OW15530   0.646   8.308   0.932  0.3329  0.2086  0.3829
 2309SOL    HW115531   0.606   8.236   0.987  1.9575 -1.2818 -0.3410
 2309SOL    HW215532   0.645   8.282   0.836  1.5158  0.8487  0.1835
 2311SOL     OW15533   3.184   5.056   1.774 -0.3426 -0.2110  0.1066
 2311SOL    HW115534   3.163   5.032   1.869 -1.8542  0.4756 -0.0542
 2311SOL    HW215535   3.238   4.982   1.733  1.9524  0.3065  2.0588
 2314SOL     OW15536   1.245   7.837   0.962  0.2433  0.3034 -0.0100
 2314SOL    HW115537   1.195   7.923   0.960  1.3834  0.9733  0.1029
 2314SOL    HW215538   1.242   7.799   1.054  0.6087  0.7280  0.1739
 2316SOL     OW15539   9.318   5.833   0.753 -0.3332 -0.9103 -0.6761
 2316SOL    HW115540   9.319   5.837   0.653 -2.4582 -0.1870 -0.6953
 2316SOL    HW215541   9.253   5.763   0.783 -1.1645  0.1930  0.1795
 2317SOL     OW15542   0.839   5.701   0.436 -0.6084  0.4716  0.9729
 2317SOL    HW115543   0.839   5.606   0.466 -1.0594  0.4017  0.7510
 2317SOL    HW215544   0.854   5.761   0.514 -0.9426  0.2510  1.2049
 2318SOL     OW15545   0.945   7.263   0.805  0.8647  0.0182 -0.1465
 2318SOL    HW115546   1.000   7.271   0.722  0.7225  1.7890 -0.0869
 2318SOL    HW215547   0.848   7.272   0.782  0.8743  1.5430  0.3071
 2319SOL     OW15548   3.563   4.411   0.459 -0.0948  0.2712 -0.2907
 2319SOL    HW115549   3.644   4.424   0.516 -1.0016  2.5117  0.5428
 2319SOL    HW215550   3.591   4.383   0.367  1.4165 -2.7790  1.0482
 2320SOL     OW15551   1.507   5.060   1.431  0.1026  0.2871 -0.2091
 2320SOL    HW115552   1.585   5.054   1.368 -0.2773 -0.3260 -0.6277
 2320SOL    HW215553   1.532   5.017   1.518  0.5816  1.0079  0.0127
 2321SOL     OW15554   0.717   5.356   0.377 -0.4764 -0.8764 -0.3234
 2321SOL    HW115555   0.755   5.397   0.460 -0.1534 -1.9057  0.0405
 2321SOL    HW215556   0.624   5.326   0.394 -1.4282  1.4519 -1.1567
 2324SOL     OW15557   9.543   1.545   1.031 -0.2715  0.1800 -0.4371
 2324SOL    HW115558   9.622   1.570   0.975 -0.3280 -0.6301 -0.8795
 2324SOL    HW215559   9.460   1.581   0.988 -0.2749 -0.1057 -0.6735
 2325SOL     OW15560   2.606   3.344   0.475 -0.4400  0.2377  0.4905
 2325SOL    HW115561   2.662   3.340   0.393  3.9065 -1.9250  3.3700
 2325SOL    HW215562   2.642   3.415   0.537 -0.9156 -1.0990  2.3528
 2326SOL     OW15563   3.701   4.347   2.038  0.5485  0.2614 -0.0418
 2326SOL    HW115564   3.618   4.299   2.007  0.3208  0.0179  0.9107
 2326SOL    HW215565   3.698   4.442   2.009 -0.6234  0.5475  0.9616
 2327SOL     OW15566  10.257   0.385   1.864 -0.0408 -0.0063  0.4092
 2327SOL    HW115567  10.351   0.361   1.887  0.0541 -0.1889 -0.1494
 2327SOL    HW215568  10.228   0.464   1.918  0.9675  1.0205 -0.5207
 2328SOL     OW15569   2.410   7.015   2.001 -0.3766 -0.3479  0.2126
 2328SOL    HW115570   2.457   6.987   1.917 -2.5637  1.3925 -1.6848
 2328SOL    HW215571   2.352   6.940   2.033  0.8266 -1.1884  0.4400
 2329SOL     OW15572   1.004   3.693   1.404 -0.7578 -0.0175 -0.1489
 2329SOL    HW115573   1.078   3.626   1.408 -0.7219  0.1125  1.5960
 2329SOL    HW215574   1.031   3.777   1.452 -1.4232  0.6466 -0.9053
 2330SOL     OW15575   1.748   6.572   1.713 -0.0224  0.1357  0.6072
 2330SOL    HW115576   1.651   6.576   1.693  0.4151 -0.4274 -1.7543
 2330SOL    HW215577   1.793   6.508   1.651  2.0128  1.1127  1.0135
 2331SOL     OW15578   9.794   1.483   0.965  0.3654  0.0962 -0.0197
 2331SOL    HW115579   9.864   1.468   0.896 -0.3286 -0.3588 -0.6299
 2331SOL    HW215580   9.761   1.395   0.999 -0.2984  0.2948 -0.1412
 2332SOL     OW15581   1.257   1.648   1.259 -0.5865  0.1719  0.0103
 2332SOL    HW115582   1.166   1.663   1.220 -0.2870 -3.1091 -2.1126
 2332SOL    HW215583   1.252   1.577   1.330  0.1059  0.9262  0.8281
 2334SOL     OW15584   2.617   5.546   2.238 -0.1528 -0.1642 -0.1897
 2334SOL    HW115585   2.650   5.469   2.293  1.5313 -0.0985 -1.0673
 2334SOL    HW215586   2.696   5.599   2.206 -1.2942  2.0779  0.6076
 2335SOL     OW15587   0.833   4.319   2.056  0.0610 -0.1225  0.2779
 2335SOL    HW115588   0.860   4.290   1.964 -0.0819  1.2652 -0.2117
 2335SOL    HW215589   0.875   4.407   2.077  0.9030 -0.9029  1.9449
 2336SOL     OW15590   2.482   5.932   0.995  0.1967 -0.1755  0.5879
 2336SOL    HW115591   2.540   5.883   0.930  0.9354  1.5731 -0.1148
 2336SOL    HW215592   2.387   5.900   0.985  0.7927 -2.0551  0.7768
 2337SOL     OW15593   2.004   3.457   0.582 -0.3186  0.0599  0.9156
 2337SOL    HW115594   2.098   3.458   0.615 -0.6651  1.2658  1.8746
 2337SOL    HW215595   2.003   3.451   0.482  0.8051  2.3806  0.7450
 2338SOL     OW15596   0.773   2.757   1.958 -0.3229  0.3239  0.1943
 2338SOL    HW115597   0.852   2.761   1.896 -1.1404  0.4367 -0.8422
 2338SOL    HW215598   0.702   2.818   1.925 -1.9101 -1.7689 -0.3459
 2339SOL     OW15599   4.565   1.383   0.625 -0.1774 -0.3001  0.0320
 2339SOL    HW115600   4.532   1.315   0.691  1.5562 -1.2969 -0.0889
 2339SOL    HW215601   4.664   1.372   0.612 -0.2911  0.6240 -1.8785
 2340SOL     OW15602   3.796   4.094   1.289 -0.5699  0.4267  0.8604
 2340SOL    HW115603   3.855   4.133   1.360 -2.2226 -0.0160  2.5305
 2340SOL    HW215604   3.706   4.139   1.292 -0.6742  0.3696 -0.9344
 2341SOL     OW15605   0.786   1.288   1.239  0.1225  0.0250 -0.0963
 2341SOL    HW115606   0.786   1.344   1.321  1.7912  0.5834 -0.4604
 2341SOL    HW215607   0.692   1.280   1.204 -0.2680  1.8304  0.4761
 2342SOL     OW15608   0.674   0.415   0.630  0.2589 -0.3007 -0.2574
 2342SOL    HW115609   0.722   0.349   0.688  1.3903 -1.0820 -2.0184
 2342SOL    HW215610   0.684   0.388   0.534 -0.3960  1.7069 -0.9170
 2343SOL     OW15611   0.884   8.238   1.918  0.3625  0.2043 -0.9987
 2343SOL    HW115612   0.898   8.142   1.943  0.2557  0.4140 -0.1016
 2343SOL    HW215613   0.968   8.274   1.877  0.7949  0.0475 -0.2677
 2345SOL     OW15614   0.464   3.757   1.029 -0.2136 -0.1331  0.2179
 2345SOL    HW115615   0.414   3.835   1.068 -2.9153 -2.4883  1.6023
 2345SOL    HW215616   0.558   3.785   1.009 -0.5933  2.9664  2.3943
 2346SOL     OW15617   9.242   2.570   0.341  0.0915 -0.2610 -0.2634
 2346SOL    HW115618   9.180   2.633   0.295 -1.1932 -2.6097 -1.8262
 2346SOL    HW215619   9.194   2.522   0.414  1.2755  1.0838  1.4551
 2348SOL     OW15620   2.233   6.627   2.342  0.2279  0.0304  0.1362
 2348SOL    HW115621   2.207   6.711   2.389  1.6223  0.5180  0.0465
 2348SOL    HW215622   2.150   6.578   2.312 -0.5888  1.1287  0.5864
 2349SOL     OW15623   4.283   4.419   0.427  0.3256  0.1370 -0.1016
 2349SOL    HW115624   4.217   4.493   0.437  0.1207 -0.1494  0.6711
 2349SOL    HW215625   4.263   4.367   0.344  0.3138  0.7839 -0.5081
 2350SOL     OW15626   1.848   3.337   1.924  0.1539  0.1705  0.2140
 2350SOL    HW115627   1.821   3.356   1.830  0.4090  1.3699  0.3793
 2350SOL    HW215628   1.822   3.414   1.983 -1.5717 -1.2964  1.4345
 2351SOL     OW15629   0.872   3.271   1.474 -0.4789  0.1977 -0.0486
 2351SOL    HW115630   0.836   3.298   1.385 -0.0556 -0.2484 -0.3536
 2351SOL    HW215631   0.897   3.353   1.526 -0.3167  0.4375 -0.5056
 2352SOL     OW15632   9.765   4.178   1.381  1.1056 -0.2080  0.4250
 2352SOL    HW115633   9.701   4.113   1.341 -0.1069  1.8679 -1.1076
 2352SOL    HW215634   9.844   4.189   1.321  1.0150  0.1884  0.3741
 2353SOL     OW15635  10.100   0.536   1.337 -0.2864 -0.3610 -0.3854
 2353SOL    HW115636  10.112   0.494   1.427 -0.7752 -1.2913 -0.7447
 2353SOL    HW215637  10.081   0.465   1.269 -1.1054  0.4341 -1.0122
 2355SOL     OW15638   1.510   1.471   0.876  0.4393  0.3963 -0.1235
 2355SOL    HW115639   1.531   1.422   0.960 -3.0401  0.9816  1.1647
 2355SOL    HW215640   1.494   1.567   0.897  0.6224  0.7626 -1.6231
 2357SOL     OW15641   0.793   6.477   1.851  0.2309 -0.8307  0.3590
 2357SOL    HW115642   0.772   6.543   1.779 -1.3430 -2.5346 -0.7705
 2357SOL    HW215643   0.874   6.423   1.825 -0.8253 -2.0064 -0.5386
 2358SOL     OW15644   0.572   5.232   1.536  0.5039 -0.3822 -0.4537
 2358SOL    HW115645   0.559   5.203   1.441 -0.6703 -0.6425 -0.2184
 2358SOL    HW215646   0.597   5.328   1.539  1.5084 -0.6175 -1.0777
 2359SOL     OW15647   3.507   8.357   1.632 -0.6979  0.2344  0.6648
 2359SOL    HW115648   3.553   8.446   1.637  0.8838 -0.6448  2.4826
 2359SOL    HW215649   3.559   8.296   1.573 -0.7843 -0.0321  0.8618
 2360SOL     OW15650  10.121   3.236   0.932 -0.5418  0.3163 -0.0019
 2360SOL    HW115651  10.117   3.139   0.908  2.6916  1.0813 -4.2848
 2360SOL    HW215652  10.179   3.247   1.013  1.3971 -1.2075 -1.1106
 2361SOL     OW15653  10.047   0.391   1.125 -0.4630 -0.4919 -0.5816
 2361SOL    HW115654  10.126   0.376   1.066 -0.0693 -1.7366  0.2370
 2361SOL    HW215655   9.964   0.363   1.077 -0.6621  2.7416 -2.2111
 2362SOL     OW15656   9.018   2.883   1.905  0.0519  0.4892 -0.5027
 2362SOL    HW115657   8.987   2.959   1.962  2.8152  0.8405  0.6181
 2362SOL    HW215658   9.084   2.916   1.838  0.1941 -0.7034 -0.9582
 2363SOL     OW15659   0.788   8.746   0.692 -0.1207 -0.2724 -0.5844
 2363SOL    HW115660   0.854   8.698   0.750  0.2764  0.0201 -0.7914
 2363SOL    HW215661   0.815   8.736   0.597 -0.3745 -0.1482 -0.6680
 2364SOL     OW15662   2.942   8.549   1.395  0.2833  0.2995 -0.2889
 2364SOL    HW115663   2.900   8.486   1.461  1.3218  0.8177  0.8979
 2364SOL    HW215664   2.886   8.553   1.313 -1.3134  0.0369  0.7564
 2366SOL     OW15665   1.028   6.742   1.506 -0.1217 -0.0946  0.2414
 2366SOL    HW115666   1.092   6.680   1.461 -0.8319 -0.1152 -0.7582
 2366SOL    HW215667   1.069   6.833   1.512 -0.7917  0.4285 -2.3284
 2367SOL     OW15668   2.216   4.430   0.865 -0.1943  0.6176  0.2444
 2367SOL    HW115669   2.205   4.526   0.893 -0.0477  0.9386 -0.7945
 2367SOL    HW215670   2.168   4.414   0.779  1.4344  0.2706 -0.6351
 2368SOL     OW15671   4.848   2.387   1.889 -0.0400 -0.0756  0.9331
 2368SOL    HW115672   4.941   2.361   1.863  0.4823  0.2109  2.4445
 2368SOL    HW215673   4.791   2.305   1.897 -0.2193 -0.1581 -1.1050
 2369SOL     OW15674   1.132   2.527   2.190 -0.0536  0.7286  0.0954
 2369SOL    HW115675   1.179   2.533   2.102 -0.0010  1.0696  0.1440
 2369SOL    HW215676   1.155   2.440   2.235  0.2669  0.7482 -0.0310
 2370SOL     OW15677   3.043   7.085   2.284 -0.1930  0.0514  0.2338
 2370SOL    HW115678   3.085   7.120   2.367  1.1751  0.3141 -0.5629
 2370SOL    HW215679   3.040   6.985   2.287 -0.8465  0.0822  0.9228
 2373SOL     OW15680   9.931   0.638   0.518 -0.3406 -0.0603 -0.1375
 2373SOL    HW115681  10.024   0.645   0.483 -0.8460 -2.2750 -2.0801
 2373SOL    HW215682   9.897   0.545   0.504 -4.0362  1.5390 -2.6377
 2374SOL     OW15683   2.285   3.529   1.991 -0.2503 -0.4313  0.2570
 2374SOL    HW115684   2.199   3.576   2.006 -0.0569 -0.6514  2.2045
 2374SOL    HW215685   2.313   3.482   2.075  1.7729 -0.3418 -0.3316
 2375SOL     OW15686   8.923   2.648   2.050 -0.3213  0.3165 -0.3299
 2375SOL    HW115687   8.993   2.620   2.116  0.8663  0.7227 -1.3961
 2375SOL    HW215688   8.955   2.727   1.999 -1.7783  0.8120 -0.5041
 2376SOL     OW15689   4.371   4.498   1.608 -0.0678  0.3550 -0.3288
 2376SOL    HW115690   4.424   4.583   1.602  0.7392 -0.1464 -0.3621
 2376SOL    HW215691   4.316   4.488   1.525  1.2764 -0.0872 -1.1929
 2377SOL     OW15692   1.140   8.343   2.258  0.7399 -0.6321 -0.0459
 2377SOL    HW115693   1.051   8.323   2.300  0.5455  0.2801 -0.0062
 2377SOL    HW215694   1.153   8.283   2.179  0.9219 -2.0656  1.0344
 2378SOL     OW15695   2.927   3.375   1.026 -0.0877 -0.0533 -0.4260
 2378SOL    HW115696   2.844   3.399   0.975 -1.3833 -0.2550  1.4958
 2378SOL    HW215697   2.952   3.452   1.085 -0.9081 -1.1933  1.4889
 2379SOL     OW15698   3.755   9.302   1.024 -0.1807 -0.2602 -0.4504
 2379SOL    HW115699   3.814   9.302   1.105 -1.0766 -1.3287  0.2258
 2379SOL    HW215700   3.739   9.396   0.994  0.3920  0.1279  0.4549
 2380SOL     OW15701   2.245   5.792   0.828 -0.2697  0.0759 -0.5894
 2380SOL    HW115702   2.211   5.880   0.794  0.2372  0.3270 -0.4529
 2380SOL    HW215703   2.258   5.730   0.751  0.4897  0.5124 -0.8201
 2381SOL     OW15704   1.804   9.816   1.385 -0.3264 -0.0068 -0.1905
 2381SOL    HW115705   1.751   9.858   1.311  0.3326 -1.8276 -1.7246
 2381SOL    HW215706   1.874   9.757   1.346  1.0883  0.2771  1.8854
 2383SOL     OW15707   9.858   3.002   2.327 -0.0863  0.5684 -0.1452
 2383SOL    HW115708   9.910   2.938   2.384  0.0140  1.1955  0.4686
 2383SOL    HW215709   9.790   3.049   2.383 -0.8281  0.2845 -0.8006
 2384SOL     OW15710   3.358   3.829   0.961 -0.0728  0.1325 -0.2162
 2384SOL    HW115711   3.321   3.920   0.939 -0.9461 -0.0707  0.4183
 2384SOL    HW215712   3.453   3.839   0.990 -0.4268  0.9404  0.6921
 2385SOL     OW15713   9.679   3.419   1.769 -0.6413 -0.3764  0.4291
 2385SOL    HW115714   9.683   3.482   1.691  1.1506  0.2810  1.0304
 2385SOL    HW215715   9.677   3.470   1.854 -1.0900 -1.1115  0.8639
 2386SOL     OW15716   2.810   5.851   0.643 -0.3092 -0.0157  0.2200
 2386SOL    HW115717   2.740   5.799   0.693 -1.4694  1.6432  0.3593
 2386SOL    HW215718   2.807   5.947   0.672  0.3944  0.5596 -1.5647
 2387SOL     OW15719   3.740  10.116   1.211 -0.1111  0.1194 -0.2248
 2387SOL    HW115720   3.676  10.122   1.135 -1.5888 -0.7488  0.9163
 2387SOL    HW215721   3.705  10.052   1.280  2.4417 -1.1209  0.0008
 2388SOL     OW15722   2.304   8.352   0.986  0.2431  0.0516 -0.4920
 2388SOL    HW115723   2.261   8.406   0.914  0.3383 -0.1368 -0.6890
 2388SOL    HW215724   2.237   8.333   1.058  0.0184 -0.1730 -0.7597
 2389SOL     OW15725   3.199   8.073   1.296 -0.1411  0.2495  0.5129
 2389SOL    HW115726   3.216   8.140   1.369  0.8930  0.3199  0.2203
 2389SOL    HW215727   3.216   8.115   1.207 -1.2579  0.1164  0.2396
 2391SOL     OW15728   4.632   2.556   1.784 -0.2357 -0.3400 -0.3592
 2391SOL    HW115729   4.722   2.513   1.777  0.1207  0.6139 -1.9263
 2391SOL    HW215730   4.606   2.565   1.880  0.8116 -1.7086  0.0570
 2392SOL     OW15731   1.082   5.354   1.406  0.1075 -0.2302 -0.0647
 2392SOL    HW115732   1.023   5.329   1.483  0.6169  0.0988  0.4373
 2392SOL    HW215733   1.094   5.275   1.346 -0.5881 -0.3850 -0.0022
 2393SOL     OW15734   3.366   8.636   2.050  0.1019 -0.4250  0.0715
 2393SOL    HW115735   3.412   8.549   2.034 -1.9227 -1.1004 -2.3451
 2393SOL    HW215736   3.309   8.629   2.132  1.0383 -0.8872  0.6949
 2394SOL     OW15737  10.376   5.500   1.569 -0.1661 -0.4973 -0.0467
 2394SOL    HW115738  10.465   5.497   1.522 -2.2682 -3.8467 -4.1344
 2394SOL    HW215739  10.370   5.421   1.631  0.0491  0.2430  0.9193
 2395SOL     OW15740   9.677   5.640   1.442 -0.6405 -0.2566  0.2958
 2395SOL    HW115741   9.586   5.603   1.457 -0.7352 -0.1129  0.0733
 2395SOL    HW215742   9.713   5.606   1.354 -0.6489  0.0274  0.1833
 2397SOL     OW15743   1.195   4.879   1.570  0.2356  0.2153 -0.2349
 2397SOL    HW115744   1.185   4.780   1.560 -1.1579  0.2955  0.1875
 2397SOL    HW215745   1.203   4.902   1.667  0.1122  0.5511 -0.3031
 2398SOL     OW15746   4.392   2.643   1.716  0.2268 -0.4494 -0.4989
 2398SOL    HW115747   4.479   2.593   1.715 -1.2579 -3.1121 -0.5934
 2398SOL    HW215748   4.355   2.647   1.623  0.9327  1.9682 -0.7047
 2401SOL     OW15749  10.360   3.212   1.866 -0.0000  0.4437  0.5681
 2401SOL    HW115750  10.287   3.280   1.873 -0.5937 -0.1524  0.2737
 2401SOL    HW215751  10.437   3.251   1.815 -0.8671  0.4764 -0.7685
 2402SOL     OW15752   2.389   7.260   2.345  0.0007 -0.7770  0.2965
 2402SOL    HW115753   2.357   7.214   2.427 -0.6567 -1.4252 -0.3168
 2402SOL    HW215754   2.340   7.347   2.335 -2.0279 -2.0237 -0.9409
 2405SOL     OW15755   3.440   0.586   2.342 -0.3811 -0.2337  0.0989
 2405SOL    HW115756   3.469   0.536   2.260  0.6629 -0.5414  0.6526
 2405SOL    HW215757   3.343   0.609   2.334 -0.9672 -2.6089 -0.0256
 2406SOL     OW15758   9.522   1.962   0.458 -0.0174 -0.7723  0.3958
 2406SOL    HW115759   9.565   2.047   0.485 -1.5627 -0.2553  1.2630
 2406SOL    HW215760   9.454   1.980   0.386  0.2944 -1.3962 -0.0633
 2407SOL     OW15761   0.889   4.353   1.163 -0.2865  0.7102  0.0937
 2407SOL    HW115762   0.922   4.415   1.092  0.8473  0.1218  0.0879
 2407SOL    HW215763   0.871   4.263   1.123 -3.3240  1.3842 -0.1968
 2408SOL     OW15764   2.732   4.513   0.886 -0.3953 -0.7687 -0.1695
 2408SOL    HW115765   2.656   4.452   0.906 -0.4850 -0.4673  0.4135
 2408SOL    HW215766   2.803   4.463   0.837 -0.9307 -1.0739 -0.6357
 2409SOL     OW15767   4.238  10.005   1.088  0.5090 -0.7132 -0.5785
 2409SOL    HW115768   4.270   9.913   1.068 -1.0565 -1.4240  0.0515
 2409SOL    HW215769   4.154  10.022   1.036  0.4725  0.1437 -0.2367
 2410SOL     OW15770   2.413   4.608   1.056  0.3707 -0.3864  0.2519
 2410SOL    HW115771   2.444   4.535   0.996 -1.1388 -0.4375 -0.4691
 2410SOL    HW215772   2.474   4.687   1.046  0.2975 -0.4942 -1.1515
 2411SOL     OW15773   2.472  10.051   1.206  0.7830  0.1186  0.4234
 2411SOL    HW115774   2.486  10.040   1.107 -0.6119  3.3171 -0.1621
 2411SOL    HW215775   2.400   9.989   1.236 -1.1767  1.5093 -1.2386
 2413SOL     OW15776   3.125   8.712   1.516 -0.1591  0.4829  0.0526
 2413SOL    HW115777   3.057   8.651   1.476  0.5979 -0.8737  0.7920
 2413SOL    HW215778   3.125   8.702   1.616  1.2642  0.2958  0.0498
 2414SOL     OW15779   1.298   9.240   1.347 -0.3210  0.8418 -0.1633
 2414SOL    HW115780   1.269   9.211   1.255 -0.9111 -1.0100  0.5783
 2414SOL    HW215781   1.305   9.340   1.350 -0.9557  0.9676 -2.0200
 2417SOL     OW15782   2.342   5.340   1.413  0.1031 -0.7374 -0.5944
 2417SOL    HW115783   2.401   5.402   1.361 -0.0776 -0.1030 -0.0455
 2417SOL    HW215784   2.304   5.388   1.492 -1.2287 -1.1049 -0.9942
 2418SOL     OW15785   1.549   1.358   1.128 -0.4098  0.0885  0.0989
 2418SOL    HW115786   1.599   1.274   1.150  1.4398  1.2908  0.5869
 2418SOL    HW215787   1.451   1.338   1.123  0.1837 -2.5172 -1.8846
 2419SOL     OW15788   2.433   7.102   0.391 -0.2200 -0.7748 -0.0357
 2419SOL    HW115789   2.335   7.118   0.405 -0.0029 -0.6083  1.3917
 2419SOL    HW215790   2.445   7.026   0.328 -1.2734 -0.4670 -0.6184
 2420SOL     OW15791   3.263   3.790   0.709  0.0836  0.1294 -0.5871
 2420SOL    HW115792   3.310   3.773   0.796 -1.8499 -1.4358  0.1871
 2420SOL    HW215793   3.301   3.731   0.638  0.2231 -0.1272 -0.2959
 2421SOL     OW15794   1.602   4.847   2.341  0.1850  0.2839  0.3567
 2421SOL    HW115795   1.541   4.912   2.295  0.2144 -0.4068 -0.6766
 2421SOL    HW215796   1.565   4.754   2.331  0.5235  0.0563  1.1948
 2422SOL     OW15797   4.622   3.567   0.360 -0.2140 -0.2441  0.1449
 2422SOL    HW115798   4.612   3.471   0.334  0.7112 -0.0358 -1.0251
 2422SOL    HW215799   4.695   3.576   0.427 -0.3818 -0.3738  0.3446
 2423SOL     OW15800   2.402   8.422   0.684  0.2423  0.1954  0.1738
 2423SOL    HW115801   2.465   8.409   0.608 -0.4622  0.0092 -0.3774
 2423SOL    HW215802   2.361   8.334   0.709 -0.0280  0.3686  0.3411
 2424SOL     OW15803   0.636   9.332   0.527 -0.3053  0.5566  0.0529
 2424SOL    HW115804   0.536   9.341   0.529 -0.1228  3.1703 -1.3088
 2424SOL    HW215805   0.677   9.416   0.491  2.4545 -0.1446  1.4275
 2425SOL     OW15806   2.791   4.401   1.208  0.4824 -0.5110 -0.4865
 2425SOL    HW115807   2.830   4.401   1.116 -0.1299  1.5402 -0.7881
 2425SOL    HW215808   2.705   4.352   1.208 -0.8580  1.7340 -1.6700
 2426SOL     OW15809   2.696   7.102   1.318 -0.3406  0.2736  0.3293
 2426SOL    HW115810   2.789   7.074   1.344  0.1233  1.5865  0.0924
 2426SOL    HW215811   2.646   7.022   1.283  0.6028 -0.4982  0.7161
 2427SOL     OW15812   4.573   4.237   0.716 -0.1361 -0.7652 -0.4359
 2427SOL    HW115813   4.479   4.269   0.729  0.0712 -0.5044  0.5126
 2427SOL    HW215814   4.622   4.246   0.803  0.6840 -1.1547 -0.8635
 2428SOL     OW15815   1.395   8.188   1.488  0.0045  0.1675 -1.1329
 2428SOL    HW115816   1.477   8.130   1.492 -0.2655 -0.0792  2.0999
 2428SOL    HW215817   1.423   8.284   1.494  0.0388  0.0267  2.0417
 2429SOL     OW15818   2.780   5.806   1.211 -0.4514  0.0742  0.2781
 2429SOL    HW115819   2.808   5.723   1.163  0.0980 -0.6306  1.7705
 2429SOL    HW215820   2.809   5.886   1.159  1.8878 -0.6604  0.3936
 2430SOL     OW15821  10.396   5.120   1.017 -0.1534 -0.2673 -0.0356
 2430SOL    HW115822  10.447   5.108   0.932  1.4593 -1.1603  1.0182
 2430SOL    HW215823  10.315   5.175   1.000  0.0912 -0.5196 -2.1688
 2431SOL     OW15824   1.872   6.236   2.266 -0.4013 -0.3391 -0.1364
 2431SOL    HW115825   1.868   6.231   2.166 -1.0506  0.4959 -0.1581
 2431SOL    HW215826   1.818   6.162   2.305  0.9314 -1.4649 -0.3935
 2432SOL     OW15827   0.460   5.247   0.388 -1.0473 -0.1682 -0.4477
 2432SOL    HW115828   0.364   5.245   0.359 -1.3259 -1.0145  0.4895
 2432SOL    HW215829   0.484   5.159   0.430  0.1612  0.0140 -0.7393
 2433SOL     OW15830   0.757  10.262   0.848  0.9310  0.1525  0.1527
 2433SOL    HW115831   0.852  10.252   0.877  1.2025  2.1404  0.0453
 2433SOL    HW215832   0.701  10.286   0.927  0.6911 -0.0201  0.0355
 2434SOL     OW15833   3.250   9.705   0.754  0.0969 -0.1129 -0.2277
 2434SOL    HW115834   3.269   9.801   0.733  0.3732 -0.0676  0.2151
 2434SOL    HW215835   3.336   9.656   0.767 -0.0602 -0.1775  0.6060
 2435SOL     OW15836  10.307   4.871   1.065  0.1776  0.4154  0.3407
 2435SOL    HW115837  10.339   4.966   1.059 -0.2950  0.5089 -1.0156
 2435SOL    HW215838  10.214   4.865   1.029  0.8644 -0.8525 -1.3018
 2436SOL     OW15839   3.193   2.091   0.963 -0.2000  0.8901  0.0026
 2436SOL    HW115840   3.154   2.168   1.014 -1.8010 -1.1461  1.9858
 2436SOL    HW215841   3.292   2.088   0.977 -0.5197  0.7568  2.5184
 2437SOL     OW15842   1.729   5.830   0.996  0.0029  0.4578 -0.0442
 2437SOL    HW115843   1.718   5.928   0.976  1.3559  0.5088 -0.6250
 2437SOL    HW215844   1.655   5.779   0.953 -0.2974  1.1570 -0.3800
 2441SOL     OW15845   1.360   2.100   1.822  0.5491  0.1216  0.5621
 2441SOL    HW115846   1.342   2.125   1.918  0.5289 -1.5928  1.0288
 2441SOL    HW215847   1.425   2.024   1.819 -0.6785 -0.9078 -0.7153
 2442SOL     OW15848   4.659   2.297   1.224  0.0377 -0.4279  0.0147
 2442SOL    HW115849   4.611   2.315   1.310 -1.0231 -0.0204 -0.6694
 2442SOL    HW215850   4.616   2.220   1.177 -0.2766  0.2905 -0.8673
 2443SOL     OW15851   0.627   4.204   1.539 -0.0792 -0.7401  0.6057
 2443SOL    HW115852   0.561   4.249   1.599  0.3373 -0.5089  0.8999
 2443SOL    HW215853   0.591   4.199   1.446  0.4149  1.4250  0.2676
 2444SOL     OW15854   2.989   1.898   1.451  0.2205 -0.3259 -0.6518
 2444SOL    HW115855   2.949   1.939   1.368 -1.6012  0.0050  0.3500
 2444SOL    HW215856   2.920   1.897   1.523  1.7567 -0.7209  0.8326
 2445SOL     OW15857   1.548   7.540   1.752 -0.2334 -0.2374  0.2015
 2445SOL    HW115858   1.595   7.621   1.786  0.0870  0.4527 -1.7849
 2445SOL    HW215859   1.449   7.556   1.753 -0.1857  0.0629  0.1179
 2447SOL     OW15860   9.729   6.273   1.261 -0.6392  0.0121  0.1831
 2447SOL    HW115861   9.824   6.297   1.243 -0.0823 -0.1988  2.7129
 2447SOL    HW215862   9.692   6.221   1.183  1.1524  0.5317 -1.0170
 2448SOL     OW15863   3.275   4.224   0.715  0.0868 -0.1240  0.2079
 2448SOL    HW115864   3.248   4.308   0.668  2.0114  0.6119  0.3770
 2448SOL    HW215865   3.233   4.145   0.670  2.2425  0.5091 -3.0524
 2451SOL     OW15866   9.211   4.532   1.009 -0.0533 -0.2231 -0.2435
 2451SOL    HW115867   9.119   4.557   1.041 -0.6201 -1.0606 -1.2032
 2451SOL    HW215868   9.262   4.490   1.084  0.8018  3.3838  1.3338
 2453SOL     OW15869   0.880   7.919   0.514 -0.0485 -0.6871 -0.5226
 2453SOL    HW115870   0.967   7.872   0.502  0.7130  0.9124 -1.4734
 2453SOL    HW215871   0.896   8.004   0.565 -1.1380 -0.6452 -0.2489
 2455SOL     OW15872   9.666   2.982   0.500  0.1474 -0.3099 -0.2349
 2455SOL    HW115873   9.686   3.024   0.589 -1.5900  1.0274 -0.4540
 2455SOL    HW215874   9.573   2.946   0.501 -0.0707  0.2227 -1.7238
 2456SOL     OW15875   1.774   8.706   1.822  0.2043 -0.1046 -0.1587
 2456SOL    HW115876   1.805   8.612   1.840 -0.7657 -0.4549 -0.3340
 2456SOL    HW215877   1.677   8.706   1.800  0.2212  0.9372 -0.2557
 2457SOL     OW15878   9.843   3.015   1.558 -0.3224 -0.2557 -0.7685
 2457SOL    HW115879   9.924   3.012   1.499 -1.7554 -0.9699 -2.7976
 2457SOL    HW215880   9.836   3.105   1.601  2.0223 -0.4846  0.1659
 2458SOL     OW15881   4.554   2.957   2.227 -0.4017  0.7715 -0.1727
 2458SOL    HW115882   4.569   2.958   2.128  0.0585  2.2131 -0.1006
 2458SOL    HW215883   4.508   3.041   2.255  0.8957  1.0958  1.0551
 2459SOL     OW15884   0.726   2.092   1.087  0.2285  0.3387 -0.5016
 2459SOL    HW115885   0.667   2.014   1.108  0.7128  0.3708  1.0650
 2459SOL    HW215886   0.816   2.079   1.130  0.3230  1.7395 -0.2379
 2461SOL     OW15887   2.198   9.007   2.106  0.1476 -0.6162  0.4502
 2461SOL    HW115888   2.285   9.051   2.125  0.0808 -0.5993  0.7191
 2461SOL    HW215889   2.164   8.961   2.188 -0.9515  0.8733  0.8564
 2462SOL     OW15890   3.336   4.828   1.690  0.2520 -0.5610 -0.0943
 2462SOL    HW115891   3.432   4.804   1.681  0.3919 -0.7776  1.7758
 2462SOL    HW215892   3.292   4.827   1.600  2.1842  0.3835 -1.0585
 2463SOL     OW15893   3.527   1.370   2.020  0.4402 -0.0699 -0.3062
 2463SOL    HW115894   3.553   1.432   1.946 -1.2471 -0.8450 -1.5646
 2463SOL    HW215895   3.592   1.294   2.025 -0.8840 -1.4121 -2.7192
 2466SOL     OW15896   3.134   2.971   1.235 -0.1349 -0.0605  0.2823
 2466SOL    HW115897   3.215   2.928   1.195 -0.5696 -0.4936 -0.1413
 2466SOL    HW215898   3.106   2.922   1.318 -0.2840 -0.2475  0.1235
 2467SOL     OW15899   2.659   7.350   1.981 -0.0940 -0.0692 -0.4656
 2467SOL    HW115900   2.704   7.325   1.895 -0.3637 -0.3297 -0.5314
 2467SOL    HW215901   2.695   7.295   2.055  0.6930  0.6889 -0.2727
 2468SOL     OW15902   2.660   6.409   1.412  0.0243 -0.5622 -0.0449
 2468SOL    HW115903   2.719   6.431   1.334 -1.3201 -0.7250 -1.1218
 2468SOL    HW215904   2.647   6.310   1.416  0.5177 -0.6058  0.7242
 2469SOL     OW15905   2.520   3.769   1.345  0.2230 -0.2396 -0.2054
 2469SOL    HW115906   2.559   3.850   1.389  2.0481 -1.0319 -0.2924
 2469SOL    HW215907   2.435   3.793   1.299  0.4410  1.4943  0.2727
 2471SOL     OW15908   0.902   0.832   0.655 -0.3810  0.8773 -0.1768
 2471SOL    HW115909   0.901   0.900   0.582 -0.7425  1.4243  0.3334
 2471SOL    HW215910   0.981   0.846   0.714  1.4531 -1.2564 -2.0191
 2472SOL     OW15911   4.583   1.715   1.630  0.2746  0.2240  0.0236
 2472SOL    HW115912   4.676   1.690   1.656  0.5546  1.0285 -0.2197
 2472SOL    HW215913   4.548   1.647   1.564  0.8438  0.1696 -0.2239
 2473SOL     OW15914   4.489   2.627   1.013  0.6457  0.2174 -0.7447
 2473SOL    HW115915   4.575   2.628   1.064  0.6794 -0.9960 -0.7703
 2473SOL    HW215916   4.482   2.542   0.962 -1.1907 -0.2616  0.2837
 2474SOL     OW15917   2.721   1.176   0.356  0.4556 -0.3726  0.0817
 2474SOL    HW115918   2.692   1.091   0.401  0.0628 -0.3255 -0.0808
 2474SOL    HW215919   2.781   1.227   0.418  0.9642 -0.9259  0.0508
 2475SOL     OW15920   1.814   5.346   1.797 -0.1609 -0.6640  0.0773
 2475SOL    HW115921   1.855   5.368   1.885  0.5895  0.7198 -0.6001
 2475SOL    HW215922   1.800   5.247   1.790 -1.0135 -0.7101  2.0746
 2476SOL     OW15923   1.250  10.090   0.995 -0.0265  0.4552 -0.1670
 2476SOL    HW115924   1.219  10.099   1.090 -1.5748 -0.2298 -0.5892
 2476SOL    HW215925   1.340  10.046   0.993  0.4370  1.3324  1.0231
 2477SOL     OW15926   2.250   0.722   2.112  0.1073  0.0169  0.4271
 2477SOL    HW115927   2.272   0.816   2.087 -1.1101  0.1412 -0.2278
 2477SOL    HW215928   2.224   0.718   2.208 -2.2700  0.8082 -0.1443
 2479SOL     OW15929   0.711   8.444   1.386  0.2251 -0.5840  0.3069
 2479SOL    HW115930   0.664   8.357   1.400 -0.2263 -0.2050  1.1393
 2479SOL    HW215931   0.693   8.477   1.294  0.4261 -1.3819 -0.0275
 2480SOL     OW15932  10.148   4.632   1.886 -0.2224  0.0460  0.3132
 2480SOL    HW115933  10.149   4.642   1.985  1.0592 -0.1730  0.3396
 2480SOL    HW215934  10.228   4.678   1.847 -0.4250 -0.3283 -0.5667
 2481SOL     OW15935   3.069   4.425   1.174  0.5385 -0.1671  0.4998
 2481SOL    HW115936   3.055   4.522   1.157  2.6232  0.1167  0.1923
 2481SOL    HW215937   3.027   4.399   1.260 -0.3755  0.9240  0.3859
 2483SOL     OW15938   1.440   4.278   1.858  0.1800  0.2578 -0.0641
 2483SOL    HW115939   1.394   4.206   1.807  0.1590  0.3138 -0.1236
 2483SOL    HW215940   1.478   4.346   1.795  0.2821  0.2494 -0.0126
 2484SOL     OW15941   2.603   0.927   0.868  0.5658 -0.0400  0.1920
 2484SOL    HW115942   2.632   0.832   0.853  0.8379 -0.1758  1.5409
 2484SOL    HW215943   2.560   0.935   0.958 -2.1585  0.5055 -1.1258
 2485SOL     OW15944   9.729   5.702   2.250  0.3928 -0.6594 -0.1049
 2485SOL    HW115945   9.670   5.666   2.177  0.9578  0.0915 -0.9408
 2485SOL    HW215946   9.811   5.742   2.209  0.1572  0.8559  0.8667
 2486SOL     OW15947   1.746   4.826   1.906 -0.2683  0.0384 -0.1265
 2486SOL    HW115948   1.762   4.834   2.004 -0.8493  0.4234 -0.0654
 2486SOL    HW215949   1.796   4.746   1.871 -1.4868 -1.1398  0.7946
 2487SOL     OW15950   3.065   1.284   2.133 -0.3571 -0.3153 -0.5983
 2487SOL    HW115951   3.045   1.210   2.197 -0.9017 -0.0271 -0.4332
 2487SOL    HW215952   3.018   1.367   2.162 -1.4130 -0.4362 -1.9158
 2488SOL     OW15953   2.613   8.309   1.427 -0.1442 -0.1234 -0.1221
 2488SOL    HW115954   2.562   8.339   1.346  0.9471  0.2758 -0.6647
 2488SOL    HW215955   2.597   8.211   1.441  0.0185 -0.2926 -1.0812
 2489SOL     OW15956   0.857   8.221   0.561  0.2009 -0.3744 -0.2835
 2489SOL    HW115957   0.882   8.203   0.466 -0.3040  1.0717 -0.7017
 2489SOL    HW215958   0.768   8.266   0.565  0.5584  0.2707  0.8297
 2490SOL     OW15959   3.652   5.118   0.895  0.3313 -0.1621 -0.2977
 2490SOL    HW115960   3.666   5.149   0.989  2.4538 -4.3078  0.8495
 2490SOL    HW215961   3.561   5.078   0.886 -0.2986  1.2549 -0.3250
 2491SOL     OW15962   3.408   9.407   1.312 -0.2933 -1.0056  0.6151
 2491SOL    HW115963   3.382   9.311   1.317  1.9875 -1.6757  0.4043
 2491SOL    HW215964   3.497   9.420   1.357  0.3781  0.6159 -1.0985
 2492SOL     OW15965   2.069   2.991   2.199  0.7415  0.3283 -0.8326
 2492SOL    HW115966   2.132   3.029   2.267  0.5003 -1.1221  0.2280
 2492SOL    HW215967   2.111   2.911   2.155  1.0514  1.4802 -2.6952
 2493SOL     OW15968   1.772   5.792   0.389  0.1244  0.3435 -0.0922
 2493SOL    HW115969   1.726   5.786   0.301 -0.9457  0.0558  0.4795
 2493SOL    HW215970   1.828   5.710   0.404 -0.4173 -0.0319 -0.1090
 2494SOL     OW15971   1.259   6.339   0.339 -0.2849  0.2500  0.3287
 2494SOL    HW115972   1.164   6.345   0.371 -1.2004 -0.0666 -2.1991
 2494SOL    HW215973   1.283   6.424   0.292  0.5826  0.1921  0.6614
 2495SOL     OW15974   1.005   9.851   1.565 -0.0726  0.4038  0.3087
 2495SOL    HW115975   1.076   9.781   1.570 -0.1579  0.2671 -0.3786
 2495SOL    HW215976   1.042   9.939   1.596  0.3002  0.2620  0.2634
 2496SOL     OW15977   3.650   1.207   2.219  0.1138 -1.3157  0.5472
 2496SOL    HW115978   3.681   1.163   2.303 -0.2543  0.0783  1.4334
 2496SOL    HW215979   3.689   1.299   2.213 -2.6108 -0.0773  0.9560
 2497SOL     OW15980   2.925   7.204   0.539  0.3023  0.2548  0.4024
 2497SOL    HW115981   2.830   7.191   0.570 -0.3659  0.4961 -1.4835
 2497SOL    HW215982   2.947   7.301   0.541  0.3216  0.2514  0.2778
 2499SOL     OW15983   2.951   7.860   0.506 -0.1191 -0.7000  0.1292
 2499SOL    HW115984   3.035   7.863   0.560 -0.1893 -0.2250  0.2204
 2499SOL    HW215985   2.874   7.837   0.566 -0.1332 -0.6018  0.1491
 2500SOL     OW15986   0.763   6.012   2.032  0.3529  0.1969  0.8702
 2500SOL    HW115987   0.844   6.054   1.990  0.6987 -0.5995  0.7237
 2500SOL    HW215988   0.792   5.934   2.088 -0.4352 -0.9628 -0.3115
 2501SOL     OW15989   0.740   9.057   1.535  0.3139 -0.0884  0.1429
 2501SOL    HW115990   0.716   9.035   1.440 -0.2246  0.5742  0.1238
 2501SOL    HW215991   0.743   8.973   1.589  2.6455 -0.7277 -0.9092
 2502SOL     OW15992   3.614   9.457   1.494  0.3453 -0.7021  0.1494
 2502SOL    HW115993   3.622   9.524   1.567 -0.0122 -2.2679  1.6665
 2502SOL    HW215994   3.611   9.365   1.533  0.8319 -1.6185 -1.8814
 2504SOL     OW15995   0.968   5.099   2.267  0.4776 -0.8380 -0.3164
 2504SOL    HW115996   0.877   5.134   2.291 -0.2849 -2.0356 -1.4006
 2504SOL    HW215997   1.023   5.089   2.350  0.1755  1.4063  0.1722
 2505SOL     OW15998   1.620   5.476   1.663  0.3586  0.2414  0.0274
 2505SOL    HW115999   1.695   5.435   1.714 -0.7783 -0.4148  1.2064
 2505SOL    HW216000   1.577   5.407   1.605 -0.0628  0.3169  0.2424
 2506SOL     OW16001  10.221   5.841   1.461  0.3288 -0.0699 -0.2851
 2506SOL    HW116002  10.186   5.747   1.458  0.5183 -0.3575  4.0192
 2506SOL    HW216003  10.170   5.894   1.528  2.5446  1.9235 -0.1052
 2507SOL     OW16004   2.417   0.605   1.366  0.0267 -0.2068 -0.0644
 2507SOL    HW116005   2.484   0.621   1.438  2.6445  1.9259 -2.8228
 2507SOL    HW216006   2.441   0.523   1.315  1.0084  0.9294 -1.4818
 2508SOL     OW16007   9.765   0.883   1.546 -0.7276  0.5172  0.4967
 2508SOL    HW116008   9.750   0.979   1.522 -0.2530  0.6038  0.5446
 2508SOL    HW216009   9.692   0.827   1.505  1.2177  0.3899 -3.0191
 2509SOL     OW16010  10.285   6.793   1.974  0.6485 -0.1931  0.6906
 2509SOL    HW116011  10.294   6.771   2.071 -0.2632 -0.2989  0.7531
 2509SOL    HW216012  10.244   6.883   1.964 -0.4960 -0.7402  0.3978
 2510SOL     OW16013   0.834   3.642   2.080  0.0574  0.4462 -0.5641
 2510SOL    HW116014   0.738   3.655   2.057  0.1506 -0.4339 -1.5058
 2510SOL    HW216015   0.891   3.674   2.005  0.4434 -0.5341 -0.6976
 2512SOL     OW16016  10.272   7.531   2.245 -0.4426 -0.2382  0.5080
 2512SOL    HW116017  10.215   7.612   2.253 -0.3810  0.0929 -2.0266
 2512SOL    HW216018  10.256   7.470   2.324 -2.6812  0.8287  0.8974
 2513SOL     OW16019   2.565   1.972   0.736  0.0522  0.2259 -0.4296
 2513SOL    HW116020   2.510   2.044   0.694  0.7907  0.5551 -0.8495
 2513SOL    HW216021   2.632   1.939   0.671  0.3125 -0.2128  0.0557
 2515SOL     OW16022   2.503   4.392   0.885 -0.0607 -0.1738 -0.3176
 2515SOL    HW116023   2.408   4.391   0.853 -0.1575  2.3165 -0.2432
 2515SOL    HW216024   2.560   4.341   0.820 -1.2853 -0.8827 -0.8702
 2517SOL     OW16025   2.921   2.370   0.858  0.1598  0.1580 -0.2478
 2517SOL    HW116026   2.858   2.293   0.865 -0.7824  0.9721  0.2644
 2517SOL    HW216027   2.899   2.424   0.777  1.6516 -0.8315 -1.3509
 2519SOL     OW16028   2.177   4.611   2.136 -0.2414 -0.4925 -0.3515
 2519SOL    HW116029   2.266   4.630   2.177  0.7622 -1.3814 -2.0699
 2519SOL    HW216030   2.146   4.692   2.086 -0.6481 -0.0123  0.6633
 2520SOL     OW16031   4.588   2.855   0.496 -0.3540 -0.8366  0.0227
 2520SOL    HW116032   4.555   2.792   0.426 -1.1411 -0.1654 -0.2254
 2520SOL    HW216033   4.516   2.871   0.563 -0.2603 -0.0051 -0.0613
 2521SOL     OW16034   3.088   1.751   0.487  0.3825 -0.4427  0.3773
 2521SOL    HW116035   3.174   1.706   0.460 -0.2698 -1.8422  0.5937
 2521SOL    HW216036   3.075   1.740   0.586 -0.7445 -1.4909  0.1308
 2523SOL     OW16037   1.233   6.566   1.411  0.0113 -0.2750  0.2335
 2523SOL    HW116038   1.172   6.491   1.386 -0.5836  0.0556  0.6877
 2523SOL    HW216039   1.328   6.534   1.408 -0.2189 -0.9595  0.1266
 2524SOL     OW16040   0.759   2.248   0.354 -0.5359 -0.5494 -0.5715
 2524SOL    HW116041   0.666   2.266   0.322 -0.1945  1.7424 -0.3599
 2524SOL    HW216042   0.824   2.298   0.297  0.2921  0.9909  1.6520
 2525SOL     OW16043   3.207   0.710   0.826 -0.5172  0.4260  0.2801
 2525SOL    HW116044   3.188   0.640   0.895  1.4423 -0.7692 -0.3369
 2525SOL    HW216045   3.173   0.681   0.737 -0.3604  0.5883  0.1641
 2527SOL     OW16046   2.226   1.863   1.085  0.5948 -0.2498  0.7842
 2527SOL    HW116047   2.145   1.866   1.025 -0.3219  0.8109  2.0343
 2527SOL    HW216048   2.297   1.922   1.047  0.5533 -0.6807  0.0124
 2528SOL     OW16049   3.938   1.571   0.644 -0.2943 -0.1012  0.4708
 2528SOL    HW116050   3.907   1.494   0.699  1.4475 -1.9195 -1.0602
 2528SOL    HW216051   3.861   1.607   0.591 -0.8985 -1.4287  0.4337
 2529SOL     OW16052   3.951   0.684   1.951  0.1407  0.1348  0.0928
 2529SOL    HW116053   3.993   0.762   1.905 -0.6174  1.3739  1.4557
 2529SOL    HW216054   3.901   0.716   2.031 -2.2370 -1.4630 -0.6977
 2530SOL     OW16055   0.601   8.131   1.128 -0.0335 -0.7032 -0.0463
 2530SOL    HW116056   0.675   8.106   1.191 -0.1322 -0.5550  0.1276
 2530SOL    HW216057   0.523   8.164   1.180 -0.6072 -1.8449 -0.1583
 2531SOL     OW16058   3.242  10.036   1.087 -0.0418 -0.1087  0.5721
 2531SOL    HW116059   3.289  10.104   1.143 -0.4852  0.6787 -0.0146
 2531SOL    HW216060   3.174   9.988   1.144  0.3300 -0.1322  1.0029
 2532SOL     OW16061  10.038   2.430   0.403 -0.5063  0.1349  0.2898
 2532SOL    HW116062   9.948   2.464   0.374 -0.3862 -0.2384 -0.5430
 2532SOL    HW216063  10.106   2.502   0.390 -0.1141 -0.6301 -2.2184
 2535SOL     OW16064   5.005   2.961   1.170  0.5323  0.1170 -0.2393
 2535SOL    HW116065   4.972   3.019   1.245 -1.1049  0.7583 -1.4382
 2535SOL    HW216066   4.983   2.865   1.190  2.5559 -0.0655  1.3786
 2536SOL     OW16067   1.831   5.760   1.255 -0.1332  0.2390 -0.1518
 2536SOL    HW116068   1.759   5.781   1.321 -0.0068 -0.0366  0.0744
 2536SOL    HW216069   1.795   5.769   1.162 -0.7030 -0.7563 -0.0289
 2537SOL     OW16070   9.510   3.098   2.094  0.4972  0.2656 -0.4432
 2537SOL    HW116071   9.502   3.096   1.994  1.0758 -0.9327 -0.4746
 2537SOL    HW216072   9.601   3.069   2.121 -0.4207 -1.8072  0.5213
 2538SOL     OW16073   1.348   2.465   1.985  0.6728  0.1247 -0.4228
 2538SOL    HW116074   1.336   2.479   1.887 -1.8855 -1.4857 -0.3771
 2538SOL    HW216075   1.439   2.426   2.001  2.0682  2.6468 -1.8812
 2539SOL     OW16076   3.289   9.574   1.675 -0.1655 -0.1066 -0.1397
 2539SOL    HW116077   3.281   9.515   1.755  1.6122  1.8949  1.5860
 2539SOL    HW216078   3.385   9.578   1.647 -0.3727  1.4036 -0.6534
 2540SOL     OW16079   1.331   6.600   0.690 -0.6898 -0.4701 -0.0826
 2540SOL    HW116080   1.243   6.599   0.643 -1.2562  1.2116  0.8833
 2540SOL    HW216081   1.317   6.587   0.789  0.0688  0.5371  0.1674
 2542SOL     OW16082   1.429   5.023   2.202 -0.4271  0.0978  0.2615
 2542SOL    HW116083   1.332   5.004   2.185 -1.0396  3.0583  0.2454
 2542SOL    HW216084   1.477   5.033   2.115 -0.5013  0.5346  0.2711
 2543SOL     OW16085   9.957   5.382   0.978  0.5110 -0.3249 -0.0689
 2543SOL    HW116086   9.916   5.455   0.923  1.2151 -0.0676 -0.2511
 2543SOL    HW216087  10.050   5.407   1.002  0.3154 -0.5927  0.9608
 2544SOL     OW16088   2.917   6.478   0.811  0.3394  0.0598  0.2265
 2544SOL    HW116089   2.909   6.578   0.816 -1.5031  0.0944 -2.2854
 2544SOL    HW216090   2.918   6.450   0.715 -2.5051 -2.5769  0.8845
 2545SOL     OW16091   0.483   2.734   2.322 -0.4163 -0.3697 -0.0124
 2545SOL    HW116092   0.581   2.715   2.323 -0.7831 -2.6048 -1.4305
 2545SOL    HW216093   0.466   2.816   2.267  0.8071  1.2955  2.0116
 2546SOL     OW16094   2.647   3.581   1.460 -0.1583  0.1698  0.0053
 2546SOL    HW116095   2.594   3.649   1.410  1.9126  0.4848 -1.8694
 2546SOL    HW216096   2.665   3.614   1.553 -1.9428  0.6833  0.1964
 2547SOL     OW16097   9.704   4.627   0.343  0.2791  0.6128  0.5263
 2547SOL    HW116098   9.691   4.720   0.310 -0.6640  0.5223  0.6118
 2547SOL    HW216099   9.687   4.624   0.442 -0.4873  0.2125  0.3910
 2548SOL     OW16100   3.142   8.998   1.503 -0.0366 -0.1441 -0.4805
 2548SOL    HW116101   3.089   9.032   1.580 -0.2606  0.5420 -0.9267
 2548SOL    HW216102   3.142   8.898   1.503  0.6672 -0.1511  0.8788
 2551SOL     OW16103   4.202   1.612   1.422 -0.1816 -0.2247 -0.0492
 2551SOL    HW116104   4.169   1.706   1.430 -0.4211 -0.4024  1.0767
 2551SOL    HW216105   4.159   1.569   1.342  0.0859  0.6734 -0.6874
 2552SOL     OW16106   1.255   7.746   0.425  0.2640 -0.8262  0.0568
 2552SOL    HW116107   1.217   7.753   0.517 -1.8079 -0.9684 -0.7542
 2552SOL    HW216108   1.313   7.825   0.406 -2.3261  1.1296  0.1519
 2554SOL     OW16109   9.190   1.734   1.417  0.5555  0.1508 -0.7135
 2554SOL    HW116110   9.282   1.752   1.451 -0.1038 -1.3757  2.0027
 2554SOL    HW216111   9.195   1.664   1.345  1.4759 -0.1810 -0.3347
 2555SOL     OW16112   2.867   6.767   0.816 -0.2567  1.1215 -0.1841
 2555SOL    HW116113   2.775   6.765   0.776 -0.0950  0.2416 -0.5137
 2555SOL    HW216114   2.870   6.837   0.887 -1.3242  0.8439  0.1488
 2558SOL     OW16115   9.558   5.290   0.586  0.2008  0.5559 -0.1285
 2558SOL    HW116116   9.510   5.205   0.569  2.7393 -0.8077 -0.7771
 2558SOL    HW216117   9.530   5.329   0.674 -2.4098  0.1036 -0.7337
 2559SOL     OW16118   3.546   3.691   2.241  0.1436  0.0428 -0.0284
 2559SOL    HW116119   3.478   3.763   2.262 -0.7295 -1.0900  1.1091
 2559SOL    HW216120   3.611   3.685   2.316  1.1085  0.6520 -0.8098
 2561SOL     OW16121   3.209   0.559   1.573 -0.0439 -0.0739 -0.3447
 2561SOL    HW116122   3.239   0.632   1.512 -1.3534  0.3806 -0.4744
 2561SOL    HW216123   3.234   0.470   1.535  2.4495  0.3153  0.2959
 2562SOL     OW16124   2.183   7.381   1.542  0.0327 -0.4398  0.3053
 2562SOL    HW116125   2.129   7.421   1.468 -0.2953  1.2480  1.4248
 2562SOL    HW216126   2.179   7.281   1.536 -0.4864 -0.3293 -1.5774
 2563SOL     OW16127   2.912   3.153   0.444 -0.1761  0.2547  0.1970
 2563SOL    HW116128   2.982   3.206   0.493 -1.6374  1.6831  0.7677
 2563SOL    HW216129   2.919   3.174   0.346 -1.9098  2.9489  0.6042
 2565SOL     OW16130   2.592   5.979   1.877  0.2068 -0.3160 -0.0131
 2565SOL    HW116131   2.585   6.005   1.974 -2.2668 -1.2292  0.1045
 2565SOL    HW216132   2.628   5.886   1.870 -0.1346 -0.4553  0.0649
 2566SOL     OW16133   9.270   2.229   0.401 -0.2300  0.4142  0.4398
 2566SOL    HW116134   9.365   2.223   0.371 -0.6889  1.6587 -1.3548
 2566SOL    HW216135   9.237   2.138   0.424  1.0694 -0.1873  0.0141
 2567SOL     OW16136   3.198   8.731   0.770  0.1379  0.1660  0.5450
 2567SOL    HW116137   3.271   8.712   0.835 -1.3353 -1.3118  1.8229
 2567SOL    HW216138   3.196   8.659   0.701  0.4382  0.6774 -0.0036
 2569SOL     OW16139   2.357   4.194   2.280  0.3806 -0.2150  0.1966
 2569SOL    HW116140   2.376   4.243   2.365 -1.3481 -0.6489  0.8478
 2569SOL    HW216141   2.283   4.240   2.231  0.1316 -1.0098 -0.1817
 2570SOL     OW16142   0.646   2.513   1.256  0.5874 -0.0125  0.2084
 2570SOL    HW116143   0.596   2.477   1.335 -1.4003  0.3012 -0.8803
 2570SOL    HW216144   0.633   2.451   1.178 -1.0499  1.8775 -1.0656
 2571SOL     OW16145   9.915   5.038   1.626 -0.3310  0.1959  0.2998
 2571SOL    HW116146   9.840   5.100   1.649 -0.2590  0.0216  1.0153
 2571SOL    HW216147   9.979   5.034   1.702  0.2407  0.0904 -0.1806
 2572SOL     OW16148   9.497   1.403   2.220 -0.3202 -0.6802  0.2380
 2572SOL    HW116149   9.460   1.449   2.139  2.3049 -1.4549 -1.4783
 2572SOL    HW216150   9.527   1.471   2.287 -2.5975 -0.0320  0.6338
 2573SOL     OW16151   2.790   2.025   1.900  0.0305 -0.0609  0.4711
 2573SOL    HW116152   2.890   2.019   1.893 -0.1452 -1.4032 -1.2156
 2573SOL    HW216153   2.763   2.010   1.995  1.3509 -1.1349  0.6934
 2574SOL     OW16154   3.092   1.383   1.677 -0.2361 -0.0066  0.0026
 2574SOL    HW116155   3.095   1.445   1.755  0.0466 -0.7459  0.5805
 2574SOL    HW216156   3.047   1.298   1.703 -1.4366  0.2860 -1.0346
 2575SOL     OW16157   1.420   8.693   0.550  0.5250  0.0413  0.3036
 2575SOL    HW116158   1.363   8.749   0.610  2.7900  1.7923  0.8567
 2575SOL    HW216159   1.450   8.748   0.472  0.5349 -1.2185 -0.6007
 2576SOL     OW16160   0.581   1.456   0.459 -0.3225 -0.1594  0.2930
 2576SOL    HW116161   0.672   1.473   0.495 -0.3391  1.4097 -0.3704
 2576SOL    HW216162   0.550   1.535   0.406 -1.8267 -0.9043  0.0134
 2577SOL     OW16163   3.081   4.954   1.994  0.1249  0.5675  0.0306
 2577SOL    HW116164   3.096   4.855   1.991  0.7337  0.6718 -0.3864
 2577SOL    HW216165   2.987   4.973   2.023  0.4396 -0.1120  1.5663
 2578SOL     OW16166   3.156   4.152   1.423 -0.4101 -0.4895 -0.1077
 2578SOL    HW116167   3.241   4.187   1.383 -0.5353  2.2550  1.8054
 2578SOL    HW216168   3.173   4.064   1.466  0.8449 -1.1766 -1.9741
 2579SOL     OW16169   0.579   3.390   2.259  0.1472  0.5434 -0.1389
 2579SOL    HW116170   0.518   3.437   2.195  1.2296  2.5735  0.2809
 2579SOL    HW216171   0.586   3.443   2.343  2.1182  0.0665  0.0091
 2580SOL     OW16172   1.105   9.000   1.338 -0.0269 -0.4254  0.1779
 2580SOL    HW116173   1.057   9.074   1.384 -0.0792 -0.1688 -0.2816
 2580SOL    HW216174   1.127   9.029   1.244 -0.9062 -1.3492 -0.3209
 2582SOL     OW16175   3.779   4.451   0.653  0.1369  0.1792  0.6140
 2582SOL    HW116176   3.873   4.421   0.640 -0.0779  0.8271 -3.0731
 2582SOL    HW216177   3.778   4.540   0.700  1.4469  0.7596 -0.4181
 2583SOL     OW16178   1.995   5.324   1.589  0.3747 -0.1670  0.3340
 2583SOL    HW116179   1.986   5.231   1.554  0.4513 -0.7608  1.8164
 2583SOL    HW216180   1.915   5.346   1.645  0.1270  0.8472 -0.4105
 2584SOL     OW16181  10.000   3.085   0.439 -0.5002 -0.6404 -0.0030
 2584SOL    HW116182   9.928   3.114   0.501  0.2799  0.7731  0.2589
 2584SOL    HW216183  10.088   3.090   0.486  0.0019 -0.4084 -0.9575
 2585SOL     OW16184   5.206   2.477   1.484  0.7398  0.6227  0.8017
 2585SOL    HW116185   5.288   2.498   1.537  0.5892  0.9163  0.9221
 2585SOL    HW216186   5.231   2.426   1.402  0.9398 -0.0923  1.3017
 2586SOL     OW16187   1.784   9.639   1.597 -0.1080 -0.4665 -0.6464
 2586SOL    HW116188   1.766   9.696   1.517 -3.6540 -0.2552  0.2455
 2586SOL    HW216189   1.871   9.668   1.638  0.2762  1.4245 -2.6500
 2587SOL     OW16190   3.700   3.252   1.889 -0.2815 -0.2069  0.2204
 2587SOL    HW116191   3.771   3.242   1.819 -1.0034  0.8081 -0.6851
 2587SOL    HW216192   3.629   3.314   1.855 -0.5121  0.5123  1.9569
 2588SOL     OW16193   2.039   5.998   1.923 -0.3272 -0.3337  0.1351
 2588SOL    HW116194   1.977   6.068   1.889  0.3500 -0.4105 -1.3091
 2588SOL    HW216195   2.065   5.937   1.848  3.1226  0.9419  0.1862
 2589SOL     OW16196   2.546   6.176   1.100  0.3530  0.0823 -0.2384
 2589SOL    HW116197   2.621   6.221   1.050  1.8697 -0.8580  1.1557
 2589SOL    HW216198   2.523   6.091   1.054 -0.6274  0.9001 -1.2939
 2591SOL     OW16199   2.320   5.997   2.142  0.0492 -0.5010 -0.3899
 2591SOL    HW116200   2.269   6.074   2.104 -1.6360 -2.0107 -1.2209
 2591SOL    HW216201   2.277   5.911   2.116  2.5166 -1.8009 -0.3617
 2592SOL     OW16202   1.685   6.764   1.164 -0.0404 -0.1685 -0.4697
 2592SOL    HW116203   1.739   6.769   1.248  1.3297 -0.2675 -1.3423
 2592SOL    HW216204   1.617   6.838   1.164  2.8085  2.5420 -1.2493
 2593SOL     OW16205   2.381   8.005   1.620 -0.0126 -0.2550 -0.4203
 2593SOL    HW116206   2.445   7.996   1.543  1.1677 -2.1966  0.7529
 2593SOL    HW216207   2.408   7.943   1.693 -0.6555  2.1290  1.9084
 2594SOL     OW16208   4.005   3.032   1.070 -0.3548  0.0974  0.4716
 2594SOL    HW116209   3.966   3.120   1.045 -1.0703 -0.1805  0.5776
 2594SOL    HW216210   3.934   2.976   1.114  0.5283  0.0698  1.8553
 2595SOL     OW16211   3.640   4.889   1.774 -0.1385  0.0467 -0.1613
 2595SOL    HW116212   3.640   4.806   1.717  1.3854  1.1463 -1.8028
 2595SOL    HW216213   3.670   4.865   1.866  1.5944 -1.0209 -0.9728
 2596SOL     OW16214   2.887   9.277   1.927 -0.4505 -0.0416 -0.0901
 2596SOL    HW116215   2.824   9.273   1.850  0.4912 -0.6132 -0.8297
 2596SOL    HW216216   2.852   9.342   1.995 -1.9885 -0.5786 -0.3483
 2597SOL     OW16217   2.117   8.498   0.659  0.4604 -0.2199 -0.3639
 2597SOL    HW116218   2.216   8.483   0.662  0.4640 -0.6796 -2.2070
 2597SOL    HW216219   2.096   8.589   0.695  1.4448 -0.5298  1.0254
 2599SOL     OW16220   0.503   4.194   0.927  0.1226 -0.6252 -0.1516
 2599SOL    HW116221   0.403   4.190   0.926  0.1408 -0.8873 -0.7399
 2599SOL    HW216222   0.540   4.102   0.942  0.2811 -0.5490 -0.0729
 2600SOL     OW16223   2.855   8.786   0.488  0.6049 -0.4075  0.2390
 2600SOL    HW116224   2.931   8.848   0.473 -0.4493  0.8527  0.0414
 2600SOL    HW216225   2.837   8.778   0.587 -1.2336  2.0638  0.1505
 2601SOL     OW16226   2.862   9.983   1.210 -0.3262 -0.2766  0.2233
 2601SOL    HW116227   2.808  10.059   1.246  0.6366  0.2012  0.6716
 2601SOL    HW216228   2.954   9.986   1.248  0.5847 -0.0369 -1.8961
 2602SOL     OW16229   3.431   0.823   1.963 -0.1807  0.1797 -0.0064
 2602SOL    HW116230   3.415   0.900   2.024 -0.0219  0.2942 -0.1081
 2602SOL    HW216231   3.364   0.751   1.981 -1.0563  0.8106 -0.7048
 2603SOL     OW16232   2.593   3.172   0.741  0.0125  0.2244 -0.2781
 2603SOL    HW116233   2.605   3.143   0.836 -1.5860  0.5968  0.0570
 2603SOL    HW216234   2.598   3.272   0.736 -0.3723  0.2328 -0.5094
 2604SOL     OW16235   9.622   3.484   1.295 -0.1521 -0.0797 -0.1471
 2604SOL    HW116236   9.707   3.523   1.261 -0.1532 -1.2651 -1.5730
 2604SOL    HW216237   9.545   3.523   1.244 -0.0529 -2.9235 -2.5983
 2605SOL     OW16238   1.421   2.702   1.334 -0.0821 -0.0146  0.1458
 2605SOL    HW116239   1.453   2.667   1.422  0.0720 -0.2334  0.0070
 2605SOL    HW216240   1.322   2.702   1.331 -0.0826 -1.7640 -0.3595
 2606SOL     OW16241   4.893   3.465   0.950  0.0073  0.1249 -0.5715
 2606SOL    HW116242   4.849   3.446   0.863 -0.0932  1.6292 -0.8682
 2606SOL    HW216243   4.824   3.468   1.023 -0.0704  0.0555 -0.6430
 2607SOL     OW16244   1.879   9.872   2.208 -0.2756 -0.1309  0.1149
 2607SOL    HW116245   1.861   9.819   2.291 -1.0345 -0.7744 -0.4540
 2607SOL    HW216246   1.950   9.826   2.154  0.2016  0.2741  0.3953
 2608SOL     OW16247   2.466   7.972   2.324  0.0749 -0.2801 -0.4578
 2608SOL    HW116248   2.493   8.067   2.342 -1.5840  0.1220  0.0573
 2608SOL    HW216249   2.451   7.960   2.226  1.7939 -0.4453 -0.7217
 2609SOL     OW16250   2.945   9.115   0.644  1.0962 -0.0592  0.1941
 2609SOL    HW116251   2.859   9.166   0.650  0.7415 -0.4796 -1.2368
 2609SOL    HW216252   3.021   9.175   0.668  0.3679  0.1570  2.0693
 2610SOL     OW16253   2.497   3.317   1.560  0.4499  0.3316 -0.5296
 2610SOL    HW116254   2.535   3.317   1.468 -0.6613  2.7377 -1.0398
 2610SOL    HW216255   2.397   3.315   1.555  0.3017  2.8326  0.5094
 2611SOL     OW16256   3.495   3.433   2.082  0.0039 -0.7617 -0.2863
 2611SOL    HW116257   3.484   3.491   2.001 -0.3944 -0.9921 -0.4009
 2611SOL    HW216258   3.522   3.489   2.160  0.4918 -0.5520 -0.6055
 2612SOL     OW16259   4.101  10.232   1.916  0.3872 -0.4367 -0.1355
 2612SOL    HW116260   4.130  10.324   1.944 -0.1819 -0.3361  0.1356
 2612SOL    HW216261   4.146  10.164   1.974  2.2865 -0.4449 -1.5609
 2613SOL     OW16262   1.013   6.242   0.982  0.0350 -1.2082  0.4630
 2613SOL    HW116263   1.063   6.279   0.904  0.7008 -0.7057  1.1266
 2613SOL    HW216264   0.929   6.295   0.997  0.7902 -0.2031  1.1703
 2614SOL     OW16265   9.399   2.008   1.689  0.4416 -0.4774  0.3462
 2614SOL    HW116266   9.396   1.942   1.614 -0.7666 -0.9719  0.8080
 2614SOL    HW216267   9.475   1.986   1.750 -0.4181 -1.9446  0.9256
 2615SOL     OW16268   0.701   4.714   1.261  0.8833  0.2386  0.6966
 2615SOL    HW116269   0.799   4.735   1.261  0.6053  1.5638  0.0976
 2615SOL    HW216270   0.658   4.756   1.181 -0.6763  2.1456  2.4693
 2616SOL     OW16271   0.796   3.008   0.757  0.5472 -0.1714  0.1568
 2616SOL    HW116272   0.733   2.948   0.806  0.8905 -1.0620 -0.4975
 2616SOL    HW216273   0.770   3.013   0.661  2.3194 -1.6728 -0.4184
 2617SOL     OW16274  10.385   9.387   0.477  0.6617 -0.4232  0.2778
 2617SOL    HW116275  10.359   9.291   0.489  2.4623 -1.2379 -1.7842
 2617SOL    HW216276  10.346   9.421   0.392  1.9552 -0.0734 -0.1870
 2619SOL     OW16277   1.725   2.337   1.214 -0.9149 -0.7109  0.2431
 2619SOL    HW116278   1.722   2.436   1.232  1.9817 -0.9270  2.2722
 2619SOL    HW216279   1.702   2.320   1.118 -0.7006  2.0176 -0.3336
 2621SOL     OW16280   0.807   3.633   0.779 -0.1419  0.0698  0.0746
 2621SOL    HW116281   0.761   3.677   0.702  0.4196  1.0895  0.3298
 2621SOL    HW216282   0.752   3.554   0.808 -1.6422  1.1526  0.2447
 2622SOL     OW16283  10.059   1.944   0.412 -0.3335 -0.7861  0.1878
 2622SOL    HW116284  10.151   1.924   0.378 -0.0694 -1.0744  1.0590
 2622SOL    HW216285  10.061   1.953   0.511 -1.0515  0.3028  0.1111
 2624SOL     OW16286   5.119   3.796   0.691  0.0343 -0.4059 -0.1622
 2624SOL    HW116287   5.141   3.801   0.593 -0.2503 -0.7361 -0.2428
 2624SOL    HW216288   5.048   3.864   0.712  0.3515 -0.0893 -0.1153
 2626SOL     OW16289   4.018   0.702   0.532 -0.5674  0.3055 -0.3812
 2626SOL    HW116290   4.100   0.698   0.588 -0.9936  2.1604  0.4130
 2626SOL    HW216291   4.014   0.789   0.483 -0.5655 -0.9997 -2.7599
 2628SOL     OW16292   3.385   5.039   0.527  0.1772  0.2532 -0.0699
 2628SOL    HW116293   3.479   5.003   0.526  0.4434  0.9051  0.7938
 2628SOL    HW216294   3.388   5.139   0.528 -0.5567  0.4689 -5.0788
 2629SOL     OW16295   2.156   9.240   1.995  0.6322 -0.0185  0.0793
 2629SOL    HW116296   2.161   9.145   2.024 -2.1127 -0.3179 -0.3255
 2629SOL    HW216297   2.082   9.251   1.929 -0.7624  2.8517  2.0084
 2630SOL     OW16298   2.763   5.441   0.706 -0.4280 -0.0059  0.3224
 2630SOL    HW116299   2.690   5.446   0.774 -0.4904  2.3216  0.1467
 2630SOL    HW216300   2.835   5.507   0.730 -0.4106  0.7797 -1.8040
 2631SOL     OW16301  10.391   4.879   1.336 -0.1522  0.4022  0.4187
 2631SOL    HW116302  10.451   4.959   1.332 -0.5992  0.7090 -0.2263
 2631SOL    HW216303  10.358   4.856   1.244  0.4597 -0.9007  0.5104
 2632SOL     OW16304   4.036   2.464   0.545  0.2577 -0.0894  0.0275
 2632SOL    HW116305   4.128   2.502   0.541 -0.7128  2.4015  0.4734
 2632SOL    HW216306   3.994   2.487   0.633 -0.7056 -1.3715 -0.0877
 2633SOL     OW16307   4.109   4.073   1.146 -0.5548  0.0815 -0.4729
 2633SOL    HW116308   4.012   4.078   1.169 -0.2151  0.0595  0.9932
 2633SOL    HW216309   4.119   4.062   1.047 -2.0171  1.5110 -0.8010
 2635SOL     OW16310   2.725   9.268   0.712 -0.4577 -0.3372  0.0073
 2635SOL    HW116311   2.778   9.335   0.660  0.2102  0.7866  2.1052
 2635SOL    HW216312   2.628   9.289   0.704 -0.2915  0.5013  0.1330
 2636SOL     OW16313   1.552   5.314   1.204 -0.0034 -0.2439  0.1975
 2636SOL    HW116314   1.477   5.355   1.257 -0.3711  0.4207 -0.8296
 2636SOL    HW216315   1.515   5.269   1.124  0.4162 -2.4800  1.2258
 2637SOL     OW16316   2.990   5.747   1.394  0.6605 -0.1103  0.5023
 2637SOL    HW116317   2.930   5.767   1.316  1.7795  0.0530 -0.3360
 2637SOL    HW216318   3.008   5.648   1.397  1.0364 -0.0497  0.2419
 2638SOL     OW16319   5.060   2.644   0.498  0.3008 -0.0842  0.1619
 2638SOL    HW116320   4.974   2.667   0.543  2.0444  1.1574  2.9979
 2638SOL    HW216321   5.114   2.727   0.485  1.2507 -0.8981 -1.1982
 2639SOL     OW16322   1.392   3.176   0.637 -0.2542 -0.0793 -0.9729
 2639SOL    HW116323   1.365   3.185   0.542  0.8063 -0.8620 -1.3492
 2639SOL    HW216324   1.408   3.267   0.676 -1.8649  0.3072 -1.1826
 2640SOL     OW16325  10.365   4.872   1.817  0.5153  0.1512  0.0848
 2640SOL    HW116326  10.459   4.893   1.846  0.5499 -1.3990  1.1903
 2640SOL    HW216327  10.365   4.841   1.722  1.0820  0.4671 -0.0198
 2641SOL     OW16328   1.015   8.322   0.746  0.8993  0.4000  0.7055
 2641SOL    HW116329   1.109   8.308   0.716  0.9845  1.6267  0.3590
 2641SOL    HW216330   0.953   8.295   0.672  0.9529 -0.8336  1.0977
 2644SOL     OW16331   0.957   8.587   0.832  0.5110 -0.5987  0.3980
 2644SOL    HW116332   0.969   8.503   0.779  0.4296  0.1155 -0.7729
 2644SOL    HW216333   1.047   8.628   0.850  0.5180 -0.6578  0.4919
 2646SOL     OW16334   1.073   3.690   1.821  0.1776 -0.4120 -0.3100
 2646SOL    HW116335   1.118   3.607   1.854  0.7736 -0.8689 -2.2160
 2646SOL    HW216336   1.128   3.730   1.748  0.6981  2.5230  1.5850
 2647SOL     OW16337  10.433   6.563   1.575 -0.7438  0.2181 -0.4587
 2647SOL    HW116338  10.456   6.619   1.496  1.5377  0.5648  0.4113
 2647SOL    HW216339  10.419   6.621   1.655  0.5670 -0.3401  0.2008
 2648SOL     OW16340   4.413   2.279   2.148  0.8322 -0.3643  0.2768
 2648SOL    HW116341   4.370   2.343   2.084  0.8090  0.4811  1.1424
 2648SOL    HW216342   4.418   2.320   2.239  0.9402 -1.5379  0.8089
 2649SOL     OW16343  10.121   9.959   1.171  0.1076 -0.3508  0.1515
 2649SOL    HW116344  10.059   9.885   1.197 -0.4668 -0.2449 -0.8867
 2649SOL    HW216345  10.189   9.925   1.107 -0.5119  0.1431 -0.7801
 2650SOL     OW16346   2.932   4.832   0.470 -0.3378 -0.2796  0.3636
 2650SOL    HW116347   2.993   4.892   0.418 -0.0389 -0.6590  0.2835
 2650SOL    HW216348   2.932   4.741   0.430 -0.0197 -0.6021  1.1070
 2651SOL     OW16349   2.932   5.107   2.316 -0.1465 -0.5916 -0.3133
 2651SOL    HW116350   3.008   5.095   2.381 -0.8140 -0.9269  0.4178
 2651SOL    HW216351   2.963   5.162   2.239  1.0364 -1.2802 -0.3517
 2652SOL     OW16352   8.743   2.251   1.438  0.1971  0.3977 -0.2848
 2652SOL    HW116353   8.801   2.195   1.496  0.9948  0.7463 -0.7384
 2652SOL    HW216354   8.692   2.316   1.494 -0.1564 -0.2557  0.1618
 2653SOL     OW16355  10.247   1.597   0.786 -0.2054 -0.6756  0.5141
 2653SOL    HW116356  10.282   1.686   0.757  0.3359 -1.8735 -2.6335
 2653SOL    HW216357  10.171   1.610   0.850 -1.1330  2.0480 -1.0964
 2654SOL     OW16358   9.357   1.570   2.052 -0.0563 -0.0582 -0.7159
 2654SOL    HW116359   9.293   1.628   2.102  0.1454  0.8666 -1.5208
 2654SOL    HW216360   9.312   1.532   1.971  0.8804  1.9080 -2.1783
 2655SOL     OW16361   2.103   8.529   1.480  0.2353 -0.3428 -0.5147
 2655SOL    HW116362   2.015   8.494   1.511  0.1054  0.2930 -0.1384
 2655SOL    HW216363   2.168   8.454   1.473 -0.1216 -0.7053 -0.0328
 2656SOL     OW16364   0.743   1.838   1.944 -0.0302 -0.0333  0.3351
 2656SOL    HW116365   0.706   1.931   1.942 -0.1418 -0.0718  0.6393
 2656SOL    HW216366   0.838   1.840   1.975  0.6655  0.2115 -1.7103
 2657SOL     OW16367   1.312   0.484   0.930  0.0248 -0.4717 -0.2119
 2657SOL    HW116368   1.347   0.575   0.952  0.0601 -0.5471  0.0593
 2657SOL    HW216369   1.216   0.477   0.957 -0.1508 -0.3191 -0.7999
 2658SOL     OW16370   1.285   5.934   2.216  0.0413 -0.7337  0.0116
 2658SOL    HW116371   1.365   5.993   2.202  0.4208 -1.4875 -1.0615
 2658SOL    HW216372   1.207   5.990   2.244  1.3108 -0.1524  2.5338
 2659SOL     OW16373  10.315   0.687   1.781 -0.5186 -0.3514  0.1518
 2659SOL    HW116374  10.290   0.767   1.727  0.8367  0.3849  0.5793
 2659SOL    HW216375  10.370   0.625   1.725  1.5216  0.7611  0.8257
 2661SOL     OW16376   2.518   8.668   0.446 -0.1218 -0.3053 -0.2043
 2661SOL    HW116377   2.439   8.693   0.501  0.0212  0.3369 -0.2874
 2661SOL    HW216378   2.559   8.750   0.406 -0.5016 -0.8014 -1.6473
 2662SOL     OW16379   3.203   1.750   2.103  0.1941 -0.2478  0.3278
 2662SOL    HW116380   3.237   1.694   2.028 -1.2349 -1.0024  0.2164
 2662SOL    HW216381   3.213   1.847   2.079  0.7924 -0.4741 -0.3573
 2663SOL     OW16382   1.478   4.819   0.957  0.5223 -0.0353  0.0364
 2663SOL    HW116383   1.426   4.833   1.041  1.0392 -0.9829  0.5237
 2663SOL    HW216384   1.576   4.830   0.976  0.6248 -0.0210 -0.4924
 2664SOL     OW16385   2.332   4.785   0.516 -0.6309  0.5299 -0.4346
 2664SOL    HW116386   2.398   4.789   0.441  1.3932 -0.6593  1.2665
 2664SOL    HW216387   2.291   4.875   0.530 -2.2550  0.4432 -4.0030
 2665SOL     OW16388  10.227   2.005   1.411  0.3621  0.1143  0.3818
 2665SOL    HW116389  10.227   1.916   1.366 -0.0404  0.9207 -1.2813
 2665SOL    HW216390  10.294   2.006   1.485  1.2326 -1.1778 -0.3795
 2668SOL     OW16391   4.257   1.431   0.769  0.5310 -0.1509  0.5511
 2668SOL    HW116392   4.239   1.495   0.695 -1.2962  0.5128  1.5385
 2668SOL    HW216393   4.312   1.477   0.840  0.3094 -0.0700  0.6707
 2669SOL     OW16394   2.606   8.016   1.428  0.1437  0.8051  0.4060
 2669SOL    HW116395   2.656   7.995   1.344  0.1394  1.3673  0.2582
 2669SOL    HW216396   2.658   7.983   1.507  0.4178  0.7771  0.2154
 2670SOL     OW16397   3.735   1.774   0.949 -0.4591 -0.6329  0.6763
 2670SOL    HW116398   3.749   1.830   1.031 -0.0144  0.3768 -0.0775
 2670SOL    HW216399   3.650   1.802   0.904  1.0832  1.2952 -1.1479
 2671SOL     OW16400   0.654   4.177   0.614 -0.3189 -0.1708 -0.1466
 2671SOL    HW116401   0.666   4.189   0.515 -0.5407 -1.9425 -0.4042
 2671SOL    HW216402   0.562   4.209   0.640 -0.7661 -0.9418 -0.7461
 2672SOL     OW16403   4.194   2.866   0.335 -0.2815 -0.1389 -0.1920
 2672SOL    HW116404   4.203   2.776   0.378  1.4102 -0.1969 -0.6579
 2672SOL    HW216405   4.159   2.854   0.242 -0.0862 -0.3057 -0.2444
 2673SOL     OW16406   9.725   2.645   1.274  0.0113 -0.5363 -0.0554
 2673SOL    HW116407   9.722   2.712   1.349  0.4436  0.5681 -1.0099
 2673SOL    HW216408   9.733   2.553   1.312  2.9638  0.1985  1.2267
 2675SOL     OW16409  10.126   7.219   1.804  0.0913 -0.1878 -0.1826
 2675SOL    HW116410  10.214   7.203   1.760  0.0799 -0.6440 -0.0469
 2675SOL    HW216411  10.078   7.294   1.758  0.1281 -0.5845 -0.8700
 2679SOL     OW16412   4.207   3.671   0.638 -0.0598  0.2650  0.1122
 2679SOL    HW116413   4.260   3.727   0.702 -1.5960  1.4453  0.3836
 2679SOL    HW216414   4.262   3.651   0.557  1.1697  0.5394  0.8609
 2680SOL     OW16415  10.139   0.946   2.327  0.6060  0.2206 -0.2034
 2680SOL    HW116416  10.097   0.892   2.400 -1.4297 -0.5154 -1.8710
 2680SOL    HW216417  10.226   0.904   2.300 -0.1227 -1.2531 -0.3040
 2681SOL     OW16418   2.777   3.945   2.160 -0.0569  0.3270 -0.5890
 2681SOL    HW116419   2.819   3.898   2.082 -1.2008  0.5625 -1.3601
 2681SOL    HW216420   2.815   3.909   2.245 -1.3541 -2.4452 -1.1227
 2683SOL     OW16421   2.790   8.522   0.386  0.4397  0.1346  0.2440
 2683SOL    HW116422   2.836   8.610   0.398 -1.6051  1.3751 -0.8136
 2683SOL    HW216423   2.718   8.531   0.318  0.0080 -2.3054  0.3418
 2684SOL     OW16424  10.145   7.018   2.025 -0.3872 -0.1908  0.1147
 2684SOL    HW116425  10.101   7.001   2.113 -0.4665 -2.1065 -0.2790
 2684SOL    HW216426  10.096   7.091   1.977 -0.4330  0.7484  1.5823
 2685SOL     OW16427   3.179   2.927   2.201 -0.1670 -0.3657  0.2868
 2685SOL    HW116428   3.124   2.868   2.142 -1.2945  0.8657  0.0831
 2685SOL    HW216429   3.276   2.901   2.193 -0.0639  0.8928 -3.4256
 2686SOL     OW16430   3.148   3.516   0.362 -0.3585  0.1008  0.4822
 2686SOL    HW116431   3.145   3.599   0.307  1.4121  0.0266  0.2409
 2686SOL    HW216432   3.107   3.441   0.312  0.5431  0.2090 -0.4504
 2687SOL     OW16433   2.988   7.694   1.115  0.1659 -0.4333  0.3315
 2687SOL    HW116434   2.987   7.594   1.119  0.3857 -0.5280 -1.3607
 2687SOL    HW216435   3.059   7.724   1.051 -0.0465  0.7897  0.6634
 2690SOL     OW16436   0.485   1.681   0.332 -0.4337 -0.5943  0.1540
 2690SOL    HW116437   0.522   1.740   0.403 -1.2655 -1.7138  1.5361
 2690SOL    HW216438   0.411   1.728   0.284  0.3560  0.2921 -0.2144
 2691SOL     OW16439   4.786   2.732   0.642  0.6257 -0.1449  0.2889
 2691SOL    HW116440   4.703   2.756   0.592  1.5421  0.2986 -1.0395
 2691SOL    HW216441   4.797   2.795   0.719  0.0102  0.1178  0.1679
 2692SOL     OW16442   9.347   2.723   2.007 -0.5301  0.5799 -0.4103
 2692SOL    HW116443   9.406   2.804   1.999 -0.3531  0.3673 -1.3178
 2692SOL    HW216444   9.261   2.748   2.051  0.6822  0.6680  2.0161
 2693SOL     OW16445   0.516   3.366   1.699 -0.4382  0.1823 -0.0947
 2693SOL    HW116446   0.563   3.282   1.672  0.6013  0.6792  0.1433
 2693SOL    HW216447   0.560   3.444   1.656 -0.3694  0.7427  0.9690
 2694SOL     OW16448   0.689   2.036   1.494  0.0270  0.7826 -0.0416
 2694SOL    HW116449   0.777   2.083   1.482  0.6107  0.1483  1.4792
 2694SOL    HW216450   0.679   1.965   1.425  1.6189 -0.4366  0.9548
 2696SOL     OW16451   2.444   2.934   1.798 -0.0248 -0.1964 -0.7183
 2696SOL    HW116452   2.378   2.995   1.841 -0.5541 -0.7371 -0.7510
 2696SOL    HW216453   2.487   2.877   1.869 -0.0161 -0.2434 -0.7615
 2697SOL     OW16454   2.435   0.436   0.477 -0.3679  0.1780  0.0744
 2697SOL    HW116455   2.468   0.350   0.439 -1.3100 -0.4590  0.6813
 2697SOL    HW216456   2.429   0.505   0.405  0.8027 -0.1421 -0.3310
 2698SOL     OW16457   1.837   0.294   1.811  0.5015 -0.7374  0.4758
 2698SOL    HW116458   1.916   0.345   1.845 -0.5119  0.7537  0.6267
 2698SOL    HW216459   1.771   0.280   1.886 -0.6080  0.3986 -0.2699
 2700SOL     OW16460   1.788   7.601   2.282 -0.6929  0.0164  0.0102
 2700SOL    HW116461   1.755   7.636   2.370 -1.2337  0.8912 -0.5365
 2700SOL    HW216462   1.732   7.523   2.254 -2.3080  1.4647 -0.8880
 2701SOL     OW16463   0.484   7.234   1.963 -0.0758  0.2518  0.2778
 2701SOL    HW116464   0.425   7.216   1.884 -0.0392 -1.2050  0.5616
 2701SOL    HW216465   0.475   7.158   2.028  0.7679  0.8868  1.1391
 2703SOL     OW16466   1.841   8.933   2.293 -0.6296 -0.1267  0.4719
 2703SOL    HW116467   1.795   8.844   2.288 -1.7243  0.3950  1.0528
 2703SOL    HW216468   1.895   8.937   2.377 -0.6591 -0.2171  0.4960
 2704SOL     OW16469   2.310   1.524   0.827  0.3702 -0.0469  0.0323
 2704SOL    HW116470   2.278   1.541   0.921 -0.2755 -1.4206  0.0806
 2704SOL    HW216471   2.351   1.607   0.790 -1.9219  1.3761  0.5252
 2705SOL     OW16472  10.097   6.010   1.699 -0.0750 -0.0675  0.3215
 2705SOL    HW116473  10.083   5.932   1.759 -0.6431 -0.2939 -0.0938
 2705SOL    HW216474  10.008   6.046   1.670  0.1885 -0.5135 -1.0873
 2706SOL     OW16475   3.581   7.762   1.323 -0.1389 -0.3779 -0.2591
 2706SOL    HW116476   3.489   7.800   1.328 -0.6302 -1.4501 -1.0236
 2706SOL    HW216477   3.600   7.711   1.407 -0.2192 -0.1324 -0.0897
 2707SOL     OW16478   0.861   7.617   1.136  0.0989 -0.0187  0.4994
 2707SOL    HW116479   0.937   7.587   1.078 -1.0945 -0.4335 -0.8841
 2707SOL    HW216480   0.847   7.715   1.126 -1.3976 -0.4044 -1.5260
 2708SOL     OW16481   4.280   3.481   2.194  0.2926 -0.0495 -0.1994
 2708SOL    HW116482   4.329   3.548   2.250  0.9555  0.4479 -1.3473
 2708SOL    HW216483   4.319   3.390   2.209  0.6243  0.1193 -0.0263
 2709SOL     OW16484   1.756   4.115   1.618  0.3933  0.2724 -0.7111
 2709SOL    HW116485   1.723   4.048   1.552  0.6496  1.6904 -2.3087
 2709SOL    HW216486   1.732   4.085   1.711 -0.5597 -1.3981 -1.4747
 2711SOL     OW16487   1.530   2.318   2.311  0.1494 -0.0980  0.0297
 2711SOL    HW116488   1.622   2.357   2.314  0.0671  0.0751  0.3575
 2711SOL    HW216489   1.476   2.356   2.386 -0.3511  0.2031 -0.4887
 2712SOL     OW16490   2.930   0.613   2.096  0.3722 -0.3084 -0.0352
 2712SOL    HW116491   2.964   0.521   2.078 -0.9103 -0.6001 -1.0796
 2712SOL    HW216492   2.904   0.657   2.010 -0.3483  0.5029  0.5776
 2713SOL     OW16493   9.458   5.047   1.642  0.5026 -0.1316  0.3713
 2713SOL    HW116494   9.381   5.111   1.637  0.7304  0.1115 -0.0484
 2713SOL    HW216495   9.495   5.047   1.735  2.8579  3.1812 -0.4457
 2714SOL     OW16496  10.109   5.277   0.578 -0.6443  0.1694  0.1937
 2714SOL    HW116497  10.011   5.295   0.568 -0.7536  0.4316  1.7153
 2714SOL    HW216498  10.132   5.269   0.674  0.7450 -0.4652 -0.1804
 2715SOL     OW16499   4.438   0.464   1.687 -0.2948  0.2462  0.2775
 2715SOL    HW116500   4.452   0.445   1.784  0.4817  0.2050  0.1675
 2715SOL    HW216501   4.515   0.425   1.635 -0.4231  0.7523 -0.2915
 2716SOL     OW16502  10.317   6.989   0.993 -0.5815 -0.3534  0.5594
 2716SOL    HW116503  10.224   7.011   1.022 -0.7952  0.4986 -0.7433
 2716SOL    HW216504  10.346   7.052   0.921 -0.0174 -2.3569 -1.0016
 2717SOL     OW16505   5.051   2.621   0.963 -0.5313  0.3197  0.1918
 2717SOL    HW116506   4.962   2.660   0.987  0.1167  1.4044  0.9067
 2717SOL    HW216507   5.078   2.554   1.033 -1.8377 -1.7707 -1.2573
 2719SOL     OW16508   4.366   3.567   1.816  0.1496  1.1352 -0.1921
 2719SOL    HW116509   4.336   3.613   1.733  1.0965  4.0836  1.0427
 2719SOL    HW216510   4.297   3.578   1.887  0.7069  1.2810  0.3289
 2720SOL     OW16511   1.670  10.211   1.342  0.0054  0.1570  0.6330
 2720SOL    HW116512   1.580  10.254   1.343  0.3092  0.9636 -2.4505
 2720SOL    HW216513   1.740  10.281   1.326  0.9622 -0.8044  0.6055
 2721SOL     OW16514   1.462   4.518   0.514 -0.2828  0.4497  0.1515
 2721SOL    HW116515   1.486   4.500   0.419 -0.4875  1.6045 -0.1292
 2721SOL    HW216516   1.454   4.431   0.564  0.7315 -0.1153 -0.6534
 2722SOL     OW16517   1.148   3.596   0.461  0.2638 -0.5077 -0.4666
 2722SOL    HW116518   1.131   3.514   0.515  0.2851 -0.2560 -0.0716
 2722SOL    HW216519   1.098   3.673   0.502  0.3617 -0.2936 -0.7485
 2723SOL     OW16520   3.018   4.322   0.912 -0.1336  0.4081  0.6750
 2723SOL    HW116521   3.095   4.371   0.872 -0.9592  1.0410 -0.1756
 2723SOL    HW216522   3.040   4.295   1.005  1.6797 -0.7193 -0.0522
 2724SOL     OW16523   2.026   8.725   0.753 -0.2882 -0.0969  0.1300
 2724SOL    HW116524   2.034   8.789   0.677  0.5216 -0.8827 -0.4629
 2724SOL    HW216525   2.039   8.774   0.840 -1.1872  0.7938 -0.2341
 2725SOL     OW16526   0.855   6.287   2.290  0.2257 -0.3877 -0.1288
 2725SOL    HW116527   0.950   6.304   2.264  0.4643 -1.0914  0.2711
 2725SOL    HW216528   0.796   6.305   2.211  0.8793 -1.8070 -0.9763
 2726SOL     OW16529   2.455   4.856   2.097  0.1196 -0.5234  0.0391
 2726SOL    HW116530   2.424   4.884   2.187  2.5560 -0.2086  0.8092
 2726SOL    HW216531   2.446   4.932   2.033  2.0323  0.4767  0.9427
 2729SOL     OW16532   2.599   4.158   2.146  0.8224 -0.1200 -0.2131
 2729SOL    HW116533   2.636   4.065   2.144  1.2634  0.0621 -1.0429
 2729SOL    HW216534   2.518   4.161   2.204  2.2044 -0.5033  1.8037
 2730SOL     OW16535   0.608   3.434   0.827 -0.2781  0.2938 -0.4988
 2730SOL    HW116536   0.615   3.334   0.825 -1.4377  0.2070 -0.4288
 2730SOL    HW216537   0.539   3.464   0.761 -0.3051  1.0124 -0.1484
 2733SOL     OW16538   2.360   8.096   0.458 -0.0806 -0.3982  0.0574
 2733SOL    HW116539   2.320   8.082   0.367  0.3967 -1.7419  0.0331
 2733SOL    HW216540   2.451   8.135   0.448 -1.3375  2.6430  0.1129
 2734SOL     OW16541   2.007   9.698   1.726  0.3371  0.7541  0.2638
 2734SOL    HW116542   2.001   9.643   1.809  0.4273  0.4573  0.0756
 2734SOL    HW216543   2.101   9.696   1.691  0.0078 -0.2461 -0.6025
 2735SOL     OW16544   2.771   7.535   2.250  0.1601  0.2983 -0.2062
 2735SOL    HW116545   2.792   7.446   2.210  2.0399 -0.1833  1.7799
 2735SOL    HW216546   2.718   7.523   2.333  0.8003  0.9958  0.3117
 2736SOL     OW16547   2.387   4.407   0.346  0.2625 -0.2740 -0.1132
 2736SOL    HW116548   2.445   4.433   0.423 -0.3921 -0.8761  0.5932
 2736SOL    HW216549   2.405   4.467   0.268 -1.1491  2.2360  1.4518
 2737SOL     OW16550   1.824   4.393   1.154  0.1881  0.5385 -0.1577
 2737SOL    HW116551   1.778   4.311   1.121  0.7938 -0.4291  1.3496
 2737SOL    HW216552   1.785   4.420   1.242  0.9424  1.0421  0.0261
 2738SOL     OW16553   1.199   3.101   2.208 -0.0463  0.3903 -0.0439
 2738SOL    HW116554   1.167   3.046   2.131  0.2975  1.3973 -0.9332
 2738SOL    HW216555   1.136   3.178   2.221 -1.9174 -1.5189  2.7704
 2740SOL     OW16556   3.495   8.893   0.616 -0.6022  0.0005  0.4098
 2740SOL    HW116557   3.507   8.895   0.715 -0.2807 -1.1933  0.3950
 2740SOL    HW216558   3.582   8.914   0.572 -0.7330  0.4792  0.3810
 2741SOL     OW16559   2.520   9.654   1.076 -0.1781  0.2630 -0.3224
 2741SOL    HW116560   2.491   9.633   0.983 -1.3970 -0.1878  0.1564
 2741SOL    HW216561   2.503   9.751   1.096  1.7920  0.8226 -1.1764
 2742SOL     OW16562   1.070   4.797   1.906 -0.2726  0.1660  0.2903
 2742SOL    HW116563   1.128   4.725   1.869 -0.8601 -1.4792  2.4498
 2742SOL    HW216564   0.974   4.772   1.895 -0.4710  0.2866  1.6354
 2743SOL     OW16565   2.675   2.206   1.076 -0.1037  0.1146 -1.0679
 2743SOL    HW116566   2.629   2.295   1.075 -0.1224  0.1332  0.2620
 2743SOL    HW216567   2.705   2.183   0.984 -0.3232  1.3794 -1.4667
 2744SOL     OW16568   9.845   1.211   2.027  0.7202  0.1452  0.2362
 2744SOL    HW116569   9.945   1.205   2.019  0.7640  0.6404  0.3956
 2744SOL    HW216570   9.803   1.182   1.941  0.9546 -1.3598  0.6201
 2745SOL     OW16571   0.757   1.049   1.595  0.2733 -0.3129 -0.3135
 2745SOL    HW116572   0.769   1.144   1.625  0.1983 -0.7939  1.2821
 2745SOL    HW216573   0.719   1.048   1.503  3.0486  1.2096 -1.5261
 2746SOL     OW16574   4.973   2.439   0.349 -0.5729 -0.1957  0.5611
 2746SOL    HW116575   5.022   2.521   0.380  0.2581  0.1361 -1.5617
 2746SOL    HW216576   4.941   2.453   0.256 -0.6315 -2.2170  0.2670
 2747SOL     OW16577   9.344   2.216   1.085 -0.3549  0.2931 -0.4867
 2747SOL    HW116578   9.440   2.243   1.094 -0.7964  1.1124  2.4914
 2747SOL    HW216579   9.337   2.116   1.089  0.2709  0.2908  0.9607
 2749SOL     OW16580   1.955   5.065   1.458  0.4441  0.2289 -0.1703
 2749SOL    HW116581   2.049   5.055   1.425  1.2081  0.5554  1.8663
 2749SOL    HW216582   1.928   4.983   1.508 -0.1169  0.4211 -0.1565
 2750SOL     OW16583   1.271   4.254   0.931  0.1362  0.1650 -0.3341
 2750SOL    HW116584   1.365   4.290   0.935  0.8579 -1.5851 -1.0588
 2750SOL    HW216585   1.259   4.185   1.002 -0.6964  0.5534 -0.0935
 2751SOL     OW16586   1.693   1.124   0.565 -0.0098 -0.7106  0.0860
 2751SOL    HW116587   1.788   1.118   0.595 -0.8754 -1.1409  2.8336
 2751SOL    HW216588   1.676   1.056   0.493  2.0123  0.1293 -1.2302
 2752SOL     OW16589   0.490   7.194   0.843  0.4622  0.2830  0.7819
 2752SOL    HW116590   0.459   7.244   0.924  0.6386  2.4581 -0.4493
 2752SOL    HW216591   0.573   7.143   0.866  1.2761  1.9395  1.6596
 2753SOL     OW16592   2.049   4.422   1.401  0.6628 -0.1600  0.2710
 2753SOL    HW116593   2.012   4.388   1.315  2.0713  0.6115 -0.6468
 2753SOL    HW216594   2.078   4.517   1.390  1.7957 -0.3749  1.3129
 2754SOL     OW16595   1.198   9.095   1.103 -0.3249 -0.1731  0.3229
 2754SOL    HW116596   1.128   9.160   1.131  3.0127  3.0476  1.5929
 2754SOL    HW216597   1.229   9.117   1.011 -0.8016 -1.4620 -0.1573
 2755SOL     OW16598   3.191   4.909   0.356  0.1261 -0.6064 -0.4760
 2755SOL    HW116599   3.263   4.966   0.394  0.8943 -0.6990 -1.7543
 2755SOL    HW216600   3.224   4.816   0.342 -0.1554 -0.5994 -1.2637
 2756SOL     OW16601   0.681   0.539   0.970  0.2772 -0.0400 -0.3089
 2756SOL    HW116602   0.601   0.595   0.991  0.2851  0.0618 -0.5564
 2756SOL    HW216603   0.687   0.525   0.871  0.4021 -0.2877 -0.2651
 2758SOL     OW16604   1.123   8.558   1.266 -0.3063  0.3667  0.2683
 2758SOL    HW116605   1.087   8.651   1.271 -0.6350  0.2903 -0.5703
 2758SOL    HW216606   1.221   8.559   1.282 -0.2859  0.8719  0.1036
 2761SOL     OW16607   1.997   0.993   1.304 -0.3770  0.3471 -0.2674
 2761SOL    HW116608   1.962   1.064   1.365 -1.8338 -2.7757  2.6343
 2761SOL    HW216609   1.934   0.981   1.227 -0.5075  1.5914 -0.3717
 2762SOL     OW16610   2.611   8.120   0.598 -0.3884 -0.0689 -0.1435
 2762SOL    HW116611   2.591   8.205   0.548 -0.0315  0.1212  0.0381
 2762SOL    HW216612   2.706   8.119   0.626 -1.1020  0.8372  2.4358
 2763SOL     OW16613   2.394   8.718   1.093 -0.1150  0.5345 -0.0662
 2763SOL    HW116614   2.320   8.672   1.142  1.9004 -1.1928  1.4479
 2763SOL    HW216615   2.384   8.702   0.995 -1.5308  0.0450  0.1418
 2764SOL     OW16616   9.348   2.455   1.344  0.5536 -0.4723  0.1543
 2764SOL    HW116617   9.347   2.488   1.438 -0.1417 -0.7149  0.2354
 2764SOL    HW216618   9.260   2.413   1.322 -0.1288  1.6387 -1.3302
 2765SOL     OW16619   2.727   7.973   1.170  0.0038  0.1142  0.1252
 2765SOL    HW116620   2.665   7.979   1.091 -0.4508  0.7652  0.5310
 2765SOL    HW216621   2.780   8.058   1.176  1.1749 -0.5742 -0.4172
 2766SOL     OW16622   2.576   8.275   0.938  0.6984  0.2096 -0.2061
 2766SOL    HW116623   2.560   8.187   0.983  1.0478  0.4153  0.3286
 2766SOL    HW216624   2.488   8.316   0.913  0.3617  0.9853  2.0463
 2767SOL     OW16625   2.115   0.720   1.754 -0.5689  0.2307  0.6060
 2767SOL    HW116626   2.029   0.687   1.715  0.4647 -1.5734 -0.1966
 2767SOL    HW216627   2.098   0.805   1.804 -3.1707 -1.0766  2.0885
 2768SOL     OW16628   2.380   3.022   0.573 -0.3258 -0.3848  0.1790
 2768SOL    HW116629   2.386   2.922   0.570  1.7102 -0.2685 -0.1715
 2768SOL    HW216630   2.425   3.056   0.655 -3.0052  0.1504  1.4934
 2769SOL     OW16631   9.772   1.308   2.273 -0.9159  0.4125 -0.1605
 2769SOL    HW116632   9.684   1.349   2.249 -0.3414  0.9024 -1.5364
 2769SOL    HW216633   9.800   1.244   2.201 -1.8998 -2.6318  2.0805
 2770SOL     OW16634   3.768   5.058   1.459  0.4725 -0.2123 -0.1169
 2770SOL    HW116635   3.729   5.061   1.551  0.7384 -0.7791  0.0167
 2770SOL    HW216636   3.867   5.069   1.464  0.2565  2.2809 -0.5394
 2771SOL     OW16637   1.759   0.716   1.390 -0.1080  0.2823 -0.5594
 2771SOL    HW116638   1.706   0.644   1.345 -0.9120  0.9814 -0.7421
 2771SOL    HW216639   1.779   0.789   1.325 -0.3787  0.8071 -0.0619
 2772SOL     OW16640   1.463   3.921   1.063 -0.3379  0.5820  0.9185
 2772SOL    HW116641   1.474   3.826   1.091 -2.0434  0.1997  0.3662
 2772SOL    HW216642   1.386   3.962   1.113  0.0408  1.5093  0.7580
 2773SOL     OW16643   0.517   9.462   1.920 -0.6678 -0.3041 -0.3855
 2773SOL    HW116644   0.613   9.474   1.894 -1.0557 -0.2217 -1.7997
 2773SOL    HW216645   0.494   9.529   1.990  0.2722 -0.2361 -0.1291
 2776SOL     OW16646  10.022   5.804   2.200 -0.6293  0.0082  0.4782
 2776SOL    HW116647  10.001   5.713   2.235  0.8500 -0.2603  0.7295
 2776SOL    HW216648  10.028   5.869   2.276 -2.3834  0.4734  0.2339
 2777SOL     OW16649   3.034   0.298   1.543  0.7617  0.1235 -0.3333
 2777SOL    HW116650   3.091   0.219   1.568 -0.7337 -1.7976 -2.7747
 2777SOL    HW216651   3.056   0.326   1.449 -0.2571  1.2426 -0.2383
 2778SOL     OW16652   2.535   9.583   1.745  0.0245 -0.6597  0.1185
 2778SOL    HW116653   2.534   9.625   1.836  1.3800  0.4403 -0.3557
 2778SOL    HW216654   2.489   9.494   1.749 -1.7471  0.2710  1.4183
 2779SOL     OW16655   2.402   6.578   2.053  0.3390 -0.0159 -0.4888
 2779SOL    HW116656   2.369   6.534   2.136  2.5516  1.0264  1.0032
 2779SOL    HW216657   2.494   6.545   2.031  0.9291  1.7969 -0.8842
 2780SOL     OW16658   3.289   2.320   1.265  0.9787 -0.6480  0.3242
 2780SOL    HW116659   3.211   2.312   1.203  1.7789  0.8910 -0.9431
 2780SOL    HW216660   3.262   2.292   1.357 -0.7965 -1.0549 -0.3023
 2781SOL     OW16661   1.188   5.334   2.305  0.4428 -0.0634 -0.5185
 2781SOL    HW116662   1.174   5.432   2.320  0.4092 -0.1689  0.1800
 2781SOL    HW216663   1.233   5.320   2.217  0.8016  0.6103 -0.4531
 2783SOL     OW16664   9.886   2.346   1.134 -0.4830  0.3935  0.1602
 2783SOL    HW116665   9.794   2.305   1.135 -0.3188 -0.0026 -0.8150
 2783SOL    HW216666   9.954   2.276   1.154 -0.4833  0.9586  2.2564
 2784SOL     OW16667  10.373   6.212   0.585 -0.3853 -0.5606 -0.4076
 2784SOL    HW116668  10.391   6.304   0.618 -0.4638 -1.1943  1.4774
 2784SOL    HW216669  10.437   6.148   0.628 -2.1646 -1.7673  0.5199
 2785SOL     OW16670   4.691   2.749   1.570 -0.0948  0.3137  0.3382
 2785SOL    HW116671   4.724   2.689   1.498  1.0196  0.6247  0.5842
 2785SOL    HW216672   4.634   2.697   1.634 -2.5268  0.3784 -1.6802
 2787SOL     OW16673   2.303   3.137   1.961  0.2150  0.1718  0.0934
 2787SOL    HW116674   2.220   3.179   1.996 -0.6263 -1.0508 -0.3591
 2787SOL    HW216675   2.384   3.179   2.003 -0.5323  3.0188 -1.2483
 2789SOL     OW16676   2.967   5.612   0.748  0.3480 -0.2879 -0.1093
 2789SOL    HW116677   3.064   5.599   0.730  0.1698  0.5166 -1.7166
 2789SOL    HW216678   2.943   5.708   0.732 -0.8893 -0.6693 -0.5471
 2790SOL     OW16679   2.821   2.240   1.615 -0.3537  0.3394 -0.4351
 2790SOL    HW116680   2.887   2.289   1.671 -1.0450  1.5536 -0.6759
 2790SOL    HW216681   2.821   2.143   1.640 -0.9621  0.9242  1.9625
 2791SOL     OW16682   1.334   9.180   0.389 -0.1601 -0.3210  0.0074
 2791SOL    HW116683   1.275   9.246   0.344 -0.2818 -1.0624 -0.9256
 2791SOL    HW216684   1.293   9.151   0.476 -1.2863 -1.0149 -0.7483
 2793SOL     OW16685   9.509   5.362   1.715 -0.0630 -0.1232  0.8125
 2793SOL    HW116686   9.601   5.342   1.681  0.6319  0.1186  2.5010
 2793SOL    HW216687   9.479   5.450   1.680  0.3537 -0.1975  0.2659
 2794SOL     OW16688   9.913   6.483   1.187  0.2607 -0.0725 -0.2693
 2794SOL    HW116689   9.955   6.492   1.277 -0.9646 -0.2813  0.3468
 2794SOL    HW216690   9.814   6.494   1.196 -0.2563 -3.3377 -1.0638
 2796SOL     OW16691   4.659   1.474   1.242 -0.1839 -0.2835  0.4085
 2796SOL    HW116692   4.607   1.499   1.324 -1.8756 -1.1494 -0.3924
 2796SOL    HW216693   4.682   1.557   1.191 -0.7954  0.1096  0.7642
 2797SOL     OW16694   1.240   2.632   0.480 -0.1726  0.4914  0.1926
 2797SOL    HW116695   1.322   2.575   0.476 -0.1294  0.6272 -0.9665
 2797SOL    HW216696   1.260   2.715   0.532 -0.0672 -0.2598  1.3667
 2798SOL     OW16697   0.754   0.703   1.962  0.4234 -0.3019  0.2542
 2798SOL    HW116698   0.840   0.668   1.925 -0.8099 -3.2142 -0.0790
 2798SOL    HW216699   0.718   0.774   1.901 -0.1959 -3.0825 -2.7784
 2799SOL     OW16700   2.017   6.600   0.822  0.4379  0.3969 -0.7101
 2799SOL    HW116701   2.088   6.531   0.806 -0.0447 -0.0708 -0.8253
 2799SOL    HW216702   1.991   6.643   0.736  0.5814  0.5740 -0.6670
 2800SOL     OW16703   2.562   9.290   2.050  0.0722 -0.5227 -0.7689
 2800SOL    HW116704   2.638   9.354   2.061 -0.9114  0.8183 -1.6791
 2800SOL    HW216705   2.502   9.321   1.977 -0.8684 -2.0633 -0.6814
 2801SOL     OW16706   1.452   9.694   0.864  0.5418  0.6909 -0.1618
 2801SOL    HW116707   1.424   9.642   0.944 -1.1742  1.1461 -0.4532
 2801SOL    HW216708   1.436   9.640   0.782 -0.0985  1.2153 -0.3785
 2802SOL     OW16709   0.784   9.122   0.995 -0.5950 -0.3868  0.2270
 2802SOL    HW116710   0.699   9.142   1.045 -1.3254  0.3777 -1.2628
 2802SOL    HW216711   0.861   9.122   1.058 -1.1462  3.0354  1.0422
 2803SOL     OW16712   4.560   3.385   1.868 -0.1690 -0.4630 -0.0545
 2803SOL    HW116713   4.576   3.376   1.967 -0.4551 -0.0049  0.0314
 2803SOL    HW216714   4.478   3.439   1.852 -0.2355 -0.7039 -0.5454
 2804SOL     OW16715   0.797   6.751   1.993  0.1063  0.0850  0.4803
 2804SOL    HW116716   0.895   6.741   2.007  0.1631 -1.6957 -0.9458
 2804SOL    HW216717   0.765   6.678   1.933 -1.6794  2.0273 -0.9925
 2806SOL     OW16718   3.528   8.874   0.889 -0.6327  0.4336 -0.3054
 2806SOL    HW116719   3.611   8.929   0.899  0.7105 -1.9343  2.3273
 2806SOL    HW216720   3.451   8.921   0.931  0.1979  0.9722  0.6340
 2807SOL     OW16721   3.819   1.131   1.465 -0.1166  0.0160  0.1496
 2807SOL    HW116722   3.845   1.142   1.369 -2.4878 -0.5478 -0.5977
 2807SOL    HW216723   3.874   1.059   1.507  1.3955  0.7219 -0.6020
 2809SOL     OW16724   2.211   7.832   2.020  0.2563 -0.6370  0.1900
 2809SOL    HW116725   2.193   7.809   1.925  1.1528  0.7480 -0.3363
 2809SOL    HW216726   2.178   7.759   2.080 -0.0340 -1.6456 -1.1967
 2810SOL     OW16727   2.442   7.976   2.047  0.9905  0.6694  0.6454
 2810SOL    HW116728   2.359   7.920   2.041  0.8069  0.7008  2.5202
 2810SOL    HW216729   2.519   7.924   2.011  0.5558 -0.2389  0.9880
 2811SOL     OW16730   2.976   1.473   1.138  0.2809  0.5750  0.5492
 2811SOL    HW116731   2.881   1.469   1.106  0.2893  0.1916  0.5786
 2811SOL    HW216732   2.985   1.545   1.207  0.0317  0.6717  0.4802
 2813SOL     OW16733   4.889   2.874   0.389  0.4095  0.2695 -0.1187
 2813SOL    HW116734   4.817   2.868   0.458 -0.1849  0.4511 -0.7152
 2813SOL    HW216735   4.977   2.887   0.434 -0.1293  1.6783  0.5538
 2814SOL     OW16736   1.530   4.894   1.659  0.2976  0.0888  0.0545
 2814SOL    HW116737   1.440   4.907   1.701 -0.2355  0.3698 -1.1602
 2814SOL    HW216738   1.550   4.796   1.655  0.1881  0.0431  0.6335
 2815SOL     OW16739   1.899   5.962   0.637 -0.2774  0.2459  0.3024
 2815SOL    HW116740   1.864   5.913   0.557 -0.9758 -1.3482  1.5453
 2815SOL    HW216741   1.923   5.896   0.709  4.5047  1.3096 -0.1465
 2816SOL     OW16742   9.766   4.913   0.325  0.3383 -0.0722  0.4363
 2816SOL    HW116743   9.684   4.961   0.295  1.0786  0.0007 -1.5572
 2816SOL    HW216744   9.840   4.929   0.260  1.8879 -0.3112  2.0823
 2817SOL     OW16745   9.281   2.067   1.377  0.1244  0.4796  0.5353
 2817SOL    HW116746   9.358   2.046   1.316  1.7584  0.9805  2.3980
 2817SOL    HW216747   9.246   1.982   1.417 -0.8319  0.1690 -0.9237
 2818SOL     OW16748   1.155   6.118   1.171  0.0124  0.3095 -0.2616
 2818SOL    HW116749   1.110   6.169   1.097 -1.5583  1.3787  1.3896
 2818SOL    HW216750   1.087   6.064   1.220  0.9323  0.1019  0.7985
 2819SOL     OW16751   2.889   6.981   0.973 -0.5172  0.0597 -0.5102
 2819SOL    HW116752   2.910   6.988   1.071 -2.0566  0.5504 -0.2022
 2819SOL    HW216753   2.865   7.071   0.937 -1.4082 -0.3577 -0.9858
 2820SOL     OW16754   1.682  10.036   0.462  0.3136 -0.4279  0.3007
 2820SOL    HW116755   1.611   9.966   0.457 -0.7143  0.5907  0.5656
 2820SOL    HW216756   1.645  10.119   0.504  1.6305  0.1455  0.3603
 2821SOL     OW16757   0.813   1.508   2.190 -0.2445  0.3452  0.2956
 2821SOL    HW116758   0.807   1.575   2.264  0.9377 -0.0681  0.7756
 2821SOL    HW216759   0.732   1.516   2.132 -0.8118  1.2018  1.1776
 2822SOL     OW16760   3.535   8.564   0.655  0.8357 -0.5712  0.1252
 2822SOL    HW116761   3.454   8.622   0.648  0.3145 -1.1993  0.9562
 2822SOL    HW216762   3.524   8.484   0.596  1.6862  0.3111 -1.2597
 2823SOL     OW16763   2.121   4.404   0.621 -0.0352  0.1619  0.3743
 2823SOL    HW116764   2.024   4.410   0.596 -0.6446 -1.8678  2.0632
 2823SOL    HW216765   2.165   4.331   0.568  0.0836 -0.2343  1.0124
 2824SOL     OW16766   0.597   1.041   1.101 -0.2183  0.2141 -0.5868
 2824SOL    HW116767   0.653   1.040   1.019 -0.5673 -0.3901 -0.8162
 2824SOL    HW216768   0.547   1.128   1.106 -1.2163 -0.2873 -1.6984
 2825SOL     OW16769   2.468   7.504   0.422  0.5038  0.0582  0.2476
 2825SOL    HW116770   2.511   7.593   0.431  0.8961 -0.1325  0.2417
 2825SOL    HW216771   2.472   7.474   0.327 -2.7279  1.6051 -0.4701
 2826SOL     OW16772   0.621   7.341   0.338 -0.2660  0.3755 -0.1075
 2826SOL    HW116773   0.554   7.329   0.412  0.4056  1.0222  0.6159
 2826SOL    HW216774   0.590   7.413   0.277 -0.7944 -0.1168 -0.4201
 2827SOL     OW16775   2.324   8.817   0.603  0.0574 -0.0225  0.1105
 2827SOL    HW116776   2.226   8.837   0.604  0.2016  0.7970 -1.5023
 2827SOL    HW216777   2.376   8.901   0.583  0.9990 -0.7417 -0.5446
 2828SOL     OW16778   3.104   9.947   1.308  0.3707  0.1198 -0.0054
 2828SOL    HW116779   3.149   9.998   1.381 -0.0313 -1.0047  1.0461
 2828SOL    HW216780   3.123   9.849   1.320  0.8902 -0.0239 -1.8167
 2829SOL     OW16781   2.777   9.840   1.006 -0.1160 -0.2079 -0.2890
 2829SOL    HW116782   2.799   9.905   1.079  1.6068 -0.1202 -0.8516
 2829SOL    HW216783   2.691   9.866   0.963 -0.4802  0.5068  0.8439
 2830SOL     OW16784   0.501   0.572   1.456  0.0150  0.2251  0.3180
 2830SOL    HW116785   0.475   0.480   1.487 -0.6035  0.4269  0.3998
 2830SOL    HW216786   0.450   0.596   1.374  0.7762  0.1758 -0.1784
 2833SOL     OW16787   3.578  10.107   1.866  0.0211 -0.0245  0.0980
 2833SOL    HW116788   3.528  10.189   1.894  0.2568 -0.2640  1.2432
 2833SOL    HW216789   3.670  10.108   1.906 -1.0890 -2.4344  2.9305
 2834SOL     OW16790  10.204   4.110   1.462  0.3706  0.2206 -0.0574
 2834SOL    HW116791  10.141   4.169   1.512 -1.6919 -3.3347  1.7725
 2834SOL    HW216792  10.161   4.082   1.375  0.1131 -0.8146  0.3915
 2835SOL     OW16793  10.396   2.955   0.988 -0.3944  0.4544  0.2311
 2835SOL    HW116794  10.386   3.037   0.932  3.5565  0.2268 -0.9318
 2835SOL    HW216795  10.444   2.978   1.073  0.3124 -0.5286  0.1143
 2837SOL     OW16796   0.649   7.017   0.625  0.4935 -0.6449 -0.0202
 2837SOL    HW116797   0.672   7.009   0.722  0.7716 -1.4419 -0.1526
 2837SOL    HW216798   0.721   7.070   0.578 -1.1190  2.3658  0.7551
 2838SOL     OW16799   2.596   6.739   1.578  0.4655 -0.3168 -0.3244
 2838SOL    HW116800   2.535   6.660   1.565 -0.4566  0.4581 -0.7873
 2838SOL    HW216801   2.691   6.708   1.581  0.0342 -1.5829  0.7358
 2839SOL     OW16802   2.078   4.859   2.050 -0.2532  0.0565  0.6936
 2839SOL    HW116803   2.072   4.904   1.960  0.6097  0.6826  0.9506
 2839SOL    HW216804   1.991   4.871   2.098 -0.3197  0.7191  0.4158
 2840SOL     OW16805   1.698   4.343   1.949 -0.5244  0.2797 -0.3120
 2840SOL    HW116806   1.665   4.351   2.043  0.1620 -0.6201  0.0157
 2840SOL    HW216807   1.623   4.316   1.889 -0.8462  0.3277  0.0695
 2841SOL     OW16808   3.814   2.471   0.742  0.6531  0.2318  0.0896
 2841SOL    HW116809   3.733   2.413   0.737  0.2097  0.8247  0.3528
 2841SOL    HW216810   3.869   2.447   0.822 -0.1039  0.9143  0.8211
 2842SOL     OW16811   2.049   3.395   0.328 -0.5631  0.1068  0.0043
 2842SOL    HW116812   2.081   3.464   0.263 -1.0269 -0.5450 -0.9219
 2842SOL    HW216813   2.068   3.304   0.292  1.3022 -0.2575  1.8437
 2843SOL     OW16814   0.892   8.999   0.718 -0.3313  0.4117 -0.4014
 2843SOL    HW116815   0.818   8.933   0.716  0.0148  0.0071 -0.1136
 2843SOL    HW216816   0.898   9.040   0.809  0.3298 -0.1722 -0.1795
 2844SOL     OW16817   2.937   0.824   1.397 -0.1394  0.2378 -0.3168
 2844SOL    HW116818   3.012   0.830   1.464 -0.1895  1.1021 -0.3402
 2844SOL    HW216819   2.966   0.865   1.311 -1.3801  2.5091  0.3249
 2846SOL     OW16820   9.803   2.558   0.443 -0.1670 -0.1564  0.2721
 2846SOL    HW116821   9.705   2.548   0.463 -0.4594  0.0711 -0.9659
 2846SOL    HW216822   9.829   2.654   0.451 -0.0070 -0.2395  0.7540
 2847SOL     OW16823   3.452   4.603   0.698 -0.3165  0.5931  0.0921
 2847SOL    HW116824   3.423   4.693   0.731 -2.3292  0.1938 -0.5438
 2847SOL    HW216825   3.552   4.601   0.689 -0.3639  3.2244 -1.2830
 2849SOL     OW16826   4.074   1.316   0.962  0.5057 -0.2928 -0.1209
 2849SOL    HW116827   3.995   1.302   0.902 -0.8986  1.4287  1.2842
 2849SOL    HW216828   4.152   1.346   0.907 -0.5688  0.6181 -1.1879
 2850SOL     OW16829   2.643   3.660   1.115  0.3373  0.5699  0.3511
 2850SOL    HW116830   2.596   3.724   1.176  0.2817  0.7832  0.0841
 2850SOL    HW216831   2.659   3.704   1.026  0.0398  0.1197  0.0713
 2851SOL     OW16832  10.013   3.875   1.069 -0.5587  0.2583  0.2287
 2851SOL    HW116833  10.087   3.807   1.065 -1.0977 -0.3286  0.1068
 2851SOL    HW216834  10.006   3.920   0.980 -1.1913 -0.5965 -0.1606
 2852SOL     OW16835   2.309   4.096   0.633  0.2656 -0.3306  0.0345
 2852SOL    HW116836   2.301   4.140   0.544  0.6864  1.1534  0.7109
 2852SOL    HW216837   2.226   4.113   0.686  0.4150 -0.3868  0.2862
 2853SOL     OW16838   3.908   9.592   1.974 -0.4015  0.5520  0.3487
 2853SOL    HW116839   3.838   9.559   2.038 -1.0885  0.9385 -0.1886
 2853SOL    HW216840   3.897   9.691   1.962  0.3626  0.6414  0.4082
 2854SOL     OW16841   2.836   1.159   1.137  0.4539 -0.0995  0.1720
 2854SOL    HW116842   2.795   1.083   1.187 -0.2358 -0.2534 -0.6148
 2854SOL    HW216843   2.926   1.178   1.174  1.0285 -1.9249 -0.2432
 2855SOL     OW16844   1.274   8.226   0.805 -0.6763  0.0022 -0.3790
 2855SOL    HW116845   1.280   8.288   0.883 -1.5455 -0.9157  0.4269
 2855SOL    HW216846   1.331   8.261   0.731 -1.6202  2.0823 -0.1659
 2856SOL     OW16847   2.402   7.736   1.729 -0.1566  0.4684 -0.6951
 2856SOL    HW116848   2.322   7.679   1.746 -0.2763  0.7050 -0.4456
 2856SOL    HW216849   2.483   7.693   1.767  0.0529 -0.3992 -2.0956
 2857SOL     OW16850   4.402   2.906   1.218  0.9375 -0.1239  0.4154
 2857SOL    HW116851   4.342   2.971   1.265 -1.0778 -1.9586  0.4645
 2857SOL    HW216852   4.482   2.888   1.275 -0.2853 -0.4538  2.1050
 2858SOL     OW16853  10.262   2.266   0.521  0.2358  0.2720 -0.0825
 2858SOL    HW116854  10.313   2.348   0.547  1.9823 -0.4023 -1.2928
 2858SOL    HW216855  10.174   2.293   0.480  0.2852  1.4855  0.5739
 2859SOL     OW16856   3.602   4.094   2.353 -0.1734 -0.0993 -0.2035
 2859SOL    HW116857   3.541   4.021   2.382  0.0873 -0.5660 -0.8105
 2859SOL    HW216858   3.628   4.080   2.257  3.3414 -1.6371  0.8899
 2860SOL     OW16859   1.839   2.108   2.345  0.0641  0.2800 -0.3384
 2860SOL    HW116860   1.811   2.075   2.255 -1.9247 -0.8375  0.6278
 2860SOL    HW216861   1.840   2.208   2.345 -0.8383  0.3022 -1.3419
 2861SOL     OW16862   1.152   4.596   0.334  0.3375  0.0017 -0.3078
 2861SOL    HW116863   1.102   4.562   0.414 -0.3627 -0.0451 -0.7648
 2861SOL    HW216864   1.221   4.529   0.308 -0.4816 -0.7039 -0.6955
 2862SOL     OW16865   0.893   5.287   1.598  0.1830  0.1761 -0.0505
 2862SOL    HW116866   0.834   5.348   1.652  1.5439  1.1730  0.3283
 2862SOL    HW216867   0.844   5.202   1.581 -1.9789  1.5653 -1.0700
 2863SOL     OW16868   0.551   9.686   2.143 -0.0721  0.4733  0.6484
 2863SOL    HW116869   0.627   9.751   2.148  0.8857 -0.3653 -2.1272
 2863SOL    HW216870   0.557   9.622   2.220  0.9577  1.5679  1.4957
 2864SOL     OW16871   1.911   1.590   1.237  0.1152 -0.1943 -0.0903
 2864SOL    HW116872   1.840   1.659   1.253  0.7487  0.3859  0.2260
 2864SOL    HW216873   1.959   1.571   1.323  0.7271 -0.1657 -0.4221
 2865SOL     OW16874   2.383   3.827   2.063  0.1590 -0.1181 -0.2127
 2865SOL    HW116875   2.393   3.753   1.996 -0.6318 -1.1491  0.7923
 2865SOL    HW216876   2.431   3.804   2.147  0.1846  0.6657 -0.0022
 2866SOL     OW16877   3.193   1.558   1.488 -0.2991 -0.5822  0.1376
 2866SOL    HW116878   3.169   1.484   1.551 -0.3320 -1.0178 -0.3786
 2866SOL    HW216879   3.113   1.583   1.434  0.2049 -1.5502 -1.0889
 2867SOL     OW16880  10.163   0.687   0.402 -0.3880  0.0100  0.7435
 2867SOL    HW116881  10.143   0.772   0.353  2.6070 -0.0058 -0.5824
 2867SOL    HW216882  10.213   0.625   0.341 -2.0695 -2.5183  1.8600
 2869SOL     OW16883   0.901   3.480   2.335  0.2788  0.1574 -0.1259
 2869SOL    HW116884   0.814   3.502   2.292  0.1152 -1.5394 -0.7243
 2869SOL    HW216885   0.973   3.482   2.266  0.5645  0.6111  0.1795
 2870SOL     OW16886   2.827   2.719   1.611  0.0157  0.3030 -0.6628
 2870SOL    HW116887   2.922   2.749   1.608  0.0194  0.2236 -2.0697
 2870SOL    HW216888   2.768   2.794   1.641  0.7250 -0.2385  2.1866
 2871SOL     OW16889   1.217   1.139   1.796  0.4270  0.1138 -0.3489
 2871SOL    HW116890   1.188   1.234   1.807  0.2044  0.0013  0.0361
 2871SOL    HW216891   1.163   1.080   1.856 -0.4575 -0.4361 -1.6607
 2872SOL     OW16892   2.201   6.879   1.377  0.6062  0.1376 -0.6345
 2872SOL    HW116893   2.174   6.954   1.318  0.9443  0.9506  0.2378
 2872SOL    HW216894   2.256   6.913   1.453  2.4612 -1.2422 -1.3172
 2873SOL     OW16895   1.972   4.047   2.287 -0.4624 -0.5903  0.1295
 2873SOL    HW116896   1.983   4.119   2.218  0.5881 -0.4704  0.4137
 2873SOL    HW216897   1.980   3.958   2.243  0.5796 -0.5131  0.1351
 2875SOL     OW16898   9.502   5.330   2.291  0.2521  0.2967  0.2946
 2875SOL    HW116899   9.498   5.308   2.193 -0.3478 -2.3372  0.8618
 2875SOL    HW216900   9.428   5.392   2.314 -0.7432 -0.5247 -0.6034
 2876SOL     OW16901   3.185  10.274   2.287  0.5001  0.8979  0.1162
 2876SOL    HW116902   3.187  10.261   2.386  0.5738 -1.6337 -0.1938
 2876SOL    HW216903   3.269  10.238   2.246 -1.1322 -1.5495 -1.2177
 2877SOL     OW16904   3.994   1.707   0.917  0.5004  0.4623 -0.8302
 2877SOL    HW116905   4.008   1.679   0.822 -0.6550 -1.7030 -0.4046
 2877SOL    HW216906   3.898   1.733   0.930 -0.1788 -2.5166  0.4888
 2878SOL     OW16907   1.423   3.490   0.441 -0.0841  0.1960 -0.3826
 2878SOL    HW116908   1.429   3.424   0.365  0.3210 -0.5481  0.2831
 2878SOL    HW216909   1.328   3.518   0.453 -0.3385 -0.6380 -0.3694
 2880SOL     OW16910   3.181   1.365   0.477 -0.2671 -0.5883 -0.1830
 2880SOL    HW116911   3.189   1.266   0.494 -2.7688 -0.8682 -0.4039
 2880SOL    HW216912   3.177   1.382   0.379  1.0256 -0.1725 -0.1713
 2881SOL     OW16913   1.566   1.519   1.797  0.9253  0.2877 -0.2787
 2881SOL    HW116914   1.655   1.510   1.842  1.1061 -0.1492 -0.7113
 2881SOL    HW216915   1.578   1.568   1.711  0.4609  1.7878  0.5026
 2882SOL     OW16916   3.801   4.824   2.044  0.3594 -0.1764 -0.0197
 2882SOL    HW116917   3.898   4.838   2.063  0.4472 -0.5526 -0.1903
 2882SOL    HW216918   3.747   4.867   2.117  0.5637  2.6422 -1.4632
 2883SOL     OW16919   1.199   8.971   2.335 -0.3723 -0.3264  0.3299
 2883SOL    HW116920   1.250   9.048   2.296 -0.6832  0.4611  1.4760
 2883SOL    HW216921   1.102   8.994   2.337 -0.2669 -0.0050  2.3853
 2885SOL     OW16922  10.144   3.704   0.890 -0.3523  0.3717 -0.3989
 2885SOL    HW116923  10.208   3.758   0.836 -0.0955  0.7389  0.2692
 2885SOL    HW216924  10.194   3.637   0.945 -0.3273  2.1482  1.8230
 2886SOL     OW16925   3.247   8.367   0.395  0.6609 -0.0504 -0.1602
 2886SOL    HW116926   3.340   8.332   0.403  0.6759  0.2532  1.3205
 2886SOL    HW216927   3.231   8.400   0.302  1.5449 -1.4281 -0.8095
 2888SOL     OW16928   3.376   9.635   1.153 -0.2300  0.1889  0.3918
 2888SOL    HW116929   3.292   9.658   1.203 -1.0162 -1.7178  0.0110
 2888SOL    HW216930   3.413   9.549   1.188  1.1915  0.6635  0.0854
 2889SOL     OW16931   2.924   4.725   0.881  0.1029  0.3850  0.0038
 2889SOL    HW116932   2.968   4.714   0.792  0.8099 -0.9697  0.5008
 2889SOL    HW216933   2.845   4.664   0.888 -1.4024  2.2185 -0.5735
 2891SOL     OW16934   2.171   2.180   1.330  0.1144 -0.0143  0.1174
 2891SOL    HW116935   2.096   2.114   1.338 -0.2621  0.0065 -2.8188
 2891SOL    HW216936   2.246   2.153   1.390 -0.7979 -2.0600  0.3607
 2892SOL     OW16937   1.073   5.249   1.767 -0.5114  0.5414 -0.4902
 2892SOL    HW116938   1.034   5.191   1.839  0.3801 -0.3596 -0.7132
 2892SOL    HW216939   1.005   5.263   1.695 -0.5947 -0.6320 -0.6550
 2893SOL     OW16940   4.636   2.196   1.998  0.0450  0.2149 -0.1202
 2893SOL    HW116941   4.572   2.235   2.064  1.5756  0.8627  1.0092
 2893SOL    HW216942   4.655   2.100   2.022  0.8300  0.5350  0.5955
 2894SOL     OW16943   0.970   5.561   2.193  0.0968  1.0047  0.9827
 2894SOL    HW116944   0.912   5.505   2.253 -2.0317  1.9934 -0.0696
 2894SOL    HW216945   0.992   5.509   2.111  0.3877  0.7550  1.2188
 2896SOL     OW16946   2.704   0.669   1.473  0.1235 -0.5933  0.2831
 2896SOL    HW116947   2.797   0.693   1.448  0.2259 -0.4197  0.8153
 2896SOL    HW216948   2.673   0.729   1.547 -0.1246 -1.1706  0.6521
 2897SOL     OW16949   9.725   5.273   1.572 -0.0540 -0.1359  0.2444
 2897SOL    HW116950   9.650   5.213   1.542 -0.6807  0.2735  1.0006
 2897SOL    HW216951   9.755   5.329   1.495 -0.1066 -0.7461 -0.2232
 2898SOL     OW16952   2.188   9.099   0.806  0.4116 -0.4004 -0.0809
 2898SOL    HW116953   2.282   9.102   0.841 -0.2235 -1.4168  1.7929
 2898SOL    HW216954   2.135   9.034   0.861 -1.5813  0.7409 -0.6336
 2899SOL     OW16955   3.593   4.689   1.589  0.0503  0.0966  0.2896
 2899SOL    HW116956   3.512   4.687   1.530  0.2180  0.1923  0.0546
 2899SOL    HW216957   3.621   4.595   1.611  0.5614  0.0285 -0.5794
 2900SOL     OW16958   2.179   0.493   1.883 -0.6481 -0.7318 -0.0859
 2900SOL    HW116959   2.155   0.582   1.844  0.6906 -0.2039  0.2795
 2900SOL    HW216960   2.247   0.505   1.955 -2.0335 -1.8531  1.4466
 2901SOL     OW16961   9.969   6.016   1.078  0.3080 -0.4971 -0.5572
 2901SOL    HW116962  10.025   6.058   1.149  1.9706 -0.5915 -1.7934
 2901SOL    HW216963   9.891   6.076   1.057  1.4714  0.9512 -0.7897
 2902SOL     OW16964   9.550   5.518   0.427 -0.0021 -0.1837  0.3095
 2902SOL    HW116965   9.515   5.438   0.477 -0.5179 -1.1946 -1.6476
 2902SOL    HW216966   9.590   5.582   0.493 -0.7970 -1.4143  2.0528
 2903SOL     OW16967   1.320   4.459   2.033  0.0221 -0.0150 -0.4203
 2903SOL    HW116968   1.395   4.419   1.981  0.8930  1.3370 -0.2368
 2903SOL    HW216969   1.285   4.392   2.099  1.7528 -0.3256  0.2026
 2904SOL     OW16970   0.842   3.822   2.283  0.3874 -0.9099  0.2944
 2904SOL    HW116971   0.814   3.756   2.213  0.2817  0.2997 -0.8204
 2904SOL    HW216972   0.938   3.846   2.269  0.2647 -0.3942  0.3592
 2905SOL     OW16973   3.461   4.187   1.576  0.1340 -0.7763 -0.1999
 2905SOL    HW116974   3.365   4.183   1.604 -0.4260 -0.3967 -1.9870
 2905SOL    HW216975   3.495   4.281   1.586  0.7020 -1.1474  1.5806
 2906SOL     OW16976   9.949   0.778   2.046  0.0939 -0.4453 -0.2878
 2906SOL    HW116977   9.888   0.793   1.968  0.3413 -0.1076 -0.4188
 2906SOL    HW216978   9.928   0.844   2.118  0.2618 -0.3691 -0.3079
 2908SOL     OW16979   1.964   9.564   1.965 -0.1770 -0.2442  0.2021
 2908SOL    HW116980   1.961   9.484   2.024 -0.6240  0.9042  1.7731
 2908SOL    HW216981   1.872   9.583   1.930 -0.2619  0.1782  0.6524
 2909SOL     OW16982   3.537   8.428   2.010  0.9027  0.5375  0.4898
 2909SOL    HW116983   3.533   8.328   2.010  0.3911  0.5549 -0.0031
 2909SOL    HW216984   3.614   8.458   1.955  0.4532  0.4295 -0.2092
 2913SOL     OW16985   2.146   7.124   1.581  0.2911  0.4212 -0.3519
 2913SOL    HW116986   2.061   7.070   1.581  0.7871 -0.3759  1.4888
 2913SOL    HW216987   2.223   7.065   1.559  0.5508  0.8679 -0.6511
 2914SOL     OW16988   2.920   7.500   0.476 -0.3942 -0.1247  0.1102
 2914SOL    HW116989   3.003   7.550   0.451 -1.1947  0.3225 -1.7538
 2914SOL    HW216990   2.849   7.516   0.408 -1.9962 -0.6057  1.6144
 2916SOL     OW16991   3.735   2.850   1.774 -0.2675 -0.4207 -0.4158
 2916SOL    HW116992   3.799   2.892   1.710 -0.0205 -1.1878 -0.6847
 2916SOL    HW216993   3.726   2.907   1.856  0.2827 -0.0000 -0.6495
 2918SOL     OW16994   1.419   5.653   1.752  0.3509 -0.6614  0.0145
 2918SOL    HW116995   1.467   5.567   1.731 -0.1462 -1.1778  0.9417
 2918SOL    HW216996   1.430   5.674   1.849 -0.6326 -0.3628  0.0632
 2920SOL     OW16997   1.979   2.390   1.333  0.0504  0.6857 -0.4810
 2920SOL    HW116998   1.903   2.345   1.286 -0.6843  1.0114  0.3732
 2920SOL    HW216999   2.056   2.326   1.341 -0.6465 -0.1133 -0.1072
 2921SOL     OW17000   1.197   6.623   0.331  0.1829  0.0700 -0.4356
 2921SOL    HW117001   1.153   6.652   0.246 -0.4354  0.7194  0.0936
 2921SOL    HW217002   1.233   6.703   0.379  0.3675 -0.2736  0.0062
 2922SOL     OW17003   1.566   8.182   2.007 -0.4447  0.5345  0.1300
 2922SOL    HW117004   1.638   8.138   1.953  1.1514  0.3085  2.4068
 2922SOL    HW217005   1.487   8.200   1.948  1.4519  0.7884 -2.4141
 2923SOL     OW17006  10.148   5.542   1.803 -0.3257 -0.0412  0.0548
 2923SOL    HW117007  10.157   5.448   1.769 -0.3883 -0.2522  0.6139
 2923SOL    HW217008  10.235   5.572   1.842 -0.1387  0.3455 -0.6445
 2924SOL     OW17009   4.146   0.640   0.865 -0.2428 -0.3149  0.2354
 2924SOL    HW117010   4.138   0.702   0.942  1.4230  0.6564 -0.3434
 2924SOL    HW217011   4.216   0.673   0.802 -0.3783 -1.9853 -0.8492
 2925SOL     OW17012   3.023   6.782   1.945  0.2816  0.3558 -0.2239
 2925SOL    HW117013   3.039   6.703   2.003  0.9163  0.7869  0.1988
 2925SOL    HW217014   2.927   6.811   1.952  0.6455  1.1472  1.5484
 2927SOL     OW17015   3.347   1.206   1.817  0.1673  0.0681 -0.0820
 2927SOL    HW117016   3.280   1.257   1.870  0.1738  1.0988 -1.0324
 2927SOL    HW217017   3.311   1.116   1.793  0.7135 -0.9701  2.8492
 2928SOL     OW17018   3.559   3.554   0.328  0.0252 -0.0609  0.2908
 2928SOL    HW117019   3.643   3.554   0.273  1.0443  1.4793  1.7912
 2928SOL    HW217020   3.506   3.472   0.307 -0.5633  1.3486 -4.3549
 2931SOL     OW17021   9.641   2.042   1.477  0.0500 -0.2448  0.0429
 2931SOL    HW117022   9.570   1.972   1.486  0.5522 -0.7037  0.5252
 2931SOL    HW217023   9.614   2.124   1.528 -0.1379 -0.4117  0.2124
 2932SOL     OW17024   1.297   4.965   1.825  1.1245 -0.1092  0.7032
 2932SOL    HW117025   1.323   5.046   1.877 -3.6458  1.8124  0.3409
 2932SOL    HW217026   1.248   4.901   1.885  1.7075 -1.0693  0.1595
 2933SOL     OW17027   1.784   9.098   0.844  0.1375 -0.1045 -0.2483
 2933SOL    HW117028   1.762   9.038   0.921 -2.3459  0.1385 -0.6994
 2933SOL    HW217029   1.765   9.049   0.758 -2.7631  1.5193 -0.6201
 2934SOL     OW17030   9.698   2.175   0.524 -0.0483 -0.0501 -0.3915
 2934SOL    HW117031   9.777   2.237   0.526 -0.7331  0.8100  1.1143
 2934SOL    HW217032   9.636   2.198   0.599 -1.3497 -1.2270 -1.0835
 2936SOL     OW17033   0.468   2.427   0.570  0.2299  0.5918  0.1608
 2936SOL    HW117034   0.534   2.478   0.627  1.3553  0.4510 -1.0045
 2936SOL    HW217035   0.508   2.408   0.481 -2.0374  2.0527 -1.2230
 2937SOL     OW17036   0.717   5.924   1.530 -0.4434  0.1325 -0.5810
 2937SOL    HW117037   0.727   5.836   1.577 -2.1690  0.3480  0.2454
 2937SOL    HW217038   0.711   5.997   1.598  0.9783  0.8989 -1.2637
 2938SOL     OW17039  10.344   3.569   1.769 -0.6618  0.4892 -0.0771
 2938SOL    HW117040  10.377   3.481   1.732 -0.8505  0.2485  0.3322
 2938SOL    HW217041  10.325   3.631   1.693  1.2314  0.8118 -0.3211
 2939SOL     OW17042   4.684   4.549   0.923 -0.1677  0.4328 -0.0402
 2939SOL    HW117043   4.756   4.534   0.991  1.5816 -1.5496 -2.2914
 2939SOL    HW217044   4.606   4.491   0.945  1.3742 -2.1032 -1.1002
 2940SOL     OW17045   4.242   3.886   1.930 -0.2183 -0.2597 -0.1955
 2940SOL    HW117046   4.241   3.788   1.950  0.8767 -0.7686 -2.4721
 2940SOL    HW217047   4.186   3.903   1.848  1.2560  0.7294 -1.0077
 2941SOL     OW17048   2.905   0.423   1.737 -0.0824  0.0426 -0.2046
 2941SOL    HW117049   2.944   0.382   1.655  0.3956  0.9586 -0.4401
 2941SOL    HW217050   2.916   0.360   1.814  0.9819 -0.1240 -0.4826
 2942SOL     OW17051   0.700   4.993   0.856 -0.3317 -0.1005 -0.4517
 2942SOL    HW117052   0.792   5.033   0.859  0.0855 -1.1149  0.6093
 2942SOL    HW217053   0.636   5.062   0.823  0.4379  1.3549  0.9814
 2943SOL     OW17054   1.621   8.531   0.435 -0.0066 -0.1446 -0.4790
 2943SOL    HW117055   1.603   8.433   0.424 -1.1448  0.1947 -1.7939
 2943SOL    HW217056   1.551   8.571   0.495  0.6481 -0.1925  0.3220
 2944SOL     OW17057   2.529   4.024   0.738  0.2011 -0.3618 -1.2411
 2944SOL    HW117058   2.447   4.048   0.686  1.1912  0.1031 -2.6122
 2944SOL    HW217059   2.593   3.974   0.679  1.5078  0.5088 -0.5970
 2945SOL     OW17060   9.628   1.044   0.706  0.5006  0.3764  0.2210
 2945SOL    HW117061   9.590   0.961   0.666  0.0531  0.5630  0.2547
 2945SOL    HW217062   9.689   1.020   0.781  0.2147  0.0854  0.3603
 2948SOL     OW17063   1.656   3.053   1.376  0.2013  0.0309  0.2817
 2948SOL    HW117064   1.643   3.015   1.285 -0.0846  0.2585  0.2257
 2948SOL    HW217065   1.754   3.066   1.394  0.3806 -1.8979  0.7827
 2949SOL     OW17066  10.172   4.393   0.730  0.2628  0.1271  0.1886
 2949SOL    HW117067  10.118   4.319   0.691  1.4223 -0.3194 -0.5911
 2949SOL    HW217068  10.258   4.402   0.681  1.4435  0.0260  2.1717
 2950SOL     OW17069   3.584   2.592   0.939 -0.8209 -0.1562 -0.2675
 2950SOL    HW117070   3.525   2.560   1.013  0.6605 -1.3821  0.4211
 2950SOL    HW217071   3.563   2.541   0.855 -2.1221  0.8449 -0.5606
 2951SOL     OW17072   9.985   4.711   0.378 -0.0257  0.1547 -0.4531
 2951SOL    HW117073   9.899   4.755   0.351 -0.8531 -1.2337 -0.1791
 2951SOL    HW217074  10.027   4.669   0.297  0.1273  0.3821 -0.4916
 2952SOL     OW17075   3.057   6.770   1.666 -0.4724 -0.2621  0.1868
 2952SOL    HW117076   3.151   6.780   1.631 -0.9005  0.0550 -0.8854
 2952SOL    HW217077   3.058   6.778   1.766  1.1049 -3.6538  0.4987
 2954SOL     OW17078   2.075   3.788   2.156  0.2297 -0.7641 -0.1386
 2954SOL    HW117079   2.083   3.772   2.057  1.0922 -0.6084 -0.1014
 2954SOL    HW217080   2.152   3.845   2.186 -1.8276  2.0448  0.0207
 2955SOL     OW17081   2.710   9.307   1.448  0.1684  0.1656  0.1517
 2955SOL    HW117082   2.767   9.245   1.394  2.0984  1.5871  0.5107
 2955SOL    HW217083   2.724   9.401   1.417 -0.1904  0.7899  1.8233
 2956SOL     OW17084   1.295   6.444   1.733 -0.2907  0.1110  0.6715
 2956SOL    HW117085   1.298   6.467   1.830 -1.7234 -0.8738  0.9701
 2956SOL    HW217086   1.200   6.429   1.704  0.3362 -2.9782 -0.0292
 2957SOL     OW17087   4.025  10.025   0.901  0.1477  0.3390 -0.6226
 2957SOL    HW117088   3.956   9.956   0.923 -1.0075  1.8003  0.3723
 2957SOL    HW217089   4.005  10.067   0.813  0.2895  0.1302 -0.7570
 2958SOL     OW17090   8.534   2.365   2.148 -0.0246  0.2525 -0.2509
 2958SOL    HW117091   8.537   2.383   2.050 -0.4423  2.2659  0.0875
 2958SOL    HW217092   8.449   2.402   2.186 -0.0520 -0.8679  0.8125
 2959SOL     OW17093   3.621   1.173   1.837 -0.3230 -0.6830 -0.2704
 2959SOL    HW117094   3.655   1.211   1.751  0.6987 -0.6038  0.1625
 2959SOL    HW217095   3.521   1.185   1.841 -0.6710 -2.5717 -2.3548
 2960SOL     OW17096   0.871   9.182   0.518  0.1038 -0.3926 -0.2783
 2960SOL    HW117097   0.778   9.219   0.507  0.4551  1.1485  1.7402
 2960SOL    HW217098   0.871   9.110   0.587  0.6599  0.6424  0.8164
 2961SOL     OW17099   0.546   6.001   0.707 -0.2237 -0.1160 -0.1371
 2961SOL    HW117100   0.562   6.059   0.787  0.2096 -0.7851  0.2684
 2961SOL    HW217101   0.496   5.919   0.735 -0.5546 -0.0931 -0.6515
 2962SOL     OW17102   9.508   5.321   0.847  0.2980 -0.2174 -0.2251
 2962SOL    HW117103   9.428   5.287   0.897 -0.3592 -0.3862 -1.3689
 2962SOL    HW217104   9.591   5.283   0.886 -0.2314 -0.5736  0.5522
 2963SOL     OW17105   1.197   6.828   0.522 -0.0522 -0.7317  0.7413
 2963SOL    HW117106   1.233   6.900   0.581 -1.1946  0.0461  0.5145
 2963SOL    HW217107   1.101   6.847   0.501  0.2267 -1.1984 -1.0421
 2964SOL     OW17108   4.895   3.582   1.734 -0.2082 -0.1084 -0.8900
 2964SOL    HW117109   4.987   3.547   1.747  0.5589  2.2128  0.2537
 2964SOL    HW217110   4.879   3.598   1.636  2.2762  3.6413 -0.7888
 2965SOL     OW17111   2.443   9.122   0.929  0.2840  0.0050  0.0984
 2965SOL    HW117112   2.480   9.029   0.922  2.0012  0.7358 -0.7856
 2965SOL    HW217113   2.485   9.169   1.007  0.5482  0.5357 -0.3609
 2967SOL     OW17114  10.046   6.357   2.106 -0.1156  0.0687  0.3766
 2967SOL    HW117115  10.099   6.290   2.159  2.2461  1.5888  0.0091
 2967SOL    HW217116  10.047   6.445   2.153 -0.7920  0.5787 -0.5462
 2969SOL     OW17117   0.752   6.694   1.689  0.5131 -0.4538 -0.1342
 2969SOL    HW117118   0.657   6.715   1.712  0.8065  0.0115  0.6606
 2969SOL    HW217119   0.787   6.763   1.626 -0.3334 -1.8052 -2.1175
 2970SOL     OW17120   0.825   4.733   2.257 -0.3202 -0.2093 -0.1545
 2970SOL    HW117121   0.896   4.747   2.325 -0.7159 -1.7127  0.6148
 2970SOL    HW217122   0.735   4.746   2.300 -0.5771 -1.3538 -0.3176
 2971SOL     OW17123   9.911   3.246   1.173  0.6584 -0.1312  0.4340
 2971SOL    HW117124   9.854   3.165   1.183  0.3515  0.0158 -0.0873
 2971SOL    HW217125   9.942   3.254   1.078 -2.3498  2.3403 -0.4496
 2972SOL     OW17126   1.867   1.524   0.700 -0.4405 -0.5194  0.1968
 2972SOL    HW117127   1.771   1.494   0.698 -0.1275 -1.5136 -0.1333
 2972SOL    HW217128   1.881   1.586   0.778 -2.1962  2.5172 -1.7856
 2974SOL     OW17129   4.204   1.668   0.576  0.5009  0.6424 -0.3330
 2974SOL    HW117130   4.208   1.724   0.493 -0.0990 -0.0699 -0.8480
 2974SOL    HW217131   4.110   1.639   0.593  0.8131 -0.2555 -0.1059
 2975SOL     OW17132   3.322   2.010   0.464  0.3556  0.6206  0.6568
 2975SOL    HW117133   3.296   1.924   0.418  0.0615  0.6791  0.7119
 2975SOL    HW217134   3.257   2.082   0.439  0.9446  0.9736  0.1504
 2976SOL     OW17135   1.603   3.553   1.229 -0.6616  0.1013  0.0589
 2976SOL    HW117136   1.678   3.530   1.167 -1.0095  1.1754 -0.7640
 2976SOL    HW217137   1.580   3.472   1.283  1.2310 -0.1907  0.4862
 2977SOL     OW17138   2.827   3.293   2.215  0.0026  0.3245  0.1658
 2977SOL    HW117139   2.781   3.204   2.213  0.5799 -0.0331  2.0997
 2977SOL    HW217140   2.925   3.278   2.228  0.1733  1.2281 -0.1096
 2978SOL     OW17141   2.899   4.060   1.526 -0.2852 -0.4233 -0.0220
 2978SOL    HW117142   2.983   4.111   1.504  1.1162 -2.5180  0.2706
 2978SOL    HW217143   2.874   4.078   1.621 -1.2969  1.7182 -0.6643
 2979SOL     OW17144   3.159   3.233   0.901  0.4010 -0.5061 -0.0529
 2979SOL    HW117145   3.232   3.289   0.942  0.2047 -1.1489  1.2215
 2979SOL    HW217146   3.071   3.265   0.935  0.3254 -1.9200  1.0910
 2980SOL     OW17147   3.219   4.026   1.707  0.1170 -0.3294  0.3133
 2980SOL    HW117148   3.138   4.006   1.762 -0.1045 -0.0604  0.0828
 2980SOL    HW217149   3.216   3.974   1.622 -0.3968  0.5736 -0.2307
 2981SOL     OW17150   4.948   3.956   0.987 -0.0802  0.0048 -0.0051
 2981SOL    HW117151   4.971   4.004   0.902  0.5935  0.9429  0.6945
 2981SOL    HW217152   5.021   3.891   1.008 -0.1331 -0.0584 -0.0155
 2984SOL     OW17153   4.099   0.744   1.363 -0.5292 -0.6736 -0.5517
 2984SOL    HW117154   4.133   0.669   1.419  1.0704 -1.3539 -2.4092
 2984SOL    HW217155   4.142   0.741   1.272 -0.6739  2.2677 -0.7705
 2985SOL     OW17156   2.863   5.669   2.219  0.1914  0.0207 -0.3504
 2985SOL    HW117157   2.869   5.744   2.285 -1.1567 -1.1089  1.0958
 2985SOL    HW217158   2.905   5.697   2.133  3.1358  1.1056  1.3387
 2986SOL     OW17159   2.334   8.000   1.303  0.0961  0.0556 -0.1099
 2986SOL    HW117160   2.414   8.050   1.335  0.7215 -1.1015  0.1780
 2986SOL    HW217161   2.332   7.910   1.346 -1.0323 -0.1452 -0.5765
 2987SOL     OW17162   1.539   6.453   1.101  0.0386  1.0929 -0.3710
 2987SOL    HW117163   1.497   6.366   1.125  0.0928  0.8583 -1.1438
 2987SOL    HW217164   1.599   6.483   1.176  0.0736  0.4377 -0.1382
 2989SOL     OW17165   1.089   2.105   1.720  0.0904  0.3365 -0.0336
 2989SOL    HW117166   1.014   2.151   1.768  0.3485  0.9401 -0.2012
 2989SOL    HW217167   1.177   2.135   1.759  0.2687  0.1663 -0.3031
 2991SOL     OW17168   4.696   4.451   1.383  0.0678  0.2110 -0.5004
 2991SOL    HW117169   4.681   4.522   1.452  2.5010  0.6456 -0.3631
 2991SOL    HW217170   4.727   4.367   1.427 -3.4209 -1.2006 -0.6003
 2995SOL     OW17171  10.248   5.433   1.058  0.1421 -0.1074  0.2884
 2995SOL    HW117172  10.348   5.427   1.056  0.1932  0.9314 -0.8865
 2995SOL    HW217173  10.221   5.522   1.094 -0.2649  1.5703 -3.8760
 2996SOL     OW17174   2.127   4.247   1.863 -0.0932 -0.2547 -0.0509
 2996SOL    HW117175   2.190   4.173   1.885 -0.6204 -0.4490  0.8403
 2996SOL    HW217176   2.121   4.257   1.764  1.0668 -0.4597 -0.1542
 2998SOL     OW17177   9.212   5.572   0.780  0.0500 -0.4145  0.0679
 2998SOL    HW117178   9.212   5.507   0.705 -0.5615 -0.3811  0.0353
 2998SOL    HW217179   9.260   5.533   0.858  0.2041 -0.6703 -0.1548
 2999SOL     OW17180   1.824   9.474   0.674  0.2180  0.0743  0.3411
 2999SOL    HW117181   1.767   9.419   0.735  0.8598 -0.8338  0.1298
 2999SOL    HW217182   1.869   9.415   0.608  1.1152  0.8188  0.2765
 3000SOL     OW17183   2.596   2.221   1.432  0.3653  0.3269 -0.2709
 3000SOL    HW117184   2.500   2.247   1.445  0.7393  0.8217  1.5691
 3000SOL    HW217185   2.651   2.256   1.508  1.8850 -0.6137 -0.9192
 3001SOL     OW17186   4.907   4.328   1.080  0.3534  0.8513 -0.1740
 3001SOL    HW117187   4.922   4.318   0.982  0.9131  4.5652 -0.5328
 3001SOL    HW217188   4.925   4.423   1.107 -1.0830  0.1992  3.2975
 3003SOL     OW17189   9.350   2.579   1.599 -0.1896  0.3563  0.0399
 3003SOL    HW117190   9.287   2.578   1.678 -2.1722 -0.5602 -1.4964
 3003SOL    HW217191   9.443   2.594   1.631 -0.9966  0.3127  2.5413
 3004SOL     OW17192   0.599   0.881   1.775 -0.0100  0.7495  0.1748
 3004SOL    HW117193   0.637   0.964   1.733  0.4307 -0.1075 -1.1236
 3004SOL    HW217194   0.502   0.895   1.794  0.4357  2.2022  1.6078
 3005SOL     OW17195  10.240   7.156   0.427 -0.3566 -0.3136 -0.1432
 3005SOL    HW117196  10.253   7.134   0.330  0.0296 -3.7378  0.5943
 3005SOL    HW217197  10.329   7.169   0.470 -0.4010 -1.3842  0.2780
 3006SOL     OW17198   4.223  10.096   1.353  0.0400  0.5077 -0.1535
 3006SOL    HW117199   4.124  10.094   1.367  0.0548 -0.3064 -0.1232
 3006SOL    HW217200   4.245  10.062   1.261  0.3455 -0.2900  0.2040
 3007SOL     OW17201   9.696   2.922   1.063  0.0787  0.1133  0.4293
 3007SOL    HW117202   9.763   2.849   1.059  0.9394  0.9413 -0.9805
 3007SOL    HW217203   9.682   2.951   1.157 -0.8847 -2.3980  1.0902
 3008SOL     OW17204   3.867   8.328   1.944 -0.1136  0.2152  0.2543
 3008SOL    HW117205   3.936   8.319   2.016 -1.0753 -0.4204  1.1160
 3008SOL    HW217206   3.792   8.264   1.962 -0.4006  0.1121 -1.2784
 3009SOL     OW17207   3.060   9.528   0.773  0.4524  0.0492  0.2917
 3009SOL    HW117208   3.140   9.587   0.780  1.3336 -1.2642  1.5610
 3009SOL    HW217209   3.032   9.498   0.864 -1.4180  0.3868 -0.1397
 3010SOL     OW17210   0.686   1.547   1.379 -0.0401 -0.4877  0.0907
 3010SOL    HW117211   0.696   1.543   1.280 -1.4360  1.3504 -0.1471
 3010SOL    HW217212   0.732   1.629   1.414  1.7699 -1.9148  1.1680
 3011SOL     OW17213   1.287   2.388   1.414  0.1499 -0.2913 -0.4786
 3011SOL    HW117214   1.342   2.410   1.333  1.1333  0.4904  0.3990
 3011SOL    HW217215   1.209   2.450   1.419  0.0892 -0.3362 -0.8135
 3012SOL     OW17216   4.361   1.677   2.331  0.0066  0.1285  0.5055
 3012SOL    HW117217   4.410   1.669   2.418 -0.9592 -0.8870  0.9729
 3012SOL    HW217218   4.318   1.767   2.325 -2.0419 -0.7132  2.2279
 3015SOL     OW17219   9.944   6.675   0.574  0.2849  0.3009 -1.0512
 3015SOL    HW117220   9.866   6.632   0.527  2.0861 -0.7314 -3.1938
 3015SOL    HW217221   9.997   6.605   0.621  0.4305  0.8662 -0.3768
 3016SOL     OW17222   2.744   6.440   1.716 -0.2367 -0.1604 -0.0051
 3016SOL    HW117223   2.693   6.358   1.690 -0.9327  0.0854  0.5741
 3016SOL    HW217224   2.750   6.501   1.637 -1.7418  0.2761  0.1930
 3017SOL     OW17225   9.744   1.135   1.432 -1.0087 -0.3060  0.6182
 3017SOL    HW117226   9.812   1.162   1.364 -0.7377 -0.2806  0.8975
 3017SOL    HW217227   9.680   1.209   1.447 -0.3927  0.1143  1.2253
 3018SOL     OW17228   9.922   3.256   2.010 -0.4010  0.2080  0.9746
 3018SOL    HW117229   9.849   3.276   2.075 -0.2967  0.4007  1.0335
 3018SOL    HW217230   9.903   3.169   1.964 -0.8872  0.4717  0.6723
 3020SOL     OW17231   2.227   3.568   1.355  0.1394  1.0636 -0.0169
 3020SOL    HW117232   2.187   3.620   1.430  3.2152  1.3638  1.5293
 3020SOL    HW217233   2.298   3.622   1.311  1.8720 -0.9608  0.1812
 3021SOL     OW17234   3.694   2.513   2.321  0.1673 -0.1680  0.1834
 3021SOL    HW117235   3.649   2.437   2.273  0.0603  1.3294 -2.1353
 3021SOL    HW217236   3.787   2.486   2.346 -0.1477 -1.3479  0.1249
 3022SOL     OW17237   9.534   2.570   0.512 -0.3328  0.2508  0.0935
 3022SOL    HW117238   9.465   2.615   0.456 -0.5803  1.8715  1.6635
 3022SOL    HW217239   9.497   2.552   0.603  1.3054  1.2525  0.9972
 3023SOL     OW17240   3.385   0.737   1.448 -0.0008 -0.4786  1.0975
 3023SOL    HW117241   3.453   0.792   1.496 -0.4165 -0.1973  1.3660
 3023SOL    HW217242   3.386   0.761   1.351  0.3438 -0.5396  1.0834
 3024SOL     OW17243   3.414   8.942   1.189  0.2821 -0.8232 -0.3790
 3024SOL    HW117244   3.453   8.864   1.141  0.2306  0.3756 -2.4195
 3024SOL    HW217245   3.317   8.949   1.168  0.1690 -0.5199  0.2351
 3026SOL     OW17246   9.180   3.098   0.980 -0.1307  0.0899  0.0301
 3026SOL    HW117247   9.256   3.140   1.031  0.1578 -0.8069  0.3582
 3026SOL    HW217248   9.166   3.147   0.895  0.9020  0.2059 -0.0875
 3027SOL     OW17249   9.602   2.783   0.743  0.5724 -0.7218 -0.0208
 3027SOL    HW117250   9.521   2.764   0.688 -0.1077 -1.4887  1.2205
 3027SOL    HW217251   9.608   2.717   0.818  1.5623  0.1995  0.7359
 3028SOL     OW17252   9.498   5.903   1.788 -0.2499 -0.0932 -0.5646
 3028SOL    HW117253   9.594   5.927   1.805 -0.3490 -0.9248  1.2909
 3028SOL    HW217254   9.439   5.957   1.848 -0.7769 -1.4510  0.1497
 3031SOL     OW17255   0.710   7.352   0.733 -0.3310 -0.4463  0.3068
 3031SOL    HW117256   0.625   7.300   0.731  0.1162 -1.1613 -0.2193
 3031SOL    HW217257   0.702   7.427   0.799 -1.2434 -0.7156  0.5026
 3032SOL     OW17258   5.107   3.738   1.039 -0.6270 -0.2321 -0.0831
 3032SOL    HW117259   5.186   3.775   0.990 -2.3105  0.9440 -1.9822
 3032SOL    HW217260   5.090   3.644   1.010 -1.5008  0.3969 -1.6553
 3033SOL     OW17261   9.679   6.136   1.032 -0.1791  0.0624 -0.1811
 3033SOL    HW117262   9.605   6.076   1.000  0.1459  0.3423 -1.4719
 3033SOL    HW217263   9.721   6.182   0.954 -1.2355  2.9592  0.8645
 3034SOL     OW17264   0.805   5.949   1.078  0.2392  0.2963 -0.4690
 3034SOL    HW117265   0.727   6.001   1.045  1.0077  3.2115  2.0719
 3034SOL    HW217266   0.869   5.934   1.002 -0.9245  1.3193 -1.6840
 3035SOL     OW17267   1.889   4.904   0.341 -0.7514 -0.4076  0.6507
 3035SOL    HW117268   1.949   4.835   0.383  1.1822 -0.4978 -2.1247
 3035SOL    HW217269   1.940   4.990   0.331 -1.1238 -0.4276 -1.5767
 3036SOL     OW17270   1.795   7.557   0.477 -0.2811  0.5709 -0.6421
 3036SOL    HW117271   1.711   7.600   0.511 -0.0166  1.0648 -0.6133
 3036SOL    HW217272   1.857   7.541   0.554 -0.2760  0.3664 -0.6886
 3038SOL     OW17273   0.864   4.081   0.772 -0.4883 -0.7847 -0.2035
 3038SOL    HW117274   0.799   4.114   0.704  0.8128  0.3287 -0.9199
 3038SOL    HW217275   0.931   4.152   0.792  0.6580 -2.0042  0.3440
 3040SOL     OW17276   1.726   9.381   1.372 -0.2054  0.2430 -0.1248
 3040SOL    HW117277   1.818   9.398   1.408 -0.1474 -0.0216 -0.1438
 3040SOL    HW217278   1.666   9.351   1.447 -0.0166 -0.5646 -0.2937
 3042SOL     OW17279   3.203   3.182   1.536 -0.3182 -0.1846 -0.3989
 3042SOL    HW117280   3.161   3.259   1.487  0.9404  0.2786 -0.7613
 3042SOL    HW217281   3.295   3.166   1.501  0.0116 -0.8660  0.7500
 3044SOL     OW17282   2.912   9.429   0.568  0.2874 -0.8168  0.5503
 3044SOL    HW117283   2.985   9.466   0.624 -0.9510  1.4035  0.7828
 3044SOL    HW217284   2.908   9.479   0.481 -0.4128 -1.4501  0.2109
 3045SOL     OW17285   1.095   8.336   1.781  0.2516  0.2365 -0.1726
 3045SOL    HW117286   1.193   8.328   1.768  0.0728 -0.4943 -1.1196
 3045SOL    HW217287   1.049   8.330   1.692 -0.8510 -2.3766  0.5371
 3047SOL     OW17288   1.491   9.405   0.624 -0.2085  0.0023 -0.2396
 3047SOL    HW117289   1.554   9.396   0.701 -1.9542  0.1834  1.2421
 3047SOL    HW217290   1.528   9.472   0.559  1.4886 -0.4719  0.2002
 3048SOL     OW17291   3.321   1.874   0.687  0.4110  0.4764 -0.2606
 3048SOL    HW117292   3.324   1.915   0.595 -0.3161 -0.9704 -0.9541
 3048SOL    HW217293   3.334   1.775   0.680  1.6118  0.5094  1.3366
 3049SOL     OW17294   3.254   1.812   1.536  0.5067  0.1343 -0.4688
 3049SOL    HW117295   3.245   1.712   1.541  0.9374  0.0606 -1.1783
 3049SOL    HW217296   3.165   1.853   1.517  0.1641 -0.0532  0.6588
 3050SOL     OW17297   2.333   6.623   1.587 -0.8008  0.0027 -0.5771
 3050SOL    HW117298   2.276   6.671   1.520 -0.2124  1.5312 -0.0032
 3050SOL    HW217299   2.334   6.675   1.672 -2.7158 -2.6622  1.1145
 3052SOL     OW17300   1.209   6.019   0.624  0.2061  0.1395  0.3677
 3052SOL    HW117301   1.257   6.106   0.627 -0.3489  0.5093 -0.9358
 3052SOL    HW217302   1.275   5.944   0.626  0.6712  0.5757  1.8035
 3053SOL     OW17303   2.162   3.719   0.912  0.1863 -0.1429  0.6885
 3053SOL    HW117304   2.259   3.720   0.890 -0.3043 -0.0833 -1.6731
 3053SOL    HW217305   2.123   3.809   0.895 -0.5141 -0.4988  0.3468
 3055SOL     OW17306   2.069   2.081   1.679 -0.3476  0.3728 -0.3192
 3055SOL    HW117307   1.981   2.108   1.717 -1.2762 -2.3539 -0.3632
 3055SOL    HW217308   2.060   1.991   1.636  2.6979 -0.4402  0.6273
 3056SOL     OW17309   1.494   8.660   2.228 -0.4843  0.2504 -0.0760
 3056SOL    HW117310   1.444   8.580   2.196 -0.6008  0.6506 -0.8931
 3056SOL    HW217311   1.477   8.738   2.167 -0.7474  1.0295  0.9755
 3057SOL     OW17312   1.862   6.109   1.749 -0.5107  0.2880 -0.2092
 3057SOL    HW117313   1.765   6.117   1.775 -0.0803 -0.7848  1.8028
 3057SOL    HW217314   1.872   6.035   1.681 -0.8619 -0.8609  0.9747
 3058SOL     OW17315   2.325   4.095   1.961  0.1536 -0.3213 -0.3621
 3058SOL    HW117316   2.413   4.106   1.916  0.7193  0.7395  0.9798
 3058SOL    HW217317   2.322   4.006   2.006  0.3589 -0.5502 -0.7968
 3059SOL     OW17318   2.078   0.777   1.460  0.3890 -0.1306  0.4068
 3059SOL    HW117319   2.030   0.690   1.446  2.2724 -1.1416  0.0465
 3059SOL    HW217320   2.054   0.840   1.387 -0.3692 -0.6273  0.2188
 3060SOL     OW17321   9.700   5.088   1.890  0.4076  0.1442 -0.0150
 3060SOL    HW117322   9.702   5.073   1.989  2.6175 -0.5127 -0.1216
 3060SOL    HW217323   9.756   5.168   1.868 -0.8945  0.8858 -0.6483
 3061SOL     OW17324   3.379   1.421   2.265 -0.7283 -0.2693 -0.5728
 3061SOL    HW117325   3.332   1.336   2.292  0.1681 -0.3466  0.7927
 3061SOL    HW217326   3.452   1.399   2.200 -0.7143 -0.5075 -0.4784
 3062SOL     OW17327   3.306   8.366   1.813 -0.2839 -0.3619 -0.2543
 3062SOL    HW117328   3.251   8.450   1.807 -0.1493 -0.3128 -0.7867
 3062SOL    HW217329   3.388   8.375   1.756 -0.2545 -0.8499 -0.2912
 3063SOL     OW17330   1.279   7.953   1.553  0.4984 -0.1393  0.0422
 3063SOL    HW117331   1.300   8.048   1.531  1.4901 -0.0785  1.1772
 3063SOL    HW217332   1.332   7.892   1.494  0.7342  0.0147  0.0947
 3065SOL     OW17333   5.113   2.543   2.118  0.5540  0.1839 -0.4438
 3065SOL    HW117334   5.169   2.463   2.136  0.0222  0.0073  0.4658
 3065SOL    HW217335   5.128   2.574   2.024  0.5933 -1.1099 -0.8738
 3067SOL     OW17336   1.645   2.301   0.719  0.1682  0.0039 -0.3913
 3067SOL    HW117337   1.682   2.377   0.665  1.5513 -1.0694 -0.9929
 3067SOL    HW217338   1.688   2.301   0.810  2.4361 -1.8262 -1.4268
 3068SOL     OW17339   0.496   2.929   0.578  0.2502  0.0093 -0.3577
 3068SOL    HW117340   0.441   2.849   0.556  0.5265 -0.5206  0.8162
 3068SOL    HW217341   0.589   2.916   0.545 -1.0048  2.2381 -5.1967
 3069SOL     OW17342   3.107   4.002   0.642 -0.0341  0.3466 -0.0424
 3069SOL    HW117343   3.063   3.958   0.563  0.0542 -0.6644  0.4604
 3069SOL    HW217344   3.178   3.942   0.678  0.8406  1.3866 -0.0137
 3070SOL     OW17345   2.627   5.114   0.811 -0.7911  0.4411 -0.2373
 3070SOL    HW117346   2.664   5.081   0.897 -0.2305 -1.4952 -1.1908
 3070SOL    HW217347   2.681   5.077   0.735 -0.8672  2.6161 -1.4178
 3071SOL     OW17348   8.881   1.761   2.292 -0.1428  0.0358  0.1662
 3071SOL    HW117349   8.964   1.784   2.342  0.0227  1.9420 -0.9250
 3071SOL    HW217350   8.846   1.843   2.245 -0.6704 -1.5049 -2.2391
 3072SOL     OW17351   3.461   3.973   1.872 -0.1151 -0.0321  0.3323
 3072SOL    HW117352   3.374   4.012   1.840  0.3002 -0.4665 -1.3752
 3072SOL    HW217353   3.455   3.874   1.870 -0.7636 -0.1071  3.5606
 3073SOL     OW17354  10.150   1.205   0.330  0.1705  0.4445  0.3512
 3073SOL    HW117355  10.091   1.276   0.368 -0.2151  1.3416 -1.8313
 3073SOL    HW217356  10.242   1.241   0.316  0.0073  0.4801 -0.6479
 3074SOL     OW17357   2.229   4.211   0.398 -0.3964 -0.2060 -0.5013
 3074SOL    HW117358   2.291   4.287   0.382  1.2470 -0.9901  1.7474
 3074SOL    HW217359   2.171   4.196   0.318 -0.5582  3.1882 -1.0910
 3075SOL     OW17360   3.990   3.112   1.426  0.0627  0.8708 -0.0321
 3075SOL    HW117361   4.076   3.121   1.376  0.6402 -3.1028  0.0834
 3075SOL    HW217362   3.926   3.056   1.373 -1.0597  0.6238  1.5402
 3076SOL     OW17363   2.035   8.925   0.551 -0.1679  0.0901 -0.1142
 3076SOL    HW117364   1.989   8.925   0.462 -1.7862  2.6933  0.6603
 3076SOL    HW217365   2.054   9.019   0.579  1.0584 -0.7318  1.9368
 3077SOL     OW17366   4.177   1.424   1.871 -0.3170  0.1808  0.0839
 3077SOL    HW117367   4.108   1.383   1.931 -0.3200  0.3054  0.1663
 3077SOL    HW217368   4.131   1.480   1.802 -0.2217  1.4711  1.0592
 3078SOL     OW17369   2.691  10.154   1.324  0.0521  0.6910  0.2213
 3078SOL    HW117370   2.652  10.244   1.304 -0.1779  1.1584  2.6602
 3078SOL    HW217371   2.626  10.083   1.296 -0.1061  1.2889 -0.9655
 3079SOL     OW17372  10.093   5.270   1.686 -0.5942 -0.5469  0.3435
 3079SOL    HW117373  10.179   5.224   1.709 -0.9152 -1.8884 -1.0979
 3079SOL    HW217374  10.072   5.256   1.590 -1.8259  0.8037  0.4012
 3080SOL     OW17375   3.079   3.221   2.221 -0.4479  0.4596  0.3516
 3080SOL    HW117376   3.173   3.249   2.238 -0.0465 -1.1000  0.7849
 3080SOL    HW217377   3.079   3.137   2.166 -1.5834  0.3894  0.4583
 3082SOL     OW17378   1.921   8.609   1.053 -0.3309  0.1309  0.1063
 3082SOL    HW117379   1.822   8.605   1.040 -0.0608 -2.3368 -1.5446
 3082SOL    HW217380   1.966   8.548   0.987  2.2796  0.9523  1.0509
 3083SOL     OW17381   9.561   4.657   1.100  0.0090  0.8095  0.0676
 3083SOL    HW117382   9.603   4.566   1.096  0.0866  0.9407 -2.3073
 3083SOL    HW217383   9.494   4.659   1.174 -0.9686 -1.6015 -0.7251
 3084SOL     OW17384   9.546   2.491   2.086 -0.2983  0.1411  0.1082
 3084SOL    HW117385   9.593   2.508   2.173  1.4096  1.1078 -0.9724
 3084SOL    HW217386   9.459   2.539   2.085  0.5207  1.6507  0.5604
 3085SOL     OW17387   2.679   2.947   1.660  0.0220  0.2624 -0.2881
 3085SOL    HW117388   2.586   2.916   1.679  0.3236 -0.5618 -0.0950
 3085SOL    HW217389   2.702   3.024   1.719  0.4053 -1.2753  1.6044
 3086SOL     OW17390   1.525   3.282   1.986  0.4565 -0.0024  0.1976
 3086SOL    HW117391   1.547   3.299   1.890 -3.0698  1.7733 -0.3874
 3086SOL    HW217392   1.527   3.184   2.004 -0.7251 -0.5151 -2.2140
 3087SOL     OW17393   3.933   2.649   1.220 -0.1051 -0.1708 -0.1479
 3087SOL    HW117394   3.885   2.667   1.134  0.2414 -1.7836 -0.7099
 3087SOL    HW217395   3.885   2.577   1.271  0.4659 -0.2167  0.3400
 3088SOL     OW17396   1.828   6.836   1.788 -0.1037 -0.0539  0.0436
 3088SOL    HW117397   1.794   6.745   1.762 -0.2959  0.3629 -1.2088
 3088SOL    HW217398   1.757   6.885   1.839 -0.3633 -0.2321 -0.1437
 3089SOL     OW17399   3.099   3.363   1.356  0.0462 -0.1933  0.2899
 3089SOL    HW117400   3.089   3.301   1.279  0.1589  1.4902 -1.1219
 3089SOL    HW217401   3.039   3.442   1.344 -0.5476 -0.3114  2.3488
 3091SOL     OW17402   8.979   2.051   0.696 -0.0653  0.3674  0.1995
 3091SOL    HW117403   9.043   2.046   0.619 -0.4102 -1.0007 -0.0064
 3091SOL    HW217404   9.018   2.003   0.775 -1.0017 -0.7812 -0.0384
 3093SOL     OW17405   2.609   4.709   2.311  0.1628 -0.1074 -0.2194
 3093SOL    HW117406   2.549   4.789   2.318  0.0464 -0.2894  0.9067
 3093SOL    HW217407   2.560   4.633   2.269  0.3544  0.4860 -1.5465
 3094SOL     OW17408   1.834   0.424   1.323  0.2162  0.6555 -0.1389
 3094SOL    HW117409   1.865   0.411   1.417 -0.8803  1.6458  0.3772
 3094SOL    HW217410   1.909   0.460   1.268  0.7155  0.5656  0.4777
 3095SOL     OW17411   2.957   0.978   0.660 -0.3944 -0.4331 -0.3274
 3095SOL    HW117412   2.905   0.900   0.626 -1.0194  0.3184 -1.1283
 3095SOL    HW217413   2.894   1.051   0.687  0.1804 -0.2138  0.4401
 3096SOL     OW17414   3.325   8.025   0.725  0.9243 -0.3373 -0.2980
 3096SOL    HW117415   3.323   8.026   0.825 -2.5997 -0.6652 -0.2846
 3096SOL    HW217416   3.300   8.116   0.691  2.5021 -0.1216 -0.8973
 3097SOL     OW17417   3.191   4.486   0.785 -0.1821 -0.4528  0.1516
 3097SOL    HW117418   3.139   4.556   0.735 -0.6710  1.2823  3.0137
 3097SOL    HW217419   3.289   4.500   0.770 -0.2400  1.4416  1.4427
 3099SOL     OW17420   2.671   7.991   0.322 -0.3794  0.5503 -0.0978
 3099SOL    HW117421   2.716   7.964   0.237 -1.6767  0.5995 -0.8282
 3099SOL    HW217422   2.712   8.075   0.358  1.1140 -0.2526  0.0926
 3100SOL     OW17423   2.906  10.203   2.226 -0.0999  0.7568 -0.2034
 3100SOL    HW117424   2.872  10.228   2.135 -0.3923  3.2422  0.5525
 3100SOL    HW217425   2.982  10.262   2.250  0.2045 -0.1270  1.0358
 3101SOL     OW17426   1.494   5.401   0.375  0.4282  0.2703 -0.0642
 3101SOL    HW117427   1.480   5.491   0.332 -0.4978  0.2927  0.2644
 3101SOL    HW217428   1.470   5.329   0.310  0.4274  0.2789 -0.0738
 3102SOL     OW17429   2.395   9.803   0.731 -0.0009 -0.1030 -0.2234
 3102SOL    HW117430   2.345   9.829   0.814 -1.1719 -0.1401 -0.9023
 3102SOL    HW217431   2.458   9.729   0.752 -0.8710 -0.6625  0.4638
 3103SOL     OW17432   1.181   2.097   0.986  0.2492  0.0258 -0.0429
 3103SOL    HW117433   1.107   2.069   1.048  1.8116 -0.6901  1.5426
 3103SOL    HW217434   1.248   2.150   1.038  1.1313  0.1974 -1.3577
 3104SOL     OW17435  10.075   4.354   2.079 -0.2302  0.4670 -0.2195
 3104SOL    HW117436  10.071   4.453   2.092  0.1168  0.5993 -1.1240
 3104SOL    HW217437   9.983   4.319   2.063 -0.4126  0.5738  0.5342
 3105SOL     OW17438   3.898   2.876   2.216  0.3096 -0.1934  0.3359
 3105SOL    HW117439   3.818   2.931   2.189  0.0230 -0.5230  0.5024
 3105SOL    HW217440   3.980   2.933   2.215  0.0064  0.2508  0.5603
 3106SOL     OW17441   2.224   5.502   1.575 -0.1238  0.2347  0.5993
 3106SOL    HW117442   2.178   5.572   1.520 -0.6398 -0.2198  0.4497
 3106SOL    HW217443   2.156   5.446   1.623  0.3443  1.4011  2.6878
 3109SOL     OW17444   0.840   2.724   0.644  0.6175  0.2744 -0.5605
 3109SOL    HW117445   0.799   2.694   0.730 -0.8588  2.3841 -0.5142
 3109SOL    HW217446   0.869   2.644   0.591  0.8241 -1.0595  1.5334
 3110SOL     OW17447   4.671   3.437   0.754 -0.1058 -0.4727  0.2422
 3110SOL    HW117448   4.748   3.373   0.759  1.2025  1.0761  0.2448
 3110SOL    HW217449   4.604   3.403   0.689 -0.2329 -2.6966  1.4791
 3112SOL     OW17450   1.153   3.781   1.098 -0.3492  0.2092  0.5761
 3112SOL    HW117451   1.238   3.746   1.058  0.3668  1.5781  0.8729
 3112SOL    HW217452   1.075   3.742   1.049  0.4549 -0.6394 -0.0531
 3113SOL     OW17453   1.738   1.191   1.752  0.7101 -0.3735  0.1572
 3113SOL    HW117454   1.715   1.235   1.839  1.2384 -0.2914  0.2577
 3113SOL    HW217455   1.656   1.147   1.714  0.4482 -0.2976  0.6300
 3114SOL     OW17456   3.960  10.144   1.374 -0.3805  0.2022  0.4045
 3114SOL    HW117457   3.885  10.096   1.327 -1.3784  0.5376  1.6500
 3114SOL    HW217458   3.948  10.243   1.365 -1.0376  0.2822  2.0792
 3116SOL     OW17459   3.853   9.129   2.153  0.0095  0.6164  0.1815
 3116SOL    HW117460   3.891   9.189   2.083 -0.3004 -0.1189 -0.6283
 3116SOL    HW217461   3.801   9.183   2.219  2.7667  1.7089  1.5460
 3117SOL     OW17462   2.269  10.281   0.876 -0.3896  0.2179  0.2168
 3117SOL    HW117463   2.276  10.339   0.957  0.7581 -0.5204  0.6511
 3117SOL    HW217464   2.189  10.221   0.886 -1.0969  1.1222  0.1375
 3118SOL     OW17465   1.372   7.276   0.968 -0.3067  0.6263 -0.0853
 3118SOL    HW117466   1.325   7.360   0.943  0.2074  0.5591 -1.2774
 3118SOL    HW217467   1.309   7.199   0.962 -0.4219  0.7373 -0.2727
 3119SOL     OW17468  10.012   4.857   2.296 -0.1030  0.7003  0.0695
 3119SOL    HW117469   9.931   4.832   2.349  0.3441 -0.8438  0.0210
 3119SOL    HW217470   9.986   4.872   2.201 -0.3197  0.1216  0.0348
 3120SOL     OW17471   2.371   1.153   2.294  0.1579  0.2758  0.4721
 3120SOL    HW117472   2.339   1.060   2.281  0.8065 -0.0225  1.0102
 3120SOL    HW217473   2.308   1.202   2.354 -0.3489  0.2849 -0.0572
 3121SOL     OW17474   9.310   5.512   1.017 -0.2609 -0.1878 -0.4442
 3121SOL    HW117475   9.358   5.425   1.032 -2.4521 -1.7062 -1.8605
 3121SOL    HW217476   9.302   5.561   1.103  0.2687 -1.7923  0.5400
 3122SOL     OW17477   3.011   3.816   0.452  0.1045  0.5042  0.0852
 3122SOL    HW117478   3.077   3.808   0.378  2.2254  3.4713  1.5341
 3122SOL    HW217479   3.044   3.767   0.533  0.5717  1.9893  0.8150
 3123SOL     OW17480   4.924   4.339   0.792 -0.2827  0.2659 -0.0203
 3123SOL    HW117481   5.020   4.316   0.775 -0.5123 -0.9766  0.2605
 3123SOL    HW217482   4.898   4.418   0.738  1.0621  0.9681  0.3413
 3124SOL     OW17483  10.386   2.016   1.969 -0.2235  0.0770 -0.2366
 3124SOL    HW117484  10.346   1.926   1.987  2.2385 -0.6223  1.9121
 3124SOL    HW217485  10.336   2.086   2.021  0.4240 -0.5841  1.2740
 3125SOL     OW17486   3.881   5.096   0.729  0.2464  0.4109 -0.1399
 3125SOL    HW117487   3.811   5.105   0.800  1.1830 -1.9330  1.1335
 3125SOL    HW217488   3.851   5.143   0.646 -1.9101  1.1858  1.0471
 3126SOL     OW17489   2.958   0.889   2.105 -0.0832 -0.3367  0.0818
 3126SOL    HW117490   2.949   0.790   2.103 -1.2759 -0.2359  0.0632
 3126SOL    HW217491   2.872   0.930   2.136  0.0253  0.7400 -0.9885
 3128SOL     OW17492   2.516   6.008   0.692  0.3488  0.6197  0.6591
 3128SOL    HW117493   2.599   6.002   0.747 -0.0292  1.8755  1.3832
 3128SOL    HW217494   2.529   6.077   0.620 -0.4395  1.6272  1.4616
 3131SOL     OW17495   0.584   3.105   0.326  0.2788  0.3119  0.0637
 3131SOL    HW117496   0.635   3.175   0.276  1.2626  0.6718  1.5453
 3131SOL    HW217497   0.648   3.045   0.374 -0.6673  0.5269  1.6303
 3133SOL     OW17498   9.838   5.365   0.550  0.5325 -0.4638 -0.9889
 3133SOL    HW117499   9.741   5.347   0.565  0.3817  0.4059 -0.8760
 3133SOL    HW217500   9.863   5.450   0.597  1.6719 -1.4274  0.1657
 3134SOL     OW17501   4.246   1.732   2.034  0.0507  0.3485  0.1609
 3134SOL    HW117502   4.231   1.742   1.935  0.2455 -0.4452  0.0488
 3134SOL    HW217503   4.336   1.692   2.049 -0.4160 -0.5146  0.6337
 3135SOL     OW17504   1.968   9.642   1.280  0.4089  0.1357 -0.3319
 3135SOL    HW117505   1.937   9.614   1.189 -1.4486  1.9490 -0.3081
 3135SOL    HW217506   1.964   9.564   1.342  2.4783 -1.3288 -1.9650
 3136SOL     OW17507   4.645   1.784   0.548 -0.2753 -0.5497 -0.1943
 3136SOL    HW117508   4.599   1.873   0.545 -0.9891 -0.9206 -0.4039
 3136SOL    HW217509   4.592   1.721   0.605  1.7406 -0.0033  2.3883
 3137SOL     OW17510   0.590   5.643   2.324  0.4219 -0.5870 -0.1032
 3137SOL    HW117511   0.499   5.654   2.284  0.7886 -0.2043 -0.8416
 3137SOL    HW217512   0.593   5.687   2.413  0.2446  0.4816 -0.6170
 3139SOL     OW17513  10.296   1.999   0.600 -0.1217 -0.1858 -0.8126
 3139SOL    HW117514  10.242   1.984   0.683  1.6357 -1.1229  0.2049
 3139SOL    HW217515  10.309   2.097   0.586  2.0103 -0.0675  1.6867
 3140SOL     OW17516   0.688   0.670   1.618  0.5491 -0.2039 -0.1217
 3140SOL    HW117517   0.622   0.639   1.549  1.2186  0.2179 -0.9642
 3140SOL    HW217518   0.647   0.743   1.672 -1.1871 -2.7833  2.1637
 3141SOL     OW17519   3.155   9.378   1.873 -0.0857 -0.3667  0.0146
 3141SOL    HW117520   3.075   9.327   1.905  0.7540  0.9609  4.6132
 3141SOL    HW217521   3.238   9.332   1.905  0.7738  1.8548  1.0485
 3142SOL     OW17522   8.786   2.498   2.236  0.7709 -0.6062 -0.5181
 3142SOL    HW117523   8.706   2.444   2.213 -0.5857  1.6093 -1.1928
 3142SOL    HW217524   8.819   2.546   2.154  1.4883  0.1450  0.1953
 3143SOL     OW17525   3.616   4.406   1.725 -0.5015  0.4685  0.1106
 3143SOL    HW117526   3.688   4.459   1.769  0.1526 -0.8511  0.6606
 3143SOL    HW217527   3.543   4.386   1.791 -0.7371  0.6756 -0.0875
 3144SOL     OW17528   4.466   0.748   0.983 -0.6144  0.5730 -0.0460
 3144SOL    HW117529   4.508   0.774   0.897  1.8776 -1.8026  0.4016
 3144SOL    HW217530   4.517   0.787   1.059 -1.3423  0.6053  0.4391
 3145SOL     OW17531  10.293   5.584   2.241  0.1674  0.2880 -0.0274
 3145SOL    HW117532  10.336   5.494   2.233 -0.2489 -0.2713  3.2129
 3145SOL    HW217533  10.198   5.580   2.209  0.9529  0.2719 -2.4157
 3146SOL     OW17534   3.438   0.821   1.207 -0.2206  0.1299 -0.5480
 3146SOL    HW117535   3.416   0.917   1.191  2.5924  0.6363 -1.7698
 3146SOL    HW217536   3.494   0.786   1.132 -1.7224 -2.6888 -0.4515
 3147SOL     OW17537   2.056   3.177   1.724 -0.0396 -0.0079  0.0371
 3147SOL    HW117538   1.980   3.239   1.743  0.4000  0.3285  0.7248
 3147SOL    HW217539   2.142   3.223   1.744  0.2812 -0.9374  0.8502
 3148SOL     OW17540   0.639   9.945   1.738  0.5334 -0.0928 -0.0620
 3148SOL    HW117541   0.563   9.913   1.795 -0.2135 -1.1916 -1.6702
 3148SOL    HW217542   0.694   9.867   1.709 -0.4468  0.1800 -2.7732
 3150SOL     OW17543   9.034   2.231   2.095  0.4623 -0.1520  0.0667
 3150SOL    HW117544   8.945   2.190   2.116  0.8730 -0.2499  1.7343
 3150SOL    HW217545   9.090   2.164   2.046 -0.1127 -0.3598 -0.3169
 3151SOL     OW17546   1.855   3.996   1.150 -0.2573 -0.4461 -0.6671
 3151SOL    HW117547   1.941   3.949   1.167  1.8295  2.6350 -2.3766
 3151SOL    HW217548   1.831   3.989   1.054 -0.5095  1.0210 -0.7145
 3152SOL     OW17549  10.415   7.522   1.927  0.2123 -0.0030  0.0926
 3152SOL    HW117550  10.422   7.428   1.958  0.6771 -0.0614 -0.1854
 3152SOL    HW217551  10.390   7.581   2.004 -0.5725 -0.4199  0.1614
 3153SOL     OW17552   3.786   8.627   1.630  0.1335 -0.9998  0.1649
 3153SOL    HW117553   3.741   8.607   1.544  0.7722 -0.4125 -0.3169
 3153SOL    HW217554   3.863   8.690   1.614 -1.1285  0.9452  1.4514
 3154SOL     OW17555   4.579   2.702   2.311  0.1502  0.2654  0.3592
 3154SOL    HW117556   4.555   2.685   2.406  2.0523 -0.4785  0.7276
 3154SOL    HW217557   4.579   2.800   2.293 -1.4481  0.3430  0.7849
 3156SOL     OW17558   4.113   2.828   0.923 -0.0092 -0.3267 -0.1002
 3156SOL    HW117559   4.055   2.890   0.976  0.6874 -1.0439  1.5348
 3156SOL    HW217560   4.065   2.802   0.839 -1.7050 -0.2403  0.8085
 3157SOL     OW17561   2.194   5.297   2.075 -0.4986 -0.1918  0.7580
 3157SOL    HW117562   2.178   5.208   2.118 -0.8918  0.0971  1.2155
 3157SOL    HW217563   2.266   5.346   2.124  1.0939 -1.0472 -0.6554
 3159SOL     OW17564   2.324   8.635   1.992 -0.8586  0.4000  0.1716
 3159SOL    HW117565   2.368   8.638   1.902 -0.4943  1.4333  0.3806
 3159SOL    HW217566   2.238   8.686   1.989 -0.2606  1.4409  0.7275
 3160SOL     OW17567   1.091   6.143   1.520  0.0756 -0.1541  0.1813
 3160SOL    HW117568   1.088   6.080   1.598  1.2113 -1.1930 -0.6022
 3160SOL    HW217569   1.072   6.093   1.436 -1.0971  0.9568 -0.2376
 3161SOL     OW17570   4.227   1.848   0.368 -0.6640  0.0598 -0.0488
 3161SOL    HW117571   4.316   1.889   0.350 -0.5868  0.0192  0.2281
 3161SOL    HW217572   4.177   1.837   0.282  0.2059 -1.3181 -0.3892
 3162SOL     OW17573  10.385   4.017   1.165  0.2472  0.2094 -0.5342
 3162SOL    HW117574  10.325   4.049   1.091 -0.3738  0.9190  0.2662
 3162SOL    HW217575  10.453   4.088   1.185 -0.1047  0.3535  0.1374
 3164SOL     OW17576   9.781   5.222   0.840 -0.2722 -0.1271 -0.6404
 3164SOL    HW117577   9.782   5.255   0.745  0.6576  1.5015 -0.0758
 3164SOL    HW217578   9.861   5.256   0.888  0.0824 -2.2360  0.3239
 3165SOL     OW17579   1.613   0.386   1.949 -0.8043  0.1456 -0.2875
 3165SOL    HW117580   1.592   0.346   2.038 -2.2419 -0.3653 -0.8457
 3165SOL    HW217581   1.666   0.470   1.962  1.5688 -1.4649  0.9231
 3167SOL     OW17582   1.200   8.720   0.957  0.3805  0.3655  0.7845
 3167SOL    HW117583   1.253   8.640   0.984  0.8693  0.2649 -0.4356
 3167SOL    HW217584   1.239   8.802   0.998  0.0106  0.0071  1.8568
 3168SOL     OW17585   2.524   1.375   0.866 -0.5148 -0.3893  0.0957
 3168SOL    HW117586   2.441   1.427   0.842  0.7485  1.3702 -0.5912
 3168SOL    HW217587   2.549   1.315   0.790  0.0604  0.6933 -0.5775
 3169SOL     OW17588   3.619   3.964   1.632 -0.2373 -0.3486  0.3638
 3169SOL    HW117589   3.558   4.032   1.591  0.1228 -0.5582 -0.5130
 3169SOL    HW217590   3.622   3.979   1.731  0.6761  1.5968  0.0596
 3170SOL     OW17591   0.955   2.208   1.963  0.1739  0.2322  0.3881
 3170SOL    HW117592   0.885   2.166   2.021 -1.1970 -1.6259 -2.5168
 3170SOL    HW217593   1.045   2.180   1.996 -0.5230 -0.0060  2.1837
 3173SOL     OW17594   8.199   2.584   1.988 -0.0516  0.0678 -0.0990
 3173SOL    HW117595   8.114   2.625   1.955 -0.4815 -1.1512 -0.5127
 3173SOL    HW217596   8.273   2.603   1.924  0.1612  1.7178  0.5992
 3174SOL     OW17597   5.180   3.499   1.751 -0.0833  0.4442  0.1172
 3174SOL    HW117598   5.258   3.489   1.690 -0.3257 -2.0234  0.1704
 3174SOL    HW217599   5.212   3.506   1.845  0.0854 -1.8081  0.2686
 3176SOL     OW17600   0.723   5.395   1.793  0.0971  0.3018 -0.1465
 3176SOL    HW117601   0.654   5.336   1.834  2.1488 -2.3309 -0.3283
 3176SOL    HW217602   0.749   5.466   1.859  0.9642 -1.8578  1.9164
 3177SOL     OW17603   3.441   8.031   1.637  0.4170  0.5436  0.3412
 3177SOL    HW117604   3.435   7.961   1.566 -2.2309  0.1003  0.9673
 3177SOL    HW217605   3.529   8.078   1.629  0.5500 -0.0893 -2.6751
 3178SOL     OW17606   2.436  10.207   0.346  0.0213  0.1155  0.1699
 3178SOL    HW117607   2.419  10.112   0.373 -1.7180  0.0576 -1.0165
 3178SOL    HW217608   2.464  10.210   0.250 -1.1117  0.8655 -0.1552
 3182SOL     OW17609   4.116   2.434   1.674 -0.0232 -0.0837  0.5707
 3182SOL    HW117610   4.177   2.493   1.621  0.0146  0.9506  1.7351
 3182SOL    HW217611   4.021   2.460   1.657  0.0623  1.7421  2.6752
 3183SOL     OW17612   1.055   8.039   0.809  0.0545 -0.1251 -0.2469
 3183SOL    HW117613   0.992   8.096   0.863  1.4705  0.2083  1.0793
 3183SOL    HW217614   1.142   8.086   0.800  0.5921 -1.2333 -0.8334
 3184SOL     OW17615   1.310   9.178   2.137  0.0865 -0.1149 -0.1108
 3184SOL    HW117616   1.217   9.212   2.150 -0.0001 -0.9250  1.4057
 3184SOL    HW217617   1.327   9.166   2.039 -0.7762  1.7388 -0.5168
 3185SOL     OW17618   0.536   5.153   1.274  0.1792 -0.1107 -0.6141
 3185SOL    HW117619   0.611   5.099   1.237  0.0488  0.0206 -1.0736
 3185SOL    HW217620   0.459   5.152   1.210 -0.5119 -0.9091  0.2098
 3186SOL     OW17621   9.672   3.444   0.557  0.3440  0.6274  0.2244
 3186SOL    HW117622   9.732   3.370   0.589 -0.8864 -0.6236 -0.3209
 3186SOL    HW217623   9.672   3.518   0.624 -0.9449 -1.2700  2.3649
 3189SOL     OW17624   9.999   4.007   2.133 -0.3012  0.0289  0.1008
 3189SOL    HW117625   9.963   4.091   2.090 -0.0946  0.7759  1.3589
 3189SOL    HW217626  10.084   4.028   2.181 -0.1608 -0.9538  0.2895
 3190SOL     OW17627   0.556   4.758   0.957 -0.0809  0.4453  0.1869
 3190SOL    HW117628   0.482   4.760   1.024 -0.6635  2.1876 -0.4924
 3190SOL    HW217629   0.592   4.850   0.944 -0.3158  0.2268 -2.2671
 3192SOL     OW17630   1.948   2.126   1.025  0.4350 -0.1405  0.3003
 3192SOL    HW117631   1.971   2.054   0.960 -0.5512 -1.5701  1.5115
 3192SOL    HW217632   2.009   2.120   1.104 -0.4171 -0.3772  0.9379
 3193SOL     OW17633   3.390   8.726   0.387 -0.0708  0.1713 -0.2657
 3193SOL    HW117634   3.478   8.709   0.342  0.5430  0.3061  0.8733
 3193SOL    HW217635   3.395   8.813   0.436 -0.2209 -0.7302  1.3493
 3194SOL     OW17636   1.698   3.110   0.638 -0.3472  1.2452 -0.2260
 3194SOL    HW117637   1.770   3.175   0.663  1.3025 -1.3117  1.9239
 3194SOL    HW217638   1.609   3.153   0.653  0.7029  2.9455  1.3890
 3195SOL     OW17639   3.798   8.640   2.282 -0.0036  0.2282  0.3031
 3195SOL    HW117640   3.889   8.680   2.294  0.3375 -0.5549  0.3752
 3195SOL    HW217641   3.754   8.682   2.203  0.8571 -0.1729 -0.3954
 3198SOL     OW17642   0.940   9.224   1.401  0.2007  0.0594 -0.2049
 3198SOL    HW117643   0.858   9.196   1.451 -1.4555  2.4009 -1.5112
 3198SOL    HW217644   0.984   9.299   1.449 -0.6615  1.4335 -1.4991
 3199SOL     OW17645   0.751   4.932   2.064 -0.2260 -0.3781  0.4956
 3199SOL    HW117646   0.761   4.847   2.116 -1.5119 -0.5395  0.4940
 3199SOL    HW217647   0.670   4.981   2.096  0.7787  1.1088  0.8501
 3200SOL     OW17648   0.499   2.812   1.423  0.3914  0.3948 -0.4758
 3200SOL    HW117649   0.564   2.736   1.425 -0.0234  0.0565  0.4707
 3200SOL    HW217650   0.511   2.868   1.505  1.8234  2.3259 -1.9536
 3201SOL     OW17651   2.032   9.466   0.470  0.1421  0.1392  0.4669
 3201SOL    HW117652   2.131   9.460   0.462  0.3672  2.8173  0.6158
 3201SOL    HW217653   2.003   9.561   0.454 -2.5064 -0.8148 -0.8096
 3202SOL     OW17654   8.580   1.929   0.571  0.9020 -0.2558 -0.0471
 3202SOL    HW117655   8.618   1.879   0.493  1.1082 -0.0219 -0.0971
 3202SOL    HW217656   8.651   1.939   0.641  0.9947  0.3609 -0.2269
 3203SOL     OW17657   1.711   3.976   1.850  0.4429 -0.0311  0.6195
 3203SOL    HW117658   1.673   4.002   1.939  0.6151  0.1975  0.6256
 3203SOL    HW217659   1.791   3.918   1.864 -0.7398 -1.6937  0.5954
 3204SOL     OW17660   9.803   0.910   0.915  0.0703  0.0554 -0.0717
 3204SOL    HW117661   9.872   0.870   0.854  0.6658  0.4839  0.3200
 3204SOL    HW217662   9.808   0.866   1.004 -1.6929 -1.4968 -0.7106
 3205SOL     OW17663   2.772   9.706   1.958 -0.0398  0.3128 -0.2357
 3205SOL    HW117664   2.787   9.760   1.875  0.8251 -0.3441 -0.5139
 3205SOL    HW217665   2.757   9.768   2.035 -0.2974  0.9372 -0.7787
 3206SOL     OW17666   3.765   1.981   1.379 -0.1446  0.2661  0.2671
 3206SOL    HW117667   3.759   2.003   1.282  0.7574 -0.2634  0.0813
 3206SOL    HW217668   3.699   2.036   1.430  1.3295  2.6423 -0.3104
 3207SOL     OW17669   4.313   4.634   0.808 -0.1606 -0.1334  0.1579
 3207SOL    HW117670   4.343   4.654   0.714  0.1701 -0.1763  0.2521
 3207SOL    HW217671   4.322   4.536   0.824 -0.2827 -0.1346  0.2115
 3208SOL     OW17672   2.899   8.772   1.012  0.5294 -0.2289 -0.4175
 3208SOL    HW117673   2.885   8.795   0.915  3.5454  2.2890 -0.3328
 3208SOL    HW217674   2.865   8.847   1.069  1.0216 -0.5907  0.3539
 3210SOL     OW17675   2.520   5.628   1.893 -0.3362  0.4804  0.3190
 3210SOL    HW117676   2.423   5.645   1.910 -0.0400  0.0063  2.5337
 3210SOL    HW217677   2.536   5.530   1.885  0.1904  0.4830  1.3680
 3211SOL     OW17678   1.375   8.504   0.981  0.0605  0.2945 -0.3753
 3211SOL    HW117679   1.467   8.521   0.946 -0.6917 -1.6329 -3.5529
 3211SOL    HW217680   1.380   8.448   1.063  1.7111 -0.6866 -1.1112
 3212SOL     OW17681   0.451   6.485   0.547 -0.0016 -0.0618  0.1726
 3212SOL    HW117682   0.386   6.525   0.482  1.0542  1.4411  0.0261
 3212SOL    HW217683   0.457   6.543   0.628  0.2986 -0.8119  0.6913
 3213SOL     OW17684   2.852   8.601   1.748  0.0424  0.0702  0.0928
 3213SOL    HW117685   2.790   8.652   1.688  1.3006 -0.6019 -1.7967
 3213SOL    HW217686   2.900   8.665   1.808 -0.0299  0.8971 -0.7269
 3214SOL     OW17687   9.798   1.181   1.718  0.1524 -0.0278  0.3686
 3214SOL    HW117688   9.788   1.168   1.620  0.6284  1.0492  0.1640
 3214SOL    HW217689   9.892   1.208   1.738  0.7828 -2.8837  1.4264
 3215SOL     OW17690   9.635   1.979   1.845  0.1997  0.0609  0.5261
 3215SOL    HW117691   9.694   1.922   1.788 -1.3975  0.1914 -1.3266
 3215SOL    HW217692   9.679   2.067   1.862  0.1232  0.5976 -1.7885
 3216SOL     OW17693   1.203   2.116   2.117  0.1126 -0.2253 -0.3760
 3216SOL    HW117694   1.168   2.026   2.142 -1.4885  0.8894  1.6086
 3216SOL    HW217695   1.300   2.122   2.139 -0.1336 -0.9596  0.9636
 3218SOL     OW17696   9.045   3.094   1.431 -0.0199 -0.1748 -0.1695
 3218SOL    HW117697   9.055   3.069   1.334  0.1696 -0.9800  0.0513
 3218SOL    HW217698   9.012   3.015   1.482  1.3858 -0.2274  0.6981
 3220SOL     OW17699   0.935   8.781   1.296  0.4470 -0.4552 -0.1078
 3220SOL    HW117700   1.009   8.837   1.333 -0.6752  0.7872  0.2979
 3220SOL    HW217701   0.892   8.729   1.370  1.3600 -1.7328 -0.4530
 3222SOL     OW17702   3.718   8.113   1.637  0.3814  0.8460  0.2867
 3222SOL    HW117703   3.775   8.082   1.713  1.1234  0.5230 -0.4004
 3222SOL    HW217704   3.773   8.120   1.554 -0.8287 -0.5907 -0.6598
 3223SOL     OW17705   4.213   4.418   2.156  0.5827 -0.2985  0.2752
 3223SOL    HW117706   4.164   4.339   2.122  1.1278 -0.1995 -0.7568
 3223SOL    HW217707   4.149   4.483   2.197  0.1734 -1.3960  1.3874
 3224SOL     OW17708   1.573   3.170   1.690 -0.4462 -0.7603 -0.3507
 3224SOL    HW117709   1.605   3.106   1.620 -0.5599  0.1421 -1.2316
 3224SOL    HW217710   1.476   3.151   1.709 -0.8957  0.1055 -1.6964
 3225SOL     OW17711   3.616   3.302   2.325  0.4080  0.3074  0.5208
 3225SOL    HW117712   3.625   3.203   2.340  2.3236  0.3798 -0.0655
 3225SOL    HW217713   3.524   3.322   2.293  0.3643 -1.4504 -0.5300
 3226SOL     OW17714   2.353   9.168   1.704 -0.4925  0.0559  0.4667
 3226SOL    HW117715   2.306   9.084   1.732 -1.8784  0.5211 -0.4207
 3226SOL    HW217716   2.394   9.154   1.614 -0.2901  0.1719  0.5418
 3228SOL     OW17717   4.169   0.456   2.345 -0.0184  0.4497  0.0848
 3228SOL    HW117718   4.267   0.435   2.351 -0.2789 -1.0038 -0.7141
 3228SOL    HW217719   4.142   0.462   2.249 -0.9843 -0.3960  0.3014
 3229SOL     OW17720   2.258   9.895   1.232  0.5741  0.0901 -0.5861
 3229SOL    HW117721   2.167   9.929   1.255  2.3453  2.7033  3.0497
 3229SOL    HW217722   2.270   9.804   1.272 -0.3440 -0.1793 -0.9049
 3231SOL     OW17723   1.272   8.884   0.688 -0.0642  0.2991  0.0939
 3231SOL    HW117724   1.280   8.838   0.776  0.8072  1.0998  0.4290
 3231SOL    HW217725   1.345   8.951   0.677 -0.7966  0.9842 -0.7754
 3233SOL     OW17726   2.404   5.399   1.771 -0.1813  0.3220  0.5578
 3233SOL    HW117727   2.327   5.360   1.823 -0.0793 -2.4918 -1.3210
 3233SOL    HW217728   2.368   5.450   1.693 -0.1521 -1.2708 -0.5077
 3234SOL     OW17729   1.632   1.407   0.640 -0.1416 -0.0885  0.0695
 3234SOL    HW117730   1.582   1.423   0.725 -0.4804 -0.6606 -0.0167
 3234SOL    HW217731   1.606   1.318   0.602  0.1403  0.0830 -0.5400
 3235SOL     OW17732   8.811   2.399   1.229  0.0076  0.0109  0.7754
 3235SOL    HW117733   8.892   2.369   1.179 -0.1489 -0.7892  0.9922
 3235SOL    HW217734   8.800   2.343   1.311 -0.3757  0.5745  1.1122
 3236SOL     OW17735   3.327   4.329   1.215  0.0730 -0.4976  0.3357
 3236SOL    HW117736   3.385   4.408   1.236 -1.9139  0.9127  0.7283
 3236SOL    HW217737   3.234   4.361   1.195 -0.2024 -2.5555 -1.8593
 3237SOL     OW17738   0.815   5.102   0.416  0.1452 -0.1024  0.2440
 3237SOL    HW117739   0.817   5.045   0.334  0.7019  0.1578  0.0695
 3237SOL    HW217740   0.755   5.180   0.401 -0.7430 -0.7167  0.5390
 3238SOL     OW17741   2.246   2.314   1.105 -0.3858 -0.1208 -0.1945
 3238SOL    HW117742   2.237   2.410   1.129 -1.7133 -0.2496 -0.1216
 3238SOL    HW217743   2.221   2.257   1.183  2.7592 -0.5506  0.5628
 3240SOL     OW17744   3.705   3.789   1.433 -0.4798 -0.7296  0.6020
 3240SOL    HW117745   3.685   3.859   1.501  1.8978 -0.2262  0.8060
 3240SOL    HW217746   3.804   3.775   1.426 -0.8056 -2.5998 -0.9153
 3242SOL     OW17747   2.317   3.806   1.145 -0.0052  0.3450  0.5398
 3242SOL    HW117748   2.319   3.880   1.078  0.2692  0.2596  0.4539
 3242SOL    HW217749   2.262   3.730   1.110 -0.1447  0.4366  0.5563
 3244SOL     OW17750   4.150   1.870   2.240 -0.8772  0.2134 -0.2300
 3244SOL    HW117751   4.220   1.854   2.170 -0.2962 -1.7178  0.7509
 3244SOL    HW217752   4.108   1.783   2.266  0.7007  0.4586  3.6136
 3245SOL     OW17753   9.851   5.553   0.781  0.0016  0.9158 -0.0247
 3245SOL    HW117754   9.901   5.630   0.743 -0.4219  1.0396 -0.3399
 3245SOL    HW217755   9.764   5.585   0.819  0.3535  0.7716  0.9224
 3247SOL     OW17756   1.501   0.719   0.890  0.4221 -0.3297  0.0935
 3247SOL    HW117757   1.597   0.727   0.861  0.0332 -1.1065 -1.4256
 3247SOL    HW217758   1.495   0.736   0.989  2.0999 -0.1301  0.1790
 3250SOL     OW17759   1.848   0.696   1.665 -0.2989 -0.4890  0.0412
 3250SOL    HW117760   1.859   0.795   1.677 -0.0274 -0.6416  1.0762
 3250SOL    HW217761   1.802   0.678   1.578  1.0016  0.4927 -0.8879
 3251SOL     OW17762   1.282   3.398   1.696  0.1527 -0.1454 -0.5179
 3251SOL    HW117763   1.248   3.433   1.784  1.4345  2.4651 -1.0116
 3251SOL    HW217764   1.275   3.298   1.695 -0.9703 -0.1363  2.0801
 3252SOL     OW17765   0.463   1.440   0.696  0.3701  0.1229 -0.2281
 3252SOL    HW117766   0.373   1.482   0.710  0.5683  0.2900  0.6052
 3252SOL    HW217767   0.500   1.468   0.607 -0.2969  0.2506 -0.4651
 3253SOL     OW17768   9.223   1.962   2.040  0.1712 -0.1471  0.1236
 3253SOL    HW117769   9.270   2.050   2.049 -2.4017  1.4162 -1.1148
 3253SOL    HW217770   9.246   1.904   2.118  3.7045  0.7229 -0.1713
 3254SOL     OW17771   3.460   0.733   0.732 -0.1161  0.5549  0.4941
 3254SOL    HW117772   3.372   0.704   0.770 -0.0557  0.6856  0.7312
 3254SOL    HW217773   3.446   0.812   0.672  0.0435  1.5236  1.7173
 3255SOL     OW17774   1.606   6.152   1.793  0.2655 -0.4308  0.3358
 3255SOL    HW117775   1.598   6.242   1.751  0.7236 -0.3507  0.4184
 3255SOL    HW217776   1.527   6.096   1.767 -0.3828  0.2231  0.8384
 3256SOL     OW17777   3.252   9.952   2.157  0.0685 -0.0472 -0.0208
 3256SOL    HW117778   3.181  10.008   2.199  0.1349 -1.0593  1.4795
 3256SOL    HW217779   3.312   9.915   2.228  1.3795 -0.1937 -1.1678
 3257SOL     OW17780   9.876   2.105   1.317 -0.1941 -0.0946 -0.6663
 3257SOL    HW117781   9.896   2.174   1.386  1.5712 -0.9446 -0.2822
 3257SOL    HW217782   9.784   2.069   1.330 -0.1858  0.3731  0.7055
 3258SOL     OW17783   2.525   8.344   0.452  0.4190 -0.2260  0.9161
 3258SOL    HW117784   2.570   8.433   0.445 -0.5281  0.3163  1.5761
 3258SOL    HW217785   2.436   8.347   0.406 -0.7501 -0.0439  3.0851
 3259SOL     OW17786   3.433   4.686   1.914  0.5178 -0.5102  0.2358
 3259SOL    HW117787   3.397   4.731   1.832 -0.2166  2.5532  2.1740
 3259SOL    HW217788   3.359   4.673   1.980  1.7417  0.1566  1.7658
 3260SOL     OW17789   1.317   8.018   1.226 -0.0619  0.0238  0.0817
 3260SOL    HW117790   1.410   7.980   1.231  0.6222  1.3549 -1.7338
 3260SOL    HW217791   1.322   8.112   1.190 -2.2546 -0.5763 -1.8902
 3263SOL     OW17792   9.917   3.648   1.334 -0.7486  0.4386 -0.3556
 3263SOL    HW117793   9.988   3.691   1.278 -0.3563  0.6120  0.2751
 3263SOL    HW217794   9.951   3.563   1.372 -0.5793  0.9647  0.6693
 3265SOL     OW17795   8.816   1.957   1.892 -0.3778 -0.4513 -0.5196
 3265SOL    HW117796   8.895   1.900   1.913 -0.9533 -1.0172  0.1532
 3265SOL    HW217797   8.774   1.927   1.807 -1.3860 -1.8123  0.4443
 3266SOL     OW17798   0.785   3.851   0.421  0.7068 -0.3432  0.6850
 3266SOL    HW117799   0.883   3.858   0.439  1.4337 -1.7501 -2.3650
 3266SOL    HW217800   0.754   3.935   0.376  0.9436 -0.6760 -0.1082
 3267SOL     OW17801   9.800   2.250   1.790  0.2550 -1.0220  0.1066
 3267SOL    HW117802   9.833   2.205   1.707 -1.2045  0.7870 -1.4861
 3267SOL    HW217803   9.711   2.291   1.773  0.8692  1.1696  1.9611
 3269SOL     OW17804   1.236   5.657   2.259 -0.0860 -0.1586  0.1306
 3269SOL    HW117805   1.144   5.637   2.227  0.4706 -3.2636  0.3572
 3269SOL    HW217806   1.287   5.704   2.187 -2.2528  3.0393  0.5452
 3270SOL     OW17807   1.421   1.415   0.329 -0.5031 -0.2263  0.1490
 3270SOL    HW117808   1.330   1.413   0.287 -0.3823  0.4191 -0.1573
 3270SOL    HW217809   1.476   1.339   0.294 -0.0276  0.9334 -1.7377
 3272SOL     OW17810   2.112   6.086   1.291  0.2568  0.2557 -0.0099
 3272SOL    HW117811   2.196   6.032   1.297 -0.0761 -0.0947  1.8503
 3272SOL    HW217812   2.066   6.066   1.204  1.1110 -1.0206 -0.1863
 3273SOL     OW17813   2.122   3.321   1.271  0.3710 -0.0554 -0.1455
 3273SOL    HW117814   2.200   3.288   1.218 -0.4603 -1.1839 -0.7137
 3273SOL    HW217815   2.135   3.416   1.295  2.1655 -0.3808  0.2123
 3274SOL     OW17816   3.703   9.059   0.873 -0.2247  0.3730 -0.5518
 3274SOL    HW117817   3.694   9.075   0.775  1.9295  1.6210 -0.5748
 3274SOL    HW217818   3.720   9.145   0.920 -1.0297 -0.2457  0.9097
 3275SOL     OW17819   1.653   2.040   1.110 -0.4634  0.2240 -0.0576
 3275SOL    HW117820   1.732   2.095   1.085 -0.7191 -0.2311 -1.9338
 3275SOL    HW217821   1.624   1.985   1.031 -2.7732  0.5552  0.5189
 3276SOL     OW17822   2.219   5.310   1.105  0.0711 -0.1003 -0.3510
 3276SOL    HW117823   2.285   5.379   1.134  1.1560  0.0033 -2.9091
 3276SOL    HW217824   2.217   5.236   1.171  1.3485  0.8099  0.7407
 3277SOL     OW17825   1.776   0.864   0.722  0.1247 -0.7300  0.4089
 3277SOL    HW117826   1.861   0.916   0.735 -0.9655  1.3086 -0.4410
 3277SOL    HW217827   1.781   0.813   0.636  0.7276 -1.0648  0.6445
 3279SOL     OW17828   4.897   1.766   0.654 -0.3621 -0.2176  0.1979
 3279SOL    HW117829   4.812   1.750   0.603  0.2707  0.7488 -1.1837
 3279SOL    HW217830   4.920   1.684   0.707 -1.0510 -1.2475 -1.0678
 3280SOL     OW17831   3.917   3.557   1.290  0.4787 -0.1470 -0.1854
 3280SOL    HW117832   3.836   3.532   1.238 -0.1864 -1.0767  1.2479
 3280SOL    HW217833   3.936   3.654   1.279 -1.7010  0.3834  0.6391
 3281SOL     OW17834   2.710  10.222   1.617  0.5363 -0.2684  0.3053
 3281SOL    HW117835   2.789  10.266   1.659 -0.0469  0.6869  0.4222
 3281SOL    HW217836   2.729  10.204   1.521  0.4677  1.0565  0.0335
 3282SOL     OW17837   4.446   3.918   2.347  0.3949 -0.2322 -0.2751
 3282SOL    HW117838   4.512   3.926   2.273  0.4472 -0.1477 -0.2196
 3282SOL    HW217839   4.369   3.979   2.329 -0.2464 -1.2228 -0.9520
 3284SOL     OW17840   9.617   2.138   2.202  0.4175 -0.2919  0.3709
 3284SOL    HW117841   9.675   2.058   2.182  0.3732 -0.0373 -0.8074
 3284SOL    HW217842   9.651   2.216   2.150 -1.3031 -0.2640 -0.7258
 3285SOL     OW17843   3.822   0.846   1.339 -0.1146 -0.1391 -0.1369
 3285SOL    HW117844   3.853   0.835   1.434  1.1043 -0.0162 -0.5082
 3285SOL    HW217845   3.902   0.856   1.280 -0.7170 -3.2392 -1.5751
 3286SOL     OW17846   3.118   2.110   1.880  0.4813  0.2316  0.4430
 3286SOL    HW117847   3.185   2.153   1.820  1.5423  0.3418  1.6815
 3286SOL    HW217848   3.109   2.014   1.856  0.4794  0.4006 -0.2501
 3287SOL     OW17849   0.511   6.914   1.184  0.3655  0.6099 -0.2694
 3287SOL    HW117850   0.559   6.995   1.219  0.4858  0.9850 -1.2838
 3287SOL    HW217851   0.446   6.942   1.114  0.1618 -0.1361 -0.3779
 3288SOL     OW17852  10.208   5.228   0.322  0.2395  0.4327 -0.0594
 3288SOL    HW117853  10.163   5.228   0.411 -2.4264 -1.2220 -1.3566
 3288SOL    HW217854  10.163   5.293   0.261 -0.6675 -1.4262 -1.4501
 3290SOL     OW17855   3.727   9.696   2.262 -0.0280 -0.5940  0.0035
 3290SOL    HW117856   3.777   9.610   2.272 -1.5307 -1.5196 -0.3596
 3290SOL    HW217857   3.793   9.771   2.250  1.2962 -1.6549  0.4759
 3291SOL     OW17858   4.105   9.763   2.189  0.5359 -0.5851  0.3210
 3291SOL    HW117859   4.063   9.747   2.100  4.0739 -0.0769 -1.5152
 3291SOL    HW217860   4.086   9.685   2.249  0.2597 -2.1412 -1.7196
 3292SOL     OW17861   0.663   5.639   0.793  0.0833  0.3989 -0.0790
 3292SOL    HW117862   0.725   5.707   0.755  1.2775 -0.5867  0.0511
 3292SOL    HW217863   0.668   5.642   0.893 -0.4148  0.6193 -0.0608
 3293SOL     OW17864   2.200   0.525   1.536 -0.3874 -0.0172 -0.3923
 3293SOL    HW117865   2.256   0.585   1.479  0.6361 -1.6732 -1.1769
 3293SOL    HW217866   2.190   0.565   1.627  2.8493 -0.0905  0.0626
 3294SOL     OW17867   9.668   3.096   1.288  0.3793 -0.1693  0.0496
 3294SOL    HW117868   9.704   3.056   1.372 -0.4559 -1.0879 -0.0230
 3294SOL    HW217869   9.569   3.082   1.284  0.5334 -0.9557 -1.5097
 3295SOL     OW17870   9.700   3.544   2.024  0.0631 -0.3822  0.3458
 3295SOL    HW117871   9.770   3.612   2.048  1.2011 -0.7781 -1.6772
 3295SOL    HW217872   9.731   3.454   2.054  0.6558 -0.6163 -0.9037
 3296SOL     OW17873   1.950   1.094   0.675 -0.0158 -0.0759 -0.6088
 3296SOL    HW117874   1.977   1.152   0.752 -0.3179  0.3445 -0.8212
 3296SOL    HW217875   2.027   1.085   0.612 -0.2105  0.7423 -0.9748
 3297SOL     OW17876   1.353   3.526   2.096 -0.1097  0.0079  0.1976
 3297SOL    HW117877   1.397   3.601   2.048 -0.2059 -0.2894 -0.3554
 3297SOL    HW217878   1.419   3.453   2.114  0.2171  0.6222  1.5849
 3298SOL     OW17879   2.232   1.264   0.710  0.1170  0.5643  0.1367
 3298SOL    HW117880   2.220   1.206   0.791  2.6336  0.1520  0.2623
 3298SOL    HW217881   2.242   1.360   0.739 -1.3292  0.7249  0.1281
 3299SOL     OW17882   9.379   2.207   2.122  0.0413 -0.1285  1.1105
 3299SOL    HW117883   9.391   2.293   2.072 -2.4685  0.1164  0.8437
 3299SOL    HW217884   9.464   2.183   2.168  1.8220  0.7031 -1.5900
 3300SOL     OW17885   2.364   5.076   1.859  1.1534 -0.6822 -0.4996
 3300SOL    HW117886   2.410   5.157   1.896  2.2062 -1.4138 -0.1918
 3300SOL    HW217887   2.415   5.042   1.780 -0.0193 -0.2720 -1.4659
 3301SOL     OW17888   3.375   5.014   0.948  0.4175 -0.1573  0.4016
 3301SOL    HW117889   3.311   5.023   0.872  1.5289 -2.0156 -0.7826
 3301SOL    HW217890   3.332   4.963   1.023 -0.0893  0.1561  0.3235
 3303SOL     OW17891   2.566   8.924   1.757  0.0905 -0.3277  0.0563
 3303SOL    HW117892   2.584   8.870   1.675  0.6545  0.5811 -0.4343
 3303SOL    HW217893   2.468   8.938   1.767 -0.1041 -1.9203  0.5165
 3304SOL     OW17894   2.277   6.812   2.085  0.0806 -0.3542  0.0228
 3304SOL    HW117895   2.178   6.801   2.091  0.1147  0.1430  2.0934
 3304SOL    HW217896   2.322   6.729   2.117  0.3153  0.2625  1.3360
 3305SOL     OW17897   1.905   0.720   1.099  0.0835  0.0018 -0.3319
 3305SOL    HW117898   1.826   0.780   1.111 -0.2549 -0.5202  0.0954
 3305SOL    HW217899   1.979   0.770   1.055  0.2803  1.1200  1.2287
 3308SOL     OW17900   3.120   1.548   0.704  0.0620  0.0475  0.1591
 3308SOL    HW117901   3.144   1.521   0.797  0.7041  0.2362  0.0524
 3308SOL    HW217902   3.158   1.481   0.639  0.7978  0.6545 -0.0469
 3309SOL     OW17903  10.369   3.953   1.645 -0.2013 -0.5225  0.6189
 3309SOL    HW117904  10.306   4.026   1.618 -0.7218 -1.3305 -0.3860
 3309SOL    HW217905  10.372   3.946   1.744  1.6061  2.3988  0.8511
 3310SOL     OW17906   2.950   5.197   1.908 -0.5094 -0.0000  0.2855
 3310SOL    HW117907   2.934   5.292   1.882 -1.3162  0.3572  1.9732
 3310SOL    HW217908   3.025   5.160   1.855 -0.3228  1.5245 -0.5463
 3311SOL     OW17909   9.422   3.586   2.135  0.5064 -0.0317  0.2839
 3311SOL    HW117910   9.516   3.575   2.102  0.2171 -0.4552 -0.4222
 3311SOL    HW217911   9.374   3.651   2.077  0.0672 -0.5832  0.0199
 3312SOL     OW17912   1.431   3.881   0.390  0.8481 -0.1225 -0.6319
 3312SOL    HW117913   1.416   3.917   0.297 -0.8264 -0.3406 -0.4587
 3312SOL    HW217914   1.462   3.787   0.384  1.1982  0.0156 -0.9897
 3313SOL     OW17915   9.632   4.036   1.195  0.3509 -0.1297 -0.1212
 3313SOL    HW117916   9.667   3.962   1.138  1.0590  0.1928 -0.1117
 3313SOL    HW217917   9.597   4.110   1.136  1.8126  0.5501 -0.1530
 3314SOL     OW17918   1.320   7.313   1.579 -0.0100  0.4191  0.0343
 3314SOL    HW117919   1.402   7.270   1.542  1.0179  0.6543  1.9469
 3314SOL    HW217920   1.347   7.388   1.640 -1.6698  1.1478 -0.1024
 3315SOL     OW17921   2.477   8.462   2.150  0.5187 -0.1933 -0.4816
 3315SOL    HW117922   2.550   8.463   2.082 -0.3995  0.3777 -1.4683
 3315SOL    HW217923   2.405   8.526   2.123  0.1037 -0.0134  0.9809
 3316SOL     OW17924   2.832   8.064   1.989  0.5362 -0.0570  0.0278
 3316SOL    HW117925   2.742   8.021   1.977 -0.6899  2.2592  0.5252
 3316SOL    HW217926   2.858   8.109   1.903  0.0469  1.3441  0.5858
 3317SOL     OW17927   1.360   6.271   0.655  0.1491 -0.2051  0.0219
 3317SOL    HW117928   1.421   6.271   0.735  0.4877  0.3439 -0.2300
 3317SOL    HW217929   1.406   6.315   0.578 -1.2200  1.9225  0.3511
 3318SOL     OW17930   9.170   2.682   2.255  0.3366  1.2780 -0.7617
 3318SOL    HW117931   9.219   2.735   2.324 -0.0919  1.6370 -0.7343
 3318SOL    HW217932   9.152   2.590   2.290  0.6736  1.2592 -0.6344
 3319SOL     OW17933   1.470   8.433   1.845 -0.8044  0.0172  0.1426
 3319SOL    HW117934   1.413   8.363   1.801 -0.4248 -0.7144  0.8090
 3319SOL    HW217935   1.458   8.429   1.944  1.9285 -1.5119  0.4578
 3320SOL     OW17936   9.210   3.251   1.567  0.2082 -0.9473 -0.1557
 3320SOL    HW117937   9.280   3.289   1.507 -0.4707 -0.6058 -0.7406
 3320SOL    HW217938   9.146   3.196   1.513  1.0970 -2.8253  0.6535
 3323SOL     OW17939   9.954   6.230   1.858  0.1574  0.4708  0.6549
 3323SOL    HW117940  10.005   6.277   1.931  1.1020 -1.2079  1.1130
 3323SOL    HW217941   9.908   6.150   1.896  0.1294 -0.0576 -0.4742
 3324SOL     OW17942   3.878   9.373   1.330  0.1604 -0.0677 -0.2043
 3324SOL    HW117943   3.888   9.311   1.408 -1.8612  0.5502  0.5842
 3324SOL    HW217944   3.814   9.445   1.354  0.5392  0.8770 -2.0066
 3325SOL     OW17945   1.567   4.217   1.332 -0.6581  0.1595 -0.2984
 3325SOL    HW117946   1.590   4.127   1.294 -1.7405 -0.4707  0.4795
 3325SOL    HW217947   1.641   4.248   1.392  0.3302  0.4256 -1.6429
 3330SOL     OW17948   2.141   6.956   0.849  0.7507  0.1881 -0.3195
 3330SOL    HW117949   2.194   6.878   0.816 -1.2928  0.0112 -3.3162
 3330SOL    HW217950   2.064   6.923   0.903  1.3492  0.2639  0.5885
 3331SOL     OW17951   4.127   9.542   0.515 -0.2758  0.0951 -0.3751
 3331SOL    HW117952   4.088   9.481   0.446 -0.1606 -0.2907 -0.0965
 3331SOL    HW217953   4.178   9.489   0.583 -0.8965  0.4146  0.3455
 3332SOL     OW17954   2.995   9.075   1.729 -0.1955  0.0321 -0.1297
 3332SOL    HW117955   3.038   9.023   1.803 -0.1196  0.3787  0.0675
 3332SOL    HW217956   2.951   9.157   1.766  2.1711  1.6616 -0.8379
 3333SOL     OW17957   2.902   5.184   0.399  0.0875  0.1417 -0.3497
 3333SOL    HW117958   2.843   5.111   0.364 -0.3882  0.6215 -0.5477
 3333SOL    HW217959   2.934   5.240   0.322  1.1065 -0.3379 -0.2881
 3334SOL     OW17960   2.586   6.894   1.806  0.5230 -0.4847 -0.4754
 3334SOL    HW117961   2.626   6.972   1.760 -0.5035 -0.4202 -1.2747
 3334SOL    HW217962   2.572   6.820   1.740 -1.5375 -0.1634 -0.4167
 3335SOL     OW17963   3.226   9.059   0.839 -0.1829 -0.3620 -0.0470
 3335SOL    HW117964   3.238   9.058   0.740  0.5530 -0.9977  0.0439
 3335SOL    HW217965   3.244   9.151   0.875  1.6999 -0.6420 -0.2443
 3336SOL     OW17966   0.614   5.006   1.848 -0.3134  0.0523 -0.1335
 3336SOL    HW117967   0.577   5.095   1.874  0.7744  1.0021 -1.7263
 3336SOL    HW217968   0.674   4.972   1.921 -1.1720  0.3569  0.7174
 3338SOL     OW17969  10.412   5.616   1.909 -0.0147 -0.0503  0.4357
 3338SOL    HW117970  10.413   5.685   1.982 -0.1913 -0.7589  1.1117
 3338SOL    HW217971  10.428   5.661   1.821  1.4506  0.6547  1.0433
 3339SOL     OW17972   1.047   5.952   0.859  0.3910  0.3891 -0.0873
 3339SOL    HW117973   1.096   5.954   0.772  0.3971  1.5146 -0.0647
 3339SOL    HW217974   1.056   6.040   0.904  0.1303 -0.0963  0.9164
 3340SOL     OW17975   2.272   4.511   1.248 -0.4458  0.6353 -0.4463
 3340SOL    HW117976   2.222   4.438   1.202  0.5321  0.5764 -1.4466
 3340SOL    HW217977   2.353   4.535   1.194  1.0174  0.2155  1.5114
 3341SOL     OW17978   2.965   7.492   1.904 -0.2297  0.2544 -0.4093
 3341SOL    HW117979   3.063   7.507   1.915 -0.3354  1.2049 -0.7508
 3341SOL    HW217980   2.914   7.557   1.960 -0.6699 -0.1565 -0.3289
 3342SOL     OW17981   2.185   5.046   2.231 -0.1782 -0.1857 -0.3233
 3342SOL    HW117982   2.149   4.975   2.171 -1.0396 -0.7785  0.8865
 3342SOL    HW217983   2.257   5.007   2.289  0.2191  0.2336 -0.5300
 3343SOL     OW17984  10.060   6.288   1.021  0.3813  0.1976 -0.4418
 3343SOL    HW117985  10.157   6.266   1.033  0.6768  1.0268 -1.2933
 3343SOL    HW217986  10.041   6.377   1.063 -0.8351 -1.6253  3.0970
 3345SOL     OW17987   4.833   4.575   1.163 -0.2753  0.3945  0.2981
 3345SOL    HW117988   4.887   4.648   1.205  0.1189 -0.3669  1.1302
 3345SOL    HW217989   4.769   4.538   1.231 -0.3335 -0.1754 -0.0703
 3346SOL     OW17990   2.612   5.268   1.376  0.4981  0.3926 -0.5822
 3346SOL    HW117991   2.514   5.263   1.393  0.6006  1.6096  0.4520
 3346SOL    HW217992   2.660   5.203   1.434  0.3937  0.6942 -0.1486
 3347SOL     OW17993   3.854   2.394   1.371  0.0920  0.4020  0.2835
 3347SOL    HW117994   3.767   2.372   1.326  0.3726 -1.2469  0.5364
 3347SOL    HW217995   3.888   2.314   1.420  0.1594  1.9509  2.8663
 3348SOL     OW17996   9.431   1.943   1.142 -0.6573  0.4621 -0.1716
 3348SOL    HW117997   9.473   1.866   1.190 -1.1646 -1.0432 -2.0742
 3348SOL    HW217998   9.425   1.922   1.044 -1.2290  2.7405 -0.6468
 3349SOL     OW17999   1.369   2.346   0.867  0.3806 -0.2397  0.1238
 3349SOL    HW118000   1.423   2.307   0.942 -0.2839 -2.3690 -0.4902
 3349SOL    HW218001   1.416   2.331   0.780  0.3729  0.8285 -0.0776
 3350SOL     OW18002   3.060   7.844   1.333  0.1874  0.0024  0.3163
 3350SOL    HW118003   3.095   7.932   1.300  2.5650 -1.0748 -0.0838
 3350SOL    HW218004   3.031   7.788   1.255 -0.8968  0.2291  0.5438
 3351SOL     OW18005   9.145   5.734   1.487 -0.2485 -0.0946 -0.1279
 3351SOL    HW118006   9.238   5.765   1.506 -0.9024  0.6803  1.9227
 3351SOL    HW218007   9.091   5.811   1.452 -0.4489 -0.2410 -0.1394
 3352SOL     OW18008   3.713   0.617   1.787  0.2022 -0.0214  0.1301
 3352SOL    HW118009   3.786   0.633   1.853 -0.2549  2.0504  0.1796
 3352SOL    HW218010   3.679   0.705   1.753 -2.5347 -0.9160  0.4010
 3353SOL     OW18011   1.582   4.031   2.087  0.2990  0.2155  0.0747
 3353SOL    HW118012   1.626   4.083   2.160 -1.6000  0.6182  0.9312
 3353SOL    HW218013   1.487   4.060   2.076  0.4098 -0.1613 -2.2396
 3354SOL     OW18014   0.755   2.706   2.232 -0.7036  0.5783  0.1003
 3354SOL    HW118015   0.794   2.624   2.276 -0.1134  0.4363 -0.6653
 3354SOL    HW218016   0.769   2.700   2.133  0.5531  2.2285  0.1494
 3355SOL     OW18017   9.223   3.631   2.301 -0.2432  0.2378 -0.0505
 3355SOL    HW118018   9.287   3.610   2.227 -0.7637  2.4219 -1.1674
 3355SOL    HW218019   9.194   3.547   2.345  0.7323 -1.0506 -1.8090
 3356SOL     OW18020   2.571   4.291   1.911 -0.2477 -0.1626  0.2339
 3356SOL    HW118021   2.478   4.325   1.923 -0.2547 -0.3462  0.7074
 3356SOL    HW218022   2.605   4.254   1.998  1.0382  1.8153  0.6018
 3358SOL     OW18023   0.641   7.804   1.308 -0.1226  0.3135 -0.4738
 3358SOL    HW118024   0.702   7.843   1.377 -1.7719  1.3136  0.4326
 3358SOL    HW218025   0.682   7.817   1.217  1.6709 -0.2959  0.2183
 3360SOL     OW18026   4.840   1.619   1.763 -0.0411 -0.1725  0.1032
 3360SOL    HW118027   4.802   1.528   1.782 -2.1209  0.8260  0.8390
 3360SOL    HW218028   4.938   1.618   1.782  0.2640 -2.6697 -1.3359
 3361SOL     OW18029   9.440   4.813   2.116  0.1081  0.7304  0.3742
 3361SOL    HW118030   9.358   4.756   2.112 -0.2648  1.3475 -0.9651
 3361SOL    HW218031   9.520   4.760   2.090  0.0469  0.3041  1.0420
 3362SOL     OW18032   2.594   8.666   1.304 -0.2526  0.1900  0.6409
 3362SOL    HW118033   2.661   8.603   1.265 -1.8848 -1.5460  0.5702
 3362SOL    HW218034   2.530   8.695   1.233 -0.0148  1.3051  0.8627
 3363SOL     OW18035   9.736   3.838   1.431 -0.0393 -0.2347 -0.4425
 3363SOL    HW118036   9.692   3.887   1.356  1.1793  1.9178  0.2140
 3363SOL    HW218037   9.809   3.780   1.395 -1.8097 -2.0020 -1.2735
 3364SOL     OW18038   1.446   2.677   2.241 -0.5063  0.0239 -0.0522
 3364SOL    HW118039   1.380   2.601   2.244  0.2840 -0.6356  3.6884
 3364SOL    HW218040   1.482   2.693   2.333  1.5342  3.0675 -1.3034
 3366SOL     OW18041  10.123   1.993   1.768  0.5520  0.6973  0.4296
 3366SOL    HW118042  10.119   2.082   1.814 -1.4464  1.6065 -1.4117
 3366SOL    HW218043  10.184   1.999   1.689 -1.0146  1.0076 -0.7916
 3367SOL     OW18044   3.211   1.424   1.946  0.1059  0.0174 -0.4489
 3367SOL    HW118045   3.154   1.369   2.007  0.5880 -0.9029 -0.8254
 3367SOL    HW218046   3.304   1.427   1.980  0.7368 -1.7662 -1.9152
 3368SOL     OW18047   2.099   0.765   0.735  0.5227  0.5858 -0.7689
 3368SOL    HW118048   2.189   0.721   0.731  0.2163 -0.7606  3.8108
 3368SOL    HW218049   2.028   0.698   0.711  0.5186  0.7052 -1.0940
 3369SOL     OW18050   4.658   2.940   1.962 -0.3048  0.0607 -0.1711
 3369SOL    HW118051   4.741   2.885   1.961 -0.1481  0.2912 -0.0177
 3369SOL    HW218052   4.579   2.883   1.938 -0.1635 -0.2565  0.1226
 3370SOL     OW18053   2.643   7.587   1.730 -0.2951 -0.1171 -0.0467
 3370SOL    HW118054   2.701   7.507   1.743  0.3150  0.1711 -1.0084
 3370SOL    HW218055   2.640   7.612   1.633 -0.0150  1.3682  0.3109
 3371SOL     OW18056   9.416   1.960   0.871  0.3647  0.2961  0.6707
 3371SOL    HW118057   9.365   2.043   0.845 -0.4529 -0.1340  0.8975
 3371SOL    HW218058   9.503   1.959   0.822  0.6827  1.6341  1.1798
 3372SOL     OW18059   0.572  10.108   2.080 -0.7358 -0.1229 -0.1235
 3372SOL    HW118060   0.652  10.052   2.104 -0.2277  0.4481 -0.4701
 3372SOL    HW218061   0.505  10.050   2.033 -0.4469 -0.5679  0.0048
 3373SOL     OW18062   2.006   3.653   1.120 -0.4715  0.2397 -0.3378
 3373SOL    HW118063   1.997   3.740   1.168  1.2514 -0.7114  1.7998
 3373SOL    HW218064   2.039   3.669   1.027  1.8015  1.7404  0.6959
 3374SOL     OW18065   1.592   5.708   1.370 -0.1931  0.0007 -0.0299
 3374SOL    HW118066   1.612   5.643   1.443 -1.3447  1.2508  1.4428
 3374SOL    HW218067   1.511   5.761   1.395 -0.6997  0.3343 -2.3073
 3375SOL     OW18068   3.459   2.850   1.069 -0.2584  0.1748  0.1356
 3375SOL    HW118069   3.437   2.758   1.035 -0.7466  0.5692 -0.6344
 3375SOL    HW218070   3.509   2.842   1.155  0.4400 -0.8280 -0.3506
 3377SOL     OW18071   4.279   5.056   0.396  0.0979  0.2479 -0.1255
 3377SOL    HW118072   4.378   5.057   0.379  0.0720 -0.6849 -0.3525
 3377SOL    HW218073   4.260   5.010   0.482 -0.1445  0.3756 -0.1106
 3378SOL     OW18074   2.765   4.850   2.094  0.3770  0.0640 -0.1386
 3378SOL    HW118075   2.679   4.811   2.127 -0.0252  0.6220 -0.5023
 3378SOL    HW218076   2.745   4.926   2.032  1.1357 -0.1977 -0.7077
 3379SOL     OW18077  10.378   1.335   0.334  0.0170 -0.1855  0.0929
 3379SOL    HW118078  10.465   1.353   0.380 -0.1385 -0.9914  0.7046
 3379SOL    HW218079  10.359   1.409   0.269  1.4642 -0.3147 -0.5010
 3380SOL     OW18080   1.786   2.319   0.946  0.2409 -0.2475  0.8189
 3380SOL    HW118081   1.846   2.389   0.908 -0.6576 -0.8877 -1.9151
 3380SOL    HW218082   1.840   2.253   0.998  1.6636  0.1012 -0.2047
 3381SOL     OW18083   4.192   2.550   1.026  0.4972 -0.2369  0.0579
 3381SOL    HW118084   4.121   2.619   1.008 -1.2293 -1.7154  0.9618
 3381SOL    HW218085   4.280   2.596   1.041  0.1729  1.5334 -2.9568
 3382SOL     OW18086   4.040   8.714   1.453  0.6263  0.0482 -0.1252
 3382SOL    HW118087   4.099   8.634   1.463  0.5196 -0.1262 -0.8766
 3382SOL    HW218088   4.032   8.760   1.541  1.6287 -0.1084  0.0526
 3383SOL     OW18089   2.010   7.767   2.194  0.2595  0.1178 -0.3227
 3383SOL    HW118090   1.924   7.719   2.211 -0.3906  1.9913  1.9403
 3383SOL    HW218091   2.016   7.846   2.254  3.0771  0.6575 -1.2525
 3384SOL     OW18092   0.970   4.542   2.109 -0.2575 -0.4328 -0.1647
 3384SOL    HW118093   0.915   4.589   2.178  1.1105 -0.0278  0.6667
 3384SOL    HW218094   0.949   4.579   2.018  0.3470  1.3877  0.4078
 3385SOL     OW18095  10.119   2.417   2.189 -0.2425  0.2707 -0.3129
 3385SOL    HW118096  10.144   2.506   2.150 -0.2943  0.4666  0.0992
 3385SOL    HW218097  10.029   2.424   2.232 -1.2187 -0.5335 -2.1520
 3386SOL     OW18098   9.258   5.237   1.596 -0.0459  0.2023 -0.2433
 3386SOL    HW118099   9.226   5.247   1.502  0.4796  1.6445 -0.2932
 3386SOL    HW218100   9.256   5.326   1.642  0.6721 -0.2923  0.7932
 3387SOL     OW18101   3.179   7.818   0.627  0.7426  0.1130 -0.1015
 3387SOL    HW118102   3.175   7.768   0.714 -1.1128  1.0645  0.3788
 3387SOL    HW218103   3.246   7.892   0.634  0.9493 -0.1156  0.3504
 3388SOL     OW18104   3.260   2.612   1.823  0.8450 -0.1396 -0.1972
 3388SOL    HW118105   3.346   2.643   1.864  0.8964  0.5964 -0.8535
 3388SOL    HW218106   3.219   2.686   1.771 -1.2468  0.1566  1.8024
 3390SOL     OW18107   3.146   4.520   1.496  0.3541  0.2158  0.3940
 3390SOL    HW118108   3.146   4.424   1.524  0.8294  0.4008  1.0329
 3390SOL    HW218109   3.053   4.547   1.471  0.2942 -0.5293 -0.2035
 3391SOL     OW18110  10.353   3.891   1.914 -0.0219 -0.3506 -0.1380
 3391SOL    HW118111  10.261   3.854   1.919 -0.2152  0.2920  1.6251
 3391SOL    HW218112  10.419   3.818   1.935 -0.2153 -0.4497  0.1275
 3393SOL     OW18113   1.391   5.981   1.749 -0.1525 -0.0840 -0.2746
 3393SOL    HW118114   1.379   6.032   1.664  1.3581  0.8190  0.0424
 3393SOL    HW218115   1.465   5.914   1.737  0.2701  0.2592  0.4278
 3394SOL     OW18116   2.731   3.904   0.584  0.2324 -0.3585 -0.3766
 3394SOL    HW118117   2.757   3.820   0.631  0.2737 -0.7421 -1.0757
 3394SOL    HW218118   2.769   3.983   0.632  0.2686 -0.7466  0.2299
 3396SOL     OW18119   0.860   2.585   0.912 -0.2444  0.6644  0.1874
 3396SOL    HW118120   0.824   2.492   0.921  0.4953  0.2042 -1.4467
 3396SOL    HW218121   0.954   2.581   0.877  0.3201  1.9692  1.5327
 3398SOL     OW18122   2.105   7.969   0.467 -0.6617 -0.0366  0.2865
 3398SOL    HW118123   2.156   7.911   0.404 -3.0368 -0.4371 -1.3325
 3398SOL    HW218124   2.101   8.063   0.430 -2.3599 -0.3531 -0.3851
 3400SOL     OW18125   2.347   5.083   0.791 -0.1365 -0.7015 -0.4036
 3400SOL    HW118126   2.447   5.085   0.793 -0.1032 -0.2821 -1.7439
 3400SOL    HW218127   2.313   5.041   0.875  1.1445 -0.3328  0.3223
 3401SOL     OW18128   1.368   6.123   1.535 -0.1001  0.0843 -0.3739
 3401SOL    HW118129   1.280   6.166   1.516 -0.2806  0.4587  1.2200
 3401SOL    HW218130   1.439   6.194   1.537 -0.1430  0.1137  0.6351
 3403SOL     OW18131   0.601   5.766   0.321 -0.1248 -0.4696  0.2257
 3403SOL    HW118132   0.574   5.860   0.339  1.5205 -0.2470  1.6726
 3403SOL    HW218133   0.694   5.750   0.355 -0.2211 -2.5077 -0.3453
 3404SOL     OW18134  10.000   4.259   0.580  0.1775  0.6933  0.2516
 3404SOL    HW118135   9.922   4.267   0.641 -0.4382 -0.1051 -0.4118
 3404SOL    HW218136   9.975   4.290   0.488  1.0977  1.8924  0.3918
 3405SOL     OW18137   1.620   0.434   1.700 -0.1356  0.2248  0.1509
 3405SOL    HW118138   1.609   0.411   1.797 -1.0215  0.2660  0.0633
 3405SOL    HW218139   1.703   0.391   1.665  0.9284  1.3557  1.2740
 3406SOL     OW18140   1.472   2.488   0.447  0.1779  0.0850 -0.5858
 3406SOL    HW118141   1.489   2.390   0.442 -0.4709 -0.0110 -0.9846
 3406SOL    HW218142   1.552   2.534   0.485  1.1514 -0.4133 -1.9990
 3409SOL     OW18143   2.160   7.131   0.413 -0.5711  0.4119  0.1136
 3409SOL    HW118144   2.118   7.206   0.363 -3.1587 -0.4633  0.8819
 3409SOL    HW218145   2.137   7.138   0.510  0.6692 -0.3877  0.4843
 3412SOL     OW18146   1.530   9.299   1.559 -0.3026  0.1475 -0.0509
 3412SOL    HW118147   1.559   9.247   1.639  1.0101  0.6510 -0.1833
 3412SOL    HW218148   1.445   9.261   1.523 -0.7522 -0.2454  1.4181
 3413SOL     OW18149   4.421   4.051   0.554  0.0912 -0.0266  0.4777
 3413SOL    HW118150   4.470   4.138   0.556  1.8032 -0.9772  0.5747
 3413SOL    HW218151   4.486   3.976   0.542 -1.2014 -1.4199  1.9206
 3414SOL     OW18152   2.164   8.591   1.182  0.3255  0.4122 -0.1824
 3414SOL    HW118153   2.073   8.616   1.149  0.1142  0.2352  0.2583
 3414SOL    HW218154   2.156   8.549   1.272  1.0412  2.6997  1.0045
 3415SOL     OW18155   1.693   4.669   1.233 -0.1272  0.4569 -0.3503
 3415SOL    HW118156   1.678   4.719   1.148 -0.5613  0.1539 -0.4522
 3415SOL    HW218157   1.646   4.581   1.229  3.6029 -1.6189 -1.6479
 3416SOL     OW18158   0.704   8.826   1.696 -0.2707 -0.4063  0.1705
 3416SOL    HW118159   0.632   8.882   1.737  2.1820  2.0310  1.3417
 3416SOL    HW218160   0.731   8.754   1.760 -0.3242 -0.1132  0.5225
 3418SOL     OW18161   1.885   9.714   0.381  0.2113 -0.0383  0.0980
 3418SOL    HW118162   1.906   9.811   0.394 -2.9459  0.6771  0.3590
 3418SOL    HW218163   1.871   9.696   0.284 -0.6561  0.0953  0.1978
 3419SOL     OW18164   3.303   9.169   1.381 -0.4330 -0.0117  0.2556
 3419SOL    HW118165   3.241   9.102   1.422 -1.1436 -0.4805 -1.5220
 3419SOL    HW218166   3.390   9.125   1.358 -0.5717 -0.1093 -0.0863
 3421SOL     OW18167   0.542   6.345   1.456  0.0242  0.0955  0.4608
 3421SOL    HW118168   0.465   6.282   1.454  0.9701 -1.1400  1.5906
 3421SOL    HW218169   0.512   6.433   1.491 -1.3589  0.3614 -1.3601
 3422SOL     OW18170   1.884   1.347   1.108  0.3525  0.2712  0.0627
 3422SOL    HW118171   1.891   1.427   1.168  3.0568  0.0530  0.1105
 3422SOL    HW218172   1.837   1.273   1.156 -0.8564  1.3385  0.5492
 3423SOL     OW18173   1.574   7.736   0.666 -0.0663 -0.0351 -0.4083
 3423SOL    HW118174   1.661   7.785   0.667 -0.4312  0.6027  0.1858
 3423SOL    HW218175   1.531   7.745   0.576 -0.5715  1.5143 -0.0187
 3424SOL     OW18176   1.423   7.986   0.449 -0.2866 -0.0411 -0.2423
 3424SOL    HW118177   1.433   8.031   0.538 -2.6926 -0.5718  0.3434
 3424SOL    HW218178   1.513   7.973   0.408  0.8930  0.1260  2.1753
 3425SOL     OW18179   2.394   8.650   0.820 -0.1617  0.2472  0.3359
 3425SOL    HW118180   2.411   8.557   0.787 -0.4400  0.1540  0.4533
 3425SOL    HW218181   2.369   8.709   0.743 -0.4989  0.1024  0.3324
 3426SOL     OW18182   9.263   4.145   1.234  1.1495  0.5110 -0.0631
 3426SOL    HW118183   9.289   4.236   1.202  0.7713  0.3028 -0.9766
 3426SOL    HW218184   9.272   4.080   1.158  0.2357  0.0093  0.2533
 3427SOL     OW18185   1.421   0.739   1.172 -0.1261 -0.2553  0.4593
 3427SOL    HW118186   1.468   0.661   1.213 -0.2074 -0.3923  0.2914
 3427SOL    HW218187   1.322   0.725   1.177 -0.1694  0.3287  1.3984
 3429SOL     OW18188   3.606   2.341   1.241 -0.1202  0.1010 -0.2847
 3429SOL    HW118189   3.591   2.403   1.319 -1.0869  0.2647 -0.5873
 3429SOL    HW218190   3.517   2.316   1.202  0.2914 -1.1577 -0.4222
 3430SOL     OW18191   1.304   8.343   1.180 -0.3145  0.1716 -0.0958
 3430SOL    HW118192   1.353   8.343   1.267  1.0478 -1.9068 -0.8259
 3430SOL    HW218193   1.206   8.349   1.197  0.0361  2.2568  1.4676
 3432SOL     OW18194   2.985   1.127   1.737  0.3183 -0.2236  0.5804
 3432SOL    HW118195   3.063   1.069   1.761 -0.5220 -2.4581 -1.8021
 3432SOL    HW218196   2.900   1.074   1.748 -0.5424  0.8799 -0.6550
 3433SOL     OW18197  10.082   6.372   1.438  0.3196  0.0989 -0.2604
 3433SOL    HW118198  10.048   6.384   1.531  1.6000 -0.2050  0.2660
 3433SOL    HW218199  10.151   6.442   1.419  0.8051 -0.4711 -0.6126
 3434SOL     OW18200   9.934   5.731   1.073 -0.1995  0.5685  0.3654
 3434SOL    HW118201   9.935   5.829   1.058 -0.0225  0.3964 -0.7506
 3434SOL    HW218202  10.025   5.700   1.100 -0.1567  0.6444  0.3043
 3435SOL     OW18203   1.889   4.489   0.496 -0.5541  0.5469  0.4591
 3435SOL    HW118204   1.814   4.540   0.539 -1.7395  0.4671 -1.4625
 3435SOL    HW218205   1.902   4.522   0.403  1.8573  0.5840  0.7884
 3437SOL     OW18206   3.847   1.812   1.650  0.5006 -0.0256  0.1691
 3437SOL    HW118207   3.826   1.773   1.560 -0.2435  0.7599 -0.0081
 3437SOL    HW218208   3.942   1.842   1.652 -0.2165  2.4462 -1.2992
 3438SOL     OW18209   1.566   4.455   1.685  0.8078 -0.5190 -0.1596
 3438SOL    HW118210   1.634   4.515   1.728 -1.8521  1.0912  2.0004
 3438SOL    HW218211   1.521   4.503   1.610  1.7161 -1.4053 -1.2771
 3439SOL     OW18212  10.256   4.038   0.905  0.3420  0.0635 -0.4213
 3439SOL    HW118213  10.295   3.949   0.880 -0.2690 -0.3841  0.2097
 3439SOL    HW218214  10.170   4.051   0.857 -0.5498 -0.5508  0.9844
 3440SOL     OW18215   2.161   3.157   0.513 -0.3442  0.0225  0.6055
 3440SOL    HW118216   2.161   3.226   0.585 -2.4068 -0.8113  1.4350
 3440SOL    HW218217   2.250   3.111   0.511  1.3441  3.2015 -0.4888
 3441SOL     OW18218   9.243   4.648   2.015 -0.3120 -0.1202  1.2661
 3441SOL    HW118219   9.246   4.704   1.932  2.2624 -0.6144  0.9734
 3441SOL    HW218220   9.161   4.591   2.014 -0.1992 -0.2915 -1.0526
 3442SOL     OW18221   4.524   1.348   1.031  0.1326  0.1313  0.2388
 3442SOL    HW118222   4.479   1.434   1.011  0.1795  0.1164  0.0736
 3442SOL    HW218223   4.590   1.361   1.105 -1.4134 -0.2172  1.7148
 3443SOL     OW18224   2.807   0.420   0.415  0.5414 -0.0043 -0.0617
 3443SOL    HW118225   2.759   0.347   0.464 -1.6137  0.9926 -0.6206
 3443SOL    HW218226   2.846   0.484   0.482 -0.4045  0.0951  0.4183
 3444SOL     OW18227   1.182   4.932   2.140 -0.1010  0.0620 -0.1229
 3444SOL    HW118228   1.134   4.897   2.060 -0.3243  1.1987 -0.4995
 3444SOL    HW218229   1.115   4.967   2.206  0.1798  1.2972 -0.4814
 3445SOL     OW18230  10.422   3.657   0.327  0.0956 -0.4989 -0.5961
 3445SOL    HW118231  10.457   3.751   0.320 -0.0819 -0.4999 -1.6001
 3445SOL    HW218232  10.432   3.612   0.239 -3.7610 -0.0471 -1.3558
 3446SOL     OW18233   0.834   9.337   2.078 -0.3474 -0.4787  0.1859
 3446SOL    HW118234   0.786   9.358   1.993 -0.1752 -1.1336 -0.0734
 3446SOL    HW218235   0.870   9.422   2.117 -0.4398 -0.1731 -0.3844
 3447SOL     OW18236   1.972   7.099   1.887  0.0000  0.4230 -0.0145
 3447SOL    HW118237   1.889   7.152   1.870 -0.3682 -0.6753 -1.6882
 3447SOL    HW218238   1.961   7.006   1.853  2.5570  0.7436 -1.9282
 3448SOL     OW18239   2.301   7.627   2.309 -0.1252  0.1605 -0.2790
 3448SOL    HW118240   2.223   7.592   2.256  0.3511  0.6953 -1.3639
 3448SOL    HW218241   2.386   7.598   2.265  0.3020 -0.6251  1.0348
 3449SOL     OW18242   2.122   1.780   2.087 -0.0446  0.0446 -0.2437
 3449SOL    HW118243   2.179   1.856   2.055  0.1868 -0.2291 -0.4761
 3449SOL    HW218244   2.138   1.699   2.031 -1.9001  0.4370 -1.3592
 3450SOL     OW18245   9.954   2.026   0.654 -0.8403  0.6401 -0.3720
 3450SOL    HW118246   9.889   1.992   0.586  0.2848  0.1550 -1.2192
 3450SOL    HW218247   9.947   2.126   0.659 -0.8233  0.6950 -1.3118
 3451SOL     OW18248   1.472   9.606   1.921  0.4875  0.1946  0.3422
 3451SOL    HW118249   1.393   9.577   1.975  1.4998  0.5886  2.0732
 3451SOL    HW218250   1.464   9.570   1.828 -0.7887 -1.3811  1.0359
 3452SOL     OW18251   0.919   8.661   0.472  0.1310 -0.7349 -0.7597
 3452SOL    HW118252   0.965   8.574   0.453 -0.0841 -1.1891  0.7545
 3452SOL    HW218253   0.987   8.731   0.495  0.3304 -0.4010 -2.3297
 3454SOL     OW18254   4.635   2.572   2.052 -0.3062 -0.1548  0.0324
 3454SOL    HW118255   4.652   2.621   2.137  0.2585  0.4218 -0.4087
 3454SOL    HW218256   4.670   2.479   2.059  2.1595  0.7079 -0.4966
 3455SOL     OW18257   0.811   5.846   0.670 -0.1456  0.1714 -0.1451
 3455SOL    HW118258   0.737   5.911   0.652 -1.0930 -0.7108  0.4649
 3455SOL    HW218259   0.884   5.892   0.721 -0.6235  0.8576 -0.0673
 3456SOL     OW18260   4.831   4.144   1.278  0.7352  0.8183 -0.5335
 3456SOL    HW118261   4.816   4.221   1.216 -1.2683  0.4994 -0.4830
 3456SOL    HW218262   4.896   4.080   1.237 -0.3867  0.7244 -2.2191
 3457SOL     OW18263   3.101   8.894   0.465 -0.4177 -0.4169  0.3437
 3457SOL    HW118264   3.188   8.918   0.508  0.0588 -2.0519  0.3370
 3457SOL    HW218265   3.114   8.887   0.366 -0.6696 -0.1581  0.2949
 3458SOL     OW18266   2.758   3.139   1.441  0.2659  0.0829  0.5434
 3458SOL    HW118267   2.751   3.065   1.508 -0.2082 -0.1197  0.2755
 3458SOL    HW218268   2.841   3.126   1.387  0.2626 -0.1704  0.5985
 3459SOL     OW18269   5.185   2.653   1.874  0.1636 -0.1654  0.7279
 3459SOL    HW118270   5.126   2.724   1.833  1.9484  1.8530  1.5439
 3459SOL    HW218271   5.260   2.632   1.812 -0.7839 -1.9596  0.1531
 3460SOL     OW18272   4.762   2.515   1.096  0.3480  0.0538  0.0298
 3460SOL    HW118273   4.716   2.442   1.146 -1.3235  0.0950 -1.4207
 3460SOL    HW218274   4.795   2.584   1.161 -2.1125  0.2870  1.0722
 3461SOL     OW18275   1.602   7.944   1.313 -0.4244  0.6792 -0.6293
 3461SOL    HW118276   1.680   7.882   1.302 -1.2788 -1.0008  2.1819
 3461SOL    HW218277   1.621   8.006   1.389 -1.1777  1.2980 -0.9509
 3462SOL     OW18278   2.375   1.818   0.441 -0.4463  0.6639  0.1453
 3462SOL    HW118279   2.341   1.768   0.361  1.1788  0.5550 -0.4991
 3462SOL    HW218280   2.425   1.898   0.411  2.0532 -0.5526  0.9512
 3463SOL     OW18281   3.109   2.712   1.593  0.1718  0.1908 -0.5765
 3463SOL    HW118282   3.158   2.799   1.582  0.8125 -0.1521 -0.4449
 3463SOL    HW218283   3.099   2.668   1.504  0.6504 -0.0381 -0.5148
 3467SOL     OW18284   4.382   4.707   0.541  0.2920 -0.2836 -0.0900
 3467SOL    HW118285   4.416   4.800   0.551 -1.2645  0.2770 -0.0197
 3467SOL    HW218286   4.395   4.678   0.446  2.3255 -0.6359  0.2551
 3471SOL     OW18287  10.197   3.324   2.130 -0.0967  0.0043 -0.1667
 3471SOL    HW118288  10.254   3.260   2.181  3.0775  0.7464 -2.6253
 3471SOL    HW218289  10.121   3.275   2.089 -0.0115 -1.4285  1.3311
 3472SOL     OW18290  10.109   6.158   0.602 -0.1852  0.4748  0.1589
 3472SOL    HW118291  10.207   6.177   0.603 -0.0810 -0.0900  1.6132
 3472SOL    HW218292  10.088   6.085   0.668 -1.3864 -0.3638 -1.1081
 3473SOL     OW18293   9.314   2.275   1.629 -0.2071  0.6797  0.1992
 3473SOL    HW118294   9.346   2.183   1.654  0.2485  0.9627  0.6738
 3473SOL    HW218295   9.241   2.267   1.561  0.4905  0.0040 -0.4805
 3474SOL     OW18296   1.073   1.021   2.299 -0.4629  0.0943 -0.4135
 3474SOL    HW118297   1.133   0.941   2.307  2.2362  2.0768 -0.3788
 3474SOL    HW218298   0.998   1.013   2.365 -1.0889 -3.0805 -1.4025
 3475SOL     OW18299   1.750   6.405   0.680  0.4054  0.1452  0.4850
 3475SOL    HW118300   1.793   6.360   0.601  0.1824  2.8939 -1.2979
 3475SOL    HW218301   1.819   6.420   0.751  1.0759 -0.6287  0.0116
 3476SOL     OW18302   0.679   2.065   0.710  0.6254 -0.1259 -0.4373
 3476SOL    HW118303   0.750   2.124   0.670  0.5932  0.0132 -0.2923
 3476SOL    HW218304   0.721   2.005   0.779  0.4420  0.6530  0.3707
 3477SOL     OW18305   2.918   0.529   0.634  0.4277 -0.0066 -0.1884
 3477SOL    HW118306   3.000   0.584   0.620  0.1023  0.2860 -0.9936
 3477SOL    HW218307   2.840   0.590   0.653  0.6512 -0.3451  1.8705
 3478SOL     OW18308   4.463   3.113   0.395  0.3724  0.0833 -0.0595
 3478SOL    HW118309   4.503   3.039   0.341 -1.7139 -0.8626 -0.3831
 3478SOL    HW218310   4.364   3.098   0.403  0.1583  2.0106  1.1984
 3479SOL     OW18311  10.131   5.770   1.938 -0.4326 -0.5286 -0.9130
 3479SOL    HW118312  10.097   5.695   1.882 -0.8396 -0.0489 -1.3135
 3479SOL    HW218313  10.074   5.778   2.020 -0.8360 -0.1982 -1.2226
 3480SOL     OW18314   3.510   1.111   1.498  0.0890 -0.6040  0.0471
 3480SOL    HW118315   3.566   1.193   1.482  0.5204 -0.9110 -0.0376
 3480SOL    HW218316   3.570   1.031   1.506 -0.2418 -0.7280  1.3623
 3481SOL     OW18317   0.698   5.684   1.072  0.1972 -0.5451  0.6354
 3481SOL    HW118318   0.726   5.780   1.071  0.2238 -0.4812 -3.3924
 3481SOL    HW218319   0.762   5.631   1.128  1.2373  1.5203  1.4507
 3483SOL     OW18320   2.084   3.932   0.466 -0.6450  0.1098 -0.0891
 3483SOL    HW118321   2.131   4.014   0.498 -2.4470  1.4308 -0.7855
 3483SOL    HW218322   2.031   3.893   0.541 -0.0591 -0.2491  0.1473
 3484SOL     OW18323   8.760   1.947   0.787  0.3261  0.5177 -0.1792
 3484SOL    HW118324   8.827   2.017   0.760 -0.5671  1.2579 -0.5300
 3484SOL    HW218325   8.701   1.984   0.859 -0.0452  0.0675 -0.2533
 3485SOL     OW18326   0.840   3.419   0.392 -0.4733 -0.1592  0.1373
 3485SOL    HW118327   0.880   3.366   0.466  0.2336  0.4872  0.2268
 3485SOL    HW218328   0.779   3.488   0.430  0.6747  0.8475  0.2019
 3486SOL     OW18329   2.806   0.772   0.552 -0.0245  0.2707  0.1026
 3486SOL    HW118330   2.712   0.804   0.540 -0.8327 -2.1842 -0.4627
 3486SOL    HW218331   2.853   0.770   0.463  0.2741  0.6684  0.2522
 3487SOL     OW18332   4.210   0.794   1.099 -0.1800  0.0191  0.1597
 3487SOL    HW118333   4.284   0.747   1.052  0.0745  0.8617 -0.2911
 3487SOL    HW218334   4.194   0.883   1.056 -3.1254 -1.1627 -1.3813
 3488SOL     OW18335   3.630   2.734   1.328  0.1275 -0.0998  0.1527
 3488SOL    HW118336   3.695   2.716   1.402 -1.6817  1.4068  2.1962
 3488SOL    HW218337   3.550   2.675   1.339  0.5151 -0.9798 -1.5540
 3489SOL     OW18338   1.243   0.810   2.329  0.3726 -0.2060 -0.1916
 3489SOL    HW118339   1.342   0.799   2.338  0.4446  0.3217 -0.3032
 3489SOL    HW218340   1.214   0.777   2.239  0.3855 -0.7413 -0.0036
 3491SOL     OW18341   3.148   2.943   0.866 -0.1726  0.1694  0.2082
 3491SOL    HW118342   3.139   2.934   0.767  0.5737 -0.6835  0.2091
 3491SOL    HW218343   3.199   3.026   0.887 -2.9758  2.0120  0.0100
 3492SOL     OW18344   3.202   4.412   1.978  0.3216 -0.3321 -0.1443
 3492SOL    HW118345   3.110   4.373   1.986 -0.5553  1.1107 -2.5603
 3492SOL    HW218346   3.206   4.499   2.028  1.0469 -1.4347  1.7665
 3493SOL     OW18347   1.276   7.461   1.842  0.6053 -0.4354  0.0183
 3493SOL    HW118348   1.253   7.501   1.754  0.7224  1.9177  1.0196
 3493SOL    HW218349   1.260   7.362   1.839  0.1828 -0.3219 -2.4721
 3494SOL     OW18350   0.992   9.271   1.145 -0.3713 -0.2547 -0.4515
 3494SOL    HW118351   0.985   9.262   1.245  1.6828  0.5820 -0.1972
 3494SOL    HW218352   0.964   9.363   1.118 -1.8331 -0.7840 -0.7648
 3495SOL     OW18353   9.029   2.400   1.828  0.1675 -0.4541  0.2533
 3495SOL    HW118354   9.063   2.364   1.915 -0.4826 -0.9440  0.3076
 3495SOL    HW218355   9.067   2.491   1.813  1.1297 -0.7988  0.5390
 3496SOL     OW18356   5.003   4.029   0.399  0.0755  0.1560 -0.0334
 3496SOL    HW118357   4.936   4.033   0.473 -0.3931 -0.3314 -0.4318
 3496SOL    HW218358   4.982   3.952   0.339  0.6230  0.3817 -0.5169
 3497SOL     OW18359   1.964   8.003   1.296  0.2261  0.5905  0.3093
 3497SOL    HW118360   1.893   8.070   1.318  1.9753  2.3192  0.8526
 3497SOL    HW218361   1.980   7.944   1.375  1.2965  1.9836  1.1491
 3498SOL     OW18362   9.075   1.852   0.888  0.6037 -0.0602 -0.0923
 3498SOL    HW118363   9.023   1.787   0.944 -0.1369  0.0570 -0.6435
 3498SOL    HW218364   9.160   1.810   0.858  0.7209 -0.3395  0.6068
 3499SOL     OW18365   1.922   4.205   2.029 -0.3486  0.1240  0.2921
 3499SOL    HW118366   1.831   4.237   2.003 -0.8200 -1.8218 -0.5442
 3499SOL    HW218367   1.986   4.221   1.954 -0.5884 -0.9051 -0.1328
 3500SOL     OW18368   1.361   0.817   0.648  0.1216 -0.0266 -0.2774
 3500SOL    HW118369   1.397   0.768   0.727 -1.4975 -0.5518  0.1591
 3500SOL    HW218370   1.349   0.754   0.572 -3.1489 -0.6724  0.6700
 3501SOL     OW18371   9.119   2.291   1.372 -0.0600 -0.1923  0.0773
 3501SOL    HW118372   9.050   2.296   1.444  0.4411  1.6470  0.4674
 3501SOL    HW218373   9.167   2.204   1.376 -1.1183 -0.7446  0.9481
 3502SOL     OW18374  10.184   8.297   1.080 -0.4622  0.1553 -0.3688
 3502SOL    HW118375  10.143   8.348   1.004  0.1761 -0.1989 -0.9517
 3502SOL    HW218376  10.211   8.361   1.152 -1.4316  0.4549 -0.2683
 3504SOL     OW18377   1.714   1.093   0.920  0.0218  0.1200  0.2094
 3504SOL    HW118378   1.732   1.036   0.840 -1.6929 -0.7257  0.4066
 3504SOL    HW218379   1.762   1.180   0.910 -0.1557  0.0215 -1.7272
 3505SOL     OW18380   1.737   3.409   1.677 -0.0455  0.5384  0.1724
 3505SOL    HW118381   1.659   3.346   1.675 -0.4539  1.0573 -0.7359
 3505SOL    HW218382   1.793   3.395   1.595  0.6257  0.4107  0.6501
 3506SOL     OW18383  10.365   3.466   0.664 -0.9722  0.8027 -0.7155
 3506SOL    HW118384  10.337   3.513   0.581 -0.2112  1.4650 -0.6095
 3506SOL    HW218385  10.301   3.487   0.738 -0.6373  1.6838 -0.6699
 3508SOL     OW18386   4.066   4.148   2.209  0.2473 -0.1510  0.3214
 3508SOL    HW118387   4.147   4.096   2.179  0.5307  1.3701 -1.5950
 3508SOL    HW218388   4.078   4.175   2.305  1.9436 -0.0602  0.0985
 3509SOL     OW18389  10.023   2.546   1.345 -0.4722  0.3612 -0.0849
 3509SOL    HW118390   9.949   2.544   1.412 -1.2668 -0.9003 -0.9628
 3509SOL    HW218391   9.997   2.491   1.266  0.7296  1.2689 -1.1336
 3510SOL     OW18392  10.362   6.470   1.170  0.1702  0.3654  0.2632
 3510SOL    HW118393  10.420   6.524   1.230  0.3841  0.1000  0.2991
 3510SOL    HW218394  10.333   6.526   1.093 -0.5697  0.8685  0.9091
 3511SOL     OW18395   1.053   5.339   0.675 -0.8820  0.0165  0.4708
 3511SOL    HW118396   1.053   5.246   0.638 -0.0226 -0.9237  2.7364
 3511SOL    HW218397   1.143   5.380   0.663 -0.9900  0.2131  0.3258
 3512SOL     OW18398   9.281   1.485   0.957  0.4923 -0.3399 -0.6737
 3512SOL    HW118399   9.261   1.387   0.948 -2.8994  0.2505 -0.3342
 3512SOL    HW218400   9.274   1.529   0.868 -0.3422 -0.0275 -0.4598
 3513SOL     OW18401   2.552   4.760   0.342  0.1770  0.0210 -0.0910
 3513SOL    HW118402   2.513   4.851   0.330  1.4442  0.5555 -0.3076
 3513SOL    HW218403   2.573   4.721   0.252  0.5732 -0.0557  0.0322
 3514SOL     OW18404   4.723   2.165   0.535 -0.2925  0.4973 -0.7728
 3514SOL    HW118405   4.817   2.138   0.558 -0.3317 -0.8926 -2.1772
 3514SOL    HW218406   4.717   2.265   0.534  0.2372  0.6688  3.0389
 3515SOL     OW18407   2.749   8.984   1.078 -0.5593 -0.1431 -0.3917
 3515SOL    HW118408   2.794   9.057   1.026 -1.0222  1.1846  1.0225
 3515SOL    HW218409   2.693   8.929   1.016  2.0870 -1.1421 -1.9908
 3516SOL     OW18410   0.817   8.655   1.519  0.1232 -0.3794  0.3705
 3516SOL    HW118411   0.755   8.711   1.574  0.3711  0.1271  0.1343
 3516SOL    HW218412   0.781   8.562   1.513 -0.0971 -0.3464  1.0785
 3517SOL     OW18413   1.193   5.907   1.968 -0.5873  0.2099 -0.0863
 3517SOL    HW118414   1.232   5.901   2.060 -1.1924 -0.4721  0.1339
 3517SOL    HW218415   1.258   5.952   1.907  0.4128 -0.6417  0.3415
 3518SOL     OW18416   2.231   4.786   1.616 -0.5206  0.0624  0.1754
 3518SOL    HW118417   2.318   4.763   1.572  0.3842  1.4177  1.2098
 3518SOL    HW218418   2.200   4.708   1.670 -1.3971 -1.4487 -2.4023
 3519SOL     OW18419   0.662   0.961   1.343  0.3630 -0.9374  0.3410
 3519SOL    HW118420   0.719   0.879   1.335  0.8390 -0.5468 -0.2987
 3519SOL    HW218421   0.632   0.989   1.252 -1.2609 -1.4235  0.7178
 3520SOL     OW18422   2.650   1.235   2.307  0.1278 -0.0600 -0.5107
 3520SOL    HW118423   2.675   1.300   2.379  1.5102  0.1112 -1.1220
 3520SOL    HW218424   2.554   1.250   2.280 -1.1010 -1.5770  2.7609
 3521SOL     OW18425   2.794   4.289   2.267  0.1551  0.4761 -0.2516
 3521SOL    HW118426   2.765   4.354   2.338 -1.1058 -0.8428  0.4628
 3521SOL    HW218427   2.714   4.253   2.219  0.9136  0.2617 -1.3711
 3522SOL     OW18428   3.786   4.202   0.794  0.2040  0.0572 -0.0978
 3522SOL    HW118429   3.795   4.224   0.891 -0.9871 -1.9433  0.4914
 3522SOL    HW218430   3.754   4.283   0.744  1.9273  1.4372  0.9586
 3523SOL     OW18431   2.797  10.243   0.951 -0.5286 -0.5995 -0.7230
 3523SOL    HW118432   2.753  10.197   0.873 -0.3515 -1.8354 -0.1040
 3523SOL    HW218433   2.805  10.179   1.027  1.5807 -0.1403 -0.5319
 3524SOL     OW18434   2.731   8.414   2.001 -0.5032  0.4187 -0.1014
 3524SOL    HW118435   2.711   8.334   1.945 -0.0307 -0.5475  1.0882
 3524SOL    HW218436   2.781   8.482   1.947 -0.9360 -0.0717 -1.1202
 3527SOL     OW18437   0.979   2.018   1.163  0.0082  0.6168  0.3268
 3527SOL    HW118438   0.984   1.919   1.178  0.8773  0.2192 -2.2591
 3527SOL    HW218439   1.053   2.062   1.213  1.6695 -0.4417 -1.1077
 3528SOL     OW18440   2.660   4.015   1.404  0.5612  0.4281 -0.2712
 3528SOL    HW118441   2.749   4.041   1.444 -0.7308  1.4887  2.0514
 3528SOL    HW218442   2.588   4.073   1.443 -1.5331 -2.2260 -0.0344
 3529SOL     OW18443   2.073   1.584   0.528  0.3618  0.2269 -0.1560
 3529SOL    HW118444   2.090   1.492   0.493 -0.9200 -0.3999  0.8272
 3529SOL    HW218445   1.990   1.583   0.584  1.8577  1.3816  2.1630
 3530SOL     OW18446   1.036   4.458   0.552  0.1392  0.5656 -0.4478
 3530SOL    HW118447   0.938   4.456   0.531 -0.0168  2.0469  0.1009
 3530SOL    HW218448   1.053   4.405   0.635 -0.0757 -0.3087 -0.9475
 3531SOL     OW18449   4.144   4.899   1.348 -0.1221  0.2997 -0.4084
 3531SOL    HW118450   4.138   4.999   1.352  1.3181  0.3728  0.1747
 3531SOL    HW218451   4.240   4.871   1.354 -0.6523 -1.2120  1.2867
 3532SOL     OW18452   2.496   8.249   2.316 -0.0537  0.1095 -0.1113
 3532SOL    HW118453   2.474   8.333   2.266 -1.0730 -0.2402 -0.2642
 3532SOL    HW218454   2.581   8.262   2.368 -0.8706  1.6630  0.8623
 3533SOL     OW18455   2.013   8.547   2.281 -0.4658  0.1401  0.2693
 3533SOL    HW118456   2.075   8.625   2.269  2.1142 -1.4427  2.6462
 3533SOL    HW218457   1.936   8.575   2.339  1.2031  0.5713  2.3260
 3535SOL     OW18458   2.763   7.735   1.276  0.3147  0.4780  0.2430
 3535SOL    HW118459   2.732   7.823   1.239  1.7476  0.7171 -0.4039
 3535SOL    HW218460   2.843   7.704   1.226  0.9081 -0.3156  1.6574
 3536SOL     OW18461   1.018   6.578   0.618 -0.0896  0.2307 -0.0402
 3536SOL    HW118462   1.070   6.599   0.535 -0.9979 -0.0136 -0.6783
 3536SOL    HW218463   0.922   6.598   0.603 -0.4890 -1.2440  0.4397
 3537SOL     OW18464   3.159   0.643   0.573  0.5176 -0.0371 -0.1604
 3537SOL    HW118465   3.179   0.582   0.496 -0.3432  0.5181 -0.8399
 3537SOL    HW218466   3.184   0.737   0.547  0.6007  0.0903  0.3881
 3538SOL     OW18467   2.977   8.788   1.918  0.1951 -0.2098 -0.0150
 3538SOL    HW118468   3.054   8.850   1.932  0.5677 -0.5580 -0.5144
 3538SOL    HW218469   2.893   8.842   1.906  0.6539  0.2299 -1.2855
 3540SOL     OW18470   3.472  10.276   2.206 -0.3618  1.0149  0.3053
 3540SOL    HW118471   3.523  10.192   2.224 -0.2494  1.0359  0.0924
 3540SOL    HW218472   3.533  10.345   2.168 -0.6856  0.7972 -0.6386
 3541SOL     OW18473   0.926   5.605   1.229 -0.1635  0.0395 -0.1979
 3541SOL    HW118474   0.982   5.656   1.164  0.3042 -0.8687 -0.5081
 3541SOL    HW218475   0.958   5.622   1.322 -1.8785  2.6757 -0.0378
 3542SOL     OW18476   9.644   3.998   1.630 -0.9530  0.2480  0.4027
 3542SOL    HW118477   9.666   3.929   1.562 -1.7650  0.0026  0.3942
 3542SOL    HW218478   9.722   4.060   1.640 -0.4032 -0.3842  0.0749
 3543SOL     OW18479   2.115   4.968   1.774 -0.3459 -0.0900  0.4156
 3543SOL    HW118480   2.189   5.030   1.799 -0.9954  1.6273 -1.7682
 3543SOL    HW218481   2.149   4.899   1.711  0.3450 -1.9280  2.7399
 3544SOL     OW18482   3.578   8.765   1.927 -0.1432 -0.5095  0.5203
 3544SOL    HW118483   3.497   8.713   1.953 -1.5269  0.3902 -1.8358
 3544SOL    HW218484   3.648   8.703   1.892 -1.2478 -0.9551 -0.9605
 3545SOL     OW18485   4.393   2.005   2.246 -0.1189 -0.2470  0.3792
 3545SOL    HW118486   4.362   2.095   2.215 -0.3706 -0.7615 -0.8711
 3545SOL    HW218487   4.397   2.004   2.346 -0.1167  1.1497  0.3964
 3546SOL     OW18488  10.379   7.896   1.439  0.2040 -0.0439 -0.5067
 3546SOL    HW118489  10.344   7.956   1.367 -0.3433 -0.5369 -0.6552
 3546SOL    HW218490  10.437   7.825   1.399  0.9405  0.4414 -0.3190
 3547SOL     OW18491  10.243   1.533   1.579  0.0784  0.6419  0.2545
 3547SOL    HW118492  10.337   1.505   1.598  0.2840  0.6866 -0.6546
 3547SOL    HW218493  10.241   1.631   1.558 -0.4251  1.0022  1.9804
 3550SOL     OW18494   2.711   2.990   0.519 -0.1606 -0.1457 -0.1100
 3550SOL    HW118495   2.653   3.045   0.578 -1.6719 -0.5776 -1.1431
 3550SOL    HW218496   2.772   3.049   0.467 -2.5013  0.7090 -1.9914
 3551SOL     OW18497   2.971   1.578   2.166  0.4558 -0.4575 -0.4835
 3551SOL    HW118498   2.890   1.622   2.128  0.9303  0.1513 -0.7925
 3551SOL    HW218499   3.050   1.637   2.154  1.0362 -1.2404 -0.6020
 3552SOL     OW18500   4.010   1.328   0.484 -0.7098  0.2865 -0.2118
 3552SOL    HW118501   3.988   1.313   0.388 -2.8933  1.4752  0.0600
 3552SOL    HW218502   3.934   1.376   0.528  1.2162  1.7488  1.5833
 3553SOL     OW18503   1.513   3.564   1.711 -0.0234  0.3389 -0.1361
 3553SOL    HW118504   1.596   3.511   1.695  0.5498  0.6859  1.5665
 3553SOL    HW218505   1.435   3.502   1.723  0.0260  0.0054 -1.4229
 3554SOL     OW18506   1.963   1.968   1.312  0.1001  0.0092  0.5445
 3554SOL    HW118507   1.905   1.996   1.388 -1.7293 -0.5529 -0.6108
 3554SOL    HW218508   1.921   1.890   1.265 -0.2997  2.1518 -2.8019
 3555SOL     OW18509   3.504   3.170   1.091 -0.5346  0.1470 -0.1705
 3555SOL    HW118510   3.488   3.075   1.066 -1.1604 -0.0872  1.0650
 3555SOL    HW218511   3.452   3.230   1.031  0.3238 -0.2521 -1.3368
 3557SOL     OW18512   3.068   2.457   1.393  0.2524 -0.2308  0.9589
 3557SOL    HW118513   3.020   2.369   1.394  2.5745 -1.5170  0.8648
 3557SOL    HW218514   3.157   2.447   1.437  1.3758  1.5904 -0.8523
 3559SOL     OW18515  10.376   7.259   1.648 -0.1308 -0.3491 -0.1757
 3559SOL    HW118516  10.473   7.255   1.625 -0.1342 -0.0837 -0.2431
 3559SOL    HW218517  10.345   7.354   1.643  0.1327 -0.1334  2.0438
 3560SOL     OW18518   8.311   2.504   2.233  0.4192 -0.0118 -0.0703
 3560SOL    HW118519   8.277   2.538   2.145 -2.7927  0.8266  1.4336
 3560SOL    HW218520   8.252   2.429   2.265 -0.3396  1.7374  2.8019
 3561SOL     OW18521   9.916   4.328   0.336 -0.0669  0.0701 -0.6162
 3561SOL    HW118522   9.959   4.356   0.251 -0.6702 -0.1520 -0.9949
 3561SOL    HW218523   9.842   4.391   0.358  0.3451  0.3625 -0.0445
 3562SOL     OW18524   1.964   0.446   1.038  0.1481  0.1390 -0.5539
 3562SOL    HW118525   2.053   0.431   1.081 -0.9641 -1.5279  1.2464
 3562SOL    HW218526   1.936   0.541   1.050  1.2591  0.4414 -0.3177
 3563SOL     OW18527   9.436   2.491   0.797  0.1692  0.1547 -0.5239
 3563SOL    HW118528   9.374   2.422   0.834 -1.2680  2.4076  1.4716
 3563SOL    HW218529   9.488   2.533   0.872  0.8020  1.4208 -1.6354
 3564SOL     OW18530   9.834   2.053   0.996  0.1716 -0.0222  0.1223
 3564SOL    HW118531   9.924   2.089   1.019  0.3410 -0.6191  0.3806
 3564SOL    HW218532   9.797   2.104   0.918  0.0063  1.3673  1.0818
 3565SOL     OW18533   2.497   7.539   2.171  0.1026 -0.2999  0.5693
 3565SOL    HW118534   2.454   7.489   2.096 -0.6346 -0.9168  1.3918
 3565SOL    HW218535   2.595   7.550   2.152 -0.1835  0.0568 -0.7411
 3566SOL     OW18536   1.069   2.799   0.817 -0.2295  0.2592  0.3551
 3566SOL    HW118537   0.982   2.794   0.767 -0.4052 -1.4836  0.8012
 3566SOL    HW218538   1.144   2.811   0.752 -0.6562  0.1576 -0.1637
 3567SOL     OW18539   2.221   7.542   1.771 -0.2083 -0.4673 -0.2920
 3567SOL    HW118540   2.278   7.479   1.823  0.8374 -1.2238 -2.2891
 3567SOL    HW218541   2.185   7.495   1.690  0.3310  1.4066 -1.6438
 3569SOL     OW18542  10.418   3.484   2.035  0.1948  0.4759  0.3524
 3569SOL    HW118543  10.359   3.405   2.050 -1.2862  1.6347  0.8112
 3569SOL    HW218544  10.409   3.514   1.940  0.7588  0.0771  0.1773
 3570SOL     OW18545   3.366   4.758   1.136  0.1846  0.3962 -0.3087
 3570SOL    HW118546   3.382   4.767   1.234 -0.5935 -0.9532 -0.0596
 3570SOL    HW218547   3.454   4.765   1.087  0.9035 -1.5253  0.6725
 3571SOL     OW18548   9.027   5.081   0.815 -0.1038 -0.0422  0.2037
 3571SOL    HW118549   8.970   5.026   0.753 -0.3235 -0.1643  0.5121
 3571SOL    HW218550   8.997   5.176   0.811 -1.6137 -0.4348  1.8201
 3573SOL     OW18551   2.582   8.863   0.894  0.0810 -0.3728 -0.0397
 3573SOL    HW118552   2.565   8.767   0.873 -0.0514 -0.1499 -1.0131
 3573SOL    HW218553   2.655   8.897   0.834 -1.2476  0.6536 -1.0959
 3574SOL     OW18554   9.922   4.915   2.046  0.1487 -0.2347  0.3890
 3574SOL    HW118555   9.873   4.851   1.986  1.3053  0.8053 -1.7227
 3574SOL    HW218556   9.857   4.981   2.083 -0.4687 -0.3713 -0.4082
 3576SOL     OW18557   4.488   1.550   1.459 -0.2555  0.0708 -0.6298
 3576SOL    HW118558   4.443   1.612   1.395 -0.4597 -1.2588 -1.7849
 3576SOL    HW218559   4.419   1.494   1.505 -0.1129  1.0276  0.7923
 3577SOL     OW18560   2.082   2.703   0.707  0.2170 -0.1655  0.1130
 3577SOL    HW118561   2.022   2.767   0.659  0.8479 -1.0506 -1.9310
 3577SOL    HW218562   2.159   2.679   0.647  0.5843 -1.9607  1.2740
 3578SOL     OW18563   9.013   2.064   1.051  0.0003 -0.1691  0.4161
 3578SOL    HW118564   8.939   2.045   1.116 -1.3389  0.2351 -0.9508
 3578SOL    HW218565   9.034   1.982   0.999  0.8849 -0.4217  1.1653
 3579SOL     OW18566  10.177   2.813   1.039 -0.0467 -0.9951  0.0931
 3579SOL    HW118567  10.265   2.861   1.034 -1.1588  1.0152 -0.4655
 3579SOL    HW218568  10.152   2.801   1.135 -0.6088  1.1889  0.2536
 3580SOL     OW18569   1.552   1.109   2.167 -0.0168  0.0241 -0.0649
 3580SOL    HW118570   1.542   1.197   2.120  1.1835 -0.2522 -0.8507
 3580SOL    HW218571   1.551   1.035   2.100 -1.0138 -0.5673  0.5925
 3581SOL     OW18572   1.039   2.437   1.830  0.3857 -0.1719  0.6257
 3581SOL    HW118573   1.020   2.368   1.900  0.0102 -0.0341  0.6591
 3581SOL    HW218574   0.982   2.517   1.845 -0.7077 -0.6930 -0.6491
 3582SOL     OW18575   1.064   7.341   0.561 -0.5846 -0.8884 -0.5743
 3582SOL    HW118576   1.065   7.417   0.496 -1.8127 -0.2099  0.1704
 3582SOL    HW218577   1.157   7.305   0.572  0.5200  2.1715  0.9602
 3584SOL     OW18578   2.238   5.794   1.720 -0.2740 -0.5223  0.4512
 3584SOL    HW118579   2.289   5.725   1.668  0.3517 -0.3018  0.7607
 3584SOL    HW218580   2.260   5.885   1.685 -1.1238 -0.4825  0.0246
 3585SOL     OW18581   1.947   6.941   1.551 -0.8944  0.1189 -0.6921
 3585SOL    HW118582   1.997   6.885   1.485 -0.8263  0.0008 -0.5395
 3585SOL    HW218583   1.898   6.881   1.615  0.4294  0.2097  0.4401
 3587SOL     OW18584   3.912   0.826   1.601  0.1304  0.2279 -0.4616
 3587SOL    HW118585   3.938   0.843   1.696 -1.6384  0.0035  0.0827
 3587SOL    HW218586   3.945   0.736   1.573  0.3557  0.1475  0.0445
 3588SOL     OW18587   1.780   8.208   0.701 -0.1045 -0.3553 -0.8817
 3588SOL    HW118588   1.840   8.216   0.622 -1.0504 -0.2539 -1.6039
 3588SOL    HW218589   1.834   8.186   0.783  1.2592  2.6599 -0.9307
 3589SOL     OW18590   0.687   7.919   0.328  0.1165  0.3174  0.2324
 3589SOL    HW118591   0.755   7.930   0.401 -0.0772  0.8888  0.3329
 3589SOL    HW218592   0.705   7.987   0.257  0.2488 -0.1833 -0.2080
 3590SOL     OW18593   4.412   4.853   1.324  0.2948  0.6391 -0.0349
 3590SOL    HW118594   4.454   4.777   1.276  0.4913  0.2952  0.6740
 3590SOL    HW218595   4.465   4.937   1.309  0.4182  0.5077 -0.3211
 3592SOL     OW18596   4.611   1.080   0.618  0.4701  0.1840  0.2311
 3592SOL    HW118597   4.584   1.062   0.523  1.6849 -2.3377  0.3163
 3592SOL    HW218598   4.698   1.129   0.619  0.6814 -0.1895  0.0559
 3593SOL     OW18599   1.043   9.208   2.197 -0.4302 -0.1158 -0.5107
 3593SOL    HW118600   0.991   9.280   2.152 -0.9505 -0.2689 -0.1590
 3593SOL    HW218601   0.984   9.130   2.216 -0.2914  0.0536  0.6693
 3594SOL     OW18602   2.781   8.548   1.152  0.1899  0.1077 -0.9857
 3594SOL    HW118603   2.801   8.631   1.101 -0.4009  0.2601 -0.9759
 3594SOL    HW218604   2.801   8.468   1.096 -0.4305  0.2743 -1.4364
 3595SOL     OW18605   1.754   5.412   1.002 -0.7820 -0.6068  0.2793
 3595SOL    HW118606   1.716   5.490   0.952 -0.4622  0.1648  1.2028
 3595SOL    HW218607   1.695   5.391   1.080 -0.5130 -0.8465  0.4189
 3596SOL     OW18608   2.818   4.954   0.983 -0.2440  0.2017 -0.0913
 3596SOL    HW118609   2.863   4.866   0.964 -1.3190 -0.1770 -0.9889
 3596SOL    HW218610   2.881   5.029   0.963 -0.1086 -0.3078 -1.6536
 3598SOL     OW18611   2.418   2.443   1.513  0.4591  0.5722 -0.0764
 3598SOL    HW118612   2.363   2.368   1.550  0.6396  0.3409 -0.2780
 3598SOL    HW218613   2.377   2.476   1.428  1.5315 -0.6921 -1.1004
 3599SOL     OW18614   3.842   8.747   1.270 -0.4912  0.1536  0.6978
 3599SOL    HW118615   3.910   8.743   1.343 -0.9989  1.6229  1.2683
 3599SOL    HW218616   3.825   8.842   1.246 -1.6011 -0.2501 -0.1447
 3600SOL     OW18617   3.626   4.376   2.294 -0.5308  0.1211 -0.1884
 3600SOL    HW118618   3.598   4.285   2.321 -1.9840  0.9062  1.0134
 3600SOL    HW218619   3.656   4.375   2.199 -1.5356 -1.3880 -0.4986
 3601SOL     OW18620   0.475   6.853   2.325  0.1820 -0.0689 -0.1078
 3601SOL    HW118621   0.521   6.897   2.402  0.6002 -0.0067 -0.3877
 3601SOL    HW218622   0.529   6.774   2.295  0.2007  0.1084 -0.5518
 3602SOL     OW18623   1.119   5.637   0.389  0.3263  0.2966  0.4695
 3602SOL    HW118624   1.157   5.696   0.317  0.5743 -2.0072 -1.3402
 3602SOL    HW218625   1.031   5.674   0.418  0.4200  1.5043 -0.6891
 3603SOL     OW18626   0.776  10.147   1.619 -0.5376 -0.2303 -0.1742
 3603SOL    HW118627   0.739  10.076   1.679 -0.1030 -0.0559  0.2996
 3603SOL    HW218628   0.832  10.211   1.672 -1.5111  0.8940 -0.4572
 3604SOL     OW18629   0.747   3.807   1.046 -0.7608 -0.4838 -0.2295
 3604SOL    HW118630   0.788   3.719   1.021  0.0703  0.6090 -2.8437
 3604SOL    HW218631   0.789   3.840   1.131  1.5010 -0.9351 -1.1215
 3605SOL     OW18632   2.098   7.967   0.754  0.1323 -0.2864 -0.6729
 3605SOL    HW118633   2.116   7.870   0.768  1.0280 -0.4742 -2.7972
 3605SOL    HW218634   2.105   7.988   0.656 -0.5876  1.8116 -0.3084
 3606SOL     OW18635   1.335   7.033   0.649 -0.4394 -0.5916 -0.4502
 3606SOL    HW118636   1.344   7.119   0.599 -1.0443  0.3501  1.0492
 3606SOL    HW218637   1.426   7.001   0.676 -0.3292  0.4140  0.3858
 3607SOL     OW18638  10.328   5.896   1.191  0.1655  0.0364  0.1315
 3607SOL    HW118639  10.253   5.900   1.256  0.0771  1.2774 -0.0483
 3607SOL    HW218640  10.414   5.919   1.236  0.4943 -1.6268  0.3954
 3608SOL     OW18641   1.796   7.730   1.362  0.3917 -0.3365 -0.5091
 3608SOL    HW118642   1.896   7.737   1.369  0.1925  1.8536  0.7613
 3608SOL    HW218643   1.761   7.676   1.438  0.5319 -0.3966 -0.4872
 3609SOL     OW18644   0.821   8.683   1.047 -0.0507 -0.5172 -0.6495
 3609SOL    HW118645   0.858   8.667   0.956  0.0047 -1.7472 -0.4242
 3609SOL    HW218646   0.896   8.696   1.112 -0.0713 -0.4089 -0.6479
 3610SOL     OW18647   0.995   0.978   1.866  0.3841 -0.5281 -0.3833
 3610SOL    HW118648   0.979   0.918   1.788  1.5590 -0.0600 -1.0023
 3610SOL    HW218649   1.042   0.928   1.939 -1.8509 -1.3091  0.5528
 3611SOL     OW18650   1.812   1.492   1.928  0.1672 -0.1448  0.1002
 3611SOL    HW118651   1.827   1.574   1.984 -1.1176  0.8076 -0.9172
 3611SOL    HW218652   1.825   1.411   1.984  3.2123  0.6984  0.7157
 3612SOL     OW18653   4.270   3.715   1.591 -0.2428 -0.0465  0.0706
 3612SOL    HW118654   4.360   3.701   1.549 -0.2162 -2.2635  0.8033
 3612SOL    HW218655   4.206   3.648   1.554 -0.3950 -1.6041  3.0059
 3613SOL     OW18656   2.339   5.945   1.291  0.6686 -0.4639 -0.0382
 3613SOL    HW118657   2.396   5.990   1.222  0.1947  0.1105 -0.0595
 3613SOL    HW218658   2.349   5.846   1.283  1.2960 -0.3760 -0.3535
 3614SOL     OW18659   3.770   0.416   1.616 -0.1802  0.4584 -0.7325
 3614SOL    HW118660   3.774   0.490   1.683 -0.4476  0.7962 -1.0827
 3614SOL    HW218661   3.845   0.352   1.632 -1.8919 -1.0290  1.7035
 3615SOL     OW18662  10.254   3.233   1.183  0.7233 -0.1928 -0.1935
 3615SOL    HW118663  10.236   3.311   1.244 -1.4833  0.0058 -1.0321
 3615SOL    HW218664  10.195   3.157   1.210  0.1851 -0.3143 -1.6678
 3616SOL     OW18665   1.252   5.471   0.546 -0.2673 -0.1343  0.4936
 3616SOL    HW118666   1.342   5.475   0.501  0.0802  0.6205  1.2433
 3616SOL    HW218667   1.186   5.523   0.491 -0.5552 -1.7274 -0.7183
 3617SOL     OW18668   1.204   2.711   1.057  0.0443 -0.2733 -0.3771
 3617SOL    HW118669   1.289   2.675   1.019 -0.4769 -2.1295  0.1544
 3617SOL    HW218670   1.150   2.754   0.985  0.9193 -0.0888 -0.9266
 3618SOL     OW18671   1.228   8.764   2.159  0.4598  0.2632 -0.3029
 3618SOL    HW118672   1.213   8.693   2.228  0.0902  0.3272 -0.3204
 3618SOL    HW218673   1.223   8.854   2.202 -2.0432  0.3871 -0.8299
 3619SOL     OW18674   9.036   1.775   1.903 -0.1731  0.3860  0.5470
 3619SOL    HW118675   9.122   1.810   1.939  0.2788 -1.0301  0.8709
 3619SOL    HW218676   9.012   1.690   1.949  0.5402 -1.6144 -2.6134
 3620SOL     OW18677   2.831   4.378   1.584 -0.0675 -0.5791  0.6536
 3620SOL    HW118678   2.735   4.353   1.568 -0.2806  0.0259  0.9641
 3620SOL    HW218679   2.845   4.394   1.681  0.1018  0.3274  0.4857
 3621SOL     OW18680   1.986   9.681   0.720 -0.3410 -0.9439 -0.0003
 3621SOL    HW118681   1.936   9.706   0.803 -0.0841 -1.5059  0.3195
 3621SOL    HW218682   1.937   9.609   0.672 -0.4360 -0.6905 -0.2876
 3622SOL     OW18683   2.682   8.722   1.564 -0.3537 -0.3900  0.2899
 3622SOL    HW118684   2.736   8.804   1.546  0.6465 -1.1968 -0.5002
 3622SOL    HW218685   2.649   8.684   1.477  0.0753 -1.4091  0.5650
 3623SOL     OW18686   3.407   1.958   1.314 -0.4481  0.7096  0.2831
 3623SOL    HW118687   3.381   1.874   1.363  0.2176  0.8267  0.8507
 3623SOL    HW218688   3.453   2.020   1.378  1.5378  0.3534 -0.7789
 3625SOL     OW18689   1.545   1.573   2.113 -0.0834 -0.0676  0.0044
 3625SOL    HW118690   1.604   1.567   2.193  0.1839 -1.5183 -0.2889
 3625SOL    HW218691   1.541   1.484   2.067 -2.5087 -0.0280  0.0433
 3627SOL     OW18692   9.954   4.028   0.832  0.2668  0.3834 -0.0627
 3627SOL    HW118693   9.893   4.045   0.755  0.9638 -1.0766 -0.9548
 3627SOL    HW218694   9.933   4.092   0.906 -1.2096  0.9962 -0.9951
 3628SOL     OW18695   1.613   7.327   0.550  1.2560 -0.1404  0.4753
 3628SOL    HW118696   1.603   7.383   0.632 -0.3943 -0.7405  0.6973
 3628SOL    HW218697   1.642   7.385   0.474 -0.2716  1.0056  0.7332
 3629SOL     OW18698   2.647   5.765   0.892  0.0535  0.1784  0.3125
 3629SOL    HW118699   2.577   5.707   0.851  1.5155 -1.3531 -0.0636
 3629SOL    HW218700   2.704   5.710   0.953  0.5954  1.5202  1.0236
 3630SOL     OW18701   1.168   5.272   0.961 -0.0687  0.1129 -0.6444
 3630SOL    HW118702   1.263   5.258   0.935  0.0285 -1.6873  0.6003
 3630SOL    HW218703   1.144   5.369   0.951  1.8061  0.5303 -1.1993
 3631SOL     OW18704   2.556   6.556   1.109 -0.2590  0.0788  0.0316
 3631SOL    HW118705   2.494   6.479   1.120  1.2296 -0.8383  2.2260
 3631SOL    HW218706   2.509   6.640   1.136 -0.6383 -0.5622  1.3745
 3632SOL     OW18707   1.026   7.571   0.390  0.4989 -0.3706  0.3712
 3632SOL    HW118708   1.059   7.664   0.370  0.0107 -0.5234 -1.1931
 3632SOL    HW218709   0.939   7.577   0.440 -0.0601  0.0116 -0.6460
 3633SOL     OW18710   4.082   3.072   2.169 -0.0521  0.3238  1.1511
 3633SOL    HW118711   4.167   3.087   2.119 -0.8524  0.1068 -0.3014
 3633SOL    HW218712   4.012   3.135   2.136 -0.8724 -0.4823  1.3245
 3634SOL     OW18713   3.789   3.104   0.790 -0.4801  0.2914 -0.4950
 3634SOL    HW118714   3.818   3.135   0.700  0.4972 -1.0910 -0.6734
 3634SOL    HW218715   3.843   3.149   0.861  0.0774 -0.0543 -0.6957
 3635SOL     OW18716   2.772   7.677   0.920  0.1906  0.0159 -0.0621
 3635SOL    HW118717   2.804   7.590   0.881 -0.4346  0.0224 -0.5994
 3635SOL    HW218718   2.841   7.712   0.983  0.6168 -0.6835 -0.1268
 3637SOL     OW18719  10.177   4.274   1.786 -0.5308  0.1513  0.1272
 3637SOL    HW118720  10.105   4.259   1.718  0.0193 -0.1103 -0.4042
 3637SOL    HW218721  10.155   4.355   1.841 -1.3175 -0.0346  0.0890
 3638SOL     OW18722   0.679   2.300   2.151 -0.5528 -0.1144  0.0746
 3638SOL    HW118723   0.731   2.368   2.202  0.2129 -0.1191 -0.6718
 3638SOL    HW218724   0.589   2.336   2.128 -1.0620 -0.2868  1.8129
 3639SOL     OW18725   9.226   5.335   0.610  0.5043  0.2768  0.1179
 3639SOL    HW118726   9.251   5.262   0.547  2.1064  1.7211 -0.9480
 3639SOL    HW218727   9.143   5.309   0.660  1.2130 -2.3839 -0.0189
 3641SOL     OW18728   0.533   5.314   1.957  0.0340  0.1404 -0.6362
 3641SOL    HW118729   0.493   5.404   1.942  1.9249  1.0481 -0.4457
 3641SOL    HW218730   0.521   5.288   2.054 -0.5521  0.1502 -0.7033
 3644SOL     OW18731   4.510   2.017   0.500  0.7015  0.4832 -0.1385
 3644SOL    HW118732   4.593   2.067   0.522  1.9042 -1.1064 -1.0110
 3644SOL    HW218733   4.488   2.029   0.403  0.2872  0.3626 -0.0604
 3645SOL     OW18734  10.318   2.228   1.625 -0.3666  0.7283  1.1968
 3645SOL    HW118735  10.377   2.148   1.639 -0.0279  1.0517  1.6176
 3645SOL    HW218736  10.347   2.278   1.544 -1.1299 -0.0648  0.4094
 3646SOL     OW18737   2.610   5.587   1.332  0.1274 -0.3038 -0.3334
 3646SOL    HW118738   2.662   5.667   1.305 -0.0627  0.7240  2.1872
 3646SOL    HW218739   2.643   5.507   1.283  2.1901  0.8286 -0.8325
 3647SOL     OW18740   3.873   3.894   1.919  0.0779 -0.6856 -0.1349
 3647SOL    HW118741   3.911   3.866   1.831 -0.9436 -0.2058 -0.7445
 3647SOL    HW218742   3.893   3.991   1.934 -0.8477 -0.4362 -0.4467
 3648SOL     OW18743   2.428   3.670   1.829  0.0709  0.3916  0.1970
 3648SOL    HW118744   2.359   3.615   1.875  0.4882  0.4844  0.9344
 3648SOL    HW218745   2.511   3.617   1.817  0.2304  0.6284  0.2559
 3649SOL     OW18746   2.139   9.164   1.511 -0.3423 -0.2151 -0.3107
 3649SOL    HW118747   2.155   9.119   1.424  0.0212 -0.7359  0.0181
 3649SOL    HW218748   2.226   9.170   1.561 -0.6089 -0.2234  0.1538
 3651SOL     OW18749   1.507   3.355   1.381  0.4649  0.0873  0.3589
 3651SOL    HW118750   1.417   3.355   1.337  0.4220  0.7508  0.4482
 3651SOL    HW218751   1.553   3.268   1.363  0.4505  0.3520 -1.0131
 3652SOL     OW18752   1.410   7.607   2.083 -0.6021 -0.4025 -0.1762
 3652SOL    HW118753   1.373   7.552   2.008 -1.2096 -0.7665  0.3833
 3652SOL    HW218754   1.382   7.702   2.072 -2.5389 -0.8435  0.7524
 3653SOL     OW18755   0.651   6.651   2.213  0.1958 -0.4668  0.0919
 3653SOL    HW118756   0.662   6.702   2.127  0.2364 -1.8780 -0.7460
 3653SOL    HW218757   0.651   6.553   2.194  1.7916 -0.8431  1.8978
 3654SOL     OW18758   1.492   1.292   1.958  0.6179  0.3277  0.3327
 3654SOL    HW118759   1.396   1.276   1.979  0.9512 -1.0722  0.8590
 3654SOL    HW218760   1.499   1.349   1.876 -0.6565 -0.9227 -0.6741
 3656SOL     OW18761   9.365   4.712   0.700  0.2384  0.4684 -0.1849
 3656SOL    HW118762   9.294   4.654   0.740 -0.9875  1.8787 -0.2718
 3656SOL    HW218763   9.404   4.771   0.771 -0.0324  1.0457 -0.5052
 3657SOL     OW18764   1.214   1.006   1.132 -0.2337  0.2068 -0.2560
 3657SOL    HW118765   1.145   1.072   1.162 -0.1283  0.7785 -1.2576
 3657SOL    HW218766   1.255   1.038   1.046  0.3657 -0.7727 -0.3314
 3658SOL     OW18767   1.568  10.205   2.166 -0.5304  0.0480 -0.0940
 3658SOL    HW118768   1.639  10.148   2.125 -2.2549 -2.1601 -0.0975
 3658SOL    HW218769   1.572  10.196   2.266 -1.7942 -1.3462 -0.1535
 3659SOL     OW18770   0.519   2.628   0.739 -0.5149 -0.4039 -0.0902
 3659SOL    HW118771   0.422   2.644   0.758 -0.3950 -0.8676  0.9053
 3659SOL    HW218772   0.575   2.690   0.794 -0.2706  0.6097 -1.4577
 3660SOL     OW18773   0.539   5.174   0.763 -0.6537  0.1960  0.3164
 3660SOL    HW118774   0.459   5.130   0.724 -0.9858  0.6763  0.4542
 3660SOL    HW218775   0.547   5.267   0.727  0.2397 -0.0906 -0.2412
 3661SOL     OW18776   3.957   3.661   1.670 -0.0342 -0.3216 -0.1032
 3661SOL    HW118777   3.996   3.636   1.582 -0.1932 -0.0401 -0.2514
 3661SOL    HW218778   4.013   3.621   1.743  0.8660  0.5488 -0.3037
 3662SOL     OW18779   1.972   8.298   0.497  0.1829 -1.1720 -0.0421
 3662SOL    HW118780   2.018   8.283   0.410 -0.0673 -0.2206 -0.3445
 3662SOL    HW218781   2.024   8.364   0.552 -0.7971 -0.1074 -0.3804
 3663SOL     OW18782  10.353   9.242   1.493 -0.5654 -0.2915 -0.2331
 3663SOL    HW118783  10.356   9.258   1.394 -0.4257  0.9714 -0.0233
 3663SOL    HW218784  10.316   9.323   1.539 -1.7288 -1.3010  0.6531
 3664SOL     OW18785   4.275   4.491   1.340  0.6248  0.7111  0.3790
 3664SOL    HW118786   4.308   4.396   1.338 -1.2009  0.0668 -0.3645
 3664SOL    HW218787   4.265   4.525   1.247 -2.1443  0.3682  0.4905
 3665SOL     OW18788   8.981   2.233   1.619  0.0237  0.3744 -0.4658
 3665SOL    HW118789   8.981   2.294   1.698 -2.0323 -0.1322 -0.0379
 3665SOL    HW218790   9.029   2.148   1.643 -0.6525  0.1938  0.2804
 3666SOL     OW18791   3.058   7.914   2.145  0.2177  0.0803 -0.4280
 3666SOL    HW118792   2.988   7.976   2.109 -0.4984 -0.2786  0.3245
 3666SOL    HW218793   3.062   7.923   2.245  0.5675 -0.6075 -0.3782
 3667SOL     OW18794   0.753   6.362   0.970  0.5951 -0.1046 -0.7123
 3667SOL    HW118795   0.698   6.333   1.048 -1.0272 -0.0004 -1.8017
 3667SOL    HW218796   0.734   6.458   0.950  3.2660  0.7700  0.6198
 3668SOL     OW18797   1.775   4.227   0.618  0.2182 -0.1708  0.4883
 3668SOL    HW118798   1.719   4.157   0.574  1.4399  0.3589 -2.0007
 3668SOL    HW218799   1.721   4.311   0.628 -0.2795 -0.5013  0.6110
 3669SOL     OW18800   9.788   4.787   1.838 -0.7054  0.2534  0.2168
 3669SOL    HW118801   9.852   4.762   1.765  0.4330  0.0904  1.2550
 3669SOL    HW218802   9.729   4.862   1.806  0.8277  1.2570 -0.3324
 3671SOL     OW18803   1.980   2.831   1.295  0.3852 -0.0884 -0.4975
 3671SOL    HW118804   2.007   2.873   1.382  0.4628 -0.1475 -0.4926
 3671SOL    HW218805   1.935   2.743   1.313 -0.8544  0.5495 -0.4503
 3672SOL     OW18806   1.805   7.867   0.705 -0.2317 -0.5179  0.1264
 3672SOL    HW118807   1.841   7.865   0.612 -1.3294 -0.2174 -0.3170
 3672SOL    HW218808   1.812   7.959   0.742  0.5125 -0.7089  0.4720
 3673SOL     OW18809   4.534   1.597   2.035  0.0727  0.2215 -0.8742
 3673SOL    HW118810   4.633   1.609   2.024  0.3398  1.9378  2.6975
 3673SOL    HW218811   4.510   1.606   2.131 -3.4676 -1.2700 -1.5492
 3674SOL     OW18812   3.151   5.497   1.739 -0.6696  0.3009 -0.1071
 3674SOL    HW118813   3.187   5.582   1.700 -1.1654  0.0767 -1.0502
 3674SOL    HW218814   3.226   5.432   1.750 -0.2758  0.8676  0.6722
 3675SOL     OW18815   3.202   8.589   0.529  0.1109  0.0303 -0.2520
 3675SOL    HW118816   3.220   8.498   0.491 -0.3517 -0.5277  0.8302
 3675SOL    HW218817   3.269   8.654   0.493  1.0404 -0.9346 -0.3069
 3676SOL     OW18818   2.582   3.022   1.241 -0.1802 -0.2242  0.8473
 3676SOL    HW118819   2.598   3.037   1.338 -0.0917 -1.3494  1.0096
 3676SOL    HW218820   2.552   2.928   1.226 -1.1725  0.2277 -0.0962
 3677SOL     OW18821   2.733   2.812   2.111  0.2865 -0.0978  0.1222
 3677SOL    HW118822   2.637   2.784   2.117  0.2031 -0.0333 -0.7632
 3677SOL    HW218823   2.784   2.776   2.189 -0.8354  1.4062  1.5798
 3678SOL     OW18824   2.115  10.105   2.036 -0.1303  0.3040  0.2627
 3678SOL    HW118825   2.044  10.052   1.989 -1.8859  0.6093  2.4984
 3678SOL    HW218826   2.201  10.054   2.035 -0.8203 -0.8736 -0.9284
 3680SOL     OW18827   3.808   0.828   0.392  0.1374 -0.4763  0.0969
 3680SOL    HW118828   3.794   0.923   0.421  0.7212 -0.8122  1.5471
 3680SOL    HW218829   3.775   0.767   0.464  0.7124 -1.3577 -0.3905
 3681SOL     OW18830   1.463   4.619   2.342 -0.4752 -0.4632  0.4540
 3681SOL    HW118831   1.435   4.624   2.437 -0.6670 -1.0847  0.4310
 3681SOL    HW218832   1.386   4.640   2.282 -0.0910  0.9845  0.4524
 3683SOL     OW18833   1.511   6.077   2.129  0.1080 -0.6647 -0.1422
 3683SOL    HW118834   1.517   6.095   2.031 -0.8446  1.4416  0.1515
 3683SOL    HW218835   1.603   6.066   2.166  0.6279  0.9757 -0.8733
 3684SOL     OW18836   1.496   6.964   1.105 -0.0923 -0.0533 -0.0397
 3684SOL    HW118837   1.453   7.008   1.026  0.0556 -1.6759 -1.0245
 3684SOL    HW218838   1.431   6.903   1.149  0.7480 -1.4235 -0.6815
 3685SOL     OW18839   2.596   8.213   1.865 -0.4990  0.2745 -0.3485
 3685SOL    HW118840   2.539   8.142   1.906 -0.0218 -0.6465 -1.2548
 3685SOL    HW218841   2.546   8.258   1.791 -0.7715  0.8210  0.1710
 3686SOL     OW18842   2.960   9.910   0.807  0.4682  0.0776 -0.6778
 3686SOL    HW118843   2.880   9.910   0.866  0.0296  2.9441 -1.2019
 3686SOL    HW218844   3.032   9.965   0.849  1.0145  0.1514 -1.7065
 3687SOL     OW18845   2.176   6.224   2.067  0.1572 -0.6201  0.0732
 3687SOL    HW118846   2.107   6.161   2.031 -0.4935  0.5368 -0.7355
 3687SOL    HW218847   2.189   6.300   2.003  2.0307 -0.6988  0.3244
 3688SOL     OW18848   9.481   2.606   1.162 -0.1076 -0.0728 -0.1805
 3688SOL    HW118849   9.420   2.545   1.213  0.7720 -1.4280 -0.7399
 3688SOL    HW218850   9.559   2.631   1.220  1.2165 -2.1153 -1.0335
 3689SOL     OW18851   0.458   7.184   0.575  0.2332 -0.4527 -0.1858
 3689SOL    HW118852   0.409   7.202   0.661 -0.4535  0.8741 -0.8343
 3689SOL    HW218853   0.527   7.114   0.590 -0.0045 -0.3626  1.4172
 3690SOL     OW18854  10.347   0.657   1.216  0.1276 -0.6316  0.0120
 3690SOL    HW118855  10.254   0.634   1.243 -0.4954 -0.7878 -2.2311
 3690SOL    HW218856  10.369   0.750   1.247 -0.5876 -0.7667  0.9478
 3691SOL     OW18857   2.800  10.140   1.947 -0.5416 -0.0140 -0.0483
 3691SOL    HW118858   2.885  10.088   1.939  0.1232  1.0237  0.1293
 3691SOL    HW218859   2.752  10.139   1.859 -1.1291 -1.9060  0.2760
 3693SOL     OW18860   0.480   6.620   0.780  0.1969  0.2344  0.0152
 3693SOL    HW118861   0.477   6.705   0.727 -2.3796 -0.0277 -0.2887
 3693SOL    HW218862   0.421   6.628   0.860 -0.3340 -1.3869 -0.1914
 3694SOL     OW18863   2.082   3.862   1.290  0.0015  0.0022  0.0377
 3694SOL    HW118864   2.181   3.865   1.279  0.1259 -0.2546  1.0350
 3694SOL    HW218865   2.056   3.913   1.372 -0.5960 -0.7444  0.3165
 3695SOL     OW18866   4.290   1.710   1.746  0.0595 -0.5244 -0.0940
 3695SOL    HW118867   4.229   1.687   1.670  0.3803  1.1996 -0.8964
 3695SOL    HW218868   4.385   1.707   1.714  0.1685  0.6447  0.1231
 3696SOL     OW18869   2.070   4.730   0.452  0.4185  0.0164  0.2063
 3696SOL    HW118870   2.029   4.646   0.488  1.7558 -1.0657 -0.7637
 3696SOL    HW218871   2.137   4.766   0.516 -0.2167  0.4101  0.6605
 3697SOL     OW18872   1.154   3.461   1.935  0.2615 -0.1294  0.0973
 3697SOL    HW118873   1.231   3.461   1.999  1.3793 -0.2545 -1.2299
 3697SOL    HW218874   1.090   3.388   1.961  1.3766 -1.0714  0.2836
 3698SOL     OW18875   9.769   4.033   0.628 -0.0881  0.7242 -0.3601
 3698SOL    HW118876   9.798   3.953   0.576  1.0024  1.6169 -1.1591
 3698SOL    HW218877   9.714   4.092   0.569 -0.3738  0.8554  0.0395
 3699SOL     OW18878   2.844   6.685   0.462 -0.0360  0.0227  0.0594
 3699SOL    HW118879   2.858   6.601   0.514  0.7594 -0.6433 -1.2107
 3699SOL    HW218880   2.915   6.752   0.487  1.4930 -0.9787 -1.5408
 3700SOL     OW18881   3.987   9.297   1.967 -0.2531  0.1004 -0.2529
 3700SOL    HW118882   4.072   9.304   2.020 -0.3622 -0.8756  0.0537
 3700SOL    HW218883   3.962   9.387   1.932  0.7949  0.4337 -0.1553
 3701SOL     OW18884   3.830   2.691   0.964 -0.1315 -0.3328 -0.5559
 3701SOL    HW118885   3.742   2.646   0.951  0.0445 -0.3713 -1.6566
 3701SOL    HW218886   3.828   2.782   0.923  0.1523 -0.0966 -0.0587
 3702SOL     OW18887   2.146   6.387   0.669 -0.4906 -0.2234  0.6389
 3702SOL    HW118888   2.147   6.296   0.627  1.1322 -0.7716  1.8083
 3702SOL    HW218889   2.207   6.447   0.618  1.3123 -0.8307  1.9992
 3703SOL     OW18890   2.510   0.656   0.919  0.4246 -0.0436  0.3061
 3703SOL    HW118891   2.532   0.562   0.948 -2.2123 -0.7621  0.1114
 3703SOL    HW218892   2.450   0.698   0.987 -3.2548 -0.6264 -2.4221
 3705SOL     OW18893   1.857   5.594   0.609 -0.1712  0.6983  0.2296
 3705SOL    HW118894   1.871   5.652   0.689 -1.5340 -0.0294  1.0189
 3705SOL    HW218895   1.929   5.525   0.603 -1.2559 -0.6458  2.1023
 3706SOL     OW18896   3.992  10.217   1.672  0.4891 -0.6170 -0.2681
 3706SOL    HW118897   4.045  10.260   1.599 -2.1665  1.7281 -0.8968
 3706SOL    HW218898   4.039  10.231   1.759  1.6866  0.0332 -0.9984
 3707SOL     OW18899   4.476   3.153   0.829  0.0430 -0.2927  0.0838
 3707SOL    HW118900   4.403   3.089   0.853 -0.1858  0.3729  1.1619
 3707SOL    HW218901   4.468   3.176   0.732 -1.5537  0.2405  0.3252
 3709SOL     OW18902   2.702   5.852   1.544 -0.3346  0.3151  0.3151
 3709SOL    HW118903   2.733   5.943   1.572 -2.8089  1.1941  0.3111
 3709SOL    HW218904   2.776   5.805   1.495  0.4692  2.9255 -1.0390
 3713SOL     OW18905   1.264   1.450   1.508 -0.0220  0.2326 -0.9020
 3713SOL    HW118906   1.354   1.408   1.510 -1.0791 -2.0472  1.6163
 3713SOL    HW218907   1.201   1.394   1.454 -0.9428 -0.4059  0.7963
 3715SOL     OW18908   9.883   1.867   1.834  0.0359  0.1826 -0.3930
 3715SOL    HW118909   9.968   1.905   1.798  0.5821 -1.0808 -0.4517
 3715SOL    HW218910   9.901   1.781   1.881 -0.9502  0.8275  1.2443
 3716SOL     OW18911   4.228   1.103   2.118  0.4479  0.0050 -0.0876
 3716SOL    HW118912   4.162   1.160   2.166  0.3258 -0.8558  0.7896
 3716SOL    HW218913   4.321   1.130   2.145  0.4012  0.0974 -0.0201
 3717SOL     OW18914   0.813   6.966   1.841 -0.2700 -0.0593 -0.1885
 3717SOL    HW118915   0.762   6.962   1.755  1.0523  0.4754 -0.9981
 3717SOL    HW218916   0.803   6.879   1.889  1.6810 -1.5822 -2.4460
 3718SOL     OW18917   2.329   0.722   1.144 -0.4733  0.0166  0.2071
 3718SOL    HW118918   2.283   0.810   1.136  2.6860  1.5954 -1.7854
 3718SOL    HW218919   2.373   0.715   1.234  1.3639  1.6284 -0.5198
 3721SOL     OW18920   4.071   9.447   1.164  0.6436 -0.0699 -0.0714
 3721SOL    HW118921   4.005   9.409   1.230  0.4687 -1.0642 -0.8065
 3721SOL    HW218922   4.087   9.543   1.185 -2.0108  0.5406 -0.6369
 3722SOL     OW18923   2.202   7.158   2.056 -0.2670  0.5276 -0.0985
 3722SOL    HW118924   2.282   7.110   2.021  0.0560  0.1099  1.1786
 3722SOL    HW218925   2.122   7.133   2.002  0.5858  1.5782 -1.8992
 3723SOL     OW18926   9.475   3.967   0.412 -0.1483 -0.5951 -0.4335
 3723SOL    HW118927   9.521   3.948   0.325 -1.3432 -1.4442 -0.8830
 3723SOL    HW218928   9.477   3.885   0.469  1.7766  0.3282  0.8956
 3725SOL     OW18929  10.126   4.487   1.390 -0.0402 -0.0579 -0.4129
 3725SOL    HW118930  10.077   4.428   1.455  0.0474  0.2789 -0.0404
 3725SOL    HW218931  10.213   4.444   1.365 -0.3258 -0.4456 -0.7272
  10.00000  10.00000   2.82800
