chitosan Film  in water:acetic acid 2%
11118
    1CHTO  H203    1   4.612   7.004   2.805  3.9093  0.2670 -0.8837
    1CHTO   O82    2   4.621   6.911   2.808  0.5409 -0.1305 -0.4627
    1CHTO  C123    3   4.712   6.870   2.911  0.0717 -0.0715  0.5762
    1CHTO  H227    4   4.715   6.956   2.980  0.0353  0.5845 -0.2218
    1CHTO   O77    5   4.633   6.758   2.957 -0.3916  0.0192  0.1149
    1CHTO  C118    6   4.693   6.697   3.077 -0.3085 -0.0547 -0.5707
    1CHTO  H222    7   4.716   6.772   3.154 -1.2316 -0.1097 -0.2319
    1CHTO  C125    8   4.578   6.596   3.132 -0.0076 -0.0856  0.4144
    1CHTO   O84    9   4.512   6.524   3.034  0.5761  0.0658  0.0504
    1CHTO  H205   10   4.564   6.447   3.024  0.2424  0.0063 -1.3812
    1CHTO  C114   11   4.824   6.632   3.042  0.8323  0.0151  0.1269
    1CHTO  H218   12   4.805   6.561   2.961  3.4264  0.7190 -1.1433
    1CHTO  C116   13   4.923   6.734   2.990  1.2769  0.0795 -0.4299
    1CHTO  H220   14   4.950   6.802   3.074  0.7374 -1.7563  1.2665
    1CHTO   O79   15   5.042   6.661   2.950 -0.2229 -0.7761 -0.2148
    1CHTO  H201   16   5.074   6.603   3.017  0.4096 -0.1682  0.0221
    1CHTO  C120   17   4.856   6.814   2.866 -0.3173  1.1737 -0.3844
    1CHTO  H224   18   4.845   6.747   2.779 -0.9110  1.4696 -0.5364
    1CHTO   N21   19   4.949   6.919   2.815 -0.5299 -0.2105 -0.0526
    1CHTO  H211   20   4.950   7.007   2.877  0.7051  0.3627 -0.8743
    1CHTO  H212   21   4.925   6.940   2.712 -0.9361  0.1759  0.1216
    1CHTO   O75   22   4.878   6.569   3.157  0.1744  0.1612 -0.1989
    1CHTO  C112   23   4.921   6.404   3.126  0.8661 -0.3448 -0.0789
    1CHTO  H216   24   4.945   6.395   3.019  1.6743 -0.6642  0.1246
    1CHTO   O73   25   4.810   6.327   3.162 -0.5922  0.1605  0.1055
    1CHTO  C113   26   4.839   6.185   3.119 -0.1975 -0.5017  0.5115
    1CHTO  H217   27   4.891   6.186   3.021 -0.6035  0.0988  0.3001
    1CHTO  C124   28   4.701   6.106   3.119  0.3200 -0.3419 -0.1327
    1CHTO   O83   29   4.640   6.102   3.246 -0.0822  0.1549 -1.0499
    1CHTO  H204   30   4.693   6.126   3.320 -0.9645 -2.2441  0.4110
    1CHTO  C109   31   4.949   6.115   3.195  0.1675 -0.1103  0.0991
    1CHTO  H213   32   4.909   6.096   3.296 -0.5983  0.8049 -0.0313
    1CHTO  C110   33   5.067   6.212   3.211 -0.3048 -0.0941 -0.3192
    1CHTO  H214   34   5.136   6.196   3.128 -0.6836 -2.4416 -0.1966
    1CHTO   O78   35   5.152   6.173   3.323 -0.4975  0.5637 -0.1677
    1CHTO  H200   36   5.098   6.126   3.384  0.9731 -2.9211 -1.4814
    1CHTO  C111   37   5.037   6.363   3.229  0.5561  0.6196 -0.2167
    1CHTO  H215   38   5.010   6.385   3.333  0.8035  1.7394 -0.3757
    1CHTO   N19   39   5.150   6.451   3.190 -1.1031  0.0267 -0.2820
    1CHTO  H207   40   5.188   6.499   3.278 -0.3252 -2.7518  0.9667
    1CHTO  H208   41   5.222   6.397   3.130 -1.4018 -0.4378 -0.2295
    1CHTO   O74   42   4.984   5.986   3.124  0.5132 -0.6836  0.1068
    1CHTO  C115   43   5.056   5.884   3.216  0.8601  0.0743 -0.6346
    1CHTO  H219   44   5.055   5.918   3.320  1.1637 -1.1143 -0.2301
    1CHTO   O76   45   4.982   5.742   3.224 -0.5955 -0.0889 -0.2517
    1CHTO  C122   46   4.974   5.681   3.097 -0.5474 -0.0005  0.1405
    1CHTO  H226   47   4.879   5.714   3.056 -0.2823  0.8568  0.2236
    1CHTO  C126   48   4.956   5.525   3.121 -0.0386 -0.6561  0.5307
    1CHTO   O85   49   4.835   5.486   3.183 -0.1377 -0.1224  0.4681
    1CHTO  H206   50   4.848   5.453   3.270  1.3402  0.2942  0.4214
    1CHTO  C121   51   5.095   5.697   2.991  0.0874  0.1313  0.0711
    1CHTO  H225   52   5.118   5.601   2.940  1.1341  0.7842 -0.6860
    1CHTO   O81   53   5.061   5.777   2.873 -0.3013  0.6314  0.2075
    1CHTO  H202   54   4.981   5.741   2.842  0.7349 -0.3482 -1.4022
    1CHTO  C119   55   5.226   5.743   3.065  0.4943  0.3687  0.4753
    1CHTO  H223   56   5.250   5.661   3.132  1.8933  0.6292  0.3068
    1CHTO  C117   57   5.203   5.873   3.155  0.4523  0.7278 -0.1436
    1CHTO  H221   58   5.216   5.970   3.107  0.7212  0.4723 -0.5980
    1CHTO   N20   59   5.304   5.864   3.262  0.1284 -0.1762  0.2486
    1CHTO  H209   60   5.384   5.931   3.235 -0.2847 -0.2559 -1.2288
    1CHTO  H210   61   5.263   5.891   3.358 -2.1662 -0.6254 -0.5604
    1CHTO   O80   62   5.361   5.756   2.977  0.2518  0.3343 -0.5741
    1CHTO  C103   63   5.484   5.640   2.984 -0.0551 -0.1903  0.9921
    1CHTO  H190   64   5.508   5.599   3.082  1.8096  0.7473  0.9485
    1CHTO  C101   65   5.457   5.517   2.890  0.0058  0.0783  0.1116
    1CHTO  H188   66   5.435   5.563   2.793  1.0923 -0.3774 -0.3554
    1CHTO   O68   67   5.329   5.448   2.945  0.1335  0.7664  0.0002
    1CHTO  H168   68   5.340   5.441   3.038  0.8590  1.8014 -0.0033
    1CHTO   C99   69   5.579   5.428   2.886 -0.0634  0.3512  0.1942
    1CHTO  H186   70   5.598   5.389   2.989  0.5378  3.3318  1.2693
    1CHTO   N17   71   5.555   5.310   2.796  0.6513  0.1648 -0.4734
    1CHTO  H174   72   5.549   5.218   2.853 -1.5011 -0.6436 -1.9324
    1CHTO  H175   73   5.466   5.328   2.737  0.0809 -0.5223  0.1598
    1CHTO   C97   74   5.707   5.502   2.843  1.0381 -0.1776 -0.0827
    1CHTO  H184   75   5.695   5.535   2.739 -1.7996  0.4033  0.3633
    1CHTO   O64   76   5.726   5.613   2.937  0.7394 -0.1358  0.4610
    1CHTO  C104   77   5.620   5.708   2.932  0.2012  0.0654  0.1600
    1CHTO  H191   78   5.608   5.743   2.829  0.2847  1.2791  0.5542
    1CHTO  C108   79   5.665   5.829   3.012  0.0014  0.2249 -0.1103
    1CHTO   O71   80   5.676   5.805   3.152  0.2549  0.4687 -0.4763
    1CHTO  H171   81   5.595   5.780   3.192  0.9293  1.1796  1.4045
    1CHTO   O62   82   5.823   5.425   2.860 -0.5197  0.0055  0.1343
    1CHTO   C91   83   5.946   5.462   2.791 -0.2132 -0.3620  0.5947
    1CHTO  H178   84   5.942   5.557   2.738  0.9011  0.2061  1.5033
    1CHTO   C92   85   5.965   5.357   2.684  0.2939  0.8836 -0.6933
    1CHTO  H179   86   5.959   5.259   2.734  1.3967  1.7079  1.1067
    1CHTO   O66   87   5.853   5.360   2.601 -0.3996  0.1245 -0.5919
    1CHTO  H166   88   5.780   5.318   2.643 -1.3480  1.3874 -0.9668
    1CHTO   C93   89   6.093   5.372   2.599 -0.3238 -0.3031  0.5458
    1CHTO  H180   90   6.090   5.460   2.532 -0.2276 -1.1758 -0.6215
    1CHTO   N16   91   6.119   5.260   2.504 -0.5045 -0.1184  0.1326
    1CHTO  H172   92   6.035   5.248   2.437 -0.3680  0.5005 -0.1600
    1CHTO  H173   93   6.128   5.169   2.560 -1.8135 -1.4531 -1.7515
    1CHTO   C94   94   6.217   5.389   2.694  0.6919 -0.4168  0.7141
    1CHTO  H181   95   6.225   5.306   2.765  0.3107  0.7031  2.1000
    1CHTO   O61   96   6.190   5.500   2.786  0.3445  0.2832 -0.1267
    1CHTO   C95   97   6.086   5.480   2.881  0.0436 -0.5846  0.1067
    1CHTO  H182   98   6.104   5.387   2.935 -1.5011 -0.4187  0.9652
    1CHTO  C106   99   6.072   5.588   2.988  0.8161  0.0631 -0.0086
    1CHTO   O69  100   6.190   5.627   3.064 -0.1062  0.2641  1.1073
    1CHTO  H169  101   6.216   5.716   3.049 -1.6370  0.7278  1.0940
    1CHTO   O63  102   6.348   5.423   2.603 -0.2179  0.1963 -0.4289
    1CHTO   C96  103   6.472   5.468   2.694  0.0908  0.0740 -0.2546
    1CHTO  H183  104   6.432   5.528   2.776  0.9354 -2.0856  1.8011
    1CHTO   C98  105   6.570   5.562   2.611  0.2621 -0.2981 -0.4878
    1CHTO  H185  106   6.519   5.641   2.554  1.0417  0.9140  0.4789
    1CHTO   O67  107   6.649   5.637   2.705 -0.0093  0.7486 -0.0651
    1CHTO  H167  108   6.718   5.597   2.754  0.4245  2.0890  0.4448
    1CHTO  C102  109   6.664   5.480   2.515  0.1358 -0.1112  0.7541
    1CHTO  H189  110   6.752   5.545   2.505 -0.7161  0.7285 -1.5958
    1CHTO   N18  111   6.617   5.455   2.374 -0.2901  0.1597  0.1512
    1CHTO  H176  112   6.527   5.512   2.354 -0.7948  0.0468  1.9812
    1CHTO  H177  113   6.699   5.482   2.309 -0.9577 -0.8965 -1.1778
    1CHTO  C105  114   6.713   5.350   2.590  0.1294 -0.0510  0.3109
    1CHTO  H192  115   6.666   5.260   2.552  1.5734 -0.4622 -0.5489
    1CHTO   O65  116   6.690   5.352   2.735 -0.0497 -0.1157 -0.0082
    1CHTO  C100  117   6.550   5.348   2.764  0.1420 -0.7890 -0.7097
    1CHTO  H187  118   6.504   5.253   2.732 -0.0085 -0.9167 -0.1326
    1CHTO  C107  119   6.541   5.356   2.916 -0.5897  0.3912  0.7939
    1CHTO   O70  120   6.615   5.243   2.971 -0.1035 -0.3627  0.3537
    1CHTO  H170  121   6.566   5.221   3.048 -0.7370 -0.1792  0.0048
    1CHTO   O57  122   6.872   5.336   2.563 -0.0745 -0.2207 -0.0929
    1CHTO   C85  123   6.939   5.207   2.584  0.3768  0.2140 -1.2452
    1CHTO  H157  124   6.884   5.130   2.525  0.6843 -1.6633  0.8696
    1CHTO   C83  125   6.930   5.170   2.735 -0.2031  1.2099 -0.2137
    1CHTO  H155  126   6.827   5.150   2.766 -0.4423 -1.6041 -2.5713
    1CHTO   O56  127   6.980   5.281   2.808  0.0389 -0.1482 -0.3554
    1CHTO  H135  128   7.066   5.265   2.841  0.1681 -0.7380 -0.9471
    1CHTO   C81  129   7.010   5.039   2.763 -0.7781  0.1826  0.8519
    1CHTO  H153  130   6.960   4.953   2.717 -0.2493  0.6913 -0.6952
    1CHTO   N14  131   7.000   5.001   2.903 -0.8848 -0.3018  0.2294
    1CHTO  H141  132   7.048   5.068   2.972 -1.9667 -0.2372  0.9314
    1CHTO  H142  133   7.048   4.906   2.912  2.4197  1.5281  3.1437
    1CHTO   C79  134   7.160   5.049   2.711  0.1439  0.3259  0.3643
    1CHTO  H151  135   7.201   4.948   2.722 -0.2287  0.1100 -0.1670
    1CHTO   O52  136   7.165   5.087   2.568 -0.4389 -0.1148 -0.2975
    1CHTO   C86  137   7.093   5.213   2.538  0.0117 -0.0141 -0.0595
    1CHTO  H158  138   7.150   5.288   2.597 -0.2897 -1.3071  1.9353
    1CHTO   C90  139   7.106   5.252   2.388  0.0456  0.3938 -0.0562
    1CHTO   O60  140   7.230   5.302   2.345 -0.9604  0.1407 -0.2701
    1CHTO  H138  141   7.224   5.396   2.344 -2.5214  0.0867  0.9845
    1CHTO   O50  142   7.240   5.136   2.793  0.0151  0.1182 -0.2947
    1CHTO   C73  143   7.378   5.135   2.843  0.2912  0.3917 -0.6381
    1CHTO  H145  144   7.450   5.156   2.763  1.8183 -1.0804  0.3210
    1CHTO   C74  145   7.443   5.017   2.912  0.0782  0.5886 -0.8918
    1CHTO  H146  146   7.448   4.930   2.845  0.8537 -1.1699  1.3876
    1CHTO   O54  147   7.584   5.050   2.940  0.1063  0.0408 -0.4638
    1CHTO  H133  148   7.631   4.968   2.942  0.6336  0.3490  2.9410
    1CHTO   C75  149   7.359   4.982   3.046  0.2355  0.6926  0.7923
    1CHTO  H147  150   7.257   4.952   3.016  0.6712  1.0079 -1.0373
    1CHTO   N13  151   7.411   4.876   3.136  0.1464 -0.5950  0.0057
    1CHTO  H139  152   7.516   4.893   3.154 -0.2912  1.7032  0.5540
    1CHTO  H140  153   7.392   4.779   3.091  0.3242 -0.4736 -0.3349
    1CHTO   C76  154   7.339   5.114   3.133  0.5215 -0.9630  0.0910
    1CHTO  H148  155   7.437   5.134   3.176  0.4456  0.0276 -0.1861
    1CHTO   O49  156   7.293   5.225   3.050 -0.2198 -0.1201  0.2871
    1CHTO   C77  157   7.387   5.254   2.944 -0.2148  0.6004  0.7103
    1CHTO  H149  158   7.489   5.260   2.982  0.5091 -0.2505 -1.0331
    1CHTO   C88  159   7.356   5.392   2.884  0.5509 -0.4095 -0.0602
    1CHTO   O58  160   7.371   5.514   2.972 -0.1661  0.4955 -0.1140
    1CHTO  H136  161   7.456   5.527   3.009 -0.7533  1.6410  0.8777
    1CHTO   O51  162   7.215   5.081   3.250 -0.3151 -0.3163 -0.4579
    1CHTO   C78  163   7.177   5.209   3.349  0.0854 -0.2890  0.0185
    1CHTO  H150  164   7.240   5.297   3.323  0.2447 -0.7753 -1.2546
    1CHTO   C80  165   7.201   5.176   3.496  1.2483 -0.0249  0.9769
    1CHTO  H152  166   7.150   5.080   3.518  0.9250 -0.3333 -1.0608
    1CHTO   O55  167   7.347   5.151   3.510  0.1250 -0.1182  0.1816
    1CHTO  H134  168   7.364   5.067   3.472  2.3070 -0.6682  2.2350
    1CHTO   C84  169   7.157   5.296   3.592  0.4266 -0.6499  1.0280
    1CHTO  H156  170   7.218   5.385   3.571 -0.5627 -0.3714 -0.8160
    1CHTO   N15  171   7.167   5.254   3.738  0.3456 -0.2992 -0.7238
    1CHTO  H143  172   7.146   5.330   3.810  0.6159 -0.7868 -0.1231
    1CHTO  H144  173   7.107   5.167   3.755 -0.4729 -0.0644 -2.3661
    1CHTO   C87  174   7.018   5.350   3.559  0.5013 -0.5014 -0.2965
    1CHTO  H159  175   6.943   5.279   3.597 -0.0696 -1.2503 -2.7427
    1CHTO   O53  176   7.004   5.375   3.396 -0.1489  0.2663 -0.0407
    1CHTO   C82  177   7.027   5.252   3.329  0.3837  0.1561  0.0447
    1CHTO  H154  178   6.960   5.178   3.373 -1.7329  1.8100 -0.3523
    1CHTO   C89  179   6.977   5.274   3.186  0.1331 -0.2885 -0.6886
    1CHTO   O59  180   6.839   5.266   3.179 -0.2077  0.5374 -0.3434
    1CHTO  H137  181   6.825   5.293   3.090 -1.1409  1.3417  0.0305
    1CHTO   O45  182   6.989   5.481   3.650 -0.3317 -0.0041  0.3550
    1CHTO   C67  183   6.859   5.544   3.644 -0.1605  0.4585  0.2526
    1CHTO  H124  184   6.851   5.601   3.552  3.1876 -0.3236 -0.5806
    1CHTO   C65  185   6.728   5.458   3.654 -0.5777 -0.0985  0.6254
    1CHTO  H122  186   6.758   5.371   3.713 -1.3748 -0.8198 -0.0269
    1CHTO   O44  187   6.699   5.418   3.521 -0.7106 -0.3132 -0.3978
    1CHTO  H102  188   6.682   5.498   3.475 -0.7697  0.4266  0.9070
    1CHTO   C63  189   6.609   5.525   3.734 -0.0781  0.8780  0.3756
    1CHTO  H120  190   6.627   5.501   3.839 -0.1177 -1.9063 -0.1938
    1CHTO   N11  191   6.477   5.460   3.715 -0.3404 -0.0295  0.6696
    1CHTO  H108  192   6.472   5.366   3.665 -0.7151  0.7477 -0.7673
    1CHTO  H109  193   6.413   5.527   3.662 -0.0306  0.1643  0.5365
    1CHTO   C61  194   6.613   5.680   3.714  0.4272  0.2433  0.2524
    1CHTO  H118  195   6.536   5.722   3.780  0.9081  2.0374 -0.2813
    1CHTO   O40  196   6.733   5.740   3.758  0.0788  0.1683 -0.0434
    1CHTO   C68  197   6.851   5.655   3.762  0.1260  0.0854 -0.2417
    1CHTO  H125  198   6.856   5.607   3.862 -1.6800  0.6617  0.1441
    1CHTO   C72  199   6.973   5.745   3.748  0.1414  0.4098 -0.0051
    1CHTO   O48  200   7.024   5.780   3.879  0.1076  0.7096 -0.1018
    1CHTO  H105  201   7.093   5.717   3.891  0.9250  0.9145 -3.4563
    1CHTO   O38  202   6.580   5.716   3.580  0.6192  0.3216 -0.0151
    1CHTO   C55  203   6.541   5.854   3.563 -0.1493  0.0964 -0.2525
    1CHTO  H112  204   6.569   5.910   3.654 -1.4933  2.0125 -0.9782
    1CHTO   C56  205   6.388   5.855   3.540  0.1839 -0.2185 -0.1076
    1CHTO  H113  206   6.371   5.777   3.465 -1.1628  0.1169 -0.1567
    1CHTO   O42  207   6.313   5.803   3.655  0.4970  0.3116 -0.6909
    1CHTO  H100  208   6.255   5.868   3.692  1.7507  1.3090 -0.4545
    1CHTO   C57  209   6.338   5.996   3.489  0.1756 -0.3938 -0.1676
    1CHTO  H114  210   6.361   6.055   3.578  3.5839 -1.0275 -0.5513
    1CHTO   N10  211   6.193   6.004   3.460 -0.2067  0.4162  0.2953
    1CHTO  H106  212   6.146   5.941   3.534  1.2652  0.0656  0.9454
    1CHTO  H107  213   6.169   6.107   3.479  0.9988  1.0003 -1.1931
    1CHTO   C58  214   6.422   6.045   3.367 -0.0801 -0.1777  0.2183
    1CHTO  H115  215   6.424   5.970   3.286  1.4559  1.4160 -1.2670
    1CHTO   O37  216   6.556   6.053   3.416  0.6891  0.4033 -0.1376
    1CHTO   C59  217   6.617   5.925   3.443 -0.5257 -0.5732  0.0673
    1CHTO  H116  218   6.609   5.864   3.353  0.8026 -0.1211 -0.3652
    1CHTO   C70  219   6.765   5.952   3.474 -0.2151  0.0322  0.0574
    1CHTO   O46  220   6.805   6.025   3.589  0.2829  0.3748  0.2976
    1CHTO  H103  221   6.896   6.006   3.602  0.4132 -0.1175 -1.2698
    1CHTO   O39  222   6.374   6.195   3.316 -0.6239  0.0724 -0.4361
    1CHTO   C60  223   6.361   6.303   3.415 -0.1878  0.5715 -0.0242
    1CHTO  H117  224   6.294   6.278   3.497  1.5136 -1.3033  0.8501
    1CHTO   C62  225   6.495   6.348   3.470 -0.0036  0.1314 -0.8350
    1CHTO  H119  226   6.530   6.266   3.537  1.3349  0.9858 -0.4714
    1CHTO   O43  227   6.578   6.368   3.365  0.4230 -0.3192 -0.2904
    1CHTO  H101  228   6.663   6.391   3.398 -0.4207 -1.0623  2.5198
    1CHTO   C66  229   6.477   6.482   3.561 -0.1277  0.0724  0.0113
    1CHTO  H123  230   6.407   6.464   3.643 -0.4839  2.1739  0.1902
    1CHTO   N12  231   6.601   6.533   3.628  0.1659 -0.0587 -0.2734
    1CHTO  H110  232   6.676   6.543   3.550 -0.5140  2.0797 -0.6840
    1CHTO  H111  233   6.637   6.472   3.709  1.2147  1.7870  0.6866
    1CHTO   C69  234   6.413   6.596   3.477 -0.6352  0.2926  0.0088
    1CHTO  H126  235   6.483   6.628   3.398  0.6688 -2.7215 -0.1559
    1CHTO   O41  236   6.277   6.545   3.416  0.1664 -0.0730  0.1265
    1CHTO   C64  237   6.291   6.418   3.337 -0.3110 -0.3490 -0.0606
    1CHTO  H121  238   6.349   6.441   3.245  0.1301 -1.3623 -0.0451
    1CHTO   C71  239   6.151   6.366   3.291  0.4254 -0.8633  0.2129
    1CHTO   O47  240   6.053   6.365   3.397 -0.3353 -0.1757 -0.9004
    1CHTO  H104  241   5.979   6.417   3.372  0.5811 -0.0697 -3.4630
    1CHTO   O34  242   6.370   6.711   3.569  0.4357  0.1928  0.3877
    1CHTO   C49  243   6.271   6.827   3.552  0.0545  0.0161 -0.0633
    1CHTO   H91  244   6.181   6.771   3.524 -0.4902  1.2740 -0.8514
    1CHTO   C47  245   6.323   6.917   3.441  0.6646  0.3473  0.3446
    1CHTO   H89  246   6.248   6.998   3.427  0.0545 -0.2915 -0.0983
    1CHTO   O33  247   6.344   6.857   3.309  0.1759  0.0351 -0.2308
    1CHTO   H70  248   6.393   6.777   3.318 -0.3616 -0.1187  1.5344
    1CHTO   C45  249   6.461   6.994   3.499 -0.3981  0.7620 -0.1214
    1CHTO   H87  250   6.528   6.914   3.532 -0.1787  0.4929 -1.2126
    1CHTO    N8  251   6.533   7.074   3.400  0.0049  0.2374 -0.0258
    1CHTO   H75  252   6.472   7.157   3.368  2.4080  1.4391 -1.6554
    1CHTO   H76  253   6.621   7.121   3.440  0.8019 -1.1116 -0.1303
    1CHTO   C43  254   6.432   7.072   3.638  0.0292 -1.0987 -0.6113
    1CHTO   H85  255   6.524   7.113   3.679  0.2254  0.0331 -2.1201
    1CHTO   O29  256   6.364   6.980   3.725 -0.9905 -0.1282 -0.1671
    1CHTO   C50  257   6.249   6.901   3.681 -0.7346 -0.1277 -0.7516
    1CHTO   H92  258   6.226   6.826   3.758  0.1259  1.2288  0.8750
    1CHTO   C54  259   6.119   6.986   3.672  0.4047  0.0067  0.0698
    1CHTO   O36  260   6.078   7.039   3.798 -0.7327 -1.1756 -0.3556
    1CHTO   H72  261   6.023   7.114   3.793  0.5751 -0.1437  0.1680
    1CHTO   O27  262   6.350   7.189   3.606  0.1420  0.1645 -0.0294
    1CHTO   C37  263   6.343   7.327   3.642 -0.5439  0.0424  0.4197
    1CHTO   H79  264   6.322   7.326   3.750  1.3096  2.2876  0.8463
    1CHTO   C38  265   6.475   7.395   3.613 -0.6122 -0.6797  0.2517
    1CHTO   H80  266   6.504   7.367   3.511  0.1270  0.9974 -0.0262
    1CHTO   O31  267   6.568   7.335   3.706  0.2041 -0.2656 -0.3177
    1CHTO   H68  268   6.654   7.363   3.680  0.0715 -0.9851 -1.5730
    1CHTO   C39  269   6.472   7.551   3.630 -0.3384  0.2789 -0.2735
    1CHTO   H81  270   6.450   7.570   3.735 -0.7802 -1.1164 -0.1064
    1CHTO    N7  271   6.598   7.614   3.591 -0.6695  0.0232  0.2651
    1CHTO   H73  272   6.604   7.718   3.616 -1.1381  0.4892 -1.4845
    1CHTO   H74  273   6.623   7.580   3.491 -2.3384 -2.5685  0.6811
    1CHTO   C40  274   6.352   7.606   3.545 -1.0630 -0.5920  0.0221
    1CHTO   H82  275   6.368   7.596   3.438 -0.1199 -1.3060  0.2196
    1CHTO   O26  276   6.226   7.549   3.591 -0.3206  0.1881 -0.5041
    1CHTO   C41  277   6.226   7.401   3.569 -0.1002  0.0098  0.5227
    1CHTO   H83  278   6.234   7.372   3.463 -1.8092 -1.1462  0.6809
    1CHTO   C52  279   6.097   7.343   3.633 -0.1774 -0.4352  0.2772
    1CHTO   O35  280   5.983   7.367   3.563 -0.3520  0.5413  0.4496
    1CHTO   H71  281   5.952   7.451   3.591 -1.1936 -0.2646  1.9663
    1CHTO   O28  282   6.327   7.746   3.580 -0.5101 -0.8190  0.1366
    1CHTO   C42  283   6.334   7.859   3.488  0.2744 -0.6707  0.6209
    1CHTO   H84  284   6.371   7.822   3.393 -0.0969  2.9887 -1.0534
    1CHTO   C44  285   6.427   7.973   3.535 -0.4003  0.2027  0.1533
    1CHTO   H86  286   6.419   7.983   3.643  2.0903 -2.6038  0.6858
    1CHTO   O32  287   6.561   7.911   3.525 -0.4395 -0.3996  0.1562
    1CHTO   H69  288   6.631   7.971   3.541  1.6938 -2.9099  0.7053
    1CHTO   C48  289   6.419   8.104   3.455  0.2737  0.3552 -0.0713
    1CHTO   H90  290   6.469   8.081   3.361 -0.1052 -0.2005 -0.1435
    1CHTO    N9  291   6.506   8.213   3.527 -0.3477  0.5394 -0.0124
    1CHTO   H77  292   6.511   8.304   3.469  0.5573  0.8071  0.4610
    1CHTO   H78  293   6.607   8.177   3.543 -0.4396  0.5653  0.6457
    1CHTO   C51  294   6.269   8.142   3.434  0.7584  0.0853 -0.6491
    1CHTO   H93  295   6.230   8.157   3.535  0.0800 -0.5071 -0.8177
    1CHTO   O30  296   6.203   8.033   3.371  0.1113 -0.1240 -0.3022
    1CHTO   C46  297   6.194   7.915   3.462  0.4756  0.1151 -0.4480
    1CHTO   H88  298   6.138   7.944   3.551 -0.5369 -1.4549 -0.5624
    1CHTO   C53  299   6.109   7.803   3.394 -0.1713 -0.5810 -0.1791
    1CHTO   O72  300   5.986   7.857   3.353  0.8608  0.3891 -0.3281
    1CHTO  H199  301   5.930   7.856   3.428  1.6324 -1.5205  0.2578
    1CHTO   O22  302   6.259   8.269   3.365  0.0151  0.1983 -0.0462
    1CHTO   C31  303   6.258   8.290   3.219 -0.1719  0.2221 -0.2888
    1CHTO   H59  304   6.249   8.400   3.207  2.1957  0.4309 -0.2199
    1CHTO   C29  305   6.388   8.253   3.148 -0.0080  0.6054  0.0384
    1CHTO   H57  306   6.424   8.153   3.176  0.7097  0.5992 -0.8660
    1CHTO   O21  307   6.493   8.341   3.193  0.1393  0.1109 -0.3942
    1CHTO   H37  308   6.487   8.346   3.287 -0.4851 -1.5637 -0.3284
    1CHTO   C27  309   6.381   8.264   2.988  0.0220  0.2760 -0.3107
    1CHTO   H55  310   6.381   8.372   2.964 -1.2048 -0.0847 -1.9639
    1CHTO    N5  311   6.496   8.205   2.919 -0.3653 -0.1798 -0.3414
    1CHTO   H43  312   6.510   8.257   2.825 -2.6280 -0.1109 -0.6652
    1CHTO   H44  313   6.485   8.099   2.903 -0.4492  0.0000 -1.4930
    1CHTO   C25  314   6.242   8.192   2.949 -0.7251 -0.3179 -0.6014
    1CHTO   H53  315   6.250   8.086   2.976 -0.9358 -0.5373 -1.3984
    1CHTO   O17  316   6.129   8.263   3.017  0.0336  0.1990 -0.5912
    1CHTO   C32  317   6.133   8.234   3.162 -0.1850 -0.1428  0.3861
    1CHTO   H60  318   6.128   8.128   3.187  0.2218 -0.3145 -0.2322
    1CHTO   C36  319   6.007   8.308   3.202 -0.0778  0.2965 -0.0774
    1CHTO   O25  320   5.968   8.278   3.337  0.3769  0.4533 -0.7258
    1CHTO   H40  321   6.021   8.318   3.403 -0.0142 -0.7911  0.3465
    1CHTO   O15  322   6.208   8.205   2.783  0.4280  0.2130 -0.0036
    1CHTO   C19  323   6.111   8.119   2.718  0.2275  0.2347  0.4105
    1CHTO   H47  324   6.029   8.099   2.788  1.6063 -0.8941  1.7443
    1CHTO   C20  325   6.055   8.192   2.586  0.5199  0.7913  0.0834
    1CHTO   H48  326   6.133   8.212   2.511 -1.2741 -2.9816 -2.9362
    1CHTO   O19  327   6.005   8.322   2.624  0.1096 -0.7217  0.4315
    1CHTO   H35  328   5.929   8.317   2.679 -0.6812 -2.6203 -0.7933
    1CHTO   C21  329   5.947   8.099   2.515 -0.1880 -0.3998  0.6494
    1CHTO   H49  330   5.864   8.082   2.583 -1.2049  0.2052 -0.4200
    1CHTO    N4  331   5.891   8.156   2.390  0.0983 -0.2921  0.2426
    1CHTO   H41  332   5.879   8.263   2.391  0.8077 -0.2181  0.8449
    1CHTO   H42  333   5.793   8.113   2.374  0.4057 -1.3452  1.1151
    1CHTO   C22  334   6.013   7.960   2.486 -0.4447  0.4562  0.0871
    1CHTO   H50  335   6.089   7.972   2.409  1.2001  0.4777  1.6732
    1CHTO   O14  336   6.067   7.900   2.604 -0.0595  0.2432 -0.5756
    1CHTO   C23  337   6.158   7.971   2.685 -0.7041 -0.6214 -0.1016
    1CHTO   H51  338   6.253   7.969   2.630 -0.8658 -0.8501 -0.3709
    1CHTO   C34  339   6.184   7.882   2.807  0.1459  0.0472  0.0504
    1CHTO   O23  340   6.064   7.823   2.865 -0.0966 -0.2889  0.1717
    1CHTO   H38  341   6.087   7.761   2.931  0.9579 -1.4655 -1.2789
    1CHTO   O16  342   5.924   7.859   2.438 -0.1500  0.2306  0.0158
    1CHTO   C24  343   6.007   7.701   2.427 -0.1816  0.5903 -0.4877
    1CHTO   H52  344   6.092   7.691   2.495 -0.6241 -1.3107 -0.1978
    1CHTO   C26  345   6.051   7.686   2.285 -0.0109 -0.2535  0.5298
    1CHTO   H54  346   5.965   7.716   2.222  0.4683 -1.5995 -0.7847
    1CHTO   O20  347   6.153   7.785   2.268 -0.1182 -0.2426  0.3527
    1CHTO   H36  348   6.235   7.746   2.245 -0.0514  0.6255 -0.8760
    1CHTO   C30  349   6.093   7.537   2.257  0.4366 -0.3674  0.0643
    1CHTO   H58  350   6.185   7.523   2.315  0.0572 -1.6170  0.3860
    1CHTO    N6  351   6.120   7.520   2.116 -0.5079  0.0379 -0.0420
    1CHTO   H45  352   6.220   7.558   2.097  0.0016 -1.1427  0.2251
    1CHTO   H46  353   6.120   7.413   2.102 -1.3594  0.2436 -1.6515
    1CHTO   C33  354   5.998   7.429   2.311  0.2585 -0.2474 -1.0155
    1CHTO   H61  355   5.907   7.427   2.250 -0.2514  3.8837 -0.5807
    1CHTO   O18  356   5.962   7.462   2.451  0.3722 -0.5245  0.4618
    1CHTO   C28  357   5.907   7.591   2.469 -0.0210 -0.1140  0.2086
    1CHTO   H56  358   5.813   7.608   2.415 -0.0356  0.8877  0.5452
    1CHTO   C35  359   5.857   7.613   2.615 -0.7128  0.0316 -0.2645
    1CHTO   O24  360   5.750   7.533   2.669  0.0063  0.5547 -0.5812
    1CHTO   H39  361   5.751   7.539   2.763 -3.1313  0.1436 -0.4954
    1CHTO    O9  362   6.053   7.299   2.299 -0.1913  0.1503  0.3015
    1CHTO   C13  363   5.977   7.184   2.351 -0.4724  0.0892  0.4059
    1CHTO   H26  364   5.882   7.224   2.393  0.5906 -0.3670  3.4035
    1CHTO   C11  365   6.064   7.112   2.471 -0.2245  0.9523 -0.6349
    1CHTO   H24  366   6.072   7.179   2.559  0.0818 -0.7643  0.6582
    1CHTO    O8  367   6.198   7.089   2.434  0.1282  0.4082 -0.3229
    1CHTO    H3  368   6.239   7.167   2.403 -1.1248  0.8789 -0.8107
    1CHTO    C9  369   5.988   6.980   2.506  0.3452  0.3408 -0.6192
    1CHTO   H22  370   5.884   7.013   2.520  0.1754 -0.6489  0.5551
    1CHTO    N2  371   6.029   6.911   2.631  0.0474  0.0210 -0.2830
    1CHTO   H10  372   6.110   6.970   2.671  1.2962 -0.3887 -2.1261
    1CHTO   H11  373   5.944   6.902   2.697  0.3150  0.2615  0.0936
    1CHTO    C7  374   6.002   6.888   2.382 -0.2724  0.8108  0.1181
    1CHTO   H20  375   5.906   6.833   2.393  0.6837 -0.2931  3.6208
    1CHTO    O4  376   6.009   6.958   2.258 -0.1545 -0.5036  0.2230
    1CHTO   C14  377   5.933   7.075   2.244  0.3843  0.0578 -0.6244
    1CHTO   H27  378   5.826   7.054   2.263  0.5659 -1.6425 -1.3990
    1CHTO   C18  379   5.945   7.119   2.091 -0.0517 -0.4015  0.6133
    1CHTO   O13  380   5.908   7.022   1.995 -0.1159  0.3956  0.0198
    1CHTO    H7  381   5.983   6.972   1.970  0.0719  0.0103  1.3250
    1CHTO    O2  382   6.129   6.783   2.396  0.1550  0.3327 -0.0127
    1CHTO    C1  383   6.103   6.671   2.310  0.1576  0.1589  0.6841
    1CHTO   H14  384   6.017   6.688   2.243 -0.0044  0.4522  0.9664
    1CHTO    C2  385   6.068   6.544   2.408 -0.1061  0.2436 -0.0794
    1CHTO   H15  386   6.148   6.539   2.483  1.0438 -1.7566 -1.3780
    1CHTO    O6  387   5.939   6.574   2.475  0.9452 -0.2327 -0.0518
    1CHTO    H1  388   5.920   6.516   2.546  0.7581 -0.4942 -0.3136
    1CHTO    C3  389   6.049   6.408   2.317  0.6207  0.6902  0.3497
    1CHTO   H16  390   5.951   6.403   2.268  0.9224 -1.0569 -0.1063
    1CHTO    N1  391   6.052   6.283   2.406  0.1500  0.4966  0.2554
    1CHTO    H8  392   6.131   6.293   2.478  0.9887 -2.0110 -0.2619
    1CHTO    H9  393   5.955   6.260   2.448  0.8397 -1.8773  0.6109
    1CHTO    C4  394   6.158   6.397   2.206 -0.3349 -0.1735 -0.0414
    1CHTO   H17  395   6.252   6.360   2.247 -0.4317  0.3636  0.6697
    1CHTO    O1  396   6.164   6.521   2.130  0.7250 -0.3344 -0.5095
    1CHTO    C5  397   6.221   6.632   2.213  0.9322 -0.0844  0.3878
    1CHTO   H18  398   6.296   6.587   2.279  1.6071  1.0916  0.4368
    1CHTO   C16  399   6.289   6.740   2.128 -0.6412  0.1937 -0.3492
    1CHTO   O11  400   6.190   6.803   2.040 -0.5327  0.3741  0.1643
    1CHTO    H5  401   6.152   6.877   2.084 -1.4265 -0.0899  0.1844
    1CHTO    O3  402   6.112   6.296   2.113 -0.0264 -0.2741 -0.5971
    1CHTO    C6  403   6.212   6.236   2.034 -0.6541  0.0506  0.5277
    1CHTO   H19  404   6.308   6.287   2.042  0.0849 -1.4605  1.4994
    1CHTO    C8  405   6.247   6.092   2.073  0.3259 -0.2943 -0.0988
    1CHTO   H21  406   6.162   6.031   2.044  0.0349 -0.1404  0.4165
    1CHTO    O7  407   6.269   6.088   2.215  0.0254 -0.2702  0.3176
    1CHTO    H2  408   6.285   6.004   2.254  0.0643 -0.0684  0.7409
    1CHTO   C12  409   6.362   6.043   1.971  0.1989 -0.4752 -0.4803
    1CHTO   H25  410   6.441   6.121   1.984 -0.1037 -0.4780  1.6587
    1CHTO    N3  411   6.418   5.912   2.022  0.6718  0.3139 -0.6620
    1CHTO   H12  412   6.341   5.873   2.088 -0.1108  2.4571 -0.2495
    1CHTO   H13  413   6.444   5.847   1.940  2.0809 -0.3202  0.2551
    1CHTO   C15  414   6.297   6.049   1.833 -0.0106  0.1163 -0.2674
    1CHTO   H28  415   6.219   5.974   1.819 -0.0938 -0.0188  0.9131
    1CHTO   O10  416   6.411   6.024   1.733 -0.4331  0.2888  0.0952
    1CHTO    H4  417   6.433   5.933   1.738 -0.8860  0.2066  0.6693
    1CHTO    O5  418   6.251   6.181   1.791  0.1355  0.1752  0.4108
    1CHTO   C10  419   6.162   6.243   1.880 -0.1070 -0.3310 -0.9145
    1CHTO   H23  420   6.065   6.193   1.872 -0.6766 -0.0712  3.3479
    1CHTO   C17  421   6.143   6.394   1.840  0.3853 -0.4339  0.0139
    1CHTO   O12  422   6.033   6.445   1.765 -0.9081 -0.1281 -0.2311
    1CHTO    H6  423   5.961   6.474   1.817 -0.5930  3.0844 -1.4459
    2CHTO  H203  424   4.691   3.492   1.052 -1.8264  0.0798 -2.0997
    2CHTO   O82  425   4.760   3.552   1.030 -0.0315 -1.1022  0.0639
    2CHTO  C123  426   4.744   3.622   0.899  0.3362 -0.3580  0.0770
    2CHTO  H227  427   4.729   3.544   0.824 -1.1035  0.5204 -0.5653
    2CHTO   O77  428   4.621   3.696   0.910  0.2914 -0.6960  0.0463
    2CHTO  C118  429   4.581   3.757   0.784  0.2692 -0.3753  0.5369
    2CHTO  H222  430   4.585   3.687   0.699  1.0269  0.5903 -0.2421
    2CHTO  C125  431   4.437   3.813   0.789 -0.6810  0.7532 -0.2884
    2CHTO   O84  432   4.368   3.845   0.663  0.6714 -0.1139  0.1629
    2CHTO  H205  433   4.300   3.908   0.677  0.1351 -0.4294 -0.9705
    2CHTO  C114  434   4.680   3.866   0.742 -0.6601  0.8125  0.0160
    2CHTO  H218  435   4.685   3.942   0.819 -1.6469  1.2650 -0.3582
    2CHTO  C116  436   4.824   3.806   0.733  0.1495  0.1923 -0.2397
    2CHTO  H220  437   4.823   3.737   0.646 -0.8641 -2.2210  1.6399
    2CHTO   O79  438   4.911   3.908   0.698 -0.1989 -0.1521 -0.1497
    2CHTO  H201  439   4.896   3.944   0.613 -0.5759  1.2223  0.4951
    2CHTO  C120  440   4.858   3.731   0.872 -1.1165 -0.0512  0.6335
    2CHTO  H224  441   4.857   3.803   0.957 -1.5586  2.0003 -1.0737
    2CHTO   N21  442   4.994   3.664   0.867 -0.6402 -0.0692  0.0684
    2CHTO  H211  443   5.075   3.718   0.915 -0.9843 -0.9589  1.7113
    2CHTO  H212  444   4.989   3.575   0.928 -0.2610 -1.4669 -1.9183
    2CHTO   O75  445   4.639   3.912   0.613  0.3388 -0.4721  0.4170
    2CHTO  C112  446   4.615   4.075   0.609 -0.3927 -0.1597  0.3414
    2CHTO  H216  447   4.707   4.123   0.646 -0.6630  0.0447  0.7576
    2CHTO   O73  448   4.495   4.110   0.684 -0.2466  0.3885 -0.5371
    2CHTO  C113  449   4.458   4.246   0.671 -0.1276 -0.3257 -0.3157
    2CHTO  H217  450   4.545   4.313   0.687 -0.9739  0.7740 -0.2475
    2CHTO  C124  451   4.354   4.268   0.783  0.1051  0.2332  0.9474
    2CHTO   O83  452   4.266   4.155   0.808  0.5771  0.7515  0.2362
    2CHTO  H204  453   4.238   4.140   0.896 -0.8970  3.1021  0.2184
    2CHTO  C109  454   4.409   4.268   0.524  0.5732 -0.8821 -0.1461
    2CHTO  H213  455   4.326   4.199   0.504 -0.9180  0.4576  1.3078
    2CHTO  C110  456   4.531   4.250   0.425  0.0031  0.3777  0.0529
    2CHTO  H214  457   4.609   4.322   0.445  0.6288 -0.4676  0.6783
    2CHTO   O78  458   4.490   4.262   0.289 -0.7590  0.4825  0.3520
    2CHTO  H200  459   4.493   4.354   0.272  3.9799 -0.0835 -3.2138
    2CHTO  C111  460   4.592   4.108   0.451 -0.2963 -0.0825 -0.4252
    2CHTO  H215  461   4.523   4.032   0.409  0.8705 -1.1701 -0.4009
    2CHTO   N19  462   4.721   4.088   0.379 -0.1921 -0.6579  1.1020
    2CHTO  H207  463   4.727   4.146   0.289 -1.0745 -0.5574  1.1014
    2CHTO  H208  464   4.749   3.984   0.370  3.1463  0.2440  0.4770
    2CHTO   O74  465   4.366   4.406   0.516 -0.4174  0.3463  0.6300
    2CHTO  C115  466   4.211   4.408   0.445 -0.0333 -0.3484 -0.6316
    2CHTO  H219  467   4.204   4.343   0.358  0.1557 -2.0074  0.5736
    2CHTO   O76  468   4.097   4.350   0.545 -0.1871  0.0401  0.0949
    2CHTO  C122  469   4.058   4.438   0.645 -0.0724 -0.5841 -0.6401
    2CHTO  H226  470   4.132   4.454   0.723 -0.3238  1.3531 -0.7768
    2CHTO  C126  471   3.932   4.382   0.719 -0.1019  0.4678  0.0482
    2CHTO   O85  472   3.951   4.262   0.797  0.1611 -0.1727  0.0931
    2CHTO  H206  473   3.900   4.268   0.875 -0.6438 -0.8089 -0.3817
    2CHTO  C121  474   4.027   4.591   0.584  0.4701  0.7469 -0.5542
    2CHTO  H225  475   3.918   4.612   0.595  0.9245  2.1816  1.3974
    2CHTO   O81  476   4.102   4.681   0.659 -0.3323  0.4309  0.3263
    2CHTO  H202  477   4.190   4.701   0.635 -1.0564  0.0464 -2.8999
    2CHTO  C119  478   4.046   4.599   0.432 -0.2238 -0.6910 -0.3579
    2CHTO  H223  479   3.972   4.533   0.387  1.9189 -2.5715 -1.2354
    2CHTO  C117  480   4.187   4.553   0.395 -0.5382  0.0621 -0.6803
    2CHTO  H221  481   4.269   4.608   0.440  0.4515 -2.3029  0.5099
    2CHTO   N20  482   4.214   4.569   0.246  0.0302 -0.0752 -0.2114
    2CHTO  H209  483   4.221   4.677   0.240 -0.0112 -0.1058 -0.8341
    2CHTO  H210  484   4.305   4.515   0.225 -1.5067 -2.7150 -0.3145
    2CHTO   O80  485   4.007   4.731   0.384 -0.1938 -0.1692 -0.4658
    2CHTO  C103  486   3.893   4.753   0.285  0.2905 -0.6103 -0.8375
    2CHTO  H190  487   3.911   4.700   0.191  1.9702 -0.7438 -0.4537
    2CHTO  C101  488   3.754   4.732   0.349  0.2840 -0.2335 -0.1080
    2CHTO  H188  489   3.747   4.791   0.441 -1.7928  1.5852 -1.3857
    2CHTO   O68  490   3.742   4.559   0.394 -0.1887 -0.0680 -0.2499
    2CHTO  H168  491   3.678   4.519   0.338 -3.3462  2.6028  1.2407
    2CHTO   C99  492   3.636   4.783   0.253 -0.7132 -0.2003 -0.2910
    2CHTO  H186  493   3.638   4.734   0.154  0.2787  1.4381 -1.0960
    2CHTO   N17  494   3.497   4.759   0.314  0.0094  0.4863  0.1891
    2CHTO  H174  495   3.480   4.839   0.384  1.6408  1.9582 -1.0783
    2CHTO  H175  496   3.480   4.654   0.338  0.4897  0.4113  0.2022
    2CHTO   C97  497   3.667   4.930   0.220 -0.1772  0.0043  0.2059
    2CHTO  H184  498   3.659   4.987   0.314 -1.1257  1.4908 -0.7528
    2CHTO   O64  499   3.798   4.943   0.164  0.5610  0.2810  0.5277
    2CHTO  C104  500   3.910   4.904   0.248 -0.1764 -0.2592 -0.9405
    2CHTO  H191  501   3.933   4.961   0.338  3.5682 -2.9981 -0.0352
    2CHTO  C108  502   4.035   4.927   0.164 -0.1552 -0.3688  0.6407
    2CHTO   O71  503   4.054   5.065   0.127 -0.1916 -0.3875 -0.4182
    2CHTO  H171  504   3.986   5.087   0.066 -1.4191 -1.8982  0.3837
    2CHTO   O62  505   3.581   4.995   0.125 -0.0554  0.6145 -0.4439
    2CHTO   C91  506   3.466   5.067   0.173  0.0165 -0.7163 -0.2908
    2CHTO  H178  507   3.433   5.038   0.273  1.6767 -1.1325  0.1565
    2CHTO   C92  508   3.346   5.030   0.079 -0.7733  0.1366 -0.0265
    2CHTO  H179  509   3.341   4.921   0.063  0.8628 -0.0224  0.4335
    2CHTO   O66  510   3.231   5.070   0.152 -0.2919  0.5809  0.7157
    2CHTO  H166  511   3.192   5.004   0.207 -2.5345  0.0981 -1.3792
    2CHTO   C93  512   3.336   5.103  -0.056  0.0109  0.1214  0.3126
    2CHTO  H180  513   3.231   5.091  -0.086  0.3714 -1.4092 -0.3806
    2CHTO   N16  514   3.412   5.043  -0.168 -0.5537 -0.2552 -0.1546
    2CHTO  H172  515   3.345   5.013  -0.248  1.3000 -2.4380 -0.9393
    2CHTO  H173  516   3.494   5.107  -0.196 -0.4891  0.0161  0.6544
    2CHTO   C94  517   3.360   5.259  -0.038 -0.2594 -0.2373  0.3399
    2CHTO  H181  518   3.438   5.296  -0.105 -1.4411  3.8390  1.0508
    2CHTO   O61  519   3.396   5.303   0.092  0.3763  0.4687 -0.6870
    2CHTO   C95  520   3.490   5.226   0.166  0.2244 -0.3676 -0.1313
    2CHTO  H182  521   3.590   5.247   0.127 -1.1008  0.8872 -3.0571
    2CHTO  C106  522   3.503   5.287   0.308  0.9123  0.2312  0.3191
    2CHTO   O69  523   3.381   5.281   0.381  0.3816 -0.4038  0.0644
    2CHTO  H169  524   3.395   5.320   0.465 -1.3240  1.5136 -0.4992
    2CHTO   O63  525   3.226   5.334  -0.084 -0.6132  0.4128  0.3441
    2CHTO   C96  526   3.239   5.500  -0.123  0.9901 -0.7703 -0.2852
    2CHTO  H183  527   3.326   5.510  -0.187  1.3399 -2.9679 -0.1705
    2CHTO   C98  528   3.252   5.591  -0.007 -0.2462  0.2147 -0.1794
    2CHTO  H185  529   3.164   5.576   0.057  0.4164  1.6506  1.0868
    2CHTO   O67  530   3.369   5.555   0.072  0.2022  0.0622 -0.3216
    2CHTO  H167  531   3.368   5.621   0.138 -0.8057 -0.0352 -0.2399
    2CHTO  C102  532   3.268   5.744  -0.054  0.0914 -0.6408 -0.1097
    2CHTO  H189  533   3.371   5.756  -0.091  0.0221  0.2025 -0.0410
    2CHTO   N18  534   3.256   5.839   0.060 -0.2554 -0.0091  0.2175
    2CHTO  H176  535   3.164   5.895   0.051  0.4009  1.2369  1.1678
    2CHTO  H177  536   3.344   5.900   0.067  1.4616 -2.5405  1.4759
    2CHTO  C105  537   3.180   5.783  -0.170  0.3059 -0.0434 -0.2766
    2CHTO  H192  538   3.080   5.810  -0.136 -0.1603 -1.9857 -0.0687
    2CHTO   O65  539   3.152   5.689  -0.270 -0.4791  0.2408 -0.6586
    2CHTO  C100  540   3.119   5.564  -0.214  0.4329  0.7495  0.0304
    2CHTO  H187  541   3.035   5.577  -0.144  0.8482 -0.0753  0.6924
    2CHTO  C107  542   3.076   5.465  -0.329 -0.1176 -0.2161  0.3653
    2CHTO   O70  543   3.022   5.340  -0.272  0.4936  0.2017 -1.2848
    2CHTO  H170  544   3.000   5.283  -0.343 -1.4301  0.7065 -1.1091
    2CHTO   O57  545   3.239   5.922  -0.233  0.6836 -0.1110 -0.0517
    2CHTO   C85  546   3.155   6.024  -0.289  0.9288  0.1660 -0.6415
    2CHTO  H157  547   3.054   5.982  -0.305  0.5495  0.3405  1.1574
    2CHTO   C83  548   3.216   6.068  -0.424  0.2707 -0.1000  0.1018
    2CHTO  H155  549   3.211   5.985  -0.493 -0.3068  0.1252 -0.1222
    2CHTO   O56  550   3.357   6.097  -0.410  0.4449  0.0771  0.1254
    2CHTO  H135  551   3.397   6.119  -0.492  2.3792 -0.5516  0.8709
    2CHTO   C81  552   3.136   6.191  -0.477  0.4245  0.5806  0.2091
    2CHTO  H153  553   3.030   6.169  -0.491  0.6628 -0.9326  0.7005
    2CHTO   N14  554   3.184   6.219  -0.619  0.4798  0.6561 -0.8320
    2CHTO  H141  555   3.125   6.294  -0.668 -1.1148 -0.2662 -0.3491
    2CHTO  H142  556   3.178   6.127  -0.673 -0.4789 -0.2074  0.7114
    2CHTO   C79  557   3.152   6.316  -0.379 -0.5339 -0.0870  0.6744
    2CHTO  H151  558   3.087   6.396  -0.414  0.0142  1.1750  2.4425
    2CHTO   O52  559   3.095   6.276  -0.252  0.3258  0.1692 -0.4010
    2CHTO   C86  560   3.145   6.148  -0.190  0.4046  0.1365 -0.0398
    2CHTO  H158  561   3.241   6.183  -0.147 -0.4366  1.5026  0.7840
    2CHTO   C90  562   3.052   6.126  -0.068 -0.0810 -0.2972  0.0134
    2CHTO   O60  563   3.096   6.186   0.052  0.3714  0.2846 -0.0483
    2CHTO  H138  564   3.129   6.115   0.103 -2.8664 -0.5853  0.9893
    2CHTO   O50  565   3.284   6.362  -0.371 -0.2621  0.0570  0.0755
    2CHTO   C73  566   3.365   6.476  -0.341 -0.1710 -0.0674 -0.4789
    2CHTO  H145  567   3.305   6.568  -0.342 -3.1382 -1.9667 -1.0871
    2CHTO   C74  568   3.473   6.508  -0.456 -0.3794 -0.3803  0.0483
    2CHTO  H146  569   3.414   6.523  -0.547  0.4878  1.9231 -0.1773
    2CHTO   O54  570   3.543   6.631  -0.434 -0.6078  0.1481  1.1803
    2CHTO  H133  571   3.523   6.700  -0.494 -1.2147 -0.2903  0.8709
    2CHTO   C75  572   3.572   6.388  -0.467 -0.1243  0.4464 -0.4673
    2CHTO  H147  573   3.512   6.299  -0.492  1.0238 -0.1966 -1.0272
    2CHTO   N13  574   3.670   6.406  -0.577  0.0252 -0.0120  0.0408
    2CHTO  H139  575   3.733   6.485  -0.537  0.7755 -0.5621 -0.0399
    2CHTO  H140  576   3.729   6.320  -0.604  0.7402  1.3846 -3.1935
    2CHTO   C76  577   3.639   6.355  -0.319  0.5986 -0.0394  0.2642
    2CHTO  H148  578   3.723   6.419  -0.294  3.2480 -3.3730  0.3545
    2CHTO   O49  579   3.532   6.358  -0.219  0.3330 -0.5082  0.5909
    2CHTO   C77  580   3.445   6.470  -0.207 -0.2361 -0.6044  0.5299
    2CHTO  H149  581   3.499   6.562  -0.185  1.1691 -1.0563 -0.8762
    2CHTO   C88  582   3.352   6.450  -0.085  0.1733 -0.0728  0.1334
    2CHTO   O58  583   3.423   6.472   0.034 -0.3400  0.0715 -0.0463
    2CHTO  H136  584   3.361   6.480   0.104 -0.7211  0.2378 -0.4034
    2CHTO   O51  585   3.706   6.208  -0.341 -0.3546  0.9536  0.1712
    2CHTO   C78  586   3.748   6.151  -0.196 -0.6499  0.4979 -0.8226
    2CHTO  H150  587   3.702   6.215  -0.117 -0.9261 -0.8143  0.0924
    2CHTO   C80  588   3.902   6.157  -0.180  0.1360  0.2649  0.0119
    2CHTO  H152  589   3.952   6.132  -0.276  1.4868  0.5953  0.6092
    2CHTO   O55  590   3.933   6.295  -0.156  0.0445 -0.0898  0.4584
    2CHTO  H134  591   4.022   6.313  -0.133 -0.1530  2.1911 -0.4231
    2CHTO   C84  592   3.949   6.070  -0.058 -0.1060 -0.1902  0.2069
    2CHTO  H156  593   3.930   6.127   0.033 -0.4751  1.0987 -0.6636
    2CHTO   N15  594   4.100   6.063  -0.059 -0.1951  0.1920  0.3647
    2CHTO  H143  595   4.134   6.040  -0.158 -0.6854 -0.8849  0.4418
    2CHTO  H144  596   4.134   6.159  -0.026 -0.0896 -0.3189  1.7596
    2CHTO   C87  597   3.886   5.926  -0.043 -0.1594 -0.2340  0.9491
    2CHTO  H159  598   3.933   5.872  -0.124  0.3908  1.3939  0.1489
    2CHTO   O53  599   3.738   5.936  -0.065 -0.5428 -0.4217 -0.3044
    2CHTO   C82  600   3.697   6.003  -0.182 -0.1795 -0.3925  0.4645
    2CHTO  H154  601   3.729   5.944  -0.269  0.4395  0.6212 -0.0029
    2CHTO   C89  602   3.544   6.005  -0.183  0.1355 -0.2847  0.2378
    2CHTO   O59  603   3.485   6.073  -0.072  0.1306 -0.1674 -0.1722
    2CHTO  H137  604   3.401   6.036  -0.053 -1.4620  3.7960  1.1013
    2CHTO   O45  605   3.931   5.872   0.095 -0.2773  0.0882 -0.1864
    2CHTO   C67  606   3.834   5.903   0.199 -0.2887  0.0830 -0.9548
    2CHTO  H124  607   3.785   6.000   0.184  1.5078  1.2260  0.4203
    2CHTO   C65  608   3.719   5.793   0.223  0.3299 -0.1642  0.1061
    2CHTO  H122  609   3.738   5.714   0.151  2.4447  1.5341 -1.2704
    2CHTO   O44  610   3.585   5.851   0.189 -0.2350  0.1396 -0.2820
    2CHTO  H102  611   3.518   5.790   0.215 -1.2909  1.9481  1.3356
    2CHTO   C63  612   3.730   5.726   0.356 -0.2343 -0.3723 -0.3924
    2CHTO  H120  613   3.825   5.674   0.365  0.1887  0.4682  0.0881
    2CHTO   N11  614   3.633   5.617   0.386  0.1078 -0.0132  0.4516
    2CHTO  H108  615   3.566   5.591   0.307 -0.3468 -0.5917  1.0228
    2CHTO  H109  616   3.687   5.527   0.405  4.2277  1.9854 -1.1557
    2CHTO   C61  617   3.735   5.836   0.468 -0.2207 -0.3796  0.2338
    2CHTO  H118  618   3.763   5.783   0.561 -1.2603 -0.5516  0.4556
    2CHTO   O40  619   3.836   5.943   0.444 -0.3471 -0.0481 -0.1506
    2CHTO   C68  620   3.924   5.929   0.329  0.0128 -0.1213 -0.1406
    2CHTO  H125  621   3.996   5.847   0.348  0.1175  0.0090  0.0376
    2CHTO   C72  622   4.017   6.064   0.324 -0.4430 -0.0203 -0.1452
    2CHTO   O48  623   3.944   6.189   0.343 -0.2041 -0.2819 -0.2328
    2CHTO  H105  624   3.927   6.203   0.434  0.9186  1.7007 -0.2929
    2CHTO   O38  625   3.606   5.904   0.493 -0.5685 -1.1606  0.2020
    2CHTO   C55  626   3.587   5.986   0.610 -0.1900 -0.2314 -0.0906
    2CHTO  H112  627   3.679   6.019   0.661 -0.8794  1.8115 -0.1495
    2CHTO   C56  628   3.493   5.899   0.705  0.0005  0.3084  0.4624
    2CHTO  H113  629   3.413   5.859   0.642  0.2471 -0.0349  0.3667
    2CHTO   O42  630   3.560   5.781   0.750 -0.0091  0.0443 -0.1271
    2CHTO  H100  631   3.600   5.797   0.833 -0.6922  0.7403  0.0746
    2CHTO   C57  632   3.419   5.980   0.819  0.0418 -0.8866 -0.1283
    2CHTO  H114  633   3.482   6.005   0.905 -0.6493 -0.7604  0.3431
    2CHTO   N10  634   3.312   5.901   0.883 -0.0690  0.6539  0.1779
    2CHTO  H106  635   3.349   5.854   0.973 -1.5839 -1.8113 -0.4480
    2CHTO  H107  636   3.281   5.825   0.812  3.3904 -0.4400 -0.2471
    2CHTO   C58  637   3.367   6.111   0.761 -0.6984  0.0060 -0.9056
    2CHTO  H115  638   3.286   6.090   0.687  0.0135  0.2642 -1.7665
    2CHTO   O37  639   3.474   6.178   0.695  0.8572 -0.2458  0.2039
    2CHTO   C59  640   3.513   6.120   0.572 -0.3535 -0.0813 -0.2891
    2CHTO  H116  641   3.428   6.089   0.512  1.4322 -1.5543 -2.1702
    2CHTO   C70  642   3.605   6.210   0.502 -0.0370  0.3099  0.2352
    2CHTO   O46  643   3.618   6.177   0.361  0.1694 -0.5829 -0.0041
    2CHTO  H103  644   3.691   6.208   0.313 -0.2146 -1.6648 -1.3400
    2CHTO   O39  645   3.320   6.219   0.873  0.3541  0.1206  0.0219
    2CHTO   C60  646   3.185   6.220   0.902  0.6744 -0.5658  0.3218
    2CHTO  H117  647   3.127   6.146   0.847 -1.0710  1.2815 -0.4041
    2CHTO   C62  648   3.167   6.202   1.056 -0.3997 -0.3944  0.2297
    2CHTO  H119  649   3.214   6.102   1.067 -0.2629 -0.1417  2.1172
    2CHTO   O43  650   3.234   6.293   1.135  0.3261  0.2806  0.1074
    2CHTO  H101  651   3.297   6.257   1.195  1.4414  0.7978 -0.7326
    2CHTO   C66  652   3.013   6.187   1.085 -0.2894  0.2647  0.2016
    2CHTO  H123  653   2.970   6.118   1.012  2.0868 -1.0587  0.0086
    2CHTO   N12  654   2.999   6.120   1.218 -0.4051 -0.4797  0.4308
    2CHTO  H110  655   3.008   6.013   1.208  0.0466 -0.2643 -1.9665
    2CHTO  H111  656   2.911   6.153   1.270  0.4761  2.3012  0.2404
    2CHTO   C69  657   2.939   6.320   1.069 -0.5303 -0.0946  0.5147
    2CHTO  H126  658   2.980   6.389   1.145 -1.8719 -0.4600  1.5839
    2CHTO   O41  659   2.958   6.388   0.929  0.4334 -0.3433  0.2180
    2CHTO   C64  660   3.118   6.367   0.864 -0.0403 -0.3555  0.6451
    2CHTO  H121  661   3.182   6.452   0.896  0.6307 -0.5833 -0.0897
    2CHTO   C71  662   3.093   6.367   0.707  0.3446 -0.7934  0.4976
    2CHTO   O47  663   3.210   6.372   0.637  0.4030 -0.0189 -0.3660
    2CHTO  H104  664   3.258   6.291   0.636 -0.7830 -0.7268 -3.0178
    2CHTO   O34  665   2.783   6.294   1.097  0.1155 -0.5489  0.2264
    2CHTO   C49  666   2.669   6.360   1.142  0.0851 -0.9226  0.2428
    2CHTO   H91  667   2.626   6.294   1.217 -1.0219 -0.3420  0.1386
    2CHTO   C47  668   2.568   6.385   1.024 -0.4719  0.3923 -0.0386
    2CHTO   H89  669   2.472   6.409   1.074 -1.1758 -1.5958 -0.3992
    2CHTO   O33  670   2.552   6.261   0.952 -0.0335  0.0486 -0.0513
    2CHTO   H70  671   2.500   6.279   0.876  0.2199 -0.3695 -0.3299
    2CHTO   C45  672   2.620   6.504   0.930 -0.3429 -0.4642  1.3708
    2CHTO   H87  673   2.720   6.478   0.893 -0.1709  1.0547  0.7488
    2CHTO    N8  674   2.538   6.530   0.811  0.6981  0.1624  0.2478
    2CHTO   H75  675   2.580   6.612   0.755 -1.3684  0.9463 -0.1983
    2CHTO   H76  676   2.516   6.452   0.740  3.6646 -0.5285  0.0533
    2CHTO   C43  677   2.649   6.634   1.022 -0.0897 -0.1678  0.3658
    2CHTO   H85  678   2.700   6.705   0.958  0.3084  2.0310  3.0426
    2CHTO   O29  679   2.727   6.603   1.132  0.2208  0.1786  0.1379
    2CHTO   C50  680   2.696   6.494   1.219  0.3518  0.1431  0.2164
    2CHTO   H92  681   2.774   6.484   1.296  0.7684 -1.6046 -0.4067
    2CHTO   C54  682   2.565   6.521   1.298 -0.0920  0.0774  0.4577
    2CHTO   O36  683   2.586   6.609   1.409  0.2738 -0.2683 -0.3242
    2CHTO   H72  684   2.532   6.573   1.477 -0.3739  2.2397  0.5569
    2CHTO   O27  685   2.533   6.708   1.065  0.2427  0.1084 -0.0687
    2CHTO   C37  686   2.433   6.809   1.055 -0.1347  0.2925  0.5851
    2CHTO   H79  687   2.355   6.782   0.983 -0.4698  0.7503  0.7711
    2CHTO   C38  688   2.350   6.819   1.186  0.7874 -0.0870 -0.0233
    2CHTO   H80  689   2.423   6.828   1.268 -0.5547 -1.0016  1.2906
    2CHTO   O31  690   2.288   6.694   1.202  0.1410  0.3683  0.4253
    2CHTO   H68  691   2.284   6.677   1.295 -2.3488  0.0113  0.3005
    2CHTO   C39  692   2.243   6.937   1.171 -0.4550  0.3848  0.0683
    2CHTO   H81  693   2.173   6.915   1.091  0.3280 -0.8250 -0.2898
    2CHTO    N7  694   2.157   6.954   1.286  0.0111  0.0799 -0.0432
    2CHTO   H73  695   2.068   7.004   1.249  0.1657 -1.0774 -2.0550
    2CHTO   H74  696   2.197   6.996   1.377  1.6947 -0.0538 -0.7104
    2CHTO   C40  697   2.334   7.062   1.133 -0.0406  0.0276 -0.6508
    2CHTO   H82  698   2.407   7.083   1.212 -0.4793  1.3927 -0.5813
    2CHTO   O26  699   2.394   7.043   1.004 -0.4073 -0.2322  0.4550
    2CHTO   C41  700   2.498   6.939   1.013 -0.0014  0.9829 -0.3332
    2CHTO   H83  701   2.577   6.959   1.087  1.3454 -0.1360 -1.4389
    2CHTO   C52  702   2.564   6.939   0.873 -0.1416  0.4924 -0.1143
    2CHTO   O35  703   2.643   7.047   0.852  0.0605 -0.1329  0.3904
    2CHTO   H71  704   2.727   7.030   0.890  0.4843 -0.5542 -0.7145
    2CHTO   O28  705   2.258   7.181   1.110  0.3227  0.3775 -0.3936
    2CHTO   C42  706   2.313   7.315   1.135  0.0868 -0.5040  0.0096
    2CHTO   H84  707   2.248   7.383   1.079  0.2711  1.0351  1.6116
    2CHTO   C44  708   2.463   7.346   1.089 -0.3251  0.4149  0.4837
    2CHTO   H86  709   2.533   7.282   1.142  0.3026 -0.5852 -1.5195
    2CHTO   O32  710   2.467   7.314   0.948  0.5247  0.2983 -0.1110
    2CHTO   H69  711   2.545   7.266   0.926  0.2960  0.2943 -0.9359
    2CHTO   C48  712   2.507   7.490   1.126  0.0430  0.2244 -0.9062
    2CHTO   H90  713   2.438   7.555   1.072 -1.1683  0.0319  0.3807
    2CHTO    N9  714   2.638   7.528   1.071 -0.2201  0.7591  0.5908
    2CHTO   H77  715   2.641   7.553   0.966  0.1927  1.2324  0.7115
    2CHTO   H78  716   2.715   7.457   1.098  0.3407  1.1484  0.0142
    2CHTO   C51  717   2.488   7.511   1.281 -0.4645 -0.6330 -0.2462
    2CHTO   H93  718   2.548   7.437   1.334  1.7932  0.4747 -1.1822
    2CHTO   O30  719   2.349   7.491   1.316 -0.0036  0.0012 -0.5481
    2CHTO   C46  720   2.293   7.357   1.280 -0.5698 -0.0317 -0.0178
    2CHTO   H88  721   2.353   7.285   1.336  0.0572  0.7915  0.3944
    2CHTO   C53  722   2.146   7.348   1.329 -0.0260  0.1316  0.1111
    2CHTO   O72  723   2.134   7.375   1.477  0.6043  0.4703 -0.2595
    2CHTO  H199  724   2.042   7.373   1.495  0.6258 -1.3414 -0.2119
    2CHTO   O22  725   2.521   7.641   1.323  0.9684 -0.4808 -0.2456
    2CHTO   C31  726   2.555   7.674   1.467  0.5158  0.2899  0.5712
    2CHTO   H59  727   2.569   7.784   1.462 -0.0384  0.4115  1.4930
    2CHTO   C29  728   2.449   7.645   1.575  0.1600  0.6795 -0.2126
    2CHTO   H57  729   2.441   7.535   1.573 -2.8172  0.8589 -0.7896
    2CHTO   O21  730   2.320   7.697   1.540 -0.0278 -0.4965  0.0529
    2CHTO   H37  731   2.248   7.647   1.574  0.2154 -0.7882  0.1366
    2CHTO   C27  732   2.501   7.692   1.724 -0.2018  0.4074 -0.2703
    2CHTO   H55  733   2.514   7.801   1.725 -0.1522  0.3919  0.8892
    2CHTO    N5  734   2.404   7.657   1.830  0.2624 -0.6200 -0.1824
    2CHTO   H43  735   2.449   7.590   1.901  2.3791  0.1491 -0.7808
    2CHTO   H44  736   2.363   7.745   1.877  2.6918 -1.2797  3.3583
    2CHTO   C25  737   2.641   7.631   1.745  0.1977 -0.2033 -0.1520
    2CHTO   H53  738   2.640   7.521   1.743 -1.8381 -0.1798 -2.1948
    2CHTO   O17  739   2.734   7.648   1.635 -0.2904  0.4468  0.2289
    2CHTO   C32  740   2.695   7.612   1.503  0.6917 -0.4161  0.3186
    2CHTO   H60  741   2.691   7.503   1.507  1.2400 -0.5731 -2.2524
    2CHTO   C36  742   2.806   7.649   1.407  0.1757 -0.0059  0.9614
    2CHTO   O25  743   2.927   7.574   1.436  0.0505  0.8058  0.1802
    2CHTO   H40  744   2.977   7.626   1.495  0.5023 -0.3576  0.8416
    2CHTO   O15  745   2.689   7.677   1.875  0.1791 -0.2071  0.2236
    2CHTO   C19  746   2.785   7.627   1.973 -0.1731  0.5872  1.0265
    2CHTO   H47  747   2.770   7.518   1.986  1.1639  0.4875  1.8701
    2CHTO   C20  748   2.931   7.655   1.930 -0.6458 -0.1656  0.4093
    2CHTO   H48  749   2.946   7.761   1.906 -0.5930 -0.5602 -1.4199
    2CHTO   O19  750   2.950   7.579   1.810 -0.3889  0.4254  0.1088
    2CHTO   H35  751   2.905   7.625   1.742  0.0458  1.2917  0.3933
    2CHTO   C21  752   3.028   7.612   2.045 -0.2544  0.2014 -0.1413
    2CHTO   H49  753   3.023   7.504   2.061  0.6022  0.2183  0.2390
    2CHTO    N4  754   3.171   7.648   2.021  0.1166 -0.0755  0.4256
    2CHTO   H41  755   3.217   7.708   2.098  0.3141 -0.9806  1.0184
    2CHTO   H42  756   3.229   7.558   2.010  0.6395  0.4750 -1.5129
    2CHTO   C22  757   2.983   7.669   2.179  0.1067 -0.2542  0.8060
    2CHTO   H50  758   3.000   7.777   2.176  3.6961 -0.7631 -0.0881
    2CHTO   O14  759   2.849   7.641   2.203 -0.2579  0.0844  0.0486
    2CHTO   C23  760   2.765   7.694   2.109  0.2704  0.1590 -0.2289
    2CHTO   H51  761   2.789   7.801   2.100 -1.7298  0.5631 -0.8614
    2CHTO   C34  762   2.623   7.676   2.151 -0.3166  0.3306  0.6118
    2CHTO   O23  763   2.562   7.796   2.203 -0.0292  0.6123  0.0506
    2CHTO   H38  764   2.608   7.820   2.281  2.3227 -0.8837 -0.8413
    2CHTO   O16  765   3.050   7.609   2.294 -0.0824  0.5634  0.4549
    2CHTO   C24  766   3.066   7.693   2.437  0.4755 -0.9550  0.3949
    2CHTO   H52  767   3.015   7.789   2.435  0.7097 -0.8240  0.6267
    2CHTO   C26  768   3.218   7.721   2.460 -0.1157 -0.6763 -0.0782
    2CHTO   H54  769   3.278   7.628   2.470  0.4096 -0.4100 -0.7305
    2CHTO   O20  770   3.270   7.775   2.335  0.7841  0.0197 -0.0550
    2CHTO   H36  771   3.245   7.866   2.332  3.7148  0.9842  2.1233
    2CHTO   C30  772   3.244   7.799   2.593  0.0206 -0.0504  0.1875
    2CHTO   H58  773   3.216   7.905   2.594  1.7886  0.4474 -0.2188
    2CHTO    N6  774   3.391   7.791   2.628 -0.0046 -0.0552  0.0556
    2CHTO   H45  775   3.427   7.857   2.706 -0.8401  0.0456  0.3575
    2CHTO   H46  776   3.459   7.791   2.544 -0.2515  0.0400 -0.1433
    2CHTO   C33  777   3.159   7.748   2.711  0.1580  0.1156  0.5877
    2CHTO   H61  778   3.203   7.655   2.749 -0.3106 -0.5345 -0.4173
    2CHTO   O18  779   3.025   7.716   2.665 -1.2176 -0.0647  0.0922
    2CHTO   C28  780   3.015   7.619   2.560  0.3511  0.5668  0.4256
    2CHTO   H56  781   3.075   7.530   2.577 -2.0295 -1.2451 -0.4436
    2CHTO   C35  782   2.872   7.570   2.537  0.0054  0.9422 -0.0326
    2CHTO   O24  783   2.775   7.676   2.541  0.1458  0.5855  0.3066
    2CHTO   H39  784   2.688   7.642   2.549  0.5086 -0.8071 -1.3863
    2CHTO    O9  785   3.153   7.845   2.817  0.1237 -0.0012 -0.4924
    2CHTO   C13  786   3.158   7.798   2.965  0.6105 -0.0452  0.6538
    2CHTO   H26  787   3.177   7.688   2.961 -2.0736 -0.4847 -1.4221
    2CHTO   C11  788   3.019   7.833   3.037 -0.5298 -0.2358 -0.3648
    2CHTO   H24  789   2.943   7.767   2.992 -0.4292 -0.4110 -0.2779
    2CHTO    O8  790   2.988   7.973   3.027 -0.6952 -0.7350  0.5666
    2CHTO    H3  791   3.016   8.009   2.945 -2.3312  0.7395  0.6295
    2CHTO    C9  792   3.033   7.798   3.189  0.2880  0.2377  0.5465
    2CHTO   H22  793   3.059   7.692   3.196  2.0594  0.6383  0.2104
    2CHTO    N2  794   2.902   7.809   3.257 -0.7856 -0.4883  0.3817
    2CHTO   H10  795   2.912   7.761   3.353 -0.1485 -0.7500  0.1842
    2CHTO   H11  796   2.865   7.911   3.258 -0.9004 -0.5341  1.1744
    2CHTO    C7  797   3.144   7.882   3.255 -0.9608 -0.3245  0.8110
    2CHTO   H20  798   3.150   7.838   3.356 -0.5203  0.4414  1.1235
    2CHTO    O4  799   3.271   7.842   3.195  0.7890 -0.1926 -0.2562
    2CHTO   C14  800   3.287   7.847   3.052  0.0001 -0.3178  0.4090
    2CHTO   H27  801   3.366   7.770   3.037  1.2217  1.0311 -0.2447
    2CHTO   C18  802   3.349   7.983   3.001  0.8236 -0.0512 -0.5442
    2CHTO   O13  803   3.478   8.005   3.058  0.7278  0.1956  0.3600
    2CHTO    H7  804   3.491   8.097   3.069  1.4229 -0.0234  1.3661
    2CHTO    O2  805   3.124   8.046   3.249  0.7821 -0.7816  0.6816
    2CHTO    C1  806   3.192   8.118   3.358 -0.1530 -0.2259 -1.1207
    2CHTO   H14  807   3.291   8.074   3.386 -0.8898 -1.0390  0.2641
    2CHTO    C2  808   3.098   8.120   3.490  0.3897  0.1671 -0.7163
    2CHTO   H15  809   3.012   8.183   3.462  0.9786  1.4149  0.1813
    2CHTO    O6  810   3.063   7.982   3.531  0.5508  0.0461  0.0123
    2CHTO    H1  811   3.117   7.959   3.604  1.9093  1.7759 -0.4248
    2CHTO    C3  812   3.194   8.192   3.609  0.0433 -0.0645  0.5321
    2CHTO   H16  813   3.286   8.131   3.614 -1.4809 -2.4436  0.4046
    2CHTO    N1  814   3.122   8.191   3.737  0.0889  0.0472 -1.0576
    2CHTO    H8  815   3.049   8.112   3.738 -0.2271  0.3275 -1.8533
    2CHTO    H9  816   3.197   8.188   3.815  0.0007 -0.4755 -0.9894
    2CHTO    C4  817   3.231   8.340   3.562 -0.8726 -0.3023  0.5268
    2CHTO   H17  818   3.143   8.404   3.562 -0.0366  0.8619  1.5154
    2CHTO    O1  819   3.284   8.342   3.428 -0.2135 -0.2652 -0.2251
    2CHTO    C5  820   3.222   8.265   3.320  0.3973 -0.3258 -0.0340
    2CHTO   H18  821   3.125   8.312   3.304  0.7552  0.0653 -1.1146
    2CHTO   C16  822   3.304   8.268   3.192  0.2676  0.0663  0.6845
    2CHTO   O11  823   3.298   8.394   3.125  0.1308 -0.1135  0.1516
    2CHTO    H5  824   3.377   8.444   3.136 -0.4729  1.5214 -2.3602
    2CHTO    O3  825   3.350   8.394   3.628 -0.4911 -0.1692  0.1820
    2CHTO    C6  826   3.326   8.516   3.699 -0.0302 -0.7230 -0.2052
    2CHTO   H19  827   3.223   8.552   3.693 -0.6701 -2.6177 -0.7956
    2CHTO    C8  828   3.362   8.507   3.850 -0.3949 -0.3808  0.0526
    2CHTO   H21  829   3.448   8.441   3.854 -2.1596 -2.8233 -1.0208
    2CHTO    O7  830   3.255   8.434   3.914  0.0492 -0.8762  0.2271
    2CHTO    H2  831   3.171   8.473   3.904  0.5165  0.1125  0.1070
    2CHTO   C12  832   3.395   8.642   3.918 -0.7356 -0.7977  0.1577
    2CHTO   H25  833   3.294   8.687   3.930  0.0755  1.2980 -0.6055
    2CHTO    N3  834   3.458   8.620   4.054 -0.4202  0.9657  0.2794
    2CHTO   H12  835   3.461   8.513   4.073 -0.2868  0.6642 -1.4191
    2CHTO   H13  836   3.560   8.652   4.068  0.5080 -1.7215  0.0591
    2CHTO   C15  837   3.483   8.739   3.835 -0.1631 -0.5097  0.2945
    2CHTO   H28  838   3.591   8.722   3.839  0.2728  1.7029 -1.0630
    2CHTO   O10  839   3.470   8.867   3.869 -0.4587  0.1594  0.7984
    2CHTO    H4  840   3.385   8.907   3.872  0.4731  2.3466 -1.0269
    2CHTO    O5  841   3.431   8.742   3.698  0.8591  0.8945 -0.1700
    2CHTO   C10  842   3.419   8.620   3.623 -0.2927 -0.1871 -0.3704
    2CHTO   H23  843   3.518   8.575   3.610 -0.6593 -0.9351 -0.6087
    2CHTO   C17  844   3.379   8.653   3.481 -0.1065  0.1933  0.1030
    2CHTO   O12  845   3.480   8.743   3.425  0.2452 -0.4563  0.2146
    2CHTO    H6  846   3.448   8.764   3.339 -0.2288  6.5798  1.8549
    3CHTO  H203  847   7.159   2.312   2.429 -1.1887 -0.3169  0.7979
    3CHTO   O82  848   7.155   2.257   2.353 -0.5831  0.4497  0.1975
    3CHTO  C123  849   7.191   2.121   2.390 -0.0734 -0.0089  0.4268
    3CHTO  H227  850   7.201   2.115   2.499 -0.6860 -1.4250  0.4199
    3CHTO   O77  851   7.076   2.042   2.349  0.1757 -0.2532  0.0191
    3CHTO  C118  852   7.083   1.909   2.407  1.2846 -0.2069  0.2604
    3CHTO  H222  853   7.107   1.910   2.514 -1.4881 -0.3934  0.9378
    3CHTO  C125  854   6.943   1.849   2.385 -0.0132  0.8432  0.3542
    3CHTO   O84  855   6.834   1.893   2.465 -0.1048 -0.4352  0.2124
    3CHTO  H205  856   6.817   1.983   2.447 -2.4270 -1.0702 -0.9741
    3CHTO  C114  857   7.197   1.838   2.330 -0.0159  0.0667 -0.2557
    3CHTO  H218  858   7.178   1.846   2.223  0.6080  1.2380 -0.2833
    3CHTO  C116  859   7.338   1.910   2.350 -0.5580  0.3050  0.1117
    3CHTO  H220  860   7.366   1.896   2.456 -3.3023  1.2794  1.0294
    3CHTO   O79  861   7.439   1.837   2.272 -0.1976 -0.3446  0.1466
    3CHTO  H201  862   7.516   1.817   2.322 -0.8581 -0.9549  0.9175
    3CHTO  C120  863   7.320   2.061   2.318  0.5167  0.1477 -0.4585
    3CHTO  H224  864   7.311   2.066   2.208  0.4062  1.7365 -0.3920
    3CHTO   N21  865   7.442   2.141   2.351  0.6197  0.0739  0.3672
    3CHTO  H211  866   7.526   2.108   2.292  1.0455  0.0639  0.9811
    3CHTO  H212  867   7.434   2.248   2.362 -0.4561  0.0074  0.3087
    3CHTO   O75  868   7.201   1.692   2.365 -0.3243  0.0754  0.4585
    3CHTO  C112  869   7.167   1.573   2.238  0.0663  0.0974  0.2872
    3CHTO  H216  870   7.249   1.571   2.165  0.9479  0.4314  1.2482
    3CHTO   O73  871   7.035   1.613   2.182 -0.4566  0.1701  0.2833
    3CHTO  C113  872   6.977   1.529   2.077 -0.0388  0.3409 -0.2636
    3CHTO  H217  873   7.055   1.504   2.003 -1.1730 -1.6205 -0.8238
    3CHTO  C124  874   6.862   1.613   2.018  0.1652  0.4656  0.2435
    3CHTO   O83  875   6.838   1.563   1.887  0.1002 -0.2225 -0.2267
    3CHTO  H204  876   6.797   1.634   1.840  0.2616  1.0735  1.5491
    3CHTO  C109  877   6.945   1.399   2.148 -0.1361 -0.6754 -0.4760
    3CHTO  H213  878   6.873   1.424   2.228  0.6004 -0.2449  0.0657
    3CHTO  C110  879   7.080   1.336   2.204  0.0533  0.3467 -0.5372
    3CHTO  H214  880   7.150   1.301   2.129 -0.4774 -0.5502 -0.6280
    3CHTO   O78  881   7.032   1.226   2.284  0.1722  0.1920 -0.0869
    3CHTO  H200  882   7.000   1.159   2.227 -0.8315  0.0626  0.6184
    3CHTO  C111  883   7.151   1.434   2.305 -0.0058 -0.0301  0.1507
    3CHTO  H215  884   7.085   1.449   2.392 -0.2150 -1.6456  0.2827
    3CHTO   N19  885   7.275   1.370   2.356  0.0821 -0.0735 -1.1490
    3CHTO  H207  886   7.360   1.398   2.295 -0.2689  0.9485 -1.1856
    3CHTO  H208  887   7.263   1.266   2.383  0.6778 -0.3286 -1.8452
    3CHTO   O74  888   6.890   1.293   2.061  0.0223 -0.3534 -0.0222
    3CHTO  C115  889   6.735   1.275   2.063 -0.2920 -0.3011  0.3320
    3CHTO  H219  890   6.689   1.331   2.144  2.0409  0.6581  1.0511
    3CHTO   O76  891   6.664   1.334   1.922  0.3031  0.3910  0.1071
    3CHTO  C122  892   6.530   1.292   1.885  0.3136 -1.3685  0.9669
    3CHTO  H226  893   6.529   1.305   1.777 -1.3528 -2.9134  0.7567
    3CHTO  C126  894   6.426   1.393   1.947  0.2384 -0.1737  0.8154
    3CHTO   O85  895   6.407   1.398   2.089  0.1323  0.2698 -0.3423
    3CHTO  H206  896   6.467   1.351   2.142 -0.7173 -0.0853  0.3190
    3CHTO  C121  897   6.499   1.135   1.907 -0.2468  0.2583  0.0762
    3CHTO  H225  898   6.389   1.123   1.899  0.1410 -3.2954 -0.3313
    3CHTO   O81  899   6.559   1.056   1.809 -0.5508  1.0252 -0.0538
    3CHTO  H202  900   6.515   0.973   1.807 -1.3782  1.4824 -1.1158
    3CHTO  C119  901   6.543   1.104   2.052 -0.6538  0.2496  0.6779
    3CHTO  H223  902   6.483   1.171   2.113  0.3518  0.6083  1.2693
    3CHTO  C117  903   6.696   1.128   2.076  0.2098  0.1565 -0.6308
    3CHTO  H221  904   6.762   1.073   2.010  1.0862  2.1446 -1.4644
    3CHTO   N20  905   6.736   1.086   2.219  0.9205 -0.0322 -0.8004
    3CHTO  H209  906   6.839   1.105   2.244  1.1701 -0.4490 -1.4870
    3CHTO  H210  907   6.729   0.980   2.236 -1.6042  0.2187 -0.0489
    3CHTO   O80  908   6.490   0.939   2.102 -0.5963 -0.2693  1.0209
    3CHTO  C103  909   6.341   0.926   2.164  0.0185  0.6130 -0.0909
    3CHTO  H190  910   6.340   0.959   2.268 -1.4016 -1.4937  0.5854
    3CHTO  C101  911   6.227   1.003   2.091  0.0984 -0.1204 -0.5069
    3CHTO  H188  912   6.247   1.010   1.984 -2.7271 -1.0848 -1.1545
    3CHTO   O68  913   6.220   1.161   2.146 -0.1770  0.4884 -0.0592
    3CHTO  H168  914   6.222   1.156   2.239  4.2582 -2.3583 -0.1466
    3CHTO   C99  915   6.082   0.936   2.102 -0.1561  1.1116 -0.4107
    3CHTO  H186  916   6.055   0.956   2.208  1.8980  1.3263  0.0997
    3CHTO   N17  917   5.982   1.004   2.010  0.4974  0.2556  0.5263
    3CHTO  H174  918   6.014   0.988   1.908  1.4343 -1.9441  1.1375
    3CHTO  H175  919   5.971   1.108   2.037  1.0971  0.4018  0.2167
    3CHTO   C97  920   6.086   0.783   2.078 -0.5644 -0.2618 -0.5483
    3CHTO  H184  921   6.106   0.769   1.970 -1.2444  0.5965 -0.7874
    3CHTO   O64  922   6.190   0.731   2.158  0.6951  0.5285 -0.5700
    3CHTO  C104  923   6.330   0.768   2.157  0.0341 -0.8558  0.6195
    3CHTO  H191  924   6.371   0.734   2.062  1.4044 -0.1058  0.9353
    3CHTO  C108  925   6.404   0.694   2.266  0.1354 -0.4429 -0.3239
    3CHTO   O71  926   6.334   0.693   2.391 -0.4553  0.4796 -0.4190
    3CHTO  H171  927   6.301   0.770   2.432  0.8884  0.5070  0.6210
    3CHTO   O62  928   5.961   0.718   2.124 -0.4803  0.0104 -0.3732
    3CHTO   C91  929   5.940   0.584   2.071  0.1640 -0.2356  0.5603
    3CHTO  H178  930   6.030   0.551   2.019 -0.2067 -0.3975  0.0174
    3CHTO   C92  931   5.831   0.588   1.959  0.0857 -0.7430  0.0972
    3CHTO  H179  932   5.743   0.640   2.000  0.5716  2.0141 -2.2678
    3CHTO   O66  933   5.870   0.681   1.850  0.1350 -0.0215  0.5157
    3CHTO  H166  934   5.810   0.673   1.777 -0.5858  0.4779  1.0466
    3CHTO   C93  935   5.801   0.450   1.900  0.0449 -0.2459 -0.0767
    3CHTO  H180  936   5.877   0.426   1.824  2.3708  0.6059  1.9058
    3CHTO   N16  937   5.671   0.448   1.823 -0.3777 -0.0504  0.4572
    3CHTO  H172  938   5.595   0.477   1.895 -0.0501  3.0988 -0.3771
    3CHTO  H173  939   5.651   0.356   1.770  2.4421 -1.1155  1.1837
    3CHTO   C94  940   5.794   0.333   2.005 -0.7020  0.4039  0.1319
    3CHTO  H181  941   5.696   0.321   2.051  0.1447 -1.0484  1.5736
    3CHTO   O61  942   5.883   0.352   2.119  0.3862  0.3824 -0.4774
    3CHTO   C95  943   5.900   0.475   2.177  0.0880  0.3643 -0.5132
    3CHTO  H182  944   5.810   0.504   2.230  0.8651 -0.1104  1.1006
    3CHTO  C106  945   6.015   0.450   2.283 -0.4050  0.6261  0.2631
    3CHTO   O69  946   5.958   0.388   2.395  0.7585 -0.1365 -0.0038
    3CHTO  H169  947   5.886   0.441   2.425  0.0628 -1.0042 -0.1578
    3CHTO   O63  948   5.855   0.195   1.932 -0.1310  0.6072 -0.1887
    3CHTO   C96  949   5.802   0.063   1.988  0.3703 -0.3467 -0.2969
    3CHTO  H183  950   5.845  -0.014   1.925 -2.4862 -0.8879 -1.6815
    3CHTO   C98  951   5.645   0.057   1.988 -0.0028  0.0414 -0.0088
    3CHTO  H185  952   5.605   0.153   2.024  0.9063  0.1059  0.8217
    3CHTO   O67  953   5.598   0.049   1.851 -0.0964 -0.7202 -0.0284
    3CHTO  H167  954   5.667   0.071   1.792  0.8857  0.0685  1.3787
    3CHTO  C102  955   5.584  -0.078   2.061  0.6818  0.0816  0.5572
    3CHTO  H189  956   5.595  -0.162   1.991  0.0537  0.7752 -0.3847
    3CHTO   N18  957   5.439  -0.060   2.083  0.2757  0.1685  0.1866
    3CHTO  H176  958   5.399  -0.038   1.985  1.1937  1.0920  0.0033
    3CHTO  H177  959   5.404   0.008   2.159  0.7654  2.3308 -1.4517
    3CHTO  C105  960   5.660  -0.098   2.197 -0.2306 -0.2709 -0.3216
    3CHTO  H192  961   5.627  -0.029   2.274  1.0997  0.1111 -0.0900
    3CHTO   O65  962   5.800  -0.090   2.176  0.2386 -0.1757 -0.3307
    3CHTO  C100  963   5.839   0.042   2.138  0.3610 -0.1424  0.2694
    3CHTO  H187  964   5.786   0.121   2.193 -0.8242 -0.7779  0.0467
    3CHTO  C107  965   5.990   0.063   2.173  0.5799  0.0209 -0.2868
    3CHTO   O70  966   6.015   0.048   2.316  0.1509 -0.7880  0.2426
    3CHTO  H170  967   6.007  -0.042   2.343  2.0507 -0.7153  1.1357
    3CHTO   O57  968   5.619  -0.253   2.238 -0.7363  0.5187  0.0221
    3CHTO   C85  969   5.597  -0.288   2.373 -0.0539  0.4070  0.1411
    3CHTO  H157  970   5.593  -0.399   2.370  1.0571  0.4023 -2.9228
    3CHTO   C83  971   5.457  -0.243   2.426 -0.6259  0.2113  0.4064
    3CHTO  H155  972   5.378  -0.275   2.359  1.7795 -0.9748 -1.9780
    3CHTO   O56  973   5.439  -0.100   2.430  0.2249  0.1808  0.0359
    3CHTO  H135  974   5.503  -0.059   2.484 -0.3434 -0.8737  1.5530
    3CHTO   C81  975   5.432  -0.308   2.566 -0.0814 -0.7150 -0.2665
    3CHTO  H153  976   5.442  -0.416   2.553 -1.3679 -0.5453 -3.1408
    3CHTO   N14  977   5.296  -0.296   2.625  0.4006  0.6961 -0.3683
    3CHTO  H141  978   5.237  -0.250   2.549  0.4091  0.6966 -0.3736
    3CHTO  H142  979   5.297  -0.230   2.709 -3.3208 -0.0647  0.3639
    3CHTO   C79  980   5.539  -0.264   2.664  0.6850  0.2196  0.2704
    3CHTO  H151  981   5.518  -0.317   2.757 -2.2483 -2.6031 -1.9199
    3CHTO   O52  982   5.675  -0.292   2.610 -0.8749 -0.1886  0.4372
    3CHTO   C86  983   5.705  -0.234   2.480  0.2492  0.1901 -0.4876
    3CHTO  H158  984   5.708  -0.124   2.488 -0.6047  0.1776 -0.0611
    3CHTO   C90  985   5.857  -0.288   2.452 -0.2210  0.8226  0.3439
    3CHTO   O60  986   5.944  -0.241   2.555 -0.6409  0.1680 -0.6198
    3CHTO  H138  987   5.965  -0.150   2.543  0.2265  0.3651  2.1474
    3CHTO   O50  988   5.532  -0.125   2.694 -0.4644  0.4455  0.0492
    3CHTO   C73  989   5.539  -0.017   2.786 -0.1004  0.5138  0.4103
    3CHTO  H145  990   5.606  -0.043   2.870  0.7781 -3.4697 -1.3512
    3CHTO   C74  991   5.398   0.014   2.844 -0.0629  0.2483 -1.0477
    3CHTO  H146  992   5.361  -0.075   2.895  1.8759  0.8634  1.5184
    3CHTO   O54  993   5.399   0.112   2.950 -0.1772 -0.1674  0.9690
    3CHTO  H133  994   5.330   0.083   3.007 -1.4173 -0.5339 -0.6556
    3CHTO   C75  995   5.310   0.061   2.726 -0.3347  0.0818 -0.1688
    3CHTO  H147  996   5.301  -0.023   2.655  0.0499 -0.0569 -0.0565
    3CHTO   N13  997   5.168   0.089   2.765  0.1295  0.8344 -0.1430
    3CHTO  H139  998   5.170   0.152   2.853 -0.3376  0.9807 -0.2348
    3CHTO  H140  999   5.100   0.009   2.791  1.7794  0.3085  2.7405
    3CHTO   C76 1000   5.376   0.176   2.642  0.0623  0.3012  0.0467
    3CHTO  H148 1001   5.376   0.263   2.707  2.5407 -0.7616  1.5478
    3CHTO   O49 1002   5.510   0.146   2.603  0.5837  0.2299  0.5507
    3CHTO   C77 1003   5.593   0.115   2.712 -0.3964  0.4945  0.0251
    3CHTO  H149 1004   5.610   0.194   2.785  1.2667  0.3481 -0.1918
    3CHTO   C88 1005   5.745   0.093   2.671  0.1952  0.5752 -0.0253
    3CHTO   O58 1006   5.781   0.205   2.594 -0.1878 -0.1666  0.3034
    3CHTO  H136 1007   5.849   0.184   2.532 -2.3854 -1.5201 -1.7794
    3CHTO   O51 1008   5.307   0.196   2.518 -0.3879 -0.4687 -0.3299
    3CHTO   C78 1009   5.306   0.334   2.463 -0.5459  0.6099 -0.1040
    3CHTO  H150 1010   5.367   0.404   2.524 -1.5404  3.2824 -2.0709
    3CHTO   C80 1011   5.158   0.382   2.476 -0.9131 -0.4926  0.2215
    3CHTO  H152 1012   5.085   0.318   2.422 -0.6128  0.3174 -1.1588
    3CHTO   O55 1013   5.116   0.366   2.616  0.2245 -0.4475 -0.0568
    3CHTO  H134 1014   5.162   0.428   2.670 -2.0422  0.8072  0.5264
    3CHTO   C84 1015   5.153   0.526   2.418  0.5557  0.2993 -0.5039
    3CHTO  H156 1016   5.218   0.588   2.480  0.0805  0.9387 -0.6472
    3CHTO   N15 1017   5.017   0.586   2.405 -0.0126 -0.3475 -0.6922
    3CHTO  H143 1018   4.974   0.605   2.502 -0.8374  2.0970 -1.5044
    3CHTO  H144 1019   5.020   0.677   2.349 -0.1720 -0.2734 -0.5816
    3CHTO   C87 1020   5.219   0.539   2.283 -0.5745 -0.7114  0.6099
    3CHTO  H159 1021   5.165   0.482   2.207 -1.5577  3.5914 -2.1295
    3CHTO   O53 1022   5.371   0.470   2.291 -0.4110 -0.1859 -0.1569
    3CHTO   C82 1023   5.355   0.332   2.318  0.2429 -0.2299 -0.6103
    3CHTO  H154 1024   5.278   0.278   2.263 -1.2904  1.3381 -0.0369
    3CHTO   C89 1025   5.490   0.273   2.285 -0.5409 -0.2895 -0.1304
    3CHTO   O59 1026   5.608   0.316   2.351 -0.6133 -0.6732  0.6767
    3CHTO  H137 1027   5.586   0.354   2.434 -0.8235  0.1006  0.2593
    3CHTO   O45 1028   5.232   0.703   2.238  0.7629 -0.1229  0.2737
    3CHTO   C67 1029   5.352   0.771   2.258  0.3273  0.3591  0.4093
    3CHTO  H124 1030   5.412   0.707   2.324 -1.7620 -0.2097  1.7949
    3CHTO   C65 1031   5.439   0.782   2.126  0.1664  0.0404 -0.2521
    3CHTO  H122 1032   5.371   0.815   2.047 -1.6196  2.8328  2.3498
    3CHTO   O44 1033   5.488   0.651   2.099  0.0642  0.1661 -0.4868
    3CHTO  H102 1034   5.532   0.640   2.017  0.0689 -2.0236 -0.2184
    3CHTO   C63 1035   5.533   0.901   2.126 -1.0403 -0.1834  0.2462
    3CHTO  H120 1036   5.477   0.991   2.100 -0.7614 -0.1205 -0.1257
    3CHTO   N11 1037   5.634   0.899   2.011  0.3565  0.0728  0.0692
    3CHTO  H108 1038   5.683   0.994   2.003 -0.2100  0.2755 -1.1994
    3CHTO  H109 1039   5.700   0.814   2.011 -1.4514 -1.3695 -0.6309
    3CHTO   C61 1040   5.585   0.931   2.273  0.2181 -0.2881  0.1974
    3CHTO  H118 1041   5.643   1.024   2.267 -2.1619  1.1822 -0.5494
    3CHTO   O40 1042   5.481   0.959   2.365  0.1371  0.4562  0.0363
    3CHTO   C68 1043   5.348   0.909   2.326 -0.1064  0.2645 -0.6089
    3CHTO  H125 1044   5.304   0.992   2.267 -0.9485  0.1578 -0.1342
    3CHTO   C72 1045   5.270   0.906   2.463 -0.1064 -0.1097  0.1452
    3CHTO   O48 1046   5.232   1.031   2.514  0.1308 -0.0966  0.1054
    3CHTO  H105 1047   5.192   1.024   2.598 -0.1181 -1.0963 -0.0873
    3CHTO   O38 1048   5.683   0.827   2.314  0.3248 -0.0931 -0.2480
    3CHTO   C55 1049   5.745   0.820   2.439 -1.2409  0.2385  0.2654
    3CHTO  H112 1050   5.680   0.872   2.511 -0.5945 -0.0019  1.0363
    3CHTO   C56 1051   5.898   0.877   2.442  0.2388  0.1929  0.1985
    3CHTO  H113 1052   5.948   0.839   2.352 -0.0650  0.3358 -0.0301
    3CHTO   O42 1053   5.897   1.019   2.423 -0.2393 -0.1955  0.0466
    3CHTO  H100 1054   5.983   1.046   2.397  1.7115 -3.6809  2.5883
    3CHTO   C57 1055   5.986   0.846   2.572  0.5187 -1.4596 -0.2505
    3CHTO  H114 1056   5.944   0.890   2.662  1.2791  0.3960 -0.7671
    3CHTO   N10 1057   6.123   0.895   2.562 -0.2227 -0.1544 -0.3957
    3CHTO  H106 1058   6.174   0.910   2.656 -1.9685  2.7579  0.1407
    3CHTO  H107 1059   6.177   0.815   2.513  0.1377  0.4175 -0.9359
    3CHTO   C58 1060   5.975   0.696   2.587  0.1230 -0.2726 -0.1745
    3CHTO  H115 1061   6.012   0.642   2.497 -1.4898 -1.5846 -0.0865
    3CHTO   O37 1062   5.833   0.664   2.614 -0.6507 -0.3392  0.3600
    3CHTO   C59 1063   5.747   0.673   2.497 -0.4356  0.5142  0.0481
    3CHTO  H116 1064   5.767   0.606   2.414  1.7472  2.0848 -0.7569
    3CHTO   C70 1065   5.613   0.630   2.552  0.3961  0.0594  0.2115
    3CHTO   O46 1066   5.614   0.491   2.582  1.2228  0.1267  0.8915
    3CHTO  H103 1067   5.524   0.471   2.602  1.1216  0.8114  1.1421
    3CHTO   O39 1068   6.052   0.638   2.719 -0.3195  0.4710  0.0409
    3CHTO   C60 1069   6.091   0.498   2.720  0.3720 -0.2004 -0.0405
    3CHTO  H117 1070   6.053   0.440   2.635 -0.2713 -0.4463  0.4096
    3CHTO   C62 1071   6.243   0.487   2.710 -0.3550 -0.6339 -0.0276
    3CHTO  H119 1072   6.269   0.539   2.615 -0.8605  2.0457  1.2594
    3CHTO   O43 1073   6.292   0.557   2.824  0.7867 -0.0582  0.0789
    3CHTO  H101 1074   6.278   0.650   2.819  0.6331 -0.1175 -0.7303
    3CHTO   C66 1075   6.294   0.329   2.706 -0.2014 -0.4937  0.3865
    3CHTO  H123 1076   6.247   0.282   2.619 -1.6404 -0.9507  1.3857
    3CHTO   N12 1077   6.441   0.308   2.690 -0.0996 -0.4485 -0.2916
    3CHTO  H110 1078   6.492   0.384   2.631 -0.5784 -0.9349 -1.3443
    3CHTO  H111 1079   6.500   0.279   2.775 -1.8333  2.5908  2.0650
    3CHTO   C69 1080   6.239   0.261   2.836  0.6620 -0.1816 -0.6565
    3CHTO  H126 1081   6.303   0.301   2.918  0.4959  0.1126 -0.6706
    3CHTO   O41 1082   6.101   0.287   2.850 -0.3235  0.4467 -0.5488
    3CHTO   C64 1083   6.042   0.429   2.843 -0.2782 -0.1435  0.5347
    3CHTO  H121 1084   6.063   0.497   2.928 -2.0268  2.7779 -1.2779
    3CHTO   C71 1085   5.881   0.409   2.837  0.9449 -0.2095  0.2123
    3CHTO   O47 1086   5.829   0.346   2.957  0.0969 -0.1385 -0.8421
    3CHTO  H104 1087   5.757   0.399   2.985  3.5331  4.8953 -0.8108
    3CHTO   O34 1088   6.269   0.108   2.844 -0.7968 -0.6268  0.0829
    3CHTO   C49 1089   6.267  -0.026   2.831  0.4822  0.5672  0.0034
    3CHTO   H91 1090   6.287  -0.045   2.725 -0.4578 -0.3202 -0.0211
    3CHTO   C47 1091   6.121  -0.077   2.860 -0.8371 -0.3709 -0.2716
    3CHTO   H89 1092   6.064  -0.078   2.765  1.2506 -0.8846 -1.5351
    3CHTO   O33 1093   6.046   0.002   2.962 -0.1944  0.0950  0.0071
    3CHTO   H70 1094   6.086   0.012   3.046  0.7691 -2.0543 -0.1516
    3CHTO   C45 1095   6.133  -0.232   2.914  0.0829  0.5829 -0.0691
    3CHTO   H87 1096   6.151  -0.233   3.023  2.2299  0.3625 -0.4146
    3CHTO    N8 1097   6.002  -0.306   2.893 -0.6060 -0.1972 -0.0021
    3CHTO   H75 1098   6.020  -0.411   2.874  0.1545  0.0361 -0.6091
    3CHTO   H76 1099   5.947  -0.268   2.808 -1.1975 -0.9471  0.0387
    3CHTO   C43 1100   6.262  -0.315   2.853  0.1630  1.1804  0.5783
    3CHTO   H85 1101   6.267  -0.416   2.894 -3.6714  0.1126 -1.3241
    3CHTO   O29 1102   6.381  -0.241   2.878 -0.6812 -0.2435 -0.1738
    3CHTO   C50 1103   6.371  -0.100   2.913  0.0454 -0.2160 -0.2493
    3CHTO   H92 1104   6.361  -0.080   3.020 -0.9084 -1.6334 -0.0656
    3CHTO   C54 1105   6.511  -0.035   2.881  0.3801  0.8766 -0.5092
    3CHTO   O36 1106   6.608  -0.064   2.977  0.0830 -0.1608  0.1932
    3CHTO   H72 1107   6.593  -0.146   3.021 -0.0428  0.5088  1.4061
    3CHTO   O27 1108   6.249  -0.334   2.706 -0.0513 -0.1224 -0.5091
    3CHTO   C37 1109   6.315  -0.395   2.588  0.1640 -0.1248  0.1869
    3CHTO   H79 1110   6.406  -0.451   2.613  1.3127  0.8246 -1.7831
    3CHTO   C38 1111   6.221  -0.503   2.514  0.0038  0.0867 -0.4535
    3CHTO   H80 1112   6.122  -0.458   2.499 -0.9784 -1.5301  1.0796
    3CHTO   O31 1113   6.202  -0.606   2.618 -0.0293 -0.6555 -0.0978
    3CHTO   H68 1114   6.132  -0.578   2.673  0.9245 -1.6085  1.6460
    3CHTO   C39 1115   6.281  -0.553   2.378 -0.0280 -0.3810 -0.2045
    3CHTO   H81 1116   6.373  -0.609   2.395  0.8829  1.2676  0.3528
    3CHTO    N7 1117   6.181  -0.640   2.306  0.2968 -0.5219 -1.2630
    3CHTO   H73 1118   6.187  -0.741   2.343 -0.0342 -0.1401 -0.1516
    3CHTO   H74 1119   6.080  -0.603   2.302  0.9842  1.3559 -1.6352
    3CHTO   C40 1120   6.328  -0.427   2.293  0.4852 -0.2246 -0.0751
    3CHTO   H82 1121   6.250  -0.365   2.249  0.6457 -0.4426 -0.6802
    3CHTO   O26 1122   6.420  -0.347   2.371 -0.3143 -0.2405 -0.5168
    3CHTO   C41 1123   6.358  -0.282   2.486  0.4474  0.4998  0.3054
    3CHTO   H83 1124   6.268  -0.233   2.446  0.5428 -1.6785 -2.6677
    3CHTO   C52 1125   6.449  -0.173   2.537 -0.5982 -0.0520 -0.2588
    3CHTO   O35 1126   6.434  -0.050   2.449  0.0948  0.2533  0.5614
    3CHTO   H71 1127   6.495   0.013   2.483 -0.6712 -0.0402  2.5591
    3CHTO   O28 1128   6.391  -0.461   2.165  0.2270  0.7527  0.0791
    3CHTO   C42 1129   6.447  -0.354   2.080  0.2202  0.2562  0.5025
    3CHTO   H84 1130   6.459  -0.403   1.983 -2.1715 -1.1926  0.9059
    3CHTO   C44 1131   6.588  -0.289   2.112  0.3352  0.2279 -0.3713
    3CHTO   H86 1132   6.573  -0.226   2.200  3.5770  0.0723  0.3551
    3CHTO   O32 1133   6.672  -0.406   2.132  0.4573  0.0897 -0.4128
    3CHTO   H69 1134   6.762  -0.382   2.119  0.2809  1.0365  0.0521
    3CHTO   C48 1135   6.637  -0.195   1.994 -0.3528  0.5022 -0.3773
    3CHTO   H90 1136   6.645  -0.257   1.905 -2.1858 -0.4266  0.0792
    3CHTO    N9 1137   6.768  -0.120   2.026 -0.3302  0.5823 -0.6928
    3CHTO   H77 1138   6.756  -0.072   2.122 -1.8070  1.6058 -1.3664
    3CHTO   H78 1139   6.773  -0.051   1.943 -1.5866  0.7043 -0.6853
    3CHTO   C51 1140   6.524  -0.087   1.972  0.2209 -0.3427 -0.5430
    3CHTO   H93 1141   6.516  -0.018   2.055 -0.4908  2.6708 -3.0081
    3CHTO   O30 1142   6.395  -0.149   1.939 -0.1245 -0.9151  0.1079
    3CHTO   C46 1143   6.346  -0.232   2.053  0.9666  0.5240  0.3273
    3CHTO   H88 1144   6.330  -0.179   2.146 -2.5437 -0.6648  0.4709
    3CHTO   C53 1145   6.205  -0.273   2.003 -0.2095  0.0667 -0.2513
    3CHTO   O72 1146   6.127  -0.157   1.977 -0.0008  0.4030  0.1286
    3CHTO  H199 1147   6.135  -0.133   1.886  0.5272  1.9292  0.5579
    3CHTO   O22 1148   6.555  -0.007   1.850 -0.1461  0.5840  0.1406
    3CHTO   C31 1149   6.528   0.141   1.837  0.1405  0.1177 -0.3554
    3CHTO   H59 1150   6.482   0.154   1.736  0.5233 -2.1783 -0.8468
    3CHTO   C29 1151   6.427   0.206   1.939 -0.8848  0.3820  0.5564
    3CHTO   H57 1152   6.464   0.199   2.043  0.0034 -1.6154  0.1354
    3CHTO   O21 1153   6.303   0.134   1.937  0.7871  0.1266  0.0223
    3CHTO   H37 1154   6.259   0.113   2.017 -0.8829  2.4344 -0.2405
    3CHTO   C27 1155   6.400   0.360   1.895 -1.0681  0.5085 -0.1823
    3CHTO   H55 1156   6.339   0.358   1.803 -3.1233 -1.0753  1.1595
    3CHTO    N5 1157   6.316   0.426   1.995 -0.1081 -0.5147  0.3319
    3CHTO   H43 1158   6.212   0.397   1.996 -0.3591  0.3290  1.7486
    3CHTO   H44 1159   6.334   0.533   1.987  3.2327 -0.9917  0.8611
    3CHTO   C25 1160   6.529   0.435   1.868  0.9516 -1.1497  0.1183
    3CHTO   H53 1161   6.566   0.456   1.969 -3.3408  0.2738  1.5194
    3CHTO   O17 1162   6.624   0.365   1.791 -0.1685 -0.5076 -0.1777
    3CHTO   C32 1163   6.654   0.227   1.829  0.0570 -0.0473  0.0864
    3CHTO   H60 1164   6.702   0.217   1.926  0.9201 -0.3707 -0.3705
    3CHTO   C36 1165   6.758   0.172   1.718 -0.7775 -0.3241  0.1460
    3CHTO   O25 1166   6.702   0.185   1.586  0.4980 -0.7717 -0.3038
    3CHTO   H40 1167   6.758   0.205   1.514  0.2688 -0.6402 -0.4438
    3CHTO   O15 1168   6.495   0.560   1.785 -0.2876  0.2763 -0.0527
    3CHTO   C19 1169   6.477   0.639   1.673 -0.0227 -0.6120  0.5230
    3CHTO   H47 1170   6.423   0.583   1.595 -0.3425 -0.0849  0.3589
    3CHTO   C20 1171   6.381   0.757   1.709 -0.7500  0.7059  0.4334
    3CHTO   H48 1172   6.421   0.825   1.786 -0.8606 -0.0067  1.1285
    3CHTO   O19 1173   6.263   0.688   1.753 -0.1691  0.7239  0.0381
    3CHTO   H35 1174   6.233   0.729   1.833  1.0557  1.6798  0.0351
    3CHTO   C21 1175   6.358   0.850   1.587  0.8541  0.8063  0.1767
    3CHTO   H49 1176   6.300   0.800   1.510  3.5118 -1.8975 -0.1614
    3CHTO    N4 1177   6.277   0.973   1.624 -0.2285 -0.0787 -0.0119
    3CHTO   H41 1178   6.334   1.032   1.695 -0.6843 -0.1108  0.3815
    3CHTO   H42 1179   6.266   1.036   1.537 -1.8865  0.0131  0.2520
    3CHTO   C22 1180   6.488   0.890   1.514 -0.1146 -0.3625 -0.0103
    3CHTO   H50 1181   6.543   0.968   1.566  1.5356 -1.5588  0.0776
    3CHTO   O14 1182   6.568   0.775   1.490  0.9777  0.3288 -0.2774
    3CHTO   C23 1183   6.601   0.698   1.607  0.2750 -0.3000 -0.4686
    3CHTO   H51 1184   6.660   0.753   1.681 -0.0764 -2.0477  1.1510
    3CHTO   C34 1185   6.689   0.583   1.559 -0.4185 -0.3228 -0.6723
    3CHTO   O23 1186   6.803   0.611   1.482 -0.0974 -0.5922  0.2513
    3CHTO   H38 1187   6.874   0.647   1.532  1.4136 -2.2483 -0.6663
    3CHTO   O16 1188   6.467   0.919   1.379  0.3505  0.5008 -0.3995
    3CHTO   C24 1189   6.550   1.038   1.302  0.0499 -0.0431  0.0827
    3CHTO   H52 1190   6.618   1.092   1.368  0.1304  0.8219 -0.6958
    3CHTO   C26 1191   6.452   1.133   1.237 -0.0707 -0.0086  0.2282
    3CHTO   H54 1192   6.376   1.080   1.176  0.4317 -0.2987 -0.1498
    3CHTO   O20 1193   6.362   1.191   1.338  0.3349 -0.3636  0.0766
    3CHTO   H36 1194   6.289   1.145   1.375 -1.1704  1.1077 -1.0272
    3CHTO   C30 1195   6.509   1.250   1.151 -0.4900  0.1084  0.0326
    3CHTO   H58 1196   6.559   1.321   1.219 -0.8010  1.9512 -1.6043
    3CHTO    N6 1197   6.407   1.340   1.089  0.3457  0.0233 -1.0470
    3CHTO   H45 1198   6.360   1.287   1.007 -0.5772  0.5290 -0.8608
    3CHTO   H46 1199   6.461   1.426   1.051 -1.8427  1.9029 -0.0891
    3CHTO   C33 1200   6.615   1.196   1.047 -0.1038  0.3978  0.2005
    3CHTO   H61 1201   6.569   1.139   0.965  1.4437 -0.4718 -0.0846
    3CHTO   O18 1202   6.694   1.098   1.116  0.5027  0.1731 -0.2730
    3CHTO   C28 1203   6.631   0.985   1.184  0.4667 -0.5567  0.7574
    3CHTO   H56 1204   6.561   0.936   1.117  2.0652  0.1775 -1.5380
    3CHTO   C35 1205   6.734   0.881   1.217 -0.1378  0.1770 -0.3731
    3CHTO   O24 1206   6.822   0.927   1.321 -0.3923 -0.3302  0.2528
    3CHTO   H39 1207   6.849   1.016   1.308  1.0958 -0.8188 -0.1455
    3CHTO    O9 1208   6.696   1.295   0.979  0.4672  0.2576  0.0438
    3CHTO   C13 1209   6.792   1.398   1.065 -0.1180 -0.4107 -0.1204
    3CHTO   H26 1210   6.795   1.360   1.169  0.4976 -1.5727 -0.5458
    3CHTO   C11 1211   6.731   1.549   1.060 -0.2839  0.1358  0.2155
    3CHTO   H24 1212   6.654   1.552   1.139 -1.3551  0.8106 -0.8369
    3CHTO    O8 1213   6.662   1.573   0.931 -0.0423  0.1772  0.5637
    3CHTO    H3 1214   6.637   1.664   0.934 -0.8751  0.0811 -2.4643
    3CHTO    C9 1215   6.849   1.647   1.084 -0.1865  0.1722 -0.2664
    3CHTO   H22 1216   6.900   1.616   1.177 -0.8725  2.1256  0.7981
    3CHTO    N2 1217   6.810   1.786   1.111  0.5238 -0.1587  0.0122
    3CHTO   H10 1218   6.735   1.808   1.036  0.8660 -0.7796 -0.5114
    3CHTO   H11 1219   6.903   1.841   1.102  0.8630 -0.9769 -1.7037
    3CHTO    C7 1220   6.957   1.627   0.963  0.5377 -1.3586 -0.7110
    3CHTO   H20 1221   7.057   1.655   1.002 -0.2177  0.4360 -0.0225
    3CHTO    O4 1222   6.968   1.489   0.921  0.3789  0.1689  0.1830
    3CHTO   C14 1223   6.940   1.391   1.015 -0.0612  0.3636  0.5623
    3CHTO   H27 1224   7.004   1.399   1.105  0.4747 -0.4242  0.2505
    3CHTO   C18 1225   6.972   1.258   0.953 -0.2746  0.4138 -0.1877
    3CHTO   O13 1226   6.965   1.145   1.041  0.1476  0.2000  0.5896
    3CHTO    H7 1227   6.903   1.157   1.110 -0.6281  1.3706 -0.2951
    3CHTO    O2 1228   6.918   1.728   0.823  0.2821 -0.1130 -0.6181
    3CHTO    C1 1229   7.014   1.700   0.720 -0.4751  0.2497  0.1864
    3CHTO   H14 1230   7.053   1.599   0.746  0.7244  0.3520 -1.1352
    3CHTO    C2 1231   7.137   1.791   0.702 -0.2857 -0.2453  0.2890
    3CHTO   H15 1232   7.094   1.892   0.690 -0.6057 -0.1727  1.9250
    3CHTO    O6 1233   7.218   1.774   0.821 -0.2176 -0.1959 -0.1226
    3CHTO    H1 1234   7.293   1.718   0.810  1.6984  1.9610  1.5784
    3CHTO    C3 1235   7.220   1.764   0.560  0.4501 -0.0520  0.3954
    3CHTO   H16 1236   7.268   1.669   0.588  2.3510  1.1412  1.2986
    3CHTO    N1 1237   7.329   1.855   0.523 -0.3867  0.1455  0.4912
    3CHTO    H8 1238   7.354   1.923   0.603 -1.0738 -0.1453  0.9550
    3CHTO    H9 1239   7.412   1.791   0.497 -1.3741 -0.2688 -1.8012
    3CHTO    C4 1240   7.118   1.733   0.449  0.3971  0.3048  0.2519
    3CHTO   H17 1241   7.061   1.821   0.419 -0.1714  0.1393  0.8120
    3CHTO    O1 1242   7.019   1.629   0.487 -0.6127  0.1696  0.1237
    3CHTO    C5 1243   6.931   1.686   0.586  0.4639  0.1293 -0.1958
    3CHTO   H18 1244   6.892   1.785   0.564 -0.6142 -0.0909  0.7334
    3CHTO   C16 1245   6.809   1.591   0.603 -0.3275 -0.4674  0.4074
    3CHTO   O11 1246   6.841   1.469   0.673  0.1342 -0.0842  0.2224
    3CHTO    H5 1247   6.868   1.406   0.608  0.1410  0.8990 -0.7539
    3CHTO    O3 1248   7.180   1.672   0.340 -0.6889 -0.2686  0.0420
    3CHTO    C6 1249   7.134   1.671   0.200  0.2230  0.5303 -0.4005
    3CHTO   H19 1250   7.030   1.702   0.191 -0.3235 -1.2152 -0.3681
    3CHTO    C8 1251   7.228   1.763   0.111 -0.4586 -0.5391 -0.1914
    3CHTO   H21 1252   7.333   1.737   0.126 -0.6895 -2.4583 -1.8034
    3CHTO    O7 1253   7.210   1.900   0.154 -0.4665 -0.9308  0.5404
    3CHTO    H2 1254   7.261   1.915   0.231  1.2361  1.3403 -0.9568
    3CHTO   C12 1255   7.205   1.738  -0.047 -0.3453  0.6805 -0.3649
    3CHTO   H25 1256   7.112   1.786  -0.083  0.4577  1.8565 -0.9111
    3CHTO    N3 1257   7.304   1.810  -0.125 -0.4850 -0.2381  0.1030
    3CHTO   H12 1258   7.299   1.915  -0.101  1.1672  0.0892 -0.9394
    3CHTO   H13 1259   7.403   1.779  -0.094 -0.5409  1.4440  2.0840
    3CHTO   C15 1260   7.202   1.582  -0.072  0.6587  0.1358 -0.3034
    3CHTO   H28 1261   7.299   1.539  -0.050  1.2679  2.4112  1.8025
    3CHTO   O10 1262   7.166   1.550  -0.198 -0.3772  0.6549 -0.2600
    3CHTO    H4 1263   7.244   1.543  -0.250 -0.5171 -2.5663 -0.1443
    3CHTO    O5 1264   7.099   1.519   0.006  0.1565  0.7193 -0.0572
    3CHTO   C10 1265   7.136   1.527   0.149  0.3770 -0.1060 -0.4485
    3CHTO   H23 1266   7.237   1.490   0.164  0.6450  0.4719 -0.7941
    3CHTO   C17 1267   7.046   1.427   0.221 -0.0122 -0.3288 -0.7587
    3CHTO   O12 1268   6.909   1.462   0.237  0.8244 -0.6871  0.8768
    3CHTO    H6 1269   6.894   1.553   0.221 -1.9875 -0.9561  1.6161
    4CHTO  H203 1270   5.519   7.221   0.010  0.6155 -1.2688  1.6363
    4CHTO   O82 1271   5.570   7.287   0.055  0.0804 -0.0467  0.4657
    4CHTO  C123 1272   5.489   7.400   0.075 -0.7142  0.0659  0.2146
    4CHTO  H227 1273   5.411   7.373   0.147  0.1632 -2.5044  0.2236
    4CHTO   O77 1274   5.588   7.481   0.141  0.0126  0.1382  0.4600
    4CHTO  C118 1275   5.541   7.613   0.178 -0.3794  0.1929  0.5350
    4CHTO  H222 1276   5.450   7.598   0.238  0.0166 -1.4674  0.7694
    4CHTO  C125 1277   5.647   7.682   0.271  0.3702  0.3282  0.2215
    4CHTO   O84 1278   5.682   7.606   0.390  0.4214  0.3348  0.1625
    4CHTO  H205 1279   5.614   7.600   0.454  0.9335 -0.6579  0.6343
    4CHTO  C114 1280   5.509   7.684   0.048 -0.2529 -0.2849  0.3142
    4CHTO  H218 1281   5.595   7.675  -0.018 -0.6633  1.2111 -0.4526
    4CHTO  C116 1282   5.391   7.619  -0.025 -0.4956  0.3737  0.5695
    4CHTO  H220 1283   5.302   7.609   0.042 -0.5383 -3.0784  0.1089
    4CHTO   O79 1284   5.353   7.695  -0.144 -0.2250 -0.3266  0.1012
    4CHTO  H201 1285   5.307   7.773  -0.119  1.6422  1.6347 -2.2459
    4CHTO  C120 1286   5.435   7.473  -0.058 -0.2904 -0.3915 -0.4058
    4CHTO  H224 1287   5.520   7.484  -0.128 -0.7680  1.8262 -0.6969
    4CHTO   N21 1288   5.332   7.391  -0.118 -0.3293 -0.2023 -0.1067
    4CHTO  H211 1289   5.292   7.443  -0.204  0.2409  0.8446  0.2536
    4CHTO  H212 1290   5.371   7.297  -0.156  1.5912  0.1786  0.8261
    4CHTO   O75 1291   5.479   7.820   0.083 -0.1573  0.6171  0.0762
    4CHTO  C112 1292   5.590   7.942   0.043 -0.1317  0.1325 -0.0897
    4CHTO  H216 1293   5.689   7.897   0.051 -0.7990 -1.1455  1.1126
    4CHTO   O73 1294   5.570   8.042   0.145 -0.1980 -0.0887 -0.0796
    4CHTO  C113 1295   5.641   8.167   0.134  0.5496  1.0400 -0.3797
    4CHTO  H217 1296   5.746   8.138   0.116 -0.0328 -1.3951  0.0430
    4CHTO  C124 1297   5.624   8.256   0.253  0.7380  0.4998  0.3957
    4CHTO   O83 1298   5.692   8.199   0.366  0.3458 -0.1262  0.1285
    4CHTO  H204 1299   5.643   8.129   0.405 -0.2960  1.2491  1.8931
    4CHTO  C109 1300   5.600   8.235   0.001  0.1992 -0.6733  0.7264
    4CHTO  H213 1301   5.491   8.242   0.003  0.1040 -1.6384 -0.5055
    4CHTO  C110 1302   5.635   8.141  -0.114 -0.6665  0.1746  0.1094
    4CHTO  H214 1303   5.744   8.141  -0.115 -0.6748  0.3345 -0.6311
    4CHTO   O78 1304   5.586   8.195  -0.241 -0.1918  0.0627  0.6340
    4CHTO  H200 1305   5.640   8.262  -0.277 -1.4162  0.3088 -0.7959
    4CHTO  C111 1306   5.572   8.004  -0.104 -0.1829 -0.2408 -0.1817
    4CHTO  H215 1307   5.465   8.016  -0.123 -0.1482 -0.1956 -0.3424
    4CHTO   N19 1308   5.620   7.896  -0.197 -0.2303  0.7238 -0.5345
    4CHTO  H207 1309   5.612   7.933  -0.298 -1.2157  0.4368 -0.5678
    4CHTO  H208 1310   5.556   7.810  -0.185 -0.1928  0.9124  1.1557
    4CHTO   O74 1311   5.660   8.369  -0.008 -0.1484  0.2059  0.0387
    4CHTO  C115 1312   5.605   8.459  -0.119 -0.2582 -0.0859  0.5383
    4CHTO  H219 1313   5.548   8.402  -0.192  0.1617  0.1364  0.0306
    4CHTO   O76 1314   5.510   8.552  -0.070 -0.1870  0.1362 -0.8095
    4CHTO  C122 1315   5.569   8.653   0.018  0.4987 -0.0535 -0.2955
    4CHTO  H226 1316   5.609   8.601   0.105  1.7161  0.6602 -0.4255
    4CHTO  C126 1317   5.448   8.736   0.071  0.9124  0.1970  0.1851
    4CHTO   O85 1318   5.425   8.765   0.208 -0.1839  0.1335 -0.0173
    4CHTO  H206 1319   5.500   8.812   0.239 -0.8807  0.5945  1.0185
    4CHTO  C121 1320   5.679   8.745  -0.049 -0.2746 -0.0561  0.4523
    4CHTO  H225 1321   5.644   8.849  -0.066  0.4482  0.1629  0.2904
    4CHTO   O81 1322   5.787   8.753   0.041  0.1930 -0.3187  0.1254
    4CHTO  H202 1323   5.816   8.668   0.067  2.5653  0.6378  0.6618
    4CHTO  C119 1324   5.723   8.688  -0.188 -0.1475 -0.2149  0.1681
    4CHTO  H223 1325   5.639   8.718  -0.250 -1.2669 -1.5248  1.0195
    4CHTO  C117 1326   5.721   8.533  -0.194 -0.0066 -0.1251  0.2484
    4CHTO  H221 1327   5.812   8.495  -0.146 -0.9130 -1.3282  1.0560
    4CHTO   N20 1328   5.726   8.486  -0.336  0.1186  0.4000  0.2323
    4CHTO  H209 1329   5.719   8.568  -0.407 -2.0015  0.2612  0.2588
    4CHTO  H210 1330   5.663   8.406  -0.371  0.2373  0.4949 -0.2029
    4CHTO   O80 1331   5.847   8.766  -0.265 -0.5906 -0.1811  0.0975
    4CHTO  C103 1332   5.975   8.795  -0.186 -0.6813  0.4990 -0.2439
    4CHTO  H190 1333   5.958   8.847  -0.091  0.1180 -0.9144  0.6874
    4CHTO  C101 1334   6.061   8.667  -0.140 -0.0894  0.0776 -0.8024
    4CHTO  H188 1335   6.056   8.599  -0.225 -0.7547  2.1718 -2.4969
    4CHTO   O68 1336   6.009   8.602  -0.016  0.3555 -0.0224  0.0910
    4CHTO  H168 1337   6.024   8.510  -0.019  0.4330 -0.0621  1.3177
    4CHTO   C99 1338   6.219   8.690  -0.121  0.0723  0.1586 -0.1432
    4CHTO  H186 1339   6.242   8.752  -0.032 -3.3881  0.7456  0.3921
    4CHTO   N17 1340   6.297   8.559  -0.114 -0.4774 -0.2026  0.0629
    4CHTO  H174 1341   6.400   8.591  -0.102 -0.2108  0.0551 -2.5947
    4CHTO  H175 1342   6.258   8.509  -0.027  3.0378 -1.8802  0.7646
    4CHTO   C97 1343   6.269   8.774  -0.238  0.4048  0.5973 -0.2733
    4CHTO  H184 1344   6.247   8.713  -0.327 -0.6948  0.1895  0.2655
    4CHTO   O64 1345   6.197   8.898  -0.241  0.2480 -0.3319  0.0222
    4CHTO  C104 1346   6.061   8.892  -0.279 -0.3410  0.0647 -0.1758
    4CHTO  H191 1347   6.050   8.861  -0.383 -1.5444 -1.6728  0.4485
    4CHTO  C108 1348   6.000   9.033  -0.276  0.6112 -0.1909 -0.0858
    4CHTO   O71 1349   6.007   9.102  -0.151 -0.2103  0.2008  0.0434
    4CHTO  H171 1350   6.097   9.089  -0.127 -0.3853 -1.2610 -0.0304
    4CHTO   O62 1351   6.411   8.814  -0.237 -0.0022 -0.1670 -0.4199
    4CHTO   C91 1352   6.465   8.838  -0.371 -0.7458 -0.3159 -0.3884
    4CHTO  H178 1353   6.379   8.854  -0.436 -0.5935  0.0877 -0.4882
    4CHTO   C92 1354   6.553   8.726  -0.422  0.2348  0.2283  0.1150
    4CHTO  H179 1355   6.626   8.715  -0.340 -0.4547 -0.5995  0.6254
    4CHTO   O66 1356   6.497   8.597  -0.444  0.7532  0.3857  0.1243
    4CHTO  H166 1357   6.433   8.605  -0.512  0.7533  0.1747  0.0997
    4CHTO   C93 1358   6.636   8.752  -0.557  0.4548  0.0272 -0.4164
    4CHTO  H180 1359   6.583   8.695  -0.634 -0.8947 -0.5502  0.9069
    4CHTO   N16 1360   6.763   8.687  -0.560  0.4270 -0.3613 -0.1834
    4CHTO  H172 1361   6.841   8.750  -0.519  1.1946  0.2944 -2.5999
    4CHTO  H173 1362   6.787   8.642  -0.655  1.2319  2.0247 -1.1654
    4CHTO   C94 1363   6.637   8.907  -0.595 -0.5060  0.5940 -0.5937
    4CHTO  H181 1364   6.727   8.935  -0.649  1.1497  0.6640  2.1172
    4CHTO   O61 1365   6.647   8.995  -0.480 -0.7847  0.1787 -0.2403
    4CHTO   C95 1366   6.542   8.978  -0.380  0.1684  0.5813  0.3749
    4CHTO  H182 1367   6.592   8.989  -0.284 -1.6837  1.0491  1.2989
    4CHTO  C106 1368   6.448   9.105  -0.395 -0.0121 -0.3041  0.2246
    4CHTO   O69 1369   6.368   9.116  -0.275  0.2123  0.7014  0.2247
    4CHTO  H169 1370   6.423   9.153  -0.209 -1.8897  0.6076  2.1054
    4CHTO   O63 1371   6.513   8.936  -0.684 -0.2532 -0.3422  0.4141
    4CHTO   C96 1372   6.552   8.967  -0.840  0.5476  0.6214  0.4422
    4CHTO  H183 1373   6.633   8.902  -0.874 -1.4767 -1.1624 -1.0612
    4CHTO   C98 1374   6.583   9.114  -0.859 -0.1975 -0.4718  0.0281
    4CHTO  H185 1375   6.487   9.165  -0.844 -0.3894  0.0387 -2.6189
    4CHTO   O67 1376   6.675   9.172  -0.765 -0.0417  0.1253  0.1141
    4CHTO  H167 1377   6.682   9.116  -0.690 -0.8354 -2.5179 -1.7264
    4CHTO  C102 1378   6.631   9.125  -1.007 -0.1665 -0.2291  0.4231
    4CHTO  H189 1379   6.733   9.084  -1.006 -0.4580 -1.0939 -1.8188
    4CHTO   N18 1380   6.652   9.261  -1.062  0.2241 -0.0332 -0.3731
    4CHTO  H176 1381   6.557   9.308  -1.082  0.9706  0.9572 -1.6194
    4CHTO  H177 1382   6.720   9.246  -1.145  2.2582 -0.1654  1.2598
    4CHTO  C105 1383   6.538   9.047  -1.105  0.7541 -0.4875 -0.2745
    4CHTO  H192 1384   6.469   9.110  -1.161 -0.0317 -1.6556 -0.6207
    4CHTO   O65 1385   6.463   8.935  -1.064 -0.3334  0.3435 -0.4772
    4CHTO  C100 1386   6.428   8.927  -0.926 -0.0014 -0.5356  0.3495
    4CHTO  H187 1387   6.352   9.005  -0.911  1.2105  0.3204  2.2486
    4CHTO  C107 1388   6.373   8.790  -0.907 -0.4934 -0.1341  0.7531
    4CHTO   O70 1389   6.270   8.791  -0.809  0.1861 -0.1270  0.0888
    4CHTO  H170 1390   6.294   8.839  -0.732  2.1146 -2.0677  0.7605
    4CHTO   O57 1391   6.643   8.988  -1.224  0.0438  0.1561  0.1982
    4CHTO   C85 1392   6.596   8.932  -1.350  0.3780  0.5444 -0.2064
    4CHTO  H157 1393   6.504   8.989  -1.376 -0.0898 -0.2664 -0.3400
    4CHTO   C83 1394   6.567   8.782  -1.327  0.4385 -0.1596 -0.1174
    4CHTO  H155 1395   6.491   8.773  -1.249 -2.2757 -1.6000 -2.8080
    4CHTO   O56 1396   6.682   8.720  -1.275  0.1329 -0.3466  0.3399
    4CHTO  H135 1397   6.736   8.772  -1.218 -0.8927 -1.1931  2.1179
    4CHTO   C81 1398   6.514   8.719  -1.456  0.4929 -0.4514  0.1187
    4CHTO  H153 1399   6.432   8.784  -1.488  2.5278  2.6111  0.8577
    4CHTO   N14 1400   6.457   8.584  -1.446  0.1563  0.0655 -0.2636
    4CHTO  H141 1401   6.533   8.520  -1.405  0.7632  1.0161  0.1263
    4CHTO  H142 1402   6.373   8.586  -1.381  0.7241  1.4061  0.4517
    4CHTO   C79 1403   6.630   8.727  -1.563 -0.0530  0.7155 -0.8063
    4CHTO  H151 1404   6.587   8.693  -1.657 -2.6677 -0.6225  0.7892
    4CHTO   O52 1405   6.661   8.859  -1.587 -0.4239  0.4432  0.2061
    4CHTO   C86 1406   6.708   8.935  -1.465 -0.4275  0.4460 -0.1621
    4CHTO  H158 1407   6.809   8.897  -1.440 -1.4044 -1.2857  1.3350
    4CHTO   C90 1408   6.716   9.080  -1.510  0.0551  0.0509 -0.3221
    4CHTO   O60 1409   6.607   9.139  -1.580  0.2873  0.0294 -0.4651
    4CHTO  H138 1410   6.532   9.127  -1.525  2.0771  0.5239  2.1963
    4CHTO   O50 1411   6.749   8.655  -1.538 -0.0471 -0.3595 -0.2753
    4CHTO   C73 1412   6.852   8.604  -1.624 -0.9509  0.4263 -0.3750
    4CHTO  H145 1413   6.919   8.691  -1.629 -0.7665  0.4132  1.5174
    4CHTO   C74 1414   6.790   8.562  -1.764  0.2959  0.2259 -0.2934
    4CHTO  H146 1415   6.732   8.643  -1.810 -1.3145 -0.6418  0.1547
    4CHTO   O54 1416   6.898   8.533  -1.850 -0.0051  0.3496 -0.3434
    4CHTO  H133 1417   6.959   8.476  -1.807  0.9135 -0.0982 -2.1682
    4CHTO   C75 1418   6.701   8.431  -1.744  0.3357 -0.0156 -0.0422
    4CHTO  H147 1419   6.618   8.449  -1.674  0.7634  0.6543  0.2983
    4CHTO   N13 1420   6.634   8.379  -1.870  0.0951  0.5387  0.6865
    4CHTO  H139 1421   6.554   8.444  -1.902  0.9972  1.1106 -0.4515
    4CHTO  H140 1422   6.700   8.373  -1.955 -0.8234  0.6873 -0.0420
    4CHTO   C76 1423   6.786   8.314  -1.663 -0.2667  0.0544 -0.3922
    4CHTO  H148 1424   6.861   8.271  -1.728  0.3629 -3.5113  2.5273
    4CHTO   O49 1425   6.845   8.365  -1.540 -0.3082  0.9764 -0.2863
    4CHTO   C77 1426   6.928   8.479  -1.567  0.2392  0.0215 -0.3105
    4CHTO  H149 1427   7.010   8.451  -1.634 -0.0705 -0.0610 -0.6552
    4CHTO   C88 1428   7.009   8.522  -1.444  0.2576 -0.3938 -0.1475
    4CHTO   O58 1429   6.910   8.565  -1.322 -0.3418  0.6019  0.2170
    4CHTO  H136 1430   6.864   8.489  -1.293 -2.4312  0.6886 -2.7036
    4CHTO   O51 1431   6.690   8.211  -1.606 -0.4765  0.5392  0.2363
    4CHTO   C78 1432   6.784   8.059  -1.605  0.2271 -0.4804  0.3651
    4CHTO  H150 1433   6.893   8.079  -1.602  0.4145 -0.5820 -3.1754
    4CHTO   C80 1434   6.755   7.992  -1.742 -0.2872 -0.6166  0.0848
    4CHTO  H152 1435   6.646   7.973  -1.742 -0.3257 -0.5922  2.4847
    4CHTO   O55 1436   6.818   8.081  -1.837 -0.0281  0.5582  0.1472
    4CHTO  H134 1437   6.784   8.168  -1.822  0.2064  0.7746 -0.5865
    4CHTO   C84 1438   6.830   7.852  -1.751  0.0421  0.1545  0.4577
    4CHTO  H156 1439   6.937   7.863  -1.735 -0.0239 -1.1263  1.9129
    4CHTO   N15 1440   6.804   7.791  -1.884 -0.1269  0.9021  0.1026
    4CHTO  H143 1441   6.699   7.776  -1.902  0.3236 -1.9875 -0.3350
    4CHTO  H144 1442   6.848   7.693  -1.883  0.8897  1.3608  0.7452
    4CHTO   C87 1443   6.776   7.760  -1.636 -0.3067 -0.3087 -0.2432
    4CHTO  H159 1444   6.670   7.745  -1.653 -0.4086  0.9040 -0.7330
    4CHTO   O53 1445   6.806   7.835  -1.501  0.0366  0.0118 -0.5188
    4CHTO   C82 1446   6.737   7.964  -1.491 -0.1493  0.3490  0.2828
    4CHTO  H154 1447   6.630   7.941  -1.493 -0.1855  0.5506 -0.1673
    4CHTO   C89 1448   6.765   8.021  -1.348  0.0922 -0.0041  0.5371
    4CHTO   O59 1449   6.902   8.037  -1.313 -0.4400  0.3896 -0.1253
    4CHTO  H137 1450   6.937   8.116  -1.351 -0.1537 -1.4487 -3.9704
    4CHTO   O45 1451   6.845   7.621  -1.638  0.1668  0.3297  0.1701
    4CHTO   C67 1452   6.765   7.511  -1.600 -0.1902  0.2676  0.6621
    4CHTO  H124 1453   6.663   7.543  -1.576 -0.1566  2.1127 -1.5536
    4CHTO   C65 1454   6.758   7.400  -1.712 -0.1501 -0.4399 -0.0821
    4CHTO  H122 1455   6.840   7.430  -1.778 -1.0738 -0.5923 -1.3024
    4CHTO   O44 1456   6.636   7.425  -1.786 -0.4874  0.1133 -0.5535
    4CHTO  H102 1457   6.642   7.500  -1.841 -1.5760  2.0623  1.8620
    4CHTO   C63 1458   6.788   7.254  -1.662 -0.1775  0.6170 -1.2134
    4CHTO  H120 1459   6.890   7.248  -1.623 -0.1947 -0.7746 -1.3634
    4CHTO   N11 1460   6.781   7.146  -1.763 -0.1176  0.2938  0.4466
    4CHTO  H108 1461   6.823   7.173  -1.858  0.1940  0.9933  0.7812
    4CHTO  H109 1462   6.679   7.117  -1.778  0.9096 -1.9180 -2.9302
    4CHTO   C61 1463   6.705   7.231  -1.533  0.3791  0.3790 -0.4487
    4CHTO  H118 1464   6.737   7.132  -1.496 -0.3634 -1.1748 -3.8106
    4CHTO   O40 1465   6.742   7.329  -1.433  0.1696 -0.2935 -0.3394
    4CHTO   C68 1466   6.815   7.446  -1.466  0.1584 -0.0696 -0.5853
    4CHTO  H125 1467   6.923   7.422  -1.474  1.0198  3.4632 -0.3195
    4CHTO   C72 1468   6.799   7.546  -1.350 -0.3561 -0.0274 -0.6165
    4CHTO   O48 1469   6.839   7.497  -1.221 -0.6965  0.0588 -0.6219
    4CHTO  H105 1470   6.928   7.519  -1.202 -0.8955 -2.3125  3.8339
    4CHTO   O38 1471   6.562   7.246  -1.559  0.0041 -0.0046 -0.0977
    4CHTO   C55 1472   6.470   7.139  -1.518 -0.0646 -1.0474  0.0014
    4CHTO  H112 1473   6.376   7.191  -1.498  0.3573 -0.5814  0.7967
    4CHTO   C56 1474   6.517   7.050  -1.396  0.0065 -0.2893  0.1317
    4CHTO  H113 1475   6.614   7.004  -1.421 -0.4570 -1.2973  0.1774
    4CHTO   O42 1476   6.541   7.136  -1.279 -0.1719  0.1076  0.0212
    4CHTO  H100 1477   6.575   7.083  -1.209 -1.6503  0.9836  1.4448
    4CHTO   C57 1478   6.407   6.944  -1.368  0.2633  0.1035 -0.3571
    4CHTO  H114 1479   6.327   7.001  -1.322  0.5352 -1.3002  1.9186
    4CHTO   N10 1480   6.435   6.839  -1.266  0.6109 -0.1489  0.4260
    4CHTO  H106 1481   6.489   6.753  -1.304  1.1498  0.9944 -1.4229
    4CHTO  H107 1482   6.344   6.805  -1.218  1.1042 -0.0065  1.4915
    4CHTO   C58 1483   6.350   6.873  -1.502 -0.5509  0.1545 -0.1108
    4CHTO  H115 1484   6.426   6.800  -1.536  0.5155 -0.6301  3.7056
    4CHTO   O37 1485   6.322   6.974  -1.594  0.7324  0.0338  0.2925
    4CHTO   C59 1486   6.438   7.049  -1.639 -0.1581  0.1434 -0.1182
    4CHTO  H116 1487   6.527   6.987  -1.654 -0.8059 -0.8773  0.2443
    4CHTO   C70 1488   6.408   7.125  -1.769  0.1868 -0.0998  0.0351
    4CHTO   O46 1489   6.309   7.223  -1.765  0.5754  0.3768  0.0515
    4CHTO  H103 1490   6.334   7.283  -1.697 -0.6397 -0.7017  1.4853
    4CHTO   O39 1491   6.214   6.789  -1.486  0.1296 -0.1980  0.0585
    4CHTO   C60 1492   6.199   6.664  -1.555  0.1145 -0.0427  0.1867
    4CHTO  H117 1493   6.234   6.672  -1.658 -0.5673  1.8212  0.0845
    4CHTO   C62 1494   6.264   6.546  -1.477  0.3869  0.7891  0.6097
    4CHTO  H119 1495   6.372   6.566  -1.491  0.4212 -0.7318 -1.4552
    4CHTO   O43 1496   6.223   6.551  -1.341 -0.5430 -0.1802 -0.6513
    4CHTO  H101 1497   6.299   6.537  -1.288 -1.6984 -0.4960  0.9714
    4CHTO   C66 1498   6.236   6.401  -1.546  0.1381  0.1631 -0.5746
    4CHTO  H123 1499   6.278   6.409  -1.646 -0.2602  3.2295 -0.5547
    4CHTO   N12 1500   6.298   6.278  -1.485  0.4219  0.2868 -0.5533
    4CHTO  H110 1501   6.400   6.284  -1.518  0.1579  0.2111 -1.3833
    4CHTO  H111 1502   6.285   6.271  -1.378 -3.2575  1.0256 -0.8960
    4CHTO   C69 1503   6.085   6.384  -1.554  0.5494 -0.5536  0.0492
    4CHTO  H126 1504   6.052   6.375  -1.448  2.2981 -0.8639  0.5909
    4CHTO   O41 1505   6.026   6.523  -1.628  0.5967  0.0293 -0.1780
    4CHTO   C64 1506   6.046   6.642  -1.561 -0.2265  0.2856 -0.0386
    4CHTO  H121 1507   6.008   6.637  -1.457  0.0817  0.6502  0.0925
    4CHTO   C71 1508   5.956   6.749  -1.627 -0.4971  0.1771 -0.0458
    4CHTO   O47 1509   6.017   6.782  -1.752  0.5575  1.0357 -0.0938
    4CHTO  H104 1510   6.104   6.809  -1.730 -0.1823  2.7125  0.8289
    4CHTO   O34 1511   6.034   6.259  -1.645  0.5412  0.2419 -0.3802
    4CHTO   C49 1512   6.006   6.256  -1.799 -0.3394  0.1553  0.0666
    4CHTO   H91 1513   5.924   6.326  -1.814  0.6461  1.2807 -0.1514
    4CHTO   C47 1514   5.967   6.113  -1.839 -0.5139 -0.4548  0.1176
    4CHTO   H89 1515   5.932   6.121  -1.944 -0.0155  2.7813  0.1518
    4CHTO   O33 1516   5.853   6.077  -1.757 -0.2510 -0.1770 -0.4830
    4CHTO   H70 1517   5.790   6.145  -1.740  1.1227  0.8688  0.4675
    4CHTO   C45 1518   6.094   6.008  -1.827 -0.2005  0.2213 -0.2463
    4CHTO   H87 1519   6.096   5.969  -1.724  0.0040  2.2996  0.5710
    4CHTO    N8 1520   6.063   5.893  -1.915 -0.5137 -0.0152  0.2593
    4CHTO   H75 1521   6.119   5.803  -1.892 -0.0619  0.1941 -0.0318
    4CHTO   H76 1522   6.070   5.911  -2.021  2.3766 -2.6338 -0.0731
    4CHTO   C43 1523   6.231   6.093  -1.838 -0.6289  0.1865 -0.1127
    4CHTO   H85 1524   6.264   6.135  -1.744 -1.6270 -3.0848  1.7814
    4CHTO   O29 1525   6.205   6.193  -1.935  0.1811 -0.1220  0.4168
    4CHTO   C50 1526   6.129   6.299  -1.880  0.1351 -0.2626  0.7028
    4CHTO   H92 1527   6.200   6.354  -1.817  1.2575  0.3270 -1.0315
    4CHTO   C54 1528   6.097   6.390  -1.998 -0.0575 -0.1448  0.2075
    4CHTO   O36 1529   6.033   6.510  -1.944  0.1455  0.0016 -0.0220
    4CHTO   H72 1530   5.940   6.506  -1.934  0.1611 -0.1702  0.0349
    4CHTO   O27 1531   6.342   6.013  -1.877  0.3488  0.1486  0.2233
    4CHTO   C37 1532   6.472   5.987  -1.827  0.0849 -0.0785 -0.2736
    4CHTO   H79 1533   6.529   5.920  -1.894 -1.2730 -0.4462 -1.0652
    4CHTO   C38 1534   6.558   6.115  -1.805  0.0102 -0.1224  0.3193
    4CHTO   H80 1535   6.501   6.189  -1.747 -0.3970  0.9625 -1.4232
    4CHTO   O31 1536   6.575   6.182  -1.932  0.0859 -0.2767  0.2040
    4CHTO   H68 1537   6.542   6.132  -2.005  2.1145  0.2877 -1.1236
    4CHTO   C39 1538   6.696   6.098  -1.731  0.1755 -0.3292  0.0261
    4CHTO   H81 1539   6.769   6.059  -1.802  0.0274  0.1877 -0.4213
    4CHTO    N7 1540   6.761   6.227  -1.686  0.5134  0.2260  0.2052
    4CHTO   H73 1541   6.826   6.257  -1.767  1.0619  0.2033  0.6313
    4CHTO   H74 1542   6.688   6.306  -1.686  1.1384  0.8121  0.0763
    4CHTO   C40 1543   6.673   6.006  -1.607 -0.3066 -0.0998  0.2106
    4CHTO   H82 1544   6.633   6.059  -1.520 -1.2869 -0.9900  0.3095
    4CHTO   O26 1545   6.596   5.887  -1.637 -0.4155 -0.4476 -0.4692
    4CHTO   C41 1546   6.461   5.911  -1.689 -0.5278 -0.4230  0.3102
    4CHTO   H83 1547   6.404   5.962  -1.610  1.9669 -0.3746  2.1421
    4CHTO   C52 1548   6.394   5.781  -1.722 -0.2767 -0.2082 -0.5928
    4CHTO   O35 1549   6.373   5.700  -1.583 -0.0514 -0.4631 -0.5363
    4CHTO   H71 1550   6.330   5.758  -1.524 -1.6629 -0.2702 -1.8460
    4CHTO   O28 1551   6.801   5.948  -1.569  0.4786  0.0286 -0.4780
    4CHTO   C42 1552   6.831   5.907  -1.430 -0.3582  0.0776 -0.0516
    4CHTO   H84 1553   6.917   5.841  -1.438  0.6457  1.3329  0.1565
    4CHTO   C44 1554   6.724   5.821  -1.351  0.3445  0.1706 -0.5879
    4CHTO   H86 1555   6.632   5.876  -1.337  0.6186  0.7494 -1.0692
    4CHTO   O32 1556   6.687   5.710  -1.437 -0.2004 -0.4946  0.2209
    4CHTO   H69 1557   6.762   5.666  -1.474  0.5917  0.6323  0.4610
    4CHTO   C48 1558   6.777   5.779  -1.205 -0.0849  0.0616  0.0093
    4CHTO   H90 1559   6.871   5.725  -1.216 -0.5570 -0.7080 -0.3719
    4CHTO    N9 1560   6.686   5.686  -1.130 -0.4171  0.6601  0.2841
    4CHTO   H77 1561   6.625   5.629  -1.199 -2.4480  1.9084  1.0329
    4CHTO   H78 1562   6.733   5.617  -1.062 -1.3791 -0.6840 -0.3958
    4CHTO   C51 1563   6.808   5.910  -1.123 -0.2762  0.8309  0.3045
    4CHTO   H93 1564   6.722   5.972  -1.098 -0.2336  0.1721  2.1601
    4CHTO   O30 1565   6.910   5.980  -1.199 -0.1558 -0.4949 -0.5519
    4CHTO   C46 1566   6.873   6.021  -1.338 -0.5415  0.3999 -0.6257
    4CHTO   H88 1567   6.781   6.080  -1.328  0.7802  2.2201  1.1308
    4CHTO   C53 1568   6.989   6.112  -1.392 -0.1136 -0.5064  0.1378
    4CHTO   O72 1569   7.112   6.041  -1.383 -0.4423 -0.0455  0.3084
    4CHTO  H199 1570   7.183   6.088  -1.422 -0.2260 -1.4645 -1.0938
    4CHTO   O22 1571   6.882   5.885  -1.002 -0.2070 -0.4163 -0.4153
    4CHTO   C31 1572   6.827   5.935  -0.874 -0.6004 -0.5471  0.8734
    4CHTO   H59 1573   6.718   5.947  -0.894 -0.1563 -0.4232 -1.7014
    4CHTO   C29 1574   6.843   5.842  -0.757 -0.5736 -0.3046  0.1102
    4CHTO   H57 1575   6.953   5.840  -0.747 -0.7014 -0.3610  1.6061
    4CHTO   O21 1576   6.800   5.710  -0.799  0.5409  0.0291  0.8298
    4CHTO   H37 1577   6.844   5.681  -0.877  1.1139 -1.0571  1.5329
    4CHTO   C27 1578   6.782   5.903  -0.620  0.1061 -0.4460 -0.1330
    4CHTO   H55 1579   6.673   5.900  -0.627  0.0180  0.5175  0.7103
    4CHTO    N5 1580   6.827   5.817  -0.508  0.4345 -0.4323 -0.1461
    4CHTO   H43 1581   6.766   5.827  -0.419 -1.2135 -1.1300 -1.1607
    4CHTO   H44 1582   6.829   5.712  -0.535  1.3959 -0.0116 -1.7361
    4CHTO   C25 1583   6.833   6.048  -0.589 -0.1624  0.1417 -0.0479
    4CHTO   H53 1584   6.937   6.046  -0.553 -1.2442 -0.9539  3.1782
    4CHTO   O17 1585   6.829   6.134  -0.702 -0.1062  0.0374  0.3153
    4CHTO   C32 1586   6.878   6.082  -0.833  0.2135  0.9377 -0.2689
    4CHTO   H60 1587   6.987   6.083  -0.824  0.1610 -0.6494  0.9310
    4CHTO   C36 1588   6.838   6.171  -0.949 -0.1214 -0.0908  0.3562
    4CHTO   O25 1589   6.863   6.314  -0.923 -0.2462 -0.3428  0.1518
    4CHTO   H40 1590   6.828   6.357  -0.998  1.2757  0.8062  0.0617
    4CHTO   O15 1591   6.748   6.107  -0.489  0.5027 -0.4972 -0.0772
    4CHTO   C19 1592   6.747   6.206  -0.381 -0.3243 -0.1809 -0.5011
    4CHTO   H47 1593   6.762   6.132  -0.300  0.6056 -0.0946 -0.5794
    4CHTO   C20 1594   6.866   6.305  -0.386 -0.5647 -0.6781 -0.1298
    4CHTO   H48 1595   6.868   6.359  -0.482  1.2386 -0.3986  0.0576
    4CHTO   O19 1596   6.995   6.236  -0.379  0.2465  0.0783  0.4561
    4CHTO   H35 1597   7.062   6.293  -0.412  0.0024  0.0645 -0.0717
    4CHTO   C21 1598   6.851   6.413  -0.273 -0.5042 -0.1115  0.2615
    4CHTO   H49 1599   6.860   6.366  -0.176  0.1877 -0.1979  0.1593
    4CHTO    N4 1600   6.949   6.523  -0.284 -0.2775  0.2830  0.2714
    4CHTO   H41 1601   6.944   6.575  -0.378  1.6291  1.5124  0.8224
    4CHTO   H42 1602   6.933   6.590  -0.200 -1.3650  1.2601 -0.7070
    4CHTO   C22 1603   6.711   6.473  -0.279 -0.2810  0.8163 -0.2055
    4CHTO   H50 1604   6.700   6.519  -0.378 -0.0525  2.0973  0.3436
    4CHTO   O14 1605   6.621   6.369  -0.250  0.9307  0.4399 -0.0136
    4CHTO   C23 1606   6.608   6.276  -0.357 -0.4605  0.0665  0.0063
    4CHTO   H51 1607   6.578   6.332  -0.447 -0.1295 -0.7155 -0.5985
    4CHTO   C34 1608   6.496   6.172  -0.330  0.5605  0.0818  0.1032
    4CHTO   O23 1609   6.510   6.081  -0.229  0.2602 -0.8472  0.0362
    4CHTO   H38 1610   6.434   6.026  -0.232 -2.5511  2.7930  1.3995
    4CHTO   O16 1611   6.686   6.574  -0.178 -0.2160 -0.0846  0.9922
    4CHTO   C24 1612   6.548   6.653  -0.189  0.0813  0.4213 -0.0395
    4CHTO   H52 1613   6.463   6.585  -0.191  0.3278  0.0958  0.2508
    4CHTO   C26 1614   6.543   6.746  -0.314 -0.4128  0.1946  0.0112
    4CHTO   H54 1615   6.549   6.688  -0.409  3.0260  1.2981 -0.5056
    4CHTO   O20 1616   6.411   6.803  -0.330 -0.0395  0.2139 -0.0309
    4CHTO   H36 1617   6.423   6.884  -0.376  2.0378 -0.0942 -0.0961
    4CHTO   C30 1618   6.647   6.863  -0.310  0.0769  0.8218  0.0607
    4CHTO   H58 1619   6.600   6.959  -0.337  1.7033  1.7902  0.6695
    4CHTO    N6 1620   6.759   6.841  -0.410  0.0338  0.6966  0.1429
    4CHTO   H45 1621   6.777   6.934  -0.460 -0.6420  1.1083  0.6522
    4CHTO   H46 1622   6.851   6.813  -0.361  0.6974  1.0328 -0.9037
    4CHTO   C33 1623   6.696   6.883  -0.168  0.5765 -0.2177  0.1610
    4CHTO   H61 1624   6.777   6.816  -0.136 -0.5945 -1.0578  1.4909
    4CHTO   O18 1625   6.590   6.862  -0.075  0.4609 -0.5115 -0.2061
    4CHTO   C28 1626   6.542   6.730  -0.057 -0.5208 -0.3122  0.1829
    4CHTO   H56 1627   6.603   6.682   0.019 -0.8844  0.5808  1.0638
    4CHTO   C35 1628   6.395   6.742  -0.007 -0.2243  0.2230 -0.3931
    4CHTO   O24 1629   6.388   6.811   0.116 -0.4941  0.0623 -0.1158
    4CHTO   H39 1630   6.354   6.895   0.094  0.1028  0.2022 -0.5273
    4CHTO    O9 1631   6.750   7.017  -0.156 -0.3063 -0.3380  0.5733
    4CHTO   C13 1632   6.861   7.034  -0.034 -1.0268 -0.2231  0.2937
    4CHTO   H26 1633   6.960   6.997  -0.069 -1.2825 -1.6705  1.0751
    4CHTO   C11 1634   6.823   6.959   0.104 -0.2918  0.4714 -0.1248
    4CHTO   H24 1635   6.816   6.851   0.082 -0.9722  0.1488  1.5640
    4CHTO    O8 1636   6.692   7.003   0.152  0.1734  0.0873  0.0669
    4CHTO    H3 1637   6.635   7.006   0.078  0.4100  1.1236 -0.0728
    4CHTO    C9 1638   6.938   6.985   0.208  0.2502  0.0003 -0.6182
    4CHTO   H22 1639   7.028   6.950   0.155 -0.4848 -0.7111 -1.3965
    4CHTO    N2 1640   6.923   6.897   0.329  0.2295  0.1424  0.3779
    4CHTO   H10 1641   7.010   6.907   0.391  0.9694 -1.4401 -0.3885
    4CHTO   H11 1642   6.831   6.921   0.381  0.6336  2.6657 -0.0084
    4CHTO    C7 1643   6.949   7.140   0.239 -0.4966  0.6043 -0.2167
    4CHTO   H20 1644   7.051   7.150   0.282 -0.6068 -0.7453  0.4146
    4CHTO    O4 1645   6.938   7.232   0.129 -0.1528 -0.8025 -0.1544
    4CHTO   C14 1646   6.905   7.190  -0.009  0.1438  0.8846  0.2513
    4CHTO   H27 1647   6.994   7.208  -0.072 -1.8565  1.8250 -2.4115
    4CHTO   C18 1648   6.795   7.288  -0.062 -0.3519 -0.3499  0.0612
    4CHTO   O13 1649   6.863   7.418  -0.060 -0.4596 -0.2400  0.3292
    4CHTO    H7 1650   6.894   7.435   0.027 -1.9776  1.3134  0.6004
    4CHTO    O2 1651   6.842   7.187   0.352 -0.0544  0.5821  0.1296
    4CHTO    C1 1652   6.876   7.297   0.444  0.5222  0.6493  0.2490
    4CHTO   H14 1653   6.785   7.316   0.504  0.6455  2.0246  0.0132
    4CHTO    C2 1654   6.920   7.437   0.375  0.0998  0.0120  0.3800
    4CHTO   H15 1655   7.006   7.410   0.311  0.2046  0.1065  0.4822
    4CHTO    O6 1656   6.802   7.484   0.309  0.0103 -0.1395  0.9119
    4CHTO    H1 1657   6.780   7.430   0.236 -2.2232 -1.6705  2.6498
    4CHTO    C3 1658   6.975   7.542   0.488 -0.0201 -0.6218 -0.1196
    4CHTO   H16 1659   6.884   7.577   0.540 -0.4797 -1.6581 -0.1977
    4CHTO    N1 1660   7.049   7.654   0.426 -0.1138  0.3091  0.9563
    4CHTO    H8 1661   7.080   7.615   0.330 -2.7819 -0.3334  0.3125
    4CHTO    H9 1662   6.980   7.737   0.421 -1.1074 -0.5532  0.1323
    4CHTO    C4 1663   7.061   7.475   0.605  0.5632  0.0348 -0.6404
    4CHTO   H17 1664   7.165   7.463   0.576  1.0088  1.6584  0.2349
    4CHTO    O1 1665   7.012   7.346   0.650  0.3727 -0.1072  0.2012
    4CHTO    C5 1666   6.981   7.251   0.548  0.5824  0.3812  0.3094
    4CHTO   H18 1667   7.075   7.232   0.496  1.5865  1.6223  1.6124
    4CHTO   C16 1668   6.937   7.121   0.625 -0.2910 -0.2350 -0.1326
    4CHTO   O11 1669   6.811   7.134   0.693 -0.3806  0.3934  0.0981
    4CHTO    H5 1670   6.772   7.217   0.675 -0.4609  0.2065 -0.6251
    4CHTO    O3 1671   7.056   7.559   0.728  0.0013 -0.0098  0.0782
    4CHTO    C6 1672   7.179   7.561   0.809 -0.1079 -0.1965 -0.6271
    4CHTO   H19 1673   7.256   7.500   0.762 -1.0305 -0.6758 -1.5253
    4CHTO    C8 1674   7.230   7.712   0.826  0.0558 -0.1283  0.2590
    4CHTO   H21 1675   7.145   7.768   0.867  0.9644  1.3375  0.1645
    4CHTO    O7 1676   7.256   7.763   0.698 -0.4255  0.2575  0.1175
    4CHTO    H2 1677   7.328   7.719   0.657 -1.1912 -1.3917  0.4523
    4CHTO   C12 1678   7.358   7.712   0.924 -0.4643 -0.2012 -0.2675
    4CHTO   H25 1679   7.432   7.641   0.881 -0.4122 -1.0226  1.1478
    4CHTO    N3 1680   7.430   7.841   0.937 -0.1266 -0.5253  0.6746
    4CHTO   H12 1681   7.381   7.910   0.870  1.9258 -0.6452 -0.9854
    4CHTO   H13 1682   7.526   7.820   0.892 -1.0134 -0.9051 -1.0714
    4CHTO   C15 1683   7.319   7.646   1.057 -0.2806 -0.7726 -0.2139
    4CHTO   H28 1684   7.240   7.694   1.115  0.2387  0.5678 -0.6093
    4CHTO   O10 1685   7.439   7.626   1.146 -0.2795  0.0808  0.1009
    4CHTO    H4 1686   7.482   7.705   1.173 -2.0073  1.3908 -0.8944
    4CHTO    O5 1687   7.282   7.512   1.025  0.2195 -0.2278  0.4550
    4CHTO   C10 1688   7.154   7.506   0.957  0.0848 -0.5848 -0.1272
    4CHTO   H23 1689   7.075   7.555   1.013  0.7206 -1.5755  1.6780
    4CHTO   C17 1690   7.105   7.362   0.960  0.6072  0.1582  0.3024
    4CHTO   O12 1691   7.084   7.317   1.099 -0.3032  0.1626  0.3532
    4CHTO    H6 1692   7.008   7.263   1.095 -0.1271 -0.0840  0.3258
    5CHTO  H203 1693   7.819   3.472   1.566  0.4643 -0.3538 -3.3600
    5CHTO   O82 1694   7.736   3.430   1.576  0.2535  0.6925 -0.0355
    5CHTO  C123 1695   7.702   3.376   1.707 -0.1224  0.3170 -0.8667
    5CHTO  H227 1696   7.768   3.290   1.728 -0.7646 -0.4948 -2.1455
    5CHTO   O77 1697   7.730   3.491   1.796  0.4113  0.1672 -0.3942
    5CHTO  C118 1698   7.711   3.476   1.938  0.4759  0.5370 -0.4134
    5CHTO  H222 1699   7.778   3.401   1.982 -0.2535  0.4851  0.6244
    5CHTO  C125 1700   7.740   3.609   2.017 -0.1094  0.4815 -0.0594
    5CHTO   O84 1701   7.667   3.721   1.970  0.4512  0.2487 -0.2505
    5CHTO  H205 1702   7.676   3.798   2.023  0.1881  0.8311 -1.0278
    5CHTO  C114 1703   7.572   3.426   1.971 -0.5796 -0.3229  1.4377
    5CHTO  H218 1704   7.504   3.509   1.950 -0.2850  0.2800  2.8601
    5CHTO  C116 1705   7.517   3.308   1.880 -0.4898  0.1710  0.1716
    5CHTO  H220 1706   7.573   3.216   1.907  1.3437  1.4934  0.9785
    5CHTO   O79 1707   7.379   3.274   1.914 -0.0160  0.2865 -0.3515
    5CHTO  H201 1708   7.379   3.230   1.996  0.1162  2.3262  0.7689
    5CHTO  C120 1709   7.545   3.348   1.730 -0.5467  0.8811 -0.4234
    5CHTO  H224 1710   7.493   3.442   1.704 -0.4674  0.9521 -0.3247
    5CHTO   N21 1711   7.501   3.235   1.638  0.1603  0.1836  0.2434
    5CHTO  H211 1712   7.400   3.257   1.607  0.2711 -1.0874 -1.1247
    5CHTO  H212 1713   7.563   3.230   1.550  0.0260 -0.1790  0.1656
    5CHTO   O75 1714   7.578   3.394   2.112  0.1594  0.0136 -0.1707
    5CHTO  C112 1715   7.429   3.432   2.196  0.2858 -0.5708  0.0865
    5CHTO  H216 1716   7.348   3.378   2.144 -1.7331  0.4498  2.1229
    5CHTO   O73 1717   7.408   3.576   2.189 -0.1309  0.2998 -0.1232
    5CHTO  C113 1718   7.278   3.622   2.232 -0.2527 -0.2408  0.0435
    5CHTO  H217 1719   7.188   3.583   2.181 -2.6996  1.8381  2.6106
    5CHTO  C124 1720   7.282   3.777   2.215 -0.4658  0.0448 -0.5609
    5CHTO   O83 1721   7.155   3.843   2.202 -0.7491 -0.0050 -0.3313
    5CHTO  H204 1722   7.169   3.933   2.178  1.0485  0.0896  0.9739
    5CHTO  C109 1723   7.259   3.588   2.383 -0.0534  0.0878 -0.0900
    5CHTO  H213 1724   7.331   3.650   2.439  1.6197 -0.8750 -1.1323
    5CHTO  C110 1725   7.297   3.438   2.417  0.5879  0.1906  0.3737
    5CHTO  H214 1726   7.214   3.378   2.379  0.2022  0.2102  1.1804
    5CHTO   O78 1727   7.295   3.424   2.562 -0.5637  0.0208 -0.1747
    5CHTO  H200 1728   7.219   3.458   2.604  0.2369  2.2751 -0.5023
    5CHTO  C111 1729   7.428   3.396   2.351  0.1819 -0.4181  0.6458
    5CHTO  H215 1730   7.505   3.457   2.401 -0.9550 -0.5497  2.6080
    5CHTO   N19 1731   7.474   3.251   2.372  0.1491 -0.3402  0.3284
    5CHTO  H207 1732   7.410   3.209   2.448 -2.3558 -1.6354 -2.3986
    5CHTO  H208 1733   7.460   3.197   2.279  2.5591  0.7150 -0.7165
    5CHTO   O74 1734   7.123   3.618   2.423  0.1185  0.1592 -0.4015
    5CHTO  C115 1735   7.104   3.668   2.572 -0.0962 -0.6539 -0.1009
    5CHTO  H219 1736   7.192   3.649   2.634  0.3400 -0.3934 -0.6278
    5CHTO   O76 1737   7.088   3.837   2.573  0.8399  0.9014 -0.0698
    5CHTO  C122 1738   6.976   3.882   2.492 -0.1368 -0.1864  0.0705
    5CHTO  H226 1739   7.005   3.890   2.387  1.5002  0.3217  0.5486
    5CHTO  C126 1740   6.920   4.032   2.541 -1.2232  0.1301 -0.2871
    5CHTO   O85 1741   6.820   4.085   2.449  0.1811  0.3920  0.0839
    5CHTO  H206 1742   6.759   4.015   2.436 -0.9095  1.2662  0.3531
    5CHTO  C121 1743   6.851   3.786   2.492 -0.2685 -0.3866 -0.0532
    5CHTO  H225 1744   6.757   3.845   2.485  0.2723  0.4241 -0.5623
    5CHTO   O81 1745   6.843   3.701   2.377  0.1155 -0.1199  0.1413
    5CHTO  H202 1746   6.930   3.667   2.366  0.1245 -0.4565  1.2391
    5CHTO  C119 1747   6.843   3.692   2.619 -0.2532 -0.0092 -0.0248
    5CHTO  H223 1748   6.841   3.760   2.704  1.8408  0.6291 -0.4561
    5CHTO  C117 1749   6.976   3.603   2.634  0.1447  0.0863 -0.4805
    5CHTO  H221 1750   6.958   3.506   2.588 -2.2418 -0.1767  0.8954
    5CHTO   N20 1751   6.997   3.567   2.781 -0.0127 -0.1060 -0.5841
    5CHTO  H209 1752   7.088   3.511   2.793  0.2641  0.3056 -0.8053
    5CHTO  H210 1753   7.008   3.651   2.848  0.1876  0.8261 -1.7888
    5CHTO   O80 1754   6.700   3.609   2.643  0.2359  0.1081 -0.3707
    5CHTO  C103 1755   6.624   3.553   2.523 -0.0237 -0.2849  0.8608
    5CHTO  H190 1756   6.615   3.625   2.442  0.6372  0.3320  1.3375
    5CHTO  C101 1757   6.673   3.409   2.468  0.4038 -0.2130  0.0200
    5CHTO  H188 1758   6.665   3.336   2.549 -2.7965  0.7904  0.6729
    5CHTO   O68 1759   6.812   3.422   2.414 -0.0270 -0.3292 -0.3473
    5CHTO  H168 1760   6.820   3.474   2.336 -1.4819 -1.8828 -1.5815
    5CHTO   C99 1761   6.568   3.340   2.362 -0.2574 -0.1768 -0.1036
    5CHTO  H186 1762   6.564   3.407   2.273 -2.3156 -3.0416 -2.2885
    5CHTO   N17 1763   6.616   3.213   2.301  1.2339  0.5876 -0.0143
    5CHTO  H174 1764   6.648   3.144   2.377  0.4373 -1.1163 -1.1975
    5CHTO  H175 1765   6.705   3.243   2.247  0.8701 -1.4845 -1.8331
    5CHTO   C97 1766   6.427   3.340   2.425  0.0323  0.2026 -0.6014
    5CHTO  H184 1767   6.431   3.272   2.512  2.2881  0.5641 -0.3732
    5CHTO   O64 1768   6.388   3.468   2.469 -0.2210 -0.3749  0.2038
    5CHTO  C104 1769   6.476   3.530   2.571  0.5316 -0.8356 -0.5878
    5CHTO  H191 1770   6.467   3.458   2.652 -1.5292 -0.5638 -0.5622
    5CHTO  C108 1771   6.414   3.656   2.630  0.5445  0.2267  0.1720
    5CHTO   O71 1772   6.284   3.633   2.698 -0.0655  0.1927 -0.0229
    5CHTO  H171 1773   6.288   3.573   2.770 -1.2970  1.5021  1.1789
    5CHTO   O62 1774   6.326   3.302   2.328  0.5659  0.7886 -0.8188
    5CHTO   C91 1775   6.199   3.271   2.385  0.1845 -0.1673 -0.1117
    5CHTO  H178 1776   6.200   3.307   2.488 -1.2405 -1.5809  0.4289
    5CHTO   C92 1777   6.188   3.114   2.392 -0.9812 -0.4156 -0.1700
    5CHTO  H179 1778   6.193   3.073   2.290 -3.9009  0.6861 -0.8268
    5CHTO   O66 1779   6.311   3.070   2.458 -0.1090  0.5663  0.4318
    5CHTO  H166 1780   6.386   3.063   2.403 -0.7237 -2.0545 -0.1381
    5CHTO   C93 1781   6.054   3.066   2.457 -0.2254  1.2526 -0.9738
    5CHTO  H180 1782   6.041   3.107   2.558  1.4999 -1.2545  0.3259
    5CHTO   N16 1783   6.039   2.920   2.478  0.1073  0.4475  0.5261
    5CHTO  H172 1784   6.115   2.847   2.450  0.2953  0.7837  0.1535
    5CHTO  H173 1785   5.997   2.900   2.575 -0.6943 -0.7152 -0.0513
    5CHTO   C94 1786   5.948   3.121   2.360  0.1820 -0.2033 -0.2873
    5CHTO  H181 1787   5.965   3.079   2.261 -0.1578 -1.4112  0.1553
    5CHTO   O61 1788   5.953   3.260   2.352  0.1269 -0.6649  0.3975
    5CHTO   C95 1789   6.074   3.324   2.304  0.4453  0.6341  0.3510
    5CHTO  H182 1790   6.091   3.301   2.198 -0.1537  1.8402 -0.0123
    5CHTO  C106 1791   6.057   3.479   2.315  0.3227 -0.6804  0.2087
    5CHTO   O69 1792   6.174   3.542   2.282 -0.4264 -0.1081  0.4939
    5CHTO  H169 1793   6.185   3.630   2.312  2.0518 -0.4292  0.6894
    5CHTO   O63 1794   5.799   3.091   2.431 -0.4384 -0.3442  0.1560
    5CHTO   C96 1795   5.693   3.048   2.303  0.2563 -0.0866 -0.4614
    5CHTO  H183 1796   5.755   3.031   2.216 -0.8596 -0.2641 -1.2289
    5CHTO   C98 1797   5.602   3.159   2.267  0.6016 -1.0165  0.7588
    5CHTO  H185 1798   5.535   3.184   2.351 -1.2114  2.3085 -1.5356
    5CHTO   O67 1799   5.677   3.273   2.240  0.2545  0.3605  0.0895
    5CHTO  H167 1800   5.724   3.267   2.159  1.0019 -0.9737  0.6086
    5CHTO  C102 1801   5.514   3.119   2.138 -0.9492  0.3720 -0.1867
    5CHTO  H189 1802   5.588   3.108   2.057 -1.4394 -0.0935 -0.5721
    5CHTO   N18 1803   5.415   3.215   2.083  0.4786  0.5191 -0.0367
    5CHTO  H176 1804   5.335   3.169   2.027 -0.5717  0.7425  1.2659
    5CHTO  H177 1805   5.390   3.296   2.150 -0.0361 -0.9952  1.6229
    5CHTO  C105 1806   5.447   2.978   2.154  0.1848 -0.7861 -0.8228
    5CHTO  H192 1807   5.361   2.985   2.221 -0.2214  1.5407 -1.5520
    5CHTO   O65 1808   5.534   2.887   2.225  0.0584  0.2092  0.6967
    5CHTO  C100 1809   5.614   2.919   2.339  0.3204 -0.5920  0.0571
    5CHTO  H187 1810   5.551   2.934   2.428  0.4861 -1.4586  0.3319
    5CHTO  C107 1811   5.704   2.799   2.380  0.5030 -0.3224 -0.4449
    5CHTO   O70 1812   5.636   2.666   2.365 -0.4583 -0.0235  0.4674
    5CHTO  H170 1813   5.606   2.662   2.276  1.7379  0.0589 -0.3104
    5CHTO   O57 1814   5.412   2.924   2.019 -0.2072 -0.0105  0.4004
    5CHTO   C85 1815   5.300   2.836   1.989  0.3617  0.1971  0.6421
    5CHTO  H157 1816   5.218   2.893   2.037  0.0778  1.8068 -1.6913
    5CHTO   C83 1817   5.327   2.701   2.065  0.3278 -0.0199 -0.6240
    5CHTO  H155 1818   5.317   2.705   2.174 -2.8466  0.5333 -0.8722
    5CHTO   O56 1819   5.461   2.651   2.036 -0.4163  0.1314 -0.0248
    5CHTO  H135 1820   5.473   2.638   1.944 -1.4381  0.4653 -0.2134
    5CHTO   C81 1821   5.221   2.592   2.018  0.1680 -0.1150 -0.5644
    5CHTO  H153 1822   5.121   2.623   2.047  0.2477 -1.3878  1.1593
    5CHTO   N14 1823   5.233   2.465   2.093 -0.0586 -0.1264  0.5757
    5CHTO  H141 1824   5.142   2.416   2.118  0.8380 -2.2898 -0.2907
    5CHTO  H142 1825   5.300   2.465   2.176 -0.0452 -2.1202  0.5801
    5CHTO   C79 1826   5.219   2.567   1.865  0.6653 -0.2845 -0.4023
    5CHTO  H151 1827   5.140   2.495   1.847 -0.2978  0.8994 -1.0131
    5CHTO   O52 1828   5.186   2.693   1.800 -0.4853  0.4719 -0.2466
    5CHTO   C86 1829   5.267   2.803   1.840  0.1718  0.2228  0.0926
    5CHTO  H158 1830   5.362   2.790   1.785 -0.1856  0.1462 -0.5063
    5CHTO   C90 1831   5.207   2.928   1.786 -0.3308  0.0693  0.1062
    5CHTO   O60 1832   5.200   2.928   1.647 -0.1987  0.1036  0.1871
    5CHTO  H138 1833   5.121   2.969   1.617 -0.5291 -0.3850  0.3845
    5CHTO   O50 1834   5.332   2.510   1.800  0.3601 -0.3428  0.3476
    5CHTO   C73 1835   5.409   2.425   1.712 -0.8055 -1.2926 -0.3923
    5CHTO  H145 1836   5.364   2.420   1.612  0.2133  0.2499 -0.9357
    5CHTO   C74 1837   5.424   2.286   1.775 -0.2048  0.8198 -0.0279
    5CHTO  H146 1838   5.323   2.248   1.796 -0.9735  2.2328 -1.0634
    5CHTO   O54 1839   5.483   2.195   1.675 -0.1120 -0.3113  0.2094
    5CHTO  H133 1840   5.492   2.109   1.710 -2.1349 -1.6044 -2.2469
    5CHTO   C75 1841   5.522   2.279   1.905  0.1227  0.0928  0.6104
    5CHTO  H147 1842   5.471   2.324   1.992 -0.3117 -1.3967  1.1366
    5CHTO   N13 1843   5.559   2.140   1.956  0.0692  0.1038 -0.1506
    5CHTO  H139 1844   5.470   2.080   1.969  0.9040 -0.8241  1.3439
    5CHTO  H140 1845   5.600   2.092   1.868 -0.4092  1.3175 -1.0651
    5CHTO   C76 1846   5.658   2.353   1.869 -0.0438  0.3968 -0.9144
    5CHTO  H148 1847   5.715   2.303   1.790  2.3719  0.5923  0.6599
    5CHTO   O49 1848   5.633   2.487   1.816 -0.5598 -0.0130 -0.0695
    5CHTO   C77 1849   5.560   2.471   1.695  0.7715 -0.2512 -1.1553
    5CHTO  H149 1850   5.614   2.402   1.630  0.7429 -3.2895  1.8952
    5CHTO   C88 1851   5.552   2.606   1.630 -0.2738 -0.6029  0.4883
    5CHTO   O58 1852   5.509   2.613   1.484  0.2707  0.3960 -0.2293
    5CHTO  H136 1853   5.430   2.565   1.470 -0.3480  1.2856  0.1306
    5CHTO   O51 1854   5.757   2.389   1.999  0.2483  0.6109  0.0580
    5CHTO   C78 1855   5.881   2.437   1.955 -0.3483  0.1512 -0.1226
    5CHTO  H150 1856   5.874   2.487   1.856 -1.7698 -0.1007 -0.1651
    5CHTO   C80 1857   5.984   2.320   1.938 -0.5524 -0.5636  0.2334
    5CHTO  H152 1858   5.988   2.264   2.034 -0.4168 -0.6972  0.1518
    5CHTO   O55 1859   5.941   2.226   1.844  0.1142 -0.6244 -0.3822
    5CHTO  H134 1860   5.895   2.262   1.770 -3.1104 -1.1732  1.2687
    5CHTO   C84 1861   6.125   2.379   1.909  0.6052  0.3257  0.5803
    5CHTO  H156 1862   6.108   2.435   1.817  0.4476  0.2506  0.5640
    5CHTO   N15 1863   6.233   2.284   1.881 -0.4359 -0.1509  0.2469
    5CHTO  H143 1864   6.220   2.260   1.777  1.7585 -0.2099 -0.0441
    5CHTO  H144 1865   6.216   2.200   1.945 -2.1562  0.6209  0.8195
    5CHTO   C87 1866   6.158   2.482   2.016  0.4019 -0.4864  0.0964
    5CHTO  H159 1867   6.164   2.429   2.110 -1.6484 -0.6288  0.1649
    5CHTO   O53 1868   6.062   2.588   2.023  0.4748 -0.2454 -0.1176
    5CHTO   C82 1869   5.932   2.549   2.056 -0.3005  0.1787 -0.3393
    5CHTO  H154 1870   5.935   2.510   2.158 -0.5621 -2.6926 -1.3837
    5CHTO   C89 1871   5.846   2.676   2.058  0.0406  0.1065  0.4254
    5CHTO   O59 1872   5.911   2.784   2.120 -0.0689  0.0869 -0.1333
    5CHTO  H137 1873   5.940   2.845   2.055 -2.8812  1.3491 -0.2962
    5CHTO   O45 1874   6.295   2.563   1.972 -0.2991 -0.4897  0.2850
    5CHTO   C67 1875   6.394   2.602   2.071  0.3508  0.4853  0.9227
    5CHTO  H124 1876   6.364   2.579   2.173 -0.2558  0.9524  0.8543
    5CHTO   C65 1877   6.534   2.526   2.047 -1.1132  0.5973  0.1144
    5CHTO  H122 1878   6.534   2.499   1.941  2.8799 -0.4581  0.3055
    5CHTO   O44 1879   6.529   2.416   2.135  0.1186  0.4796  0.0482
    5CHTO  H102 1880   6.595   2.354   2.112 -0.1922  0.9687 -2.2870
    5CHTO   C63 1881   6.659   2.611   2.074 -0.6325  0.3286  0.3282
    5CHTO  H120 1882   6.675   2.679   1.990  0.6079  2.1126  1.9652
    5CHTO   N11 1883   6.792   2.544   2.093 -0.1909  0.8009 -0.7984
    5CHTO  H108 1884   6.776   2.438   2.090 -2.2672  1.0937 -0.7955
    5CHTO  H109 1885   6.867   2.587   2.030  0.9657 -2.4613 -1.7644
    5CHTO   C61 1886   6.628   2.714   2.185 -0.0804  0.3028  0.4963
    5CHTO  H118 1887   6.718   2.777   2.183  1.1439 -1.3738  1.7580
    5CHTO   O40 1888   6.513   2.798   2.171  0.4459 -0.0050  0.6982
    5CHTO   C68 1889   6.417   2.759   2.074 -0.1599  0.2442 -0.0663
    5CHTO  H125 1890   6.455   2.797   1.976  1.4224 -3.1487 -0.8372
    5CHTO   C72 1891   6.291   2.836   2.108 -0.5333 -0.5501 -0.0898
    5CHTO   O48 1892   6.228   2.785   2.220  0.5328  0.1473  0.2934
    5CHTO  H105 1893   6.152   2.838   2.235 -1.1867 -2.1782  0.0722
    5CHTO   O38 1894   6.616   2.657   2.313  0.3280 -0.5143 -0.4588
    5CHTO   C55 1895   6.610   2.740   2.431  0.3858 -0.5428 -0.1519
    5CHTO  H112 1896   6.548   2.831   2.421  2.2242  0.6074 -1.2354
    5CHTO   C56 1897   6.748   2.777   2.483  0.3105 -0.0440 -0.0287
    5CHTO  H113 1898   6.799   2.683   2.509 -1.2293 -0.7120  0.7077
    5CHTO   O42 1899   6.835   2.831   2.381 -0.0735  0.4571  0.0751
    5CHTO  H100 1900   6.864   2.918   2.398 -0.7060  1.0330 -1.7402
    5CHTO   C57 1901   6.726   2.871   2.608  0.4007  0.2893  0.8764
    5CHTO  H114 1902   6.658   2.946   2.567  1.7100 -0.0107 -1.9889
    5CHTO   N10 1903   6.852   2.935   2.658  0.5532  0.4704  0.0364
    5CHTO  H106 1904   6.901   2.864   2.723 -0.8269  0.7526  1.3834
    5CHTO  H107 1905   6.825   3.019   2.719  1.0289  1.2348 -0.7885
    5CHTO   C58 1906   6.649   2.785   2.709 -0.3262 -0.7680 -0.3235
    5CHTO  H115 1907   6.714   2.699   2.735 -0.3730 -0.2248  1.7347
    5CHTO   O37 1908   6.526   2.741   2.659  0.6728 -0.4024 -0.0641
    5CHTO   C59 1909   6.536   2.658   2.544 -0.2424  0.5806  1.0316
    5CHTO  H116 1910   6.594   2.568   2.564 -1.5542 -0.3395  0.7289
    5CHTO   C70 1911   6.392   2.629   2.511  0.2734  0.7772  0.0054
    5CHTO   O46 1912   6.339   2.546   2.610  0.0188  0.1132  0.7063
    5CHTO  H103 1913   6.275   2.482   2.583  1.4111 -1.2488  0.5872
    5CHTO   O39 1914   6.616   2.889   2.847  0.3265  0.1415  0.2274
    5CHTO   C60 1915   6.494   2.965   2.824  0.6919 -0.0078 -0.7637
    5CHTO  H117 1916   6.462   2.957   2.720 -0.3832 -0.5997 -0.3933
    5CHTO   C62 1917   6.373   2.904   2.912 -0.4060  0.0378 -0.4811
    5CHTO  H119 1918   6.376   2.795   2.893 -0.3527  0.0099 -0.3152
    5CHTO   O43 1919   6.403   2.924   3.050  0.4330 -0.2987 -0.9348
    5CHTO  H101 1920   6.335   2.883   3.101 -0.4980  1.9624 -0.2975
    5CHTO   C66 1921   6.243   2.971   2.858 -0.4186 -0.2836 -0.7126
    5CHTO  H123 1922   6.235   2.949   2.752 -2.0150  1.3534 -0.9503
    5CHTO   N12 1923   6.115   2.920   2.917 -0.1342 -1.1675  0.5273
    5CHTO  H110 1924   6.084   2.835   2.858  1.1455 -0.5002 -1.1316
    5CHTO  H111 1925   6.038   2.992   2.940 -0.0496 -0.6624 -0.7120
    5CHTO   C69 1926   6.252   3.123   2.864  0.5603  0.2413  0.0311
    5CHTO  H126 1927   6.245   3.139   2.973 -0.8902 -0.0404 -0.0090
    5CHTO   O41 1928   6.377   3.182   2.814  0.2373 -0.8775  0.2821
    5CHTO   C64 1929   6.509   3.113   2.856 -0.3214  0.6221  0.2415
    5CHTO  H121 1930   6.520   3.124   2.966 -2.4871 -0.2952  0.5691
    5CHTO   C71 1931   6.633   3.187   2.787  0.2812 -0.4149  0.3620
    5CHTO   O47 1932   6.628   3.320   2.845  0.2540  0.1998  0.1903
    5CHTO  H104 1933   6.704   3.367   2.817 -0.6478  2.1464  0.9637
    5CHTO   O34 1934   6.109   3.196   2.790  0.0862  0.0162 -0.1213
    5CHTO   C49 1935   6.010   3.314   2.827  0.5434 -0.1067 -0.2233
    5CHTO   H91 1936   6.073   3.397   2.860  2.1592 -1.8988  1.3438
    5CHTO   C47 1937   5.921   3.264   2.946 -0.5328  0.0399  0.1302
    5CHTO   H89 1938   5.856   3.347   2.979  0.3471  1.4702 -1.6765
    5CHTO   O33 1939   5.998   3.221   3.062 -0.4681 -0.1006 -0.2585
    5CHTO   H70 1940   5.995   3.267   3.143  0.8539 -1.8353  0.8236
    5CHTO   C45 1941   5.831   3.142   2.876 -0.7385  0.1799 -0.1195
    5CHTO   H87 1942   5.894   3.075   2.815  0.6715  1.0695  0.3364
    5CHTO    N8 1943   5.764   3.053   2.975 -0.1423 -0.3890  0.1791
    5CHTO   H75 1944   5.680   3.109   3.013 -0.3872 -0.7011  0.1002
    5CHTO   H76 1945   5.832   3.035   3.057  0.6873 -2.5960 -0.9560
    5CHTO   C43 1946   5.738   3.188   2.769  0.1974  0.0002  0.5559
    5CHTO   H85 1947   5.688   3.100   2.729  0.8518  0.6512 -1.8443
    5CHTO   O29 1948   5.820   3.258   2.664 -0.9301 -0.5888 -0.3126
    5CHTO   C50 1949   5.915   3.354   2.704  0.1001 -0.7262  0.0214
    5CHTO   H92 1950   5.982   3.365   2.617 -0.6152 -1.1656 -0.5900
    5CHTO   C54 1951   5.860   3.490   2.726 -0.3608  0.3013  0.1108
    5CHTO   O36 1952   5.786   3.550   2.615  0.3421  0.1147  0.0910
    5CHTO   H72 1953   5.744   3.479   2.570 -0.0120  1.5043 -1.8720
    5CHTO   O27 1954   5.649   3.285   2.823  0.5069  0.1440 -0.2400
    5CHTO   C37 1955   5.531   3.365   2.799  0.4661 -0.5848  0.3310
    5CHTO   H79 1956   5.564   3.463   2.761 -1.0977 -0.3090 -0.3460
    5CHTO   C38 1957   5.430   3.309   2.682 -0.7264 -0.0888 -0.7192
    5CHTO   H80 1958   5.418   3.203   2.708 -0.3916  0.1976  0.6596
    5CHTO   O31 1959   5.503   3.313   2.554 -0.2091 -0.6905  0.0946
    5CHTO   H68 1960   5.543   3.393   2.528 -1.3814 -0.3153 -0.5539
    5CHTO   C39 1961   5.294   3.380   2.688 -0.7291  0.2598  0.8844
    5CHTO   H81 1962   5.321   3.484   2.667 -0.7854 -0.3113 -2.2038
    5CHTO    N7 1963   5.197   3.327   2.585 -0.6351  0.0956  0.6000
    5CHTO   H73 1964   5.226   3.364   2.488  0.7696  0.8227  1.2943
    5CHTO   H74 1965   5.097   3.362   2.607 -0.0313  2.2074  0.0656
    5CHTO   C40 1966   5.243   3.368   2.832 -0.4249  0.2252 -0.0133
    5CHTO   H82 1967   5.238   3.266   2.872 -0.0182 -0.4678 -1.6944
    5CHTO   O26 1968   5.334   3.446   2.912  0.0830 -0.1264  0.0690
    5CHTO   C41 1969   5.463   3.378   2.929  1.1775  0.2282 -0.4734
    5CHTO   H83 1970   5.448   3.283   2.983 -0.6520 -0.4885 -2.1879
    5CHTO   C52 1971   5.545   3.455   3.036  0.0945  0.4791  0.3011
    5CHTO   O35 1972   5.453   3.479   3.176 -0.1176  0.5791  0.2375
    5CHTO   H71 1973   5.406   3.559   3.170 -2.1300 -0.6263 -0.5197
    5CHTO   O28 1974   5.113   3.435   2.844  0.8365  0.1066  0.1799
    5CHTO   C42 1975   5.045   3.434   2.982 -0.1074 -0.3273 -0.0159
    5CHTO   H84 1976   4.943   3.450   2.948  0.0545 -2.7280 -1.8092
    5CHTO   C44 1977   5.083   3.560   3.067 -0.1753  0.7057 -0.5082
    5CHTO   H86 1978   5.190   3.576   3.053 -0.4166  0.2833 -3.2697
    5CHTO   O32 1979   5.015   3.675   3.022  0.6649 -0.2898  0.0376
    5CHTO   H69 1980   5.054   3.708   2.943 -1.9540  1.3286 -0.6479
    5CHTO   C48 1981   5.057   3.552   3.227  0.9414  0.0057  0.1485
    5CHTO   H90 1982   4.950   3.571   3.241  0.5647  1.6928 -4.3304
    5CHTO    N9 1983   5.139   3.657   3.296 -0.2346 -0.9321 -0.1135
    5CHTO   H77 1984   5.110   3.676   3.398 -0.9048 -2.0753 -0.0885
    5CHTO   H78 1985   5.135   3.747   3.236  1.9324 -0.9322 -0.3075
    5CHTO   C51 1986   5.083   3.400   3.272 -0.1856 -1.5412 -0.0305
    5CHTO   H93 1987   5.186   3.377   3.245  0.3009  1.9304 -1.4141
    5CHTO   O30 1988   4.991   3.321   3.196  0.3674  0.0612 -0.5192
    5CHTO   C46 1989   5.050   3.305   3.059 -0.6943  0.6150 -0.5585
    5CHTO   H88 1990   5.153   3.274   3.074 -1.4193 -0.9699  1.3352
    5CHTO   C53 1991   4.962   3.189   2.998  0.1551 -0.4857 -0.6842
    5CHTO   O72 1992   5.027   3.149   2.874 -0.4014  0.0375 -0.7455
    5CHTO  H199 1993   4.959   3.160   2.811  0.7278 -2.5608 -2.4900
    5CHTO   O22 1994   5.054   3.380   3.406  0.2460 -0.1322 -0.2680
    5CHTO   C31 1995   5.127   3.275   3.485  0.5340  0.0258  0.1560
    5CHTO   H59 1996   5.086   3.284   3.587 -0.9286 -2.2346 -0.2022
    5CHTO   C29 1997   5.084   3.135   3.434 -0.7162 -0.3799 -0.2100
    5CHTO   H57 1998   5.112   3.144   3.329 -0.1541  1.1318  0.0608
    5CHTO   O21 1999   4.938   3.122   3.439  0.1766 -0.5315 -0.1151
    5CHTO   H37 2000   4.903   3.209   3.435  1.6725  0.0439 -1.3395
    5CHTO   C27 2001   5.162   3.021   3.510  0.3618 -0.4862  0.2582
    5CHTO   H55 2002   5.137   3.035   3.616 -2.4537 -0.7464 -0.3272
    5CHTO    N5 2003   5.125   2.881   3.464  1.0180 -0.3021 -0.0161
    5CHTO   H43 2004   5.176   2.851   3.375 -0.2162  0.9141 -1.1636
    5CHTO   H44 2005   5.017   2.882   3.464  0.8354  1.5644  5.5156
    5CHTO   C25 2006   5.316   3.057   3.502  0.1655  0.3141 -0.3561
    5CHTO   H53 2007   5.360   3.073   3.402  0.4310  1.3114 -0.0857
    5CHTO   O17 2008   5.333   3.182   3.572  0.3244  0.8660  0.0717
    5CHTO   C32 2009   5.276   3.288   3.502 -0.1077  0.2723  0.4999
    5CHTO   H60 2010   5.318   3.293   3.401  0.2006 -1.9509  0.4958
    5CHTO   C36 2011   5.311   3.403   3.597  0.7517 -0.5260  0.1659
    5CHTO   O25 2012   5.428   3.472   3.554 -0.0870  0.1818 -0.2692
    5CHTO   H40 2013   5.432   3.564   3.572  0.7729  0.1948 -0.5230
    5CHTO   O15 2014   5.409   2.969   3.565  0.2388  0.1396  0.0828
    5CHTO   C19 2015   5.542   2.926   3.609  0.0931 -0.8709  0.1523
    5CHTO   H47 2016   5.578   3.002   3.680  0.4827  0.3263 -1.2936
    5CHTO   C20 2017   5.532   2.794   3.687  0.4344 -0.2412 -0.5171
    5CHTO   H48 2018   5.471   2.719   3.634  0.5852 -0.8082  0.1030
    5CHTO   O19 2019   5.468   2.817   3.812 -0.0321 -0.3969 -0.2592
    5CHTO   H35 2020   5.390   2.870   3.809 -0.5189 -1.1428 -0.7727
    5CHTO   C21 2021   5.673   2.731   3.716  0.8575 -0.0196 -0.4562
    5CHTO   H49 2022   5.709   2.763   3.814 -2.1247  0.7058  0.4445
    5CHTO    N4 2023   5.664   2.586   3.752  0.3525  0.9565 -0.1376
    5CHTO   H41 2024   5.603   2.529   3.683 -0.4289  0.9375  0.5602
    5CHTO   H42 2025   5.767   2.555   3.742  0.2338  0.6308 -0.3770
    5CHTO   C22 2026   5.783   2.756   3.605 -0.5726  0.6803 -0.8015
    5CHTO   H50 2027   5.765   2.677   3.532  3.5720 -1.8869  0.8170
    5CHTO   O14 2028   5.766   2.889   3.563 -0.5137  0.0912 -0.0496
    5CHTO   C23 2029   5.647   2.911   3.498 -0.0737  1.0127 -0.1278
    5CHTO   H51 2030   5.625   2.835   3.421 -0.5185  3.6446 -2.7252
    5CHTO   C34 2031   5.665   3.027   3.406  0.0068  0.0350 -0.8414
    5CHTO   O23 2032   5.702   3.146   3.474 -0.6724  0.0130  0.4848
    5CHTO   H38 2033   5.648   3.221   3.463 -1.8750 -0.8078  0.7076
    5CHTO   O16 2034   5.912   2.745   3.670 -0.0320  0.4238  0.1962
    5CHTO   C24 2035   6.026   2.685   3.571  0.3766  0.0249  0.1429
    5CHTO   H52 2036   5.992   2.687   3.468  0.1714  2.9339  0.2144
    5CHTO   C26 2037   6.064   2.541   3.619 -0.0484 -0.0822 -1.7356
    5CHTO   H54 2038   6.105   2.545   3.723 -3.6066  0.9462 -0.2861
    5CHTO   O20 2039   5.943   2.456   3.614 -0.5127 -0.3958  0.6923
    5CHTO   H36 2040   5.918   2.426   3.700 -1.3934 -0.0464  0.5630
    5CHTO   C30 2041   6.172   2.486   3.524 -0.9098  0.8642  0.5640
    5CHTO   H58 2042   6.133   2.467   3.423  0.3809 -0.2177  0.2473
    5CHTO    N6 2043   6.218   2.350   3.559 -0.4022 -0.4691 -0.5301
    5CHTO   H45 2044   6.139   2.277   3.573  0.0539 -0.5861  1.5823
    5CHTO   H46 2045   6.288   2.318   3.483  1.3470  1.9970  0.0049
    5CHTO   C33 2046   6.295   2.588   3.510 -0.1544  0.2710 -0.9189
    5CHTO   H61 2047   6.345   2.599   3.607  0.2132 -0.3813 -1.0311
    5CHTO   O18 2048   6.248   2.725   3.478 -0.6822  0.5926  0.4435
    5CHTO   C28 2049   6.155   2.775   3.574  0.3748 -0.5085  0.5698
    5CHTO   H56 2050   6.203   2.767   3.671  0.2767  0.2838  0.6820
    5CHTO   C35 2051   6.127   2.933   3.552 -0.2192  0.4580 -0.7484
    5CHTO   O24 2052   6.233   3.018   3.587  0.1221 -0.0345  0.0583
    5CHTO   H39 2053   6.237   3.019   3.681 -0.6013 -1.2792  0.1230
    5CHTO    O9 2054   6.396   2.545   3.419 -0.8692  0.1212 -0.7979
    5CHTO   C13 2055   6.358   2.515   3.254  0.0566  0.1238  0.8231
    5CHTO   H26 2056   6.251   2.538   3.238  0.4667 -0.0664 -2.5153
    5CHTO   C11 2057   6.396   2.365   3.225  0.5166  0.2609 -0.2838
    5CHTO   H24 2058   6.317   2.302   3.268  0.3677  0.7495  0.1624
    5CHTO    O8 2059   6.518   2.322   3.295 -0.2994 -0.4992  0.0100
    5CHTO    H3 2060   6.537   2.237   3.260  1.3488 -0.1413  0.0093
    5CHTO    C9 2061   6.392   2.347   3.067 -0.3188  0.6504  0.2754
    5CHTO   H22 2062   6.291   2.383   3.043 -0.4443  0.6899  0.8560
    5CHTO    N2 2063   6.393   2.202   3.024 -0.3934  0.5888  0.2570
    5CHTO   H10 2064   6.428   2.129   3.095 -0.0025  1.1940  0.6788
    5CHTO   H11 2065   6.445   2.191   2.930 -1.5984 -2.8335 -0.0845
    5CHTO    C7 2066   6.493   2.437   2.991  0.0647 -0.5465 -1.0141
    5CHTO   H20 2067   6.451   2.423   2.889  1.2982 -0.4086 -1.5370
    5CHTO    O4 2068   6.480   2.573   3.030 -0.5631 -0.1415  0.1908
    5CHTO   C14 2069   6.449   2.613   3.163 -0.3899 -0.2221  0.0023
    5CHTO   H27 2070   6.389   2.706   3.151  0.1868  0.1906  0.3353
    5CHTO   C18 2071   6.582   2.660   3.225 -0.4866 -1.3678 -0.6191
    5CHTO   O13 2072   6.625   2.782   3.162 -0.1365 -0.2265  0.2876
    5CHTO    H7 2073   6.706   2.811   3.200 -0.1385 -0.1529  0.2378
    5CHTO    O2 2074   6.658   2.396   3.005 -0.0517 -0.5357  0.5615
    5CHTO    C1 2075   6.741   2.423   2.892  0.2456 -0.1869 -0.2125
    5CHTO   H14 2076   6.703   2.510   2.835  1.4931 -0.7600 -1.9579
    5CHTO    C2 2077   6.745   2.300   2.789 -0.5768  0.4437  0.2195
    5CHTO   H15 2078   6.752   2.207   2.847  0.7297 -0.1760 -0.8951
    5CHTO    O6 2079   6.619   2.278   2.728 -0.1418  0.2048 -0.1890
    5CHTO    H1 2080   6.594   2.188   2.719  0.5667 -0.2444  2.0500
    5CHTO    C3 2081   6.868   2.317   2.682  0.1974 -0.2975 -0.2924
    5CHTO   H16 2082   6.850   2.403   2.615  2.6121 -0.0649 -0.6789
    5CHTO    N1 2083   6.879   2.190   2.600 -0.1352 -0.1499  0.0424
    5CHTO    H8 2084   6.791   2.127   2.607 -0.6411  0.4770 -0.6488
    5CHTO    H9 2085   6.966   2.140   2.639 -1.4874 -4.2781 -1.9306
    5CHTO    C4 2086   6.999   2.358   2.763  0.1933 -0.3843 -0.4913
    5CHTO   H17 2087   7.030   2.275   2.826 -0.6430 -2.9992 -3.3675
    5CHTO    O1 2088   6.975   2.474   2.843  0.0379 -0.0650  0.0393
    5CHTO    C5 2089   6.888   2.451   2.949 -1.0541  0.1675  0.0613
    5CHTO   H18 2090   6.929   2.362   2.995 -0.1457  0.4516 -0.1810
    5CHTO   C16 2091   6.898   2.574   3.043 -0.1238 -0.0070  0.0910
    5CHTO   O11 2092   7.025   2.567   3.112 -0.0471  0.0166  0.2021
    5CHTO    H5 2093   7.017   2.501   3.179 -0.1306  0.0578  0.2325
    5CHTO    O3 2094   7.100   2.397   2.671 -0.0442 -0.4162 -0.1242
    5CHTO    C6 2095   7.228   2.453   2.713  0.1672  0.3551 -0.2690
    5CHTO   H19 2096   7.234   2.510   2.806  4.4422 -1.5915  0.7741
    5CHTO    C8 2097   7.337   2.335   2.733  0.9643  0.4161 -1.1008
    5CHTO   H21 2098   7.334   2.273   2.644 -0.9477 -0.1597 -0.6509
    5CHTO    O7 2099   7.308   2.257   2.853 -0.1692  0.1609  0.6270
    5CHTO    H2 2100   7.316   2.165   2.837  1.2755  0.3213  0.3370
    5CHTO   C12 2101   7.481   2.400   2.720 -0.4028 -0.1436  0.2465
    5CHTO   H25 2102   7.489   2.463   2.810 -0.2670  0.4719 -0.1894
    5CHTO    N3 2103   7.581   2.287   2.730 -0.2577  0.0836 -0.0529
    5CHTO   H12 2104   7.540   2.190   2.707 -2.3500  0.7862  0.6387
    5CHTO   H13 2105   7.631   2.281   2.826 -3.1172  1.8453  1.5895
    5CHTO   C15 2106   7.493   2.494   2.597  0.1372  0.3764  0.3745
    5CHTO   H28 2107   7.489   2.439   2.503 -1.8032  1.2802 -0.1011
    5CHTO   O10 2108   7.617   2.565   2.606  0.2870  0.9016 -0.5806
    5CHTO    H4 2109   7.673   2.495   2.578  0.7125  0.3659  1.5414
    5CHTO    O5 2110   7.401   2.602   2.601  0.2572  0.2889  0.0418
    5CHTO   C10 2111   7.268   2.550   2.598  0.0564  0.7389 -0.1206
    5CHTO   H23 2112   7.253   2.492   2.507 -0.6106 -1.6575  1.4852
    5CHTO   C17 2113   7.166   2.663   2.579 -0.0235  0.0121 -0.6402
    5CHTO   O12 2114   7.169   2.749   2.696  0.7266  0.4539 -0.3569
    5CHTO    H6 2115   7.090   2.797   2.713 -0.9640 -3.0141  2.3850
    6CHTO  H203 2116   5.442   4.348   0.099  0.8455 -0.2632 -0.9842
    6CHTO   O82 2117   5.476   4.348   0.186 -0.0841  0.7660 -0.6126
    6CHTO  C123 2118   5.528   4.476   0.230  0.0115  0.1828  0.5168
    6CHTO  H227 2119   5.569   4.528   0.143  0.6787 -1.5053 -0.2020
    6CHTO   O77 2120   5.413   4.541   0.286  0.3262  0.6170 -0.4294
    6CHTO  C118 2121   5.437   4.669   0.346 -0.0537 -0.4963 -0.0077
    6CHTO  H222 2122   5.480   4.736   0.270 -4.5017 -0.6725 -2.8977
    6CHTO  C125 2123   5.294   4.736   0.383 -0.6996 -0.0778  0.1778
    6CHTO   O84 2124   5.214   4.752   0.266 -0.4926  0.2106 -0.3079
    6CHTO  H205 2125   5.203   4.663   0.238  0.4232  0.4836 -1.5744
    6CHTO  C114 2126   5.534   4.659   0.467 -0.0987  0.1538  0.8888
    6CHTO  H218 2127   5.495   4.589   0.541 -0.4889 -0.8521 -0.2279
    6CHTO  C116 2128   5.664   4.595   0.416 -0.2860  0.4959 -0.1126
    6CHTO  H220 2129   5.726   4.651   0.343 -1.4251 -0.9973 -2.2928
    6CHTO   O79 2130   5.741   4.590   0.539 -0.2488  0.7338 -0.6901
    6CHTO  H201 2131   5.825   4.548   0.537 -0.3384  0.2228  2.5109
    6CHTO  C120 2132   5.635   4.456   0.348  0.4438 -0.1166 -0.2288
    6CHTO  H224 2133   5.595   4.390   0.428  0.1314  1.0279  0.5678
    6CHTO   N21 2134   5.756   4.400   0.299 -0.3632 -0.3880  0.7380
    6CHTO  H211 2135   5.824   4.470   0.254 -0.1082 -0.0795  1.5845
    6CHTO  H212 2136   5.730   4.323   0.228  0.3680 -0.3830  0.4607
    6CHTO   O75 2137   5.548   4.791   0.513  0.5058 -0.1310  0.4224
    6CHTO  C112 2138   5.542   4.821   0.664 -0.1358 -0.0925  0.2640
    6CHTO  H216 2139   5.629   4.771   0.710 -0.1742  1.5078  2.1512
    6CHTO   O73 2140   5.421   4.762   0.711 -0.3599  0.5692  0.6659
    6CHTO  C113 2141   5.399   4.791   0.852 -0.6471  0.1085  0.6788
    6CHTO  H217 2142   5.487   4.753   0.909 -0.5659  1.7784  1.6746
    6CHTO  C124 2143   5.283   4.702   0.903  0.3530 -0.0068 -0.9018
    6CHTO   O83 2144   5.308   4.567   0.872 -0.4106  0.4069 -0.1537
    6CHTO  H204 2145   5.316   4.561   0.779  2.4475  2.4575 -0.0692
    6CHTO  C109 2146   5.377   4.934   0.875 -1.0788  0.0701  0.6076
    6CHTO  H213 2147   5.300   4.972   0.807 -0.6451 -1.6259 -0.8761
    6CHTO  C110 2148   5.517   5.009   0.845 -0.3924 -0.3315 -0.0053
    6CHTO  H214 2149   5.597   4.965   0.905 -0.2520 -1.5497 -1.0544
    6CHTO   O78 2150   5.514   5.141   0.874 -0.0604  0.6246  0.5611
    6CHTO  H200 2151   5.482   5.158   0.961 -0.2239 -1.8528  1.0221
    6CHTO  C111 2152   5.550   4.982   0.696 -0.1100  0.5373  0.1087
    6CHTO  H215 2153   5.471   5.023   0.630  2.2005  0.4928 -2.7689
    6CHTO   N19 2154   5.679   5.035   0.648 -0.3822  0.1570 -0.1740
    6CHTO  H207 2155   5.689   5.031   0.540  0.8150  1.2167 -0.1158
    6CHTO  H208 2156   5.701   5.130   0.694 -0.1551 -0.4400  0.9592
    6CHTO   O74 2157   5.342   4.958   1.009  0.0794  0.3023 -0.1094
    6CHTO  C115 2158   5.246   5.093   1.031 -0.6523 -0.2309 -0.4861
    6CHTO  H219 2159   5.257   5.161   0.947  0.2262 -0.9337 -0.9531
    6CHTO   O76 2160   5.108   5.055   1.027 -0.2236  0.0518  0.0453
    6CHTO  C122 2161   5.076   4.959   1.133  0.5896 -0.2795  0.1981
    6CHTO  H226 2162   5.114   4.860   1.108  1.6585  0.4795 -1.2333
    6CHTO  C126 2163   4.917   4.942   1.140 -0.2029  0.4089 -0.0562
    6CHTO   O85 2164   4.851   5.060   1.185  0.3533 -0.2597  1.0062
    6CHTO  H206 2165   4.801   5.040   1.261  0.1199 -1.6670  0.4926
    6CHTO  C121 2166   5.132   4.993   1.274 -0.5419 -0.0214 -0.0120
    6CHTO  H225 2167   5.047   4.981   1.344  0.1350 -1.9435  0.4980
    6CHTO   O81 2168   5.234   4.901   1.302  0.0763  0.2672  0.0792
    6CHTO  H202 2169   5.236   4.872   1.391 -2.2356 -1.9326 -0.4968
    6CHTO  C119 2170   5.182   5.143   1.280  0.5771 -0.6942  0.3943
    6CHTO  H223 2171   5.089   5.197   1.267 -0.4814 -2.3922  0.8193
    6CHTO  C117 2172   5.282   5.175   1.164  0.2441  0.0272 -0.5195
    6CHTO  H221 2173   5.387   5.149   1.178  0.2998  1.4646  1.9976
    6CHTO   N20 2174   5.293   5.324   1.152 -0.1690  0.5578  0.4271
    6CHTO  H209 2175   5.388   5.356   1.192 -0.0747 -0.3466  0.9414
    6CHTO  H210 2176   5.296   5.364   1.052 -0.3704  0.2344  0.2898
    6CHTO   O80 2177   5.224   5.191   1.430 -0.0138 -0.1986 -0.0648
    6CHTO  C103 2178   5.104   5.218   1.551  0.1370  1.0662 -0.0660
    6CHTO  H190 2179   5.139   5.292   1.622  1.0703  0.4296  0.1469
    6CHTO  C101 2180   4.952   5.259   1.519 -0.8639 -0.1936 -0.1797
    6CHTO  H188 2181   4.911   5.188   1.448 -2.8187 -0.0828  0.8218
    6CHTO   O68 2182   4.947   5.386   1.465  0.1445 -0.2178  0.6905
    6CHTO  H168 2183   4.971   5.453   1.527  0.2020 -0.4220  0.8892
    6CHTO   C99 2184   4.861   5.245   1.652 -0.3771 -0.4120  0.0985
    6CHTO  H186 2185   4.898   5.316   1.728 -0.6006 -2.1628  1.8754
    6CHTO   N17 2186   4.714   5.282   1.638  0.1778  0.4738  0.4385
    6CHTO  H174 2187   4.711   5.373   1.580 -1.9211  0.1567  0.0125
    6CHTO  H175 2188   4.668   5.297   1.735 -0.5712 -0.4558  0.2359
    6CHTO   C97 2189   4.882   5.100   1.715 -0.4407  0.0305 -0.5565
    6CHTO  H184 2190   4.845   5.033   1.637 -0.3547  1.5474 -1.9222
    6CHTO   O64 2191   5.029   5.082   1.744  0.6059 -0.0832  0.1850
    6CHTO  C104 2192   5.112   5.080   1.624  0.5621  0.0476  0.5760
    6CHTO  H191 2193   5.078   4.999   1.560  1.0372 -0.1338  0.5520
    6CHTO  C108 2194   5.257   5.038   1.666 -0.5174 -0.5185  0.5882
    6CHTO   O71 2195   5.307   5.125   1.769 -0.9894 -0.2822 -0.8308
    6CHTO  H171 2196   5.265   5.103   1.850  0.4586 -0.1089 -0.0118
    6CHTO   O62 2197   4.805   5.080   1.836  0.7408  0.0686 -0.0631
    6CHTO   C91 2198   4.769   4.949   1.880 -0.3849 -0.2578  0.1696
    6CHTO  H178 2199   4.763   4.953   1.989 -0.5768  0.5653  0.1289
    6CHTO   C92 2200   4.875   4.836   1.853 -0.3955 -0.7706  0.0734
    6CHTO  H179 2201   4.905   4.846   1.748 -0.1549 -3.2810 -0.1201
    6CHTO   O66 2202   4.987   4.875   1.939 -0.3645  0.3732  0.1827
    6CHTO  H166 2203   5.063   4.821   1.926 -2.0169 -2.1671  0.7817
    6CHTO   C93 2204   4.819   4.689   1.880 -0.0185 -0.6502  0.0473
    6CHTO  H180 2205   4.804   4.676   1.988 -0.6729  0.5475  0.1094
    6CHTO   N16 2206   4.916   4.582   1.843 -0.3867  0.6650  0.5594
    6CHTO  H172 2207   4.873   4.488   1.874  1.8424 -0.2769  0.9404
    6CHTO  H173 2208   5.012   4.596   1.891 -0.1036 -1.2234  0.5902
    6CHTO   C94 2209   4.683   4.672   1.805 -0.2503 -0.3096  0.7419
    6CHTO  H181 2210   4.696   4.669   1.697 -0.7476 -0.5487  0.6829
    6CHTO   O61 2211   4.589   4.773   1.849  0.5632 -0.1748  0.3143
    6CHTO   C95 2212   4.629   4.908   1.822 -0.2484 -0.0420  0.4655
    6CHTO  H182 2213   4.644   4.919   1.715  0.9334 -0.3705  0.5915
    6CHTO  C106 2214   4.511   5.005   1.870  0.0713 -0.2817  0.0141
    6CHTO   O69 2215   4.483   5.008   2.009  0.0887 -0.2957  0.2099
    6CHTO  H169 2216   4.437   5.085   2.038  0.5931 -1.0410  3.1905
    6CHTO   O63 2217   4.610   4.531   1.856 -0.2169 -0.6496  0.0474
    6CHTO   C96 2218   4.510   4.468   1.743 -0.1628  0.4119 -0.1287
    6CHTO  H183 2219   4.533   4.513   1.647  0.1326  1.0224  0.2231
    6CHTO   C98 2220   4.353   4.481   1.757 -0.5996 -0.4010 -0.6835
    6CHTO  H185 2221   4.313   4.447   1.853  0.3734  2.3295  0.7314
    6CHTO   O67 2222   4.319   4.625   1.754 -0.1337  0.3518  0.0138
    6CHTO  H167 2223   4.375   4.675   1.811 -0.2105 -1.9208  2.1503
    6CHTO  C102 2224   4.266   4.403   1.642  0.4598 -0.1119  0.0280
    6CHTO  H189 2225   4.267   4.475   1.558  0.4894  1.0967  1.0529
    6CHTO   N18 2226   4.123   4.388   1.677  0.2571  0.2667  0.0674
    6CHTO  H176 2227   4.087   4.290   1.705  0.7431 -0.6043 -2.2256
    6CHTO  H177 2228   4.101   4.459   1.756  1.8881  0.6090  0.2208
    6CHTO  C105 2229   4.341   4.273   1.607  0.0217  0.7505  0.5669
    6CHTO  H192 2230   4.278   4.184   1.604  1.3944 -0.2058 -0.5217
    6CHTO   O65 2231   4.450   4.225   1.692  0.3800 -0.2393 -0.3979
    6CHTO  C100 2232   4.546   4.314   1.749 -0.2874  0.2368  0.3756
    6CHTO  H187 2233   4.549   4.289   1.856  1.4055  1.0312  0.5316
    6CHTO  C107 2234   4.685   4.276   1.691 -0.2109 -0.9802  0.4231
    6CHTO   O70 2235   4.738   4.153   1.739 -0.0241 -0.0221  0.0605
    6CHTO  H170 2236   4.831   4.163   1.736  0.0133 -0.8872 -3.0668
    6CHTO   O57 2237   4.401   4.303   1.465  0.2844 -0.1635 -0.2042
    6CHTO   C85 2238   4.370   4.214   1.351  0.0848 -0.2621 -0.0740
    6CHTO  H157 2239   4.284   4.160   1.395  0.1179  0.7300  1.2215
    6CHTO   C83 2240   4.497   4.117   1.332  0.2707 -0.3089 -0.5283
    6CHTO  H155 2241   4.490   4.046   1.414 -0.0088 -0.3687 -0.6055
    6CHTO   O56 2242   4.617   4.189   1.353  0.5462  0.2249  0.0513
    6CHTO  H135 2243   4.680   4.150   1.410  0.9539  0.9056  0.0707
    6CHTO   C81 2244   4.492   4.041   1.197  0.8832  0.9494 -0.2036
    6CHTO  H153 2245   4.407   3.972   1.200  2.5106 -1.1743 -1.4582
    6CHTO   N14 2246   4.603   3.947   1.179 -0.2041 -0.0821 -0.2362
    6CHTO  H141 2247   4.670   3.968   1.259 -0.8789  0.4933  0.1888
    6CHTO  H142 2248   4.653   3.978   1.089 -0.1106 -0.8740 -0.4601
    6CHTO   C79 2249   4.471   4.141   1.079  0.3812  0.4530 -0.1753
    6CHTO  H151 2250   4.452   4.085   0.988 -3.2585 -0.5701  1.0973
    6CHTO   O52 2251   4.337   4.199   1.101  0.4600 -0.2014 -0.2826
    6CHTO   C86 2252   4.329   4.291   1.215  0.8237 -0.2828  0.4314
    6CHTO  H158 2253   4.396   4.374   1.185 -0.8495  0.6339 -0.8066
    6CHTO   C90 2254   4.184   4.343   1.219  0.9264 -0.0048  0.3949
    6CHTO   O60 2255   4.147   4.437   1.116 -0.6207 -0.0616  0.5000
    6CHTO  H138 2256   4.073   4.483   1.150  1.3642  4.1514 -0.5831
    6CHTO   O50 2257   4.569   4.243   1.064 -0.1358  0.6480 -0.3504
    6CHTO   C73 2258   4.659   4.316   0.985  0.1894 -1.2159  0.0971
    6CHTO  H145 2259   4.605   4.363   0.901 -0.9463 -1.9900  0.3802
    6CHTO   C74 2260   4.773   4.239   0.915 -0.2287 -0.3241  0.7419
    6CHTO  H146 2261   4.738   4.155   0.853 -2.0654  1.3416 -0.5177
    6CHTO   O54 2262   4.837   4.333   0.818 -0.3696 -0.4182 -0.3513
    6CHTO  H133 2263   4.777   4.336   0.746  0.9357 -0.8420 -1.4624
    6CHTO   C75 2264   4.879   4.191   1.024 -0.6897  0.2379  0.0988
    6CHTO  H147 2265   4.827   4.118   1.088  1.9045 -2.3375 -0.6069
    6CHTO   N13 2266   4.999   4.129   0.965 -0.1703  0.4649 -0.0859
    6CHTO  H139 2267   5.079   4.190   0.925  0.3555  0.2643  0.6551
    6CHTO  H140 2268   5.043   4.061   1.036  0.6368 -0.1690 -1.1680
    6CHTO   C76 2269   4.923   4.303   1.122  0.2712  0.1176 -0.5558
    6CHTO  H148 2270   4.987   4.373   1.067  0.4983  1.0484  0.8740
    6CHTO   O49 2271   4.806   4.370   1.178 -0.0048 -0.3070 -0.1594
    6CHTO   C77 2272   4.728   4.433   1.076  0.1939  0.4338  0.1015
    6CHTO  H149 2273   4.786   4.495   1.009 -0.7408 -1.4969 -2.5758
    6CHTO   C88 2274   4.626   4.526   1.135  0.3406  0.1424 -0.1394
    6CHTO   O58 2275   4.675   4.636   1.231 -0.7251  0.1596  0.1150
    6CHTO  H136 2276   4.679   4.715   1.181 -1.7665 -0.0175 -0.2642
    6CHTO   O51 2277   4.985   4.230   1.252 -0.6020  0.3210 -0.9842
    6CHTO   C78 2278   5.098   4.299   1.336  0.2614  0.1049  0.0382
    6CHTO  H150 2279   5.121   4.238   1.426  1.3989 -0.2300 -0.4586
    6CHTO   C80 2280   5.068   4.442   1.378  0.3624  0.4241  0.2593
    6CHTO  H152 2281   5.044   4.498   1.284 -0.8906  1.8257  1.3924
    6CHTO   O55 2282   4.942   4.444   1.450 -0.0925 -0.6292 -0.2798
    6CHTO  H134 2283   4.949   4.403   1.534  0.2044 -0.5718 -0.2781
    6CHTO   C84 2284   5.185   4.500   1.463 -0.1964 -0.0065 -0.1150
    6CHTO  H156 2285   5.199   4.429   1.545 -0.5732 -0.2653 -0.2740
    6CHTO   N15 2286   5.156   4.640   1.522  0.2594  0.0595  0.4840
    6CHTO  H143 2287   5.178   4.721   1.456 -1.3553 -0.0368 -0.1939
    6CHTO  H144 2288   5.054   4.649   1.552 -0.0505 -0.7951 -0.2887
    6CHTO   C87 2289   5.307   4.502   1.368  0.5488 -0.2573  0.9451
    6CHTO  H159 2290   5.290   4.568   1.283  2.2636  0.3360  1.0293
    6CHTO   O53 2291   5.335   4.355   1.323 -0.2899  0.2834 -0.0199
    6CHTO   C82 2292   5.225   4.286   1.253  0.1868  0.2276 -0.4798
    6CHTO  H154 2293   5.210   4.327   1.154  1.1112 -1.4295 -1.3272
    6CHTO   C89 2294   5.266   4.141   1.237  0.5084  0.4653  0.1463
    6CHTO   O59 2295   5.355   4.128   1.125 -0.0573  0.3287 -0.4935
    6CHTO  H137 2296   5.367   4.038   1.101  0.8654 -0.8713  4.0572
    6CHTO   O45 2297   5.434   4.557   1.444  0.1609  0.0083 -0.5205
    6CHTO   C67 2298   5.519   4.647   1.372 -0.0032 -0.5773  0.2318
    6CHTO  H124 2299   5.477   4.679   1.276 -1.4384  0.9716  1.3475
    6CHTO   C65 2300   5.530   4.776   1.460  0.2003  0.3495  0.1053
    6CHTO  H122 2301   5.427   4.794   1.488 -1.1138 -1.6435 -3.1306
    6CHTO   O44 2302   5.574   4.883   1.375 -0.4751 -0.4179 -0.6249
    6CHTO  H102 2303   5.589   4.964   1.421  0.0235 -0.2087 -1.1361
    6CHTO   C63 2304   5.610   4.741   1.588  1.0860 -0.0661  0.1662
    6CHTO  H120 2305   5.566   4.652   1.634  0.0865 -0.5051 -1.6274
    6CHTO   N11 2306   5.596   4.842   1.697 -0.1281  0.4093 -0.4803
    6CHTO  H108 2307   5.642   4.805   1.786 -0.7213  0.3118 -0.2148
    6CHTO  H109 2308   5.494   4.863   1.720  0.0808  0.5801  0.2920
    6CHTO   C61 2309   5.753   4.702   1.548 -0.2341 -0.6467  0.0062
    6CHTO  H118 2310   5.805   4.673   1.640 -1.7159 -2.1851  0.3874
    6CHTO   O40 2311   5.744   4.580   1.466  0.3227 -0.3015 -0.0866
    6CHTO   C68 2312   5.661   4.590   1.346 -0.2161  0.5723  0.2660
    6CHTO  H125 2313   5.643   4.487   1.309  1.2527  0.0220  1.0643
    6CHTO   C72 2314   5.744   4.668   1.245 -0.1520  0.8430  0.7323
    6CHTO   O48 2315   5.714   4.631   1.109  0.1181 -0.1597  0.1798
    6CHTO  H105 2316   5.789   4.660   1.062  1.0810 -1.6372  0.7457
    6CHTO   O38 2317   5.821   4.813   1.484  0.6219 -0.0132  0.1378
    6CHTO   C55 2318   5.920   4.891   1.554 -0.7129  0.3074 -0.2211
    6CHTO  H112 2319   5.920   4.867   1.661 -1.7469 -0.8264 -0.4555
    6CHTO   C56 2320   5.898   5.045   1.530  0.1744 -0.0417  0.5294
    6CHTO  H113 2321   5.899   5.057   1.421  1.0959  0.3138  0.5698
    6CHTO   O42 2322   5.766   5.090   1.579 -0.5910 -0.1262 -1.1868
    6CHTO  H100 2323   5.786   5.129   1.662  0.7310 -2.1835 -0.5066
    6CHTO   C57 2324   6.009   5.138   1.595  0.0366 -0.4945  0.1375
    6CHTO  H114 2325   6.009   5.138   1.704  3.0436  0.0834  0.1788
    6CHTO   N10 2326   5.991   5.283   1.566 -0.3684  0.1718 -0.3883
    6CHTO  H106 2327   5.887   5.309   1.577  0.2865  3.0443 -0.7606
    6CHTO  H107 2328   6.031   5.317   1.472 -1.8393  1.4828 -0.5383
    6CHTO   C58 2329   6.144   5.086   1.548 -0.2141 -0.3905 -0.0875
    6CHTO  H115 2330   6.154   5.099   1.438 -0.4541 -3.3016 -0.5032
    6CHTO   O37 2331   6.160   4.945   1.577  0.1589 -0.1896  0.2180
    6CHTO   C59 2332   6.062   4.865   1.509 -0.0376  0.0972 -0.0294
    6CHTO  H116 2333   6.073   4.881   1.402 -0.4222  3.5058  0.3644
    6CHTO   C70 2334   6.109   4.720   1.524  0.1560  0.6271  0.3066
    6CHTO   O46 2335   6.213   4.689   1.429  0.2744 -0.3129 -0.2440
    6CHTO  H103 2336   6.172   4.700   1.346 -0.1395 -1.1790 -0.1642
    6CHTO   O39 2337   6.279   5.183   1.629  0.0955  0.0221 -0.3314
    6CHTO   C60 2338   6.408   5.200   1.564  0.0263 -0.0113  0.8747
    6CHTO  H117 2339   6.438   5.111   1.509 -0.4352  0.1604  0.3486
    6CHTO   C62 2340   6.414   5.317   1.452  0.6512  0.4303 -0.3055
    6CHTO  H119 2341   6.334   5.297   1.378  1.2436 -0.0599 -0.8261
    6CHTO   O43 2342   6.378   5.444   1.510 -0.1100  0.4075  0.3349
    6CHTO  H101 2343   6.352   5.504   1.442 -1.8986 -0.4009  0.2830
    6CHTO   C66 2344   6.561   5.325   1.384 -0.5022 -0.4774  1.1184
    6CHTO  H123 2345   6.578   5.234   1.327  2.2463  1.6664 -1.6088
    6CHTO   N12 2346   6.580   5.441   1.290 -0.4468  0.1007  0.0833
    6CHTO  H110 2347   6.523   5.525   1.329 -0.6656 -0.3972  0.8696
    6CHTO  H111 2348   6.542   5.416   1.192  0.2685 -0.2864 -0.0890
    6CHTO   C69 2349   6.677   5.323   1.484  0.0656 -0.2897  0.4003
    6CHTO  H126 2350   6.689   5.424   1.528 -0.8139 -0.9604  2.2229
    6CHTO   O41 2351   6.654   5.217   1.601 -0.1731  0.4143  0.6919
    6CHTO   C64 2352   6.517   5.225   1.664 -0.6149 -0.5571 -0.3491
    6CHTO  H121 2353   6.505   5.330   1.700 -1.8548 -0.5951 -0.6221
    6CHTO   C71 2354   6.519   5.125   1.785 -0.2075  0.2118  0.5511
    6CHTO   O47 2355   6.588   5.192   1.896  0.2258 -0.5076  0.0764
    6CHTO  H104 2356   6.661   5.139   1.922  0.0995 -0.4582  0.5387
    6CHTO   O34 2357   6.818   5.294   1.410 -0.6678 -0.3929 -0.2835
    6CHTO   C49 2358   6.955   5.322   1.426 -0.5767  0.8214 -0.2285
    6CHTO   H91 2359   7.010   5.284   1.340  0.9347  0.2652  0.9558
    6CHTO   C47 2360   7.000   5.258   1.560 -0.5142 -0.1444  0.3483
    6CHTO   H89 2361   7.111   5.268   1.552 -0.3808 -0.9350  1.1668
    6CHTO   O33 2362   6.974   5.115   1.562  0.3149 -0.1200  0.0497
    6CHTO   H70 2363   7.007   5.065   1.490 -0.2691 -1.3191  0.6019
    6CHTO   C45 2364   6.945   5.337   1.696  0.1442 -0.3536  0.1886
    6CHTO   H87 2365   6.835   5.344   1.687  0.3058  0.0697 -1.9262
    6CHTO    N8 2366   6.981   5.267   1.827 -0.1229 -0.1120  0.2065
    6CHTO   H75 2367   7.005   5.315   1.921  1.0656  0.1045 -0.2043
    6CHTO   H76 2368   6.918   5.180   1.844  0.7130 -0.9611 -0.9277
    6CHTO   C43 2369   6.992   5.482   1.689 -0.1182  0.1170 -0.3093
    6CHTO   H85 2370   6.928   5.523   1.767  1.3366  0.8921  0.4997
    6CHTO   O29 2371   6.967   5.540   1.562  0.5487 -0.1249 -0.3779
    6CHTO   C50 2372   6.987   5.473   1.440  0.0280  0.2814  0.3944
    6CHTO   H92 2373   6.916   5.516   1.368 -3.0835 -2.0524  1.9012
    6CHTO   C54 2374   7.128   5.508   1.390  0.3299  0.1827  0.5968
    6CHTO   O36 2375   7.139   5.642   1.341  0.7970 -0.2705  0.8599
    6CHTO   H72 2376   7.229   5.658   1.317 -0.2724  4.2958 -0.5106
    6CHTO   O27 2377   7.133   5.498   1.717  0.0257  0.4557  0.1592
    6CHTO   C37 2378   7.217   5.597   1.774  0.1758 -0.2189 -0.2069
    6CHTO   H79 2379   7.310   5.599   1.716  0.2990 -1.5673 -0.0501
    6CHTO   C38 2380   7.167   5.740   1.753 -0.3504 -0.0754 -0.2054
    6CHTO   H80 2381   7.065   5.755   1.791 -0.1870 -1.1207  0.6675
    6CHTO   O31 2382   7.167   5.768   1.609  0.2488  0.3213  0.3514
    6CHTO   H68 2383   7.253   5.759   1.573  0.3768 -0.5784  0.8820
    6CHTO   C39 2384   7.257   5.848   1.829  0.3264 -0.6305  0.1202
    6CHTO   H81 2385   7.354   5.841   1.780 -0.8221 -0.1706 -2.2761
    6CHTO    N7 2386   7.215   5.988   1.815 -0.1104  0.3625  0.0987
    6CHTO   H73 2387   7.229   6.023   1.714 -0.3464 -1.0589 -0.4358
    6CHTO   H74 2388   7.107   5.988   1.828 -0.4598  0.6178 -2.4922
    6CHTO   C40 2389   7.266   5.807   1.985 -0.0402 -0.0582 -0.5882
    6CHTO   H82 2390   7.169   5.820   2.033 -0.3631  0.2024 -1.3075
    6CHTO   O26 2391   7.314   5.670   1.999  0.5852  0.0018  0.3132
    6CHTO   C41 2392   7.259   5.557   1.922 -0.2666 -0.4845  0.2740
    6CHTO   H83 2393   7.173   5.525   1.983 -1.1362  1.9183  0.3869
    6CHTO   C52 2394   7.366   5.447   1.923 -0.1291 -0.7988 -0.3973
    6CHTO   O35 2395   7.360   5.365   2.035 -0.1492  0.5614 -0.5342
    6CHTO   H71 2396   7.325   5.283   2.006 -0.7759  0.0715  1.5195
    6CHTO   O28 2397   7.361   5.885   2.059  0.5027  0.3050 -0.3656
    6CHTO   C42 2398   7.376   5.873   2.210 -0.2462 -0.2648  0.5205
    6CHTO   H84 2399   7.473   5.922   2.220 -0.7632  0.5433  1.6859
    6CHTO   C44 2400   7.379   5.736   2.282  0.8736  0.0817  0.1454
    6CHTO   H86 2401   7.300   5.676   2.238 -1.2426  3.4042 -0.7650
    6CHTO   O32 2402   7.513   5.689   2.248 -0.0187 -0.4024  0.3041
    6CHTO   H69 2403   7.510   5.643   2.167  0.7592 -0.4400  0.2961
    6CHTO   C48 2404   7.360   5.738   2.441 -0.4622  0.1967 -0.5916
    6CHTO   H90 2405   7.453   5.780   2.481  0.1158 -1.4527 -0.1498
    6CHTO    N9 2406   7.333   5.604   2.499  0.0380  0.3822 -0.8953
    6CHTO   H77 2407   7.227   5.607   2.517  0.2490  0.8821  0.2849
    6CHTO   H78 2408   7.356   5.527   2.427 -1.2006 -1.0255  0.1831
    6CHTO   C51 2409   7.253   5.847   2.484 -0.5620 -0.0906  0.4754
    6CHTO   H93 2410   7.156   5.807   2.456 -0.1862  0.1428 -1.1992
    6CHTO   O30 2411   7.278   5.975   2.423 -0.1199 -0.0455  0.0516
    6CHTO   C46 2412   7.269   5.970   2.273  0.4136 -0.0707 -0.3726
    6CHTO   H88 2413   7.169   5.937   2.246 -0.6377  0.7878  2.3286
    6CHTO   C53 2414   7.277   6.115   2.225 -0.4956  0.6143  0.3128
    6CHTO   O72 2415   7.405   6.167   2.258 -0.1687 -0.3580  0.3400
    6CHTO  H199 2416   7.459   6.164   2.182  0.0110 -1.0303  0.4963
    6CHTO   O22 2417   7.258   5.867   2.629  0.4541 -0.0644  0.0786
    6CHTO   C31 2418   7.137   5.887   2.714 -0.2135 -0.0358 -0.2246
    6CHTO   H59 2419   7.056   5.925   2.648  0.0341 -0.3620 -0.7291
    6CHTO   C29 2420   7.081   5.758   2.774  0.6973 -1.0971  0.7216
    6CHTO   H57 2421   7.165   5.713   2.829  1.4672 -0.6957 -0.1058
    6CHTO   O21 2422   7.053   5.667   2.665 -0.1390 -0.0003  0.5775
    6CHTO   H37 2423   7.037   5.582   2.699 -0.7023 -0.0716  0.1520
    6CHTO   C27 2424   6.957   5.781   2.872 -0.1375  0.3591 -0.0221
    6CHTO   H55 2425   6.872   5.815   2.811 -0.4123  1.2032  0.8214
    6CHTO    N5 2426   6.913   5.653   2.940 -0.5281 -0.3989  0.4567
    6CHTO   H43 2427   6.996   5.614   2.997  1.0968  0.8131 -1.0231
    6CHTO   H44 2428   6.906   5.583   2.858 -2.8354  0.2451  0.0706
    6CHTO   C25 2429   6.992   5.897   2.978  0.2057 -0.1349  0.0534
    6CHTO   H53 2430   7.076   5.866   3.042 -0.7334  0.2050  1.4760
    6CHTO   O17 2431   7.043   6.013   2.901  0.2596  0.3567  0.2723
    6CHTO   C32 2432   7.162   5.986   2.826  0.6599  0.1459  0.2603
    6CHTO   H60 2433   7.241   5.947   2.891  1.1232  1.8421  0.7559
    6CHTO   C36 2434   7.210   6.125   2.786 -0.0301 -0.5848  0.0490
    6CHTO   O25 2435   7.345   6.128   2.742 -0.4354  0.3502  0.2016
    6CHTO   H40 2436   7.352   6.209   2.697  0.9388  0.5904  0.8228
    6CHTO   O15 2437   6.874   5.936   3.056 -0.5746  0.0962  0.3482
    6CHTO   C19 2438   6.752   6.018   3.066 -0.0833  0.7208  0.4579
    6CHTO   H47 2439   6.730   6.017   3.173 -0.9361 -1.8608  0.2916
    6CHTO   C20 2440   6.763   6.170   3.018  0.5201  0.3952 -0.6544
    6CHTO   H48 2441   6.796   6.178   2.914  0.2308 -0.9992 -0.8591
    6CHTO   O19 2442   6.864   6.242   3.093 -0.4807  0.2931 -0.4134
    6CHTO   H35 2443   6.880   6.205   3.178 -1.0705 -1.1543 -0.9126
    6CHTO   C21 2444   6.623   6.250   3.034 -0.8007 -0.2789 -0.3038
    6CHTO   H49 2445   6.594   6.266   3.138  0.2514  1.4342 -0.2517
    6CHTO    N4 2446   6.635   6.385   2.973  0.4238 -0.9573  0.4480
    6CHTO   H41 2447   6.700   6.380   2.887 -0.6154  0.7601 -0.4677
    6CHTO   H42 2448   6.677   6.455   3.044  2.3326 -1.4298 -0.1737
    6CHTO   C22 2449   6.507   6.171   2.967  0.3373 -0.5294 -0.1718
    6CHTO   H50 2450   6.514   6.177   2.858  1.3917 -3.3784 -0.3149
    6CHTO   O14 2451   6.504   6.031   3.009 -0.1739  0.4387  0.4352
    6CHTO   C23 2452   6.632   5.956   2.994 -0.1264  0.3375  0.3362
    6CHTO   H51 2453   6.655   5.938   2.888  0.2562  3.0167 -0.0551
    6CHTO   C34 2454   6.603   5.810   3.037  0.4933 -0.0668  0.6192
    6CHTO   O23 2455   6.497   5.767   2.958 -0.0416  0.5558 -0.0554
    6CHTO   H38 2456   6.512   5.765   2.865 -2.6997 -2.7263 -0.5192
    6CHTO   O16 2457   6.382   6.217   3.023 -0.0458 -0.6850 -0.0729
    6CHTO   C24 2458   6.261   6.212   2.927  0.4345 -0.2025  0.4347
    6CHTO   H52 2459   6.284   6.159   2.834  0.5545  1.4723 -0.5045
    6CHTO   C26 2460   6.228   6.354   2.879  0.8476  0.4381  0.5080
    6CHTO   H54 2461   6.223   6.426   2.964 -0.3963 -0.2388  1.0364
    6CHTO   O20 2462   6.345   6.402   2.803  0.2253 -0.4797 -0.6854
    6CHTO   H36 2463   6.425   6.381   2.847  0.3199 -0.0461 -0.6564
    6CHTO   C30 2464   6.093   6.359   2.798  0.2112  0.3083  0.0343
    6CHTO   H58 2465   6.102   6.329   2.693  1.8495  0.7698  0.0414
    6CHTO    N6 2466   6.046   6.502   2.782 -0.3583 -0.0594 -0.1328
    6CHTO   H45 2467   6.045   6.550   2.879 -0.1427 -0.4087  0.0417
    6CHTO   H46 2468   6.118   6.551   2.718 -1.6381 -0.7469 -2.1083
    6CHTO   C33 2469   5.983   6.273   2.863  0.1183  0.4057  0.2450
    6CHTO   H61 2470   5.951   6.323   2.955 -0.2110  0.5642  0.0459
    6CHTO   O18 2471   6.030   6.141   2.901 -0.0880 -0.5052 -0.1229
    6CHTO   C28 2472   6.140   6.136   2.995  0.1956  0.2379  0.2069
    6CHTO   H56 2473   6.109   6.196   3.081  0.1155 -0.3032  0.5593
    6CHTO   C35 2474   6.171   5.989   3.031  0.0888  0.2780 -0.4289
    6CHTO   O24 2475   6.071   5.916   3.105 -0.2213 -0.0861 -0.0821
    6CHTO   H39 2476   6.045   5.967   3.179 -0.3757  3.2883 -2.3560
    6CHTO    O9 2477   5.862   6.263   2.777 -0.4227 -0.2140 -0.1270
    6CHTO   C13 2478   5.740   6.331   2.827  0.3009 -0.2436 -0.5928
    6CHTO   H26 2479   5.774   6.416   2.888  0.5616 -1.5190  1.0648
    6CHTO   C11 2480   5.666   6.217   2.916  0.1872 -0.2240 -0.3300
    6CHTO   H24 2481   5.734   6.184   2.997  1.8622 -1.1992 -2.0963
    6CHTO    O8 2482   5.640   6.099   2.839 -0.2561  0.2451  0.3008
    6CHTO    H3 2483   5.559   6.111   2.794 -0.1745  0.9762  0.3403
    6CHTO    C9 2484   5.541   6.277   2.987 -0.0897  0.2532  0.5579
    6CHTO   H22 2485   5.577   6.348   3.062  0.2325  0.2950  0.3645
    6CHTO    N2 2486   5.471   6.182   3.079  0.1604  0.1881 -0.2142
    6CHTO   H10 2487   5.452   6.229   3.175 -0.2403  1.6313 -0.9800
    6CHTO   H11 2488   5.385   6.130   3.039  0.6067 -0.4715 -0.3135
    6CHTO    C7 2489   5.451   6.340   2.874 -0.0877  0.2948  0.0102
    6CHTO   H20 2490   5.455   6.450   2.892  0.1952  0.4515 -0.9802
    6CHTO    O4 2491   5.502   6.315   2.738  0.2116  0.4030 -0.0743
    6CHTO   C14 2492   5.632   6.377   2.721  0.0083 -0.1081 -0.3778
    6CHTO   H27 2493   5.618   6.487   2.732 -1.0313 -0.2784  0.0780
    6CHTO   C18 2494   5.689   6.347   2.576  0.4959  0.2671 -0.0304
    6CHTO   O13 2495   5.636   6.431   2.473  0.3171  0.7378 -0.5004
    6CHTO    H7 2496   5.632   6.521   2.500  0.4748  0.5726  0.0815
    6CHTO    O2 2497   5.294   6.317   2.878  0.7842 -0.1498  0.7829
    6CHTO    C1 2498   5.214   6.316   2.758  0.1029  0.0028  0.1598
    6CHTO   H14 2499   5.263   6.252   2.682 -1.8492 -1.1606 -0.1704
    6CHTO    C2 2500   5.199   6.464   2.703  0.5248 -0.3466  1.3276
    6CHTO   H15 2501   5.176   6.526   2.791 -1.1452 -1.1897  1.5000
    6CHTO    O6 2502   5.325   6.501   2.631 -0.2235 -0.0117  0.2124
    6CHTO    H1 2503   5.391   6.506   2.698  0.4223  2.0865 -0.5558
    6CHTO    C3 2504   5.085   6.482   2.597 -0.0794 -0.3247 -0.0340
    6CHTO   H16 2505   5.117   6.448   2.497  3.4346  0.5212  0.7715
    6CHTO    N1 2506   5.048   6.628   2.581 -0.2837  0.4256 -0.2163
    6CHTO    H8 2507   5.044   6.661   2.478  1.3671 -1.4261 -0.9034
    6CHTO    H9 2508   5.117   6.685   2.642 -1.1978 -0.5323  1.7484
    6CHTO    C4 2509   4.954   6.396   2.639  0.3353 -0.4283  0.0367
    6CHTO   H17 2510   4.922   6.437   2.735  2.2526  2.7443 -0.5954
    6CHTO    O1 2511   4.997   6.258   2.663 -0.1678 -0.2682  0.3744
    6CHTO    C5 2512   5.077   6.251   2.780 -0.2906  0.3779  0.2534
    6CHTO   H18 2513   5.016   6.289   2.862  0.4313  0.5018  0.7380
    6CHTO   C16 2514   5.096   6.106   2.809 -0.1938 -0.1339  0.5611
    6CHTO   O11 2515   4.977   6.029   2.787 -0.0710 -0.3101 -0.2135
    6CHTO    H5 2516   4.971   6.009   2.696 -0.3271  0.1958 -0.3098
    6CHTO    O3 2517   4.851   6.399   2.542  0.3765 -0.1546 -0.1426
    6CHTO    C6 2518   4.705   6.407   2.558  0.0024 -0.2805  0.0841
    6CHTO   H19 2519   4.660   6.350   2.477  2.7544 -0.8479 -1.1134
    6CHTO    C8 2520   4.650   6.343   2.689  0.0997 -0.0484  0.2486
    6CHTO   H21 2521   4.705   6.386   2.773  2.6104 -2.2791 -0.1839
    6CHTO    O7 2522   4.691   6.203   2.681  0.2506 -0.0978 -0.3158
    6CHTO    H2 2523   4.740   6.178   2.757  1.0009  1.7544 -0.1563
    6CHTO   C12 2524   4.496   6.351   2.687 -0.2308  0.0102  0.1122
    6CHTO   H25 2525   4.466   6.301   2.593 -2.0207 -2.3162  1.8620
    6CHTO    N3 2526   4.423   6.272   2.796  0.1949 -0.7271 -0.3843
    6CHTO   H12 2527   4.315   6.281   2.791  0.1493 -0.6372  0.6375
    6CHTO   H13 2528   4.462   6.302   2.892  0.2986  1.4068 -1.0791
    6CHTO   C15 2529   4.459   6.500   2.673  0.4371  0.7269 -0.1064
    6CHTO   H28 2530   4.476   6.556   2.766 -1.3994 -0.1475  0.7844
    6CHTO   O10 2531   4.327   6.523   2.636 -0.1005 -0.5779 -0.4158
    6CHTO    H4 2532   4.300   6.609   2.662  0.7946 -0.3110 -0.3317
    6CHTO    O5 2533   4.522   6.572   2.563 -0.2383 -0.3971 -0.0107
    6CHTO   C10 2534   4.657   6.556   2.547 -0.2913 -0.0203  0.8602
    6CHTO   H23 2535   4.716   6.613   2.618  0.3865 -1.0023  1.0943
    6CHTO   C17 2536   4.695   6.609   2.408  0.2055  0.3557 -0.2850
    6CHTO   O12 2537   4.608   6.563   2.302  0.0824  0.3685 -0.1508
    6CHTO    H6 2538   4.642   6.592   2.219  1.5995 -0.6773  0.1066
    7CHTO  H203 2539   4.764   1.683   0.038 -1.8763 -1.7346  1.1607
    7CHTO   O82 2540   4.738   1.719   0.120 -0.4277  0.5488  0.6515
    7CHTO  C123 2541   4.806   1.849   0.138  0.2500  0.1289  0.0874
    7CHTO  H227 2542   4.741   1.912   0.201 -2.1322 -0.7437 -1.4122
    7CHTO   O77 2543   4.920   1.824   0.208 -0.6236  0.1571 -0.8036
    7CHTO  C118 2544   5.015   1.933   0.223  0.0895  0.0767  0.7220
    7CHTO  H222 2545   4.955   1.991   0.295 -0.5774  0.6626 -0.2801
    7CHTO  C125 2546   5.137   1.866   0.291 -0.0132 -0.2534  0.0126
    7CHTO   O84 2547   5.120   1.850   0.433 -0.1534 -0.8524  0.3500
    7CHTO  H205 2548   5.198   1.885   0.472 -0.8969  0.0764  1.0340
    7CHTO  C114 2549   5.045   2.010   0.097  0.2183 -0.3589 -0.1148
    7CHTO  H218 2550   5.089   1.946   0.021 -1.4699 -1.4329 -0.2140
    7CHTO  C116 2551   4.906   2.055   0.035  0.4379  0.1989 -0.1442
    7CHTO  H220 2552   4.840   2.108   0.107  1.2636  0.2302  0.5904
    7CHTO   O79 2553   4.921   2.135  -0.085 -0.1240 -0.4555 -0.2932
    7CHTO  H201 2554   4.848   2.194  -0.094 -0.7259 -1.0412  0.5645
    7CHTO  C120 2555   4.837   1.919  -0.008  0.5224 -0.1500 -0.3352
    7CHTO  H224 2556   4.916   1.864  -0.064  0.6995  0.3135 -0.5414
    7CHTO   N21 2557   4.707   1.935  -0.087  0.0307 -0.2016 -0.0001
    7CHTO  H211 2558   4.618   1.882  -0.057  0.0319 -0.2688 -0.1160
    7CHTO  H212 2559   4.697   2.037  -0.121  0.3545 -1.0559 -2.7452
    7CHTO   O75 2560   5.134   2.115   0.142 -0.0578 -0.4308 -0.3975
    7CHTO  C112 2561   5.289   2.103   0.078  0.1826  0.4425 -0.5014
    7CHTO  H216 2562   5.293   2.026  -0.001  0.0161 -0.8877  0.7694
    7CHTO   O73 2563   5.374   2.068   0.193  0.4956 -0.2016  0.0711
    7CHTO  C113 2564   5.518   2.071   0.166  0.3943  0.0875 -0.2343
    7CHTO  H217 2565   5.535   2.003   0.080  0.9407  0.1290 -0.1603
    7CHTO  C124 2566   5.602   2.015   0.281 -0.6247 -0.5065  0.0512
    7CHTO   O83 2567   5.601   1.873   0.290 -0.0684  0.0336  0.1678
    7CHTO  H204 2568   5.577   1.839   0.373  0.3463 -1.9100 -0.4827
    7CHTO  C109 2569   5.566   2.212   0.124  0.3567  0.2459  0.0438
    7CHTO  H213 2570   5.554   2.280   0.210 -0.2379  1.4017 -0.9303
    7CHTO  C110 2571   5.484   2.245  -0.009 -0.7853  0.4994  0.7399
    7CHTO  H214 2572   5.512   2.191  -0.100 -3.2605 -1.1139  0.8994
    7CHTO   O78 2573   5.526   2.384  -0.053 -0.0998  0.1857 -0.3621
    7CHTO  H200 2574   5.461   2.429  -0.103 -0.5783  0.4488  0.4779
    7CHTO  C111 2575   5.335   2.242   0.017  0.6965  0.0791  0.2203
    7CHTO  H215 2576   5.316   2.320   0.093 -2.7184 -2.9644  2.6498
    7CHTO   N19 2577   5.245   2.273  -0.097  0.3823  0.3445  0.0934
    7CHTO  H207 2578   5.271   2.232  -0.193  1.1872 -0.4443  0.6440
    7CHTO  H208 2579   5.248   2.380  -0.115  1.0172 -0.0647 -2.4644
    7CHTO   O74 2580   5.710   2.200   0.096 -0.5110  0.1042  0.3636
    7CHTO  C115 2581   5.791   2.322   0.156 -0.1009  0.5278  0.8291
    7CHTO  H219 2582   5.737   2.413   0.127 -4.2891 -1.9146  0.4795
    7CHTO   O76 2583   5.793   2.319   0.323  0.0221  0.1118 -1.0039
    7CHTO  C122 2584   5.864   2.203   0.368  0.7680  0.0537  0.0140
    7CHTO  H226 2585   5.828   2.105   0.337  2.5501 -0.2958 -0.9857
    7CHTO  C126 2586   5.869   2.211   0.526  0.1430 -0.7049  0.1525
    7CHTO   O85 2587   5.930   2.091   0.575  0.1156 -0.2135  0.1172
    7CHTO  H206 2588   5.862   2.026   0.578  0.5078 -0.6874 -1.2754
    7CHTO  C121 2589   6.016   2.214   0.314 -0.9998  0.2919  0.9466
    7CHTO  H225 2590   6.062   2.313   0.337 -0.2258  0.4119 -0.9891
    7CHTO   O81 2591   6.099   2.107   0.357  0.4687 -0.5201 -0.3581
    7CHTO  H202 2592   6.060   2.024   0.335  1.3508 -0.7881 -0.9133
    7CHTO  C119 2593   6.015   2.203   0.151 -0.1884 -0.2309 -0.0266
    7CHTO  H223 2594   6.118   2.208   0.117 -0.6248 -0.7681 -1.4426
    7CHTO  C117 2595   5.933   2.316   0.082 -0.3164 -0.0129 -0.4044
    7CHTO  H221 2596   5.909   2.293  -0.021  0.4716 -0.0280 -0.5900
    7CHTO   N20 2597   6.002   2.449   0.082  0.1874  0.2697 -0.4940
    7CHTO  H209 2598   6.036   2.471   0.182  1.3477 -1.1758 -0.5476
    7CHTO  H210 2599   6.062   2.465  -0.006 -2.5897 -1.4792 -2.8094
    7CHTO   O80 2600   5.977   2.078   0.106  0.2982  0.3292 -0.9272
    7CHTO  C103 2601   6.002   2.039  -0.046 -0.1292 -0.6848  0.8314
    7CHTO  H190 2602   5.943   2.102  -0.113 -0.3553  0.7625  2.3518
    7CHTO  C101 2603   6.155   2.046  -0.088 -0.4341 -0.8222  0.1730
    7CHTO  H188 2604   6.204   2.006   0.001  0.0783 -2.1905 -0.7102
    7CHTO   O68 2605   6.204   2.187  -0.107 -0.6749  0.0139 -0.5892
    7CHTO  H168 2606   6.276   2.182  -0.167 -1.5966 -5.0001 -1.5272
    7CHTO   C99 2607   6.187   1.965  -0.210  0.3318  0.1988 -0.1631
    7CHTO  H186 2608   6.126   2.006  -0.293  1.4982 -0.4073 -1.3673
    7CHTO   N17 2609   6.330   1.962  -0.247  0.3463 -0.2252  0.0924
    7CHTO  H174 2610   6.382   1.913  -0.166  0.6537 -0.3185 -0.1573
    7CHTO  H175 2611   6.347   1.910  -0.340  0.6365 -1.6581  0.9316
    7CHTO   C97 2612   6.132   1.818  -0.184  0.7889 -0.2021  0.1923
    7CHTO  H184 2613   6.172   1.785  -0.087 -1.2130 -1.2762  0.6958
    7CHTO   O64 2614   5.992   1.837  -0.179  0.1545  0.0356 -0.1308
    7CHTO  C104 2615   5.942   1.887  -0.056 -0.5089 -0.1955  0.3182
    7CHTO  H191 2616   5.976   1.829   0.030  1.0530  0.8409  0.4322
    7CHTO  C108 2617   5.787   1.877  -0.066  0.1307 -0.1413 -0.6050
    7CHTO   O71 2618   5.735   1.747  -0.040 -0.8871 -0.0120  0.0314
    7CHTO  H171 2619   5.646   1.749  -0.072 -1.1389  1.7311  0.7790
    7CHTO   O62 2620   6.147   1.720  -0.294  1.0464  0.3199  0.0259
    7CHTO   C91 2621   6.161   1.577  -0.267  0.7447 -0.3391 -0.4826
    7CHTO  H178 2622   6.266   1.562  -0.242  0.4723  1.7555  2.1801
    7CHTO   C92 2623   6.122   1.494  -0.398 -0.1763  0.0366  0.0944
    7CHTO  H179 2624   6.155   1.545  -0.489 -0.3165  2.3379  1.3028
    7CHTO   O66 2625   6.196   1.373  -0.378 -0.1699 -0.6474 -0.5747
    7CHTO  H166 2626   6.240   1.350  -0.457 -2.6940 -1.7390 -1.6917
    7CHTO   C93 2627   5.966   1.471  -0.418 -0.0389  0.0935 -0.8538
    7CHTO  H180 2628   5.965   1.371  -0.462 -1.0340  0.6435 -2.1192
    7CHTO   N16 2629   5.901   1.569  -0.505  0.2629 -0.7844 -0.6196
    7CHTO  H172 2630   5.919   1.673  -0.484  1.9268 -1.1524 -0.1933
    7CHTO  H173 2631   5.803   1.543  -0.543 -1.0782  0.3333  1.9612
    7CHTO   C94 2632   5.891   1.453  -0.276  0.5964 -0.0425 -0.6723
    7CHTO  H181 2633   5.826   1.536  -0.250 -1.3911 -1.3538 -1.2663
    7CHTO   O61 2634   5.990   1.422  -0.166  0.2851  0.7296  0.0363
    7CHTO   C95 2635   6.079   1.520  -0.130 -0.2725  0.2009  0.2107
    7CHTO  H182 2636   6.021   1.598  -0.081 -2.5574  1.8855 -4.7483
    7CHTO  C106 2637   6.179   1.466  -0.020  0.2952  0.0552 -0.2189
    7CHTO   O69 2638   6.139   1.478   0.120  0.3643  0.0554  0.2948
    7CHTO  H169 2639   6.196   1.432   0.178 -1.1197 -0.0606  1.6948
    7CHTO   O63 2640   5.813   1.334  -0.293 -0.0446 -0.0210 -0.7388
    7CHTO   C96 2641   5.672   1.328  -0.193  0.5198 -0.2225 -0.6203
    7CHTO  H183 2642   5.618   1.422  -0.205  0.4808 -0.1898 -0.2130
    7CHTO   C98 2643   5.709   1.316  -0.039 -0.3043 -0.2289 -0.3951
    7CHTO  H185 2644   5.793   1.385  -0.021  0.7132 -1.5698  0.0386
    7CHTO   O67 2645   5.597   1.366   0.033 -0.0467 -0.3661  0.7424
    7CHTO  H167 2646   5.590   1.459   0.018  0.2845 -0.5180 -0.4413
    7CHTO  C102 2647   5.743   1.164   0.005  1.1729 -0.1440  0.1862
    7CHTO  H189 2648   5.719   1.162   0.113  2.0842 -3.1333  0.3849
    7CHTO   N18 2649   5.889   1.140  -0.001  0.2195 -0.4983 -0.3079
    7CHTO  H176 2650   5.921   1.039   0.018  0.5384 -0.5982 -1.3665
    7CHTO  H177 2651   5.935   1.179  -0.090 -1.3247  1.2170 -0.4005
    7CHTO  C105 2652   5.654   1.057  -0.069 -0.0296 -0.6525 -0.1122
    7CHTO  H192 2653   5.716   1.001  -0.138  1.0924  1.3702 -0.8069
    7CHTO   O65 2654   5.545   1.120  -0.145  0.0129 -0.6806  0.4066
    7CHTO  C100 2655   5.587   1.206  -0.251 -0.3722  0.2408  0.4959
    7CHTO  H187 2656   5.648   1.138  -0.313  0.9674 -0.4919  2.5801
    7CHTO  C107 2657   5.454   1.245  -0.322 -0.5348 -0.5075  0.4349
    7CHTO   O70 2658   5.473   1.308  -0.455  0.0573  0.1052 -0.1692
    7CHTO  H170 2659   5.387   1.314  -0.493  0.0066  1.7304  0.1704
    7CHTO   O57 2660   5.606   0.988   0.026  0.9645  0.1369  0.5159
    7CHTO   C85 2661   5.592   0.841   0.025 -0.1986 -0.9265  0.6502
    7CHTO  H157 2662   5.612   0.803  -0.077 -1.5066 -0.3148  0.1552
    7CHTO   C83 2663   5.445   0.802   0.050  0.5715 -0.9937  0.2600
    7CHTO  H155 2664   5.381   0.850  -0.024 -0.1152 -0.0269  1.4462
    7CHTO   O56 2665   5.403   0.865   0.173 -0.2308  0.3829 -0.1531
    7CHTO  H135 2666   5.370   0.810   0.242  1.7740  0.4725  0.9082
    7CHTO   C81 2667   5.426   0.651   0.046  0.2407 -0.5906  0.0735
    7CHTO  H153 2668   5.443   0.611  -0.054 -0.6739 -2.7857  0.7650
    7CHTO   N14 2669   5.280   0.609   0.054 -0.1035  0.4994  0.3746
    7CHTO  H141 2670   5.270   0.504   0.070 -0.2340  0.6120  1.0234
    7CHTO  H142 2671   5.230   0.621  -0.040 -0.6338 -1.5060  0.3784
    7CHTO   C79 2672   5.521   0.579   0.154  0.2172 -0.6385  0.5345
    7CHTO  H151 2673   5.530   0.474   0.124  2.2571  0.1753 -1.9352
    7CHTO   O52 2674   5.664   0.631   0.151  0.4517  0.7284  0.2403
    7CHTO   C86 2675   5.690   0.775   0.127 -0.0178  0.3136  0.4004
    7CHTO  H158 2676   5.683   0.825   0.227 -0.9575  0.7691  0.1141
    7CHTO   C90 2677   5.826   0.801   0.073  0.3430  0.2193  0.4831
    7CHTO   O60 2678   5.925   0.795   0.173 -0.1262 -0.0226  0.1718
    7CHTO  H138 2679   6.006   0.822   0.133  1.0284 -0.4541  2.1829
    7CHTO   O50 2680   5.482   0.586   0.289  0.6630  0.1254  0.2166
    7CHTO   C73 2681   5.529   0.486   0.379 -0.4034 -0.4031 -0.2357
    7CHTO  H145 2682   5.638   0.474   0.367 -0.0785  2.2743 -0.3433
    7CHTO   C74 2683   5.454   0.354   0.364 -0.0195  0.2451  0.0351
    7CHTO  H146 2684   5.478   0.315   0.265  2.2018  1.5482  0.0311
    7CHTO   O54 2685   5.508   0.262   0.467 -0.3330  0.0677  0.2399
    7CHTO  H133 2686   5.494   0.292   0.555 -0.5280  1.7986 -0.3469
    7CHTO   C75 2687   5.303   0.390   0.378 -0.5076  0.1457 -0.2633
    7CHTO  H147 2688   5.289   0.481   0.318  2.3398  0.0907 -1.1069
    7CHTO   N13 2689   5.221   0.281   0.322  0.2327 -0.3757  0.2825
    7CHTO  H139 2690   5.168   0.242   0.407 -0.1293 -0.5677 -0.0306
    7CHTO  H140 2691   5.149   0.327   0.257 -0.3006 -1.6591 -0.0387
    7CHTO   C76 2692   5.271   0.432   0.522 -0.1079  0.4479 -0.2928
    7CHTO  H148 2693   5.310   0.354   0.587 -0.6379  1.5398  1.3488
    7CHTO   O49 2694   5.352   0.555   0.544 -0.7243  0.6510 -0.3466
    7CHTO   C77 2695   5.498   0.544   0.521 -0.7792  0.0861 -0.0330
    7CHTO  H149 2696   5.537   0.471   0.592  0.0294 -0.6323 -1.1963
    7CHTO   C88 2697   5.559   0.685   0.545 -0.4391 -0.2264 -0.5404
    7CHTO   O58 2698   5.520   0.739   0.655  0.0026  0.0682  0.3662
    7CHTO  H136 2699   5.581   0.805   0.680 -1.1056  0.6765  1.5167
    7CHTO   O51 2700   5.119   0.466   0.541 -0.2902 -0.2732 -0.6916
    7CHTO   C78 2701   5.075   0.495   0.697  0.8206 -0.3684  0.2665
    7CHTO  H150 2702   5.158   0.510   0.770  1.4982  1.8975 -0.9376
    7CHTO   C80 2703   4.990   0.380   0.755 -0.2085 -0.1581  0.0661
    7CHTO  H152 2704   4.914   0.353   0.679  0.4975 -0.3773 -0.5542
    7CHTO   O55 2705   5.081   0.277   0.776  0.2860 -0.2255  0.0057
    7CHTO  H134 2706   5.133   0.258   0.700  0.1966 -1.3971  0.2232
    7CHTO   C84 2707   4.927   0.425   0.895 -0.0367  0.7397 -0.1657
    7CHTO  H156 2708   5.012   0.436   0.963 -0.4481  0.4790  0.3937
    7CHTO   N15 2709   4.825   0.324   0.943  0.4879  0.4754  0.0692
    7CHTO  H143 2710   4.764   0.356   1.025  0.0286  0.1962 -0.1562
    7CHTO  H144 2711   4.753   0.305   0.866 -1.1685  0.0409  1.6815
    7CHTO   C87 2712   4.845   0.553   0.888 -0.3761  0.3185  0.9468
    7CHTO  H159 2713   4.759   0.547   0.821  0.2711  1.0143  0.0306
    7CHTO   O53 2714   4.945   0.661   0.825 -0.2863  0.7335  0.6027
    7CHTO   C82 2715   4.988   0.622   0.692  0.2519 -0.1484  0.4494
    7CHTO  H154 2716   4.906   0.616   0.621 -0.6289 -3.7224  1.6725
    7CHTO   C89 2717   5.080   0.736   0.645 -0.1441 -0.1188  0.4215
    7CHTO   O59 2718   5.190   0.759   0.734  0.4859  0.0322 -0.5341
    7CHTO  H137 2719   5.164   0.814   0.805  1.2146 -0.7254  0.3293
    7CHTO   O45 2720   4.798   0.614   1.056 -0.5040  0.6132 -0.3223
    7CHTO   C67 2721   4.894   0.706   1.104  0.4654 -0.2383 -0.4688
    7CHTO  H124 2722   4.984   0.700   1.043  0.9996  0.1502  0.2645
    7CHTO   C65 2723   4.842   0.856   1.094  0.1234 -0.3516 -0.5655
    7CHTO  H122 2724   4.735   0.839   1.106  0.1134  0.1641  0.1329
    7CHTO   O44 2725   4.859   0.908   0.966  0.3851  0.3329  0.0796
    7CHTO  H102 2726   4.903   0.990   0.966 -2.8374  2.1545 -0.2885
    7CHTO   C63 2727   4.881   0.939   1.223 -0.5466 -0.0847 -0.3632
    7CHTO  H120 2728   4.809   0.907   1.299 -0.9674  0.5528 -0.4892
    7CHTO   N11 2729   4.843   1.084   1.222 -0.0140  0.9410  0.2535
    7CHTO  H108 2730   4.817   1.119   1.124 -0.1486 -0.5108 -0.2417
    7CHTO  H109 2731   4.755   1.087   1.283 -0.4470 -0.2604 -0.2943
    7CHTO   C61 2732   5.025   0.903   1.287  0.1157  0.2221 -0.7614
    7CHTO  H118 2733   5.022   0.948   1.387  0.2715 -0.1206 -0.6004
    7CHTO   O40 2734   5.043   0.757   1.301  0.1765  0.5012  0.3132
    7CHTO   C68 2735   4.938   0.673   1.253  0.0344  0.0662  0.1388
    7CHTO  H125 2736   4.847   0.680   1.316  0.4247 -3.5088  1.2206
    7CHTO   C72 2737   4.987   0.527   1.271 -0.7301  0.1024  0.3424
    7CHTO   O48 2738   5.121   0.520   1.225  0.3642 -0.1736 -0.1859
    7CHTO  H105 2739   5.177   0.573   1.279 -0.8707 -0.2357  1.2204
    7CHTO   O38 2740   5.129   0.969   1.214  0.0662 -0.4718 -0.0271
    7CHTO   C55 2741   5.265   0.973   1.267  0.1504  0.0033  0.4865
    7CHTO  H112 2742   5.273   0.895   1.345 -1.0331 -2.1065 -1.4244
    7CHTO   C56 2743   5.296   1.119   1.319  0.1453  0.2383  0.3606
    7CHTO  H113 2744   5.268   1.187   1.237 -1.0405 -0.4808  0.1561
    7CHTO   O42 2745   5.206   1.145   1.428 -0.0560 -0.2152 -0.4295
    7CHTO  H100 2746   5.118   1.128   1.401 -0.4265  1.1960 -0.1748
    7CHTO   C57 2747   5.446   1.141   1.357  0.6864  0.8410 -0.2569
    7CHTO  H114 2748   5.476   1.066   1.430  1.0886  0.4155 -0.8534
    7CHTO   N10 2749   5.480   1.270   1.421 -0.6277 -0.7210  0.0272
    7CHTO  H106 2750   5.566   1.233   1.476 -1.5716 -0.5207  1.6583
    7CHTO  H107 2751   5.403   1.301   1.490  0.4704  0.4043  0.7634
    7CHTO   C58 2752   5.523   1.106   1.227 -0.7934  0.3990 -0.2942
    7CHTO  H115 2753   5.496   1.178   1.147  2.0403  0.9495 -0.7974
    7CHTO   O37 2754   5.496   0.965   1.189 -0.9630  0.2208  0.0303
    7CHTO   C59 2755   5.360   0.939   1.147 -0.7643 -0.4620  0.1046
    7CHTO  H116 2756   5.324   1.002   1.066 -2.0328 -0.4697  0.6567
    7CHTO   C70 2757   5.340   0.792   1.105 -0.2086  0.3244 -0.4578
    7CHTO   O46 2758   5.229   0.768   1.018 -0.0833  0.4854 -0.4516
    7CHTO  H103 2759   5.157   0.822   1.041 -0.0799 -0.0320  0.8219
    7CHTO   O39 2760   5.679   1.106   1.262  0.2327 -0.0742 -0.6441
    7CHTO   C60 2761   5.779   1.092   1.159 -0.1361  0.0598 -0.7204
    7CHTO  H117 2762   5.822   0.992   1.168 -0.5078 -0.0950 -0.6740
    7CHTO   C62 2763   5.728   1.104   1.013  0.2387 -0.4629 -0.3327
    7CHTO  H119 2764   5.636   1.042   1.008  0.4782 -0.8383 -0.0523
    7CHTO   O43 2765   5.695   1.245   0.995  0.4239 -0.4971  0.4218
    7CHTO  H101 2766   5.608   1.262   0.965  0.8709  0.3061 -0.4626
    7CHTO   C66 2767   5.839   1.054   0.913  0.0462 -0.0543  1.1575
    7CHTO  H123 2768   5.872   0.958   0.954  0.3072 -1.4718 -2.2263
    7CHTO   N12 2769   5.794   1.022   0.774  0.1568 -0.0746 -0.8250
    7CHTO  H110 2770   5.850   0.945   0.724 -3.2979 -1.4556 -2.6595
    7CHTO  H111 2771   5.687   1.017   0.767 -0.1774  1.4583  2.1486
    7CHTO   C69 2772   5.956   1.152   0.921 -0.0034  0.1614 -0.8055
    7CHTO  H126 2773   5.939   1.252   0.878  1.5288  1.4764  1.5447
    7CHTO   O41 2774   6.011   1.208   1.073  0.5942 -0.0054 -0.3065
    7CHTO   C64 2775   5.895   1.189   1.201 -0.2196  0.5504  0.5870
    7CHTO  H121 2776   5.863   1.292   1.226 -0.6161  1.0707 -1.8599
    7CHTO   C71 2777   5.964   1.131   1.323 -0.0504 -0.2006  0.5179
    7CHTO   O47 2778   6.031   1.007   1.305 -0.1061 -0.1328  0.3137
    7CHTO  H104 2779   5.974   0.933   1.292  1.2575 -1.0976 -0.4213
    7CHTO   O34 2780   6.084   1.093   0.852  0.0089  0.3392  0.0513
    7CHTO   C49 2781   6.213   1.001   0.913 -0.4258  0.4046 -0.3876
    7CHTO   H91 2782   6.263   1.063   0.987 -1.3511  0.9815 -0.2437
    7CHTO   C47 2783   6.313   0.978   0.803 -0.3808 -0.2899  0.5895
    7CHTO   H89 2784   6.407   0.931   0.840 -0.6110 -1.9670 -0.8679
    7CHTO   O33 2785   6.340   1.112   0.749  0.2388  0.2570 -0.0403
    7CHTO   H70 2786   6.390   1.164   0.809  1.7634 -2.3578  1.0104
    7CHTO   C45 2787   6.247   0.882   0.689  0.3837 -0.4159  0.4907
    7CHTO   H87 2788   6.154   0.929   0.655 -0.3683 -1.1534  1.4817
    7CHTO    N8 2789   6.336   0.877   0.572  0.1082  0.0412 -0.6410
    7CHTO   H75 2790   6.354   0.980   0.543  0.3987  0.1729 -0.0054
    7CHTO   H76 2791   6.428   0.825   0.592  0.3812 -0.1486 -2.3277
    7CHTO   C43 2792   6.210   0.744   0.748 -0.0153  0.5952 -0.2631
    7CHTO   H85 2793   6.155   0.700   0.665 -1.0471  0.4990  0.4587
    7CHTO   O29 2794   6.124   0.771   0.858 -0.7670 -0.4396  0.1824
    7CHTO   C50 2795   6.160   0.860   0.962  0.3918  0.3561  0.2116
    7CHTO   H92 2796   6.073   0.888   1.023 -0.4369 -0.6548 -0.4721
    7CHTO   C54 2797   6.245   0.793   1.073  0.2965 -0.4597  0.6986
    7CHTO   O36 2798   6.257   0.871   1.194 -0.4311 -0.0398  0.4797
    7CHTO   H72 2799   6.171   0.876   1.231 -0.6058 -0.5772  0.1464
    7CHTO   O27 2800   6.331   0.676   0.779  0.6040 -0.2728  0.6588
    7CHTO   C37 2801   6.414   0.567   0.821 -0.0434 -0.2139  0.0695
    7CHTO   H79 2802   6.431   0.579   0.929 -0.8110 -1.8699  0.3901
    7CHTO   C38 2803   6.340   0.432   0.800 -0.3356  0.2152 -0.3992
    7CHTO   H80 2804   6.290   0.427   0.702 -0.8614  0.7157 -0.1617
    7CHTO   O31 2805   6.234   0.427   0.894  0.0685 -0.2213 -1.0185
    7CHTO   H68 2806   6.181   0.504   0.903 -2.0115 -1.9293  1.7021
    7CHTO   C39 2807   6.435   0.308   0.809  0.0838 -0.2454 -0.2172
    7CHTO   H81 2808   6.468   0.306   0.913  3.0793 -0.8670 -1.1188
    7CHTO    N7 2809   6.370   0.178   0.778  0.2556 -0.3407 -0.5384
    7CHTO   H73 2810   6.441   0.105   0.816 -0.4972 -0.4937  0.5816
    7CHTO   H74 2811   6.276   0.163   0.828 -0.5512  1.6926 -1.4229
    7CHTO   C40 2812   6.564   0.337   0.728 -0.2795  0.1026 -0.2067
    7CHTO   H82 2813   6.536   0.353   0.623 -0.5144  0.3551 -0.1052
    7CHTO   O26 2814   6.624   0.455   0.788  0.1252 -0.1670 -0.3074
    7CHTO   C41 2815   6.549   0.580   0.755 -0.3259 -0.1971  0.0228
    7CHTO   H83 2816   6.538   0.594   0.647  0.3370 -0.4574 -0.0829
    7CHTO   C52 2817   6.637   0.696   0.818 -0.0317 -0.1001 -0.0396
    7CHTO   O35 2818   6.758   0.724   0.770 -0.3844  0.9314  0.4170
    7CHTO   H71 2819   6.756   0.809   0.731 -1.9907 -0.2401 -2.1719
    7CHTO   O28 2820   6.660   0.226   0.732 -0.2981  0.1665  0.2637
    7CHTO   C42 2821   6.781   0.231   0.650 -0.1579 -0.5039 -0.2110
    7CHTO   H84 2822   6.834   0.142   0.683  0.0448  0.3682  1.8722
    7CHTO   C44 2823   6.879   0.344   0.685 -0.1534 -0.1092  0.2845
    7CHTO   H86 2824   6.829   0.439   0.666  1.0124  0.7439  1.3715
    7CHTO   O32 2825   6.903   0.348   0.830  0.4824 -0.6174  0.4286
    7CHTO   H69 2826   6.992   0.325   0.847  0.2513 -3.1428 -1.3988
    7CHTO   C48 2827   6.999   0.334   0.595 -0.6525  0.7915  0.5648
    7CHTO   H90 2828   7.042   0.235   0.611 -1.9123  0.0007 -0.8100
    7CHTO    N9 2829   7.109   0.425   0.630  0.1362 -0.4469 -0.0382
    7CHTO   H77 2830   7.152   0.461   0.537  0.1555  0.7245  0.4173
    7CHTO   H78 2831   7.068   0.505   0.689 -0.8222 -1.1504  0.2644
    7CHTO   C51 2832   6.947   0.350   0.442 -0.3416  1.0608 -0.4971
    7CHTO   H93 2833   6.883   0.437   0.430 -1.7423  0.0527 -0.4655
    7CHTO   O30 2834   6.873   0.226   0.418  0.3256 -0.1679  0.1098
    7CHTO   C46 2835   6.747   0.211   0.498  0.1745  0.6949  0.6519
    7CHTO   H88 2836   6.680   0.289   0.460  0.4356 -1.4744 -4.5949
    7CHTO   C53 2837   6.689   0.072   0.466  0.3858  0.2860  0.3423
    7CHTO   O72 2838   6.551   0.053   0.500  0.3730  0.1462  0.4612
    7CHTO  H199 2839   6.536   0.086   0.587 -1.6916  2.6199 -0.7653
    7CHTO   O22 2840   7.047   0.352   0.341  0.3442 -0.9904  0.0534
    7CHTO   C31 2841   7.031   0.415   0.208  0.5493 -1.2552  0.2093
    7CHTO   H59 2842   7.131   0.417   0.160 -0.0560  0.8738 -1.0333
    7CHTO   C29 2843   6.941   0.318   0.116  0.6320  0.3690  0.6141
    7CHTO   H57 2844   6.844   0.293   0.162  0.8595  0.9608  1.4104
    7CHTO   O21 2845   7.016   0.195   0.087 -0.4936 -0.0017 -0.3986
    7CHTO   H37 2846   7.033   0.134   0.156 -0.4836  0.6765  0.2029
    7CHTO   C27 2847   6.905   0.389  -0.023  0.8642  0.0499  0.0440
    7CHTO   H55 2848   6.998   0.395  -0.082  1.4658 -0.6479  0.9037
    7CHTO    N5 2849   6.806   0.310  -0.105 -0.1549 -0.3433  0.2529
    7CHTO   H43 2850   6.834   0.269  -0.201 -1.9912  2.1807 -1.4075
    7CHTO   H44 2851   6.771   0.230  -0.042 -0.3715  1.0805  1.9765
    7CHTO   C25 2852   6.863   0.541   0.003  0.6374 -0.2339 -0.1939
    7CHTO   H53 2853   6.769   0.551   0.059  0.0073 -0.2629 -1.2145
    7CHTO   O17 2854   6.960   0.611   0.081  0.4378 -0.0950  0.2849
    7CHTO   C32 2855   6.992   0.564   0.210 -0.0589  0.2527 -0.2185
    7CHTO   H60 2856   6.913   0.583   0.282  0.1830 -2.1069  0.7276
    7CHTO   C36 2857   7.110   0.650   0.261  0.1800 -0.7739  0.0179
    7CHTO   O25 2858   7.081   0.790   0.303 -0.5635 -0.3446  0.4308
    7CHTO   H40 2859   7.036   0.826   0.229  0.6879  0.7959  0.2019
    7CHTO   O15 2860   6.852   0.609  -0.116  0.2693  0.8601 -0.2106
    7CHTO   C19 2861   6.832   0.728  -0.198  0.0193  0.5314  0.6926
    7CHTO   H47 2862   6.865   0.695  -0.298  0.7357  1.2749  0.6786
    7CHTO   C20 2863   6.687   0.774  -0.208 -0.1762 -0.4848  0.3260
    7CHTO   H48 2864   6.645   0.797  -0.110  0.4191 -0.9169  0.6882
    7CHTO   O19 2865   6.617   0.658  -0.253  0.5387 -0.0080  0.0673
    7CHTO   H35 2866   6.652   0.629  -0.336  0.3279  0.7914 -0.3030
    7CHTO   C21 2867   6.658   0.901  -0.298  0.0596 -0.1988 -0.4113
    7CHTO   H49 2868   6.685   0.873  -0.400 -0.3319 -2.7536  0.1441
    7CHTO    N4 2869   6.523   0.958  -0.289  0.2354  0.1197 -0.2876
    7CHTO   H41 2870   6.493   0.999  -0.384 -0.3518  1.7075  0.5750
    7CHTO   H42 2871   6.453   0.881  -0.259  0.1693  0.8018  1.3714
    7CHTO   C22 2872   6.756   1.017  -0.253  1.0318 -0.0401 -0.6320
    7CHTO   H50 2873   6.737   1.056  -0.153  1.4043 -0.7272 -0.2921
    7CHTO   O14 2874   6.889   0.957  -0.249 -0.3945  0.5921  0.2858
    7CHTO   C23 2875   6.919   0.847  -0.158 -0.2637  0.0949 -0.8468
    7CHTO   H51 2876   6.899   0.877  -0.055  1.1006  0.1835 -0.6025
    7CHTO   C34 2877   7.064   0.810  -0.161 -0.9858  0.0040  0.6323
    7CHTO   O23 2878   7.149   0.924  -0.141  0.2155  0.0073 -0.6296
    7CHTO   H38 2879   7.171   0.933  -0.050  0.8859  0.4522 -0.8272
    7CHTO   O16 2880   6.757   1.122  -0.348 -0.2080  0.5094 -0.1465
    7CHTO   C24 2881   6.728   1.275  -0.302 -0.2225 -0.2524 -0.6075
    7CHTO   H52 2882   6.670   1.284  -0.210 -1.4004 -0.0785 -1.3550
    7CHTO   C26 2883   6.651   1.351  -0.408 -0.1825  0.0237  0.9536
    7CHTO   H54 2884   6.720   1.370  -0.492 -3.1497  1.5081 -1.2595
    7CHTO   O20 2885   6.535   1.280  -0.447 -0.1000 -0.1661 -0.3754
    7CHTO   H36 2886   6.537   1.257  -0.538  1.3131  0.7256 -0.5834
    7CHTO   C30 2887   6.617   1.493  -0.347  0.4568  0.4720  0.1413
    7CHTO   H58 2888   6.553   1.479  -0.259  0.5900  1.0325  0.3321
    7CHTO    N6 2889   6.552   1.578  -0.450 -0.5068  0.3745 -0.2378
    7CHTO   H45 2890   6.470   1.638  -0.414 -1.8989 -0.8526 -1.3689
    7CHTO   H46 2891   6.520   1.518  -0.533 -0.5275 -1.1364  0.8427
    7CHTO   C33 2892   6.741   1.559  -0.282  0.4483 -0.0344  0.7718
    7CHTO   H61 2893   6.793   1.606  -0.366 -0.4244  1.0735  0.8499
    7CHTO   O18 2894   6.837   1.470  -0.214  0.2174  0.6023 -0.3068
    7CHTO   C28 2895   6.867   1.352  -0.280 -0.3317 -0.5011 -0.2124
    7CHTO   H56 2896   6.913   1.373  -0.376 -2.9821  0.6877 -1.2936
    7CHTO   C35 2897   6.970   1.271  -0.200  0.4553 -0.1927  0.2542
    7CHTO   O24 2898   6.921   1.239  -0.067 -0.0021 -0.5889 -0.1946
    7CHTO   H39 2899   6.989   1.246  -0.003  1.9201 -3.6485 -1.7593
    7CHTO    O9 2900   6.701   1.666  -0.197 -0.3932 -0.2570  0.3933
    7CHTO   C13 2901   6.703   1.644  -0.022 -0.4917  0.1675  0.6195
    7CHTO   H26 2902   6.746   1.549   0.017  0.4381  0.2321 -0.2284
    7CHTO   C11 2903   6.563   1.665   0.032 -1.0457  0.2087 -0.1487
    7CHTO   H24 2904   6.502   1.580  -0.002 -2.9063  1.8650 -1.1303
    7CHTO    O8 2905   6.509   1.776  -0.037 -0.0322  0.7418  0.0655
    7CHTO    H3 2906   6.550   1.854  -0.004 -1.8571  2.9164 -2.5537
    7CHTO    C9 2907   6.562   1.669   0.190 -0.1230  0.0497 -0.0048
    7CHTO   H22 2908   6.589   1.568   0.224 -1.0879 -0.2625 -0.1313
    7CHTO    N2 2909   6.424   1.687   0.251 -0.0760 -0.3242 -0.0915
    7CHTO   H10 2910   6.360   1.602   0.231  2.0323 -2.0289  0.1885
    7CHTO   H11 2911   6.382   1.782   0.224  2.4790  0.8430 -0.1125
    7CHTO    C7 2912   6.661   1.778   0.242  0.3859  0.3946  0.1318
    7CHTO   H20 2913   6.666   1.756   0.351 -0.2440 -1.0602 -0.1226
    7CHTO    O4 2914   6.791   1.756   0.185 -0.4723  0.5565  0.6956
    7CHTO   C14 2915   6.798   1.750   0.043 -0.2622  0.0719  0.6036
    7CHTO   H27 2916   6.903   1.714   0.030  0.0037  1.1024 -0.1852
    7CHTO   C18 2917   6.798   1.892  -0.020 -0.5049 -0.8403  0.4101
    7CHTO   O13 2918   6.934   1.943  -0.021  0.1288 -0.2572  0.2794
    7CHTO    H7 2919   6.987   1.916  -0.094 -0.5522  0.1134 -0.3579
    7CHTO    O2 2920   6.616   1.941   0.227 -0.2185 -0.5802  0.0860
    7CHTO    C1 2921   6.660   2.031   0.326 -0.1775  0.3065  0.0432
    7CHTO   H14 2922   6.605   2.126   0.311 -2.8101 -1.2405 -0.3057
    7CHTO    C2 2923   6.814   2.066   0.323  0.6045 -0.8536  0.0854
    7CHTO   H15 2924   6.873   1.974   0.332  0.2151 -1.1511 -0.4195
    7CHTO    O6 2925   6.840   2.113   0.191 -0.2796 -0.2958  0.1567
    7CHTO    H1 2926   6.929   2.115   0.160 -1.0867  0.2914 -2.2764
    7CHTO    C3 2927   6.848   2.175   0.433 -0.4972  0.0443 -0.2698
    7CHTO   H16 2928   6.809   2.275   0.408 -2.8742 -1.0487 -1.1224
    7CHTO    N1 2929   7.000   2.194   0.429  0.3169  0.2868  0.4856
    7CHTO    H8 2930   7.029   2.236   0.524 -0.6579 -2.6269  2.1277
    7CHTO    H9 2931   7.040   2.095   0.418 -0.5176  0.1668 -1.8688
    7CHTO    C4 2932   6.794   2.135   0.577  0.0461  0.1855  0.3459
    7CHTO   H17 2933   6.850   2.047   0.610 -1.1703 -1.0338 -0.7684
    7CHTO    O1 2934   6.652   2.099   0.567 -0.0205  0.2002  0.0011
    7CHTO    C5 2935   6.618   1.992   0.470  0.1863 -0.3397 -0.0550
    7CHTO   H18 2936   6.662   1.896   0.496  0.1703 -0.3037  0.1077
    7CHTO   C16 2937   6.461   1.976   0.479  0.5494 -0.6678 -0.0529
    7CHTO   O11 2938   6.432   1.912   0.599  0.3824 -0.2281  0.1060
    7CHTO    H5 2939   6.344   1.937   0.621 -0.5867 -0.7184 -2.9455
    7CHTO    O3 2940   6.809   2.252   0.660 -0.4764 -0.3400  0.1559
    7CHTO    C6 2941   6.754   2.251   0.793 -0.3016 -0.3945 -0.2034
    7CHTO   H19 2942   6.778   2.349   0.835  0.5930 -0.0136 -1.5902
    7CHTO    C8 2943   6.598   2.238   0.817  0.2410 -0.4718 -0.1268
    7CHTO   H21 2944   6.556   2.152   0.764 -1.2400  0.1662 -0.0050
    7CHTO    O7 2945   6.540   2.358   0.753  0.4719  0.5131  0.0923
    7CHTO    H2 2946   6.463   2.336   0.703 -0.0408  0.0850  1.0602
    7CHTO   C12 2947   6.566   2.228   0.970 -0.4325  0.4631 -0.9924
    7CHTO   H25 2948   6.591   2.327   1.014  3.3334 -0.5173 -0.8203
    7CHTO    N3 2949   6.420   2.205   0.989 -0.3978  0.5645  0.5066
    7CHTO   H12 2950   6.404   2.105   1.028 -0.9680  1.0590  1.5480
    7CHTO   H13 2951   6.376   2.286   1.045 -2.6172  0.8552 -1.5896
    7CHTO   C15 2952   6.657   2.118   1.034  0.0172 -0.4387 -0.3332
    7CHTO   H28 2953   6.634   2.021   0.990 -2.9698  0.4972 -0.9452
    7CHTO   O10 2954   6.647   2.127   1.197 -0.1088 -0.0390 -0.7676
    7CHTO    H4 2955   6.707   2.189   1.235 -0.7515  0.7378 -0.9981
    7CHTO    O5 2956   6.797   2.151   1.017 -0.2010  0.3778 -0.6110
    7CHTO   C10 2957   6.831   2.147   0.878  0.3985 -0.1413 -0.0594
    7CHTO   H23 2958   6.806   2.052   0.831 -0.3380  1.3688 -2.8113
    7CHTO   C17 2959   6.980   2.157   0.859 -0.4118 -0.4138 -0.0057
    7CHTO   O12 2960   7.021   2.286   0.910  0.4679 -0.2722 -0.7127
    7CHTO    H6 2961   7.109   2.310   0.891  0.1898  0.5128 -1.0198
    8CHTO  H203 2962   6.825   7.990   2.310 -0.8659  0.3024  0.1023
    8CHTO   O82 2963   6.831   8.076   2.272  0.0360  0.3801  0.4182
    8CHTO  C123 2964   6.718   8.105   2.181  0.3256  0.4636  0.0574
    8CHTO  H227 2965   6.708   8.027   2.103  2.1583  0.8768 -0.6100
    8CHTO   O77 2966   6.603   8.123   2.270 -0.1921  0.4305  0.0008
    8CHTO  C118 2967   6.478   8.124   2.204  0.3518  0.2984 -0.2129
    8CHTO  H222 2968   6.468   8.043   2.131 -0.0833 -0.8991  1.1721
    8CHTO  C125 2969   6.368   8.107   2.316  0.6617 -0.1839  0.2147
    8CHTO   O84 2970   6.381   7.984   2.385 -0.4498  0.6330 -0.3912
    8CHTO  H205 2971   6.471   7.968   2.404 -1.1054 -0.1426  2.3141
    8CHTO  C114 2972   6.470   8.260   2.129 -0.1326  0.1977 -0.7480
    8CHTO  H218 2973   6.476   8.343   2.199 -1.0058  2.2602 -3.0381
    8CHTO  C116 2974   6.586   8.260   2.022  0.2966 -0.6978  0.5185
    8CHTO  H220 2975   6.572   8.185   1.942  0.3733  0.9136 -1.0588
    8CHTO   O79 2976   6.590   8.389   1.964 -0.4189  0.5602  0.5774
    8CHTO  H201 2977   6.605   8.387   1.871 -2.2358 -2.0616  0.2880
    8CHTO  C120 2978   6.726   8.236   2.100  0.0424  0.1530  0.3971
    8CHTO  H224 2979   6.759   8.316   2.169  0.0118  0.1433  0.4237
    8CHTO   N21 2980   6.834   8.229   1.997  0.3042  0.5116  0.1910
    8CHTO  H211 2981   6.933   8.255   2.033  0.0855  0.5005  0.8191
    8CHTO  H212 2982   6.809   8.272   1.901 -4.1438 -0.1405  0.9699
    8CHTO   O75 2983   6.340   8.253   2.067 -0.5370 -0.2876 -0.8269
    8CHTO  C112 2984   6.248   8.392   2.067  0.1541 -0.2488  0.2838
    8CHTO  H216 2985   6.318   8.476   2.078 -0.7134  0.5205 -0.0355
    8CHTO   O73 2986   6.158   8.381   2.178  0.2760  0.2519 -0.2424
    8CHTO  C113 2987   6.094   8.509   2.194 -0.5874  0.4288  0.0555
    8CHTO  H217 2988   6.173   8.587   2.193  0.6889 -0.8049  1.5119
    8CHTO  C124 2989   6.038   8.518   2.335  0.1592  0.0969 -0.6001
    8CHTO   O83 2990   6.132   8.501   2.444  0.1696 -0.2235  0.2019
    8CHTO  H204 2991   6.179   8.422   2.424 -2.7084 -1.9027 -0.1898
    8CHTO  C109 2992   5.995   8.525   2.079  0.1546  0.4719  0.2201
    8CHTO  H213 2993   5.930   8.436   2.083  0.1586  0.3157 -2.6088
    8CHTO  C110 2994   6.067   8.520   1.943  0.4609 -0.2396  0.1617
    8CHTO  H214 2995   6.120   8.615   1.933  0.8901 -0.4509  0.4402
    8CHTO   O78 2996   5.973   8.527   1.837  0.3246  0.1769 -0.1276
    8CHTO  H200 2997   6.015   8.537   1.754  0.3823  0.1674 -0.0993
    8CHTO  C111 2998   6.166   8.406   1.931  0.6688 -0.1542 -0.4677
    8CHTO  H215 2999   6.109   8.313   1.915  2.9176 -1.7610  0.6393
    8CHTO   N19 3000   6.255   8.413   1.814 -0.4142  0.4668 -0.0802
    8CHTO  H207 3001   6.213   8.468   1.731 -0.2768  0.2499 -0.2926
    8CHTO  H208 3002   6.263   8.312   1.777 -1.5549  0.9003 -1.5418
    8CHTO   O74 3003   5.915   8.645   2.086  0.0521 -0.0038  0.3579
    8CHTO  C115 3004   5.750   8.625   2.100  0.5486 -0.2151  0.6033
    8CHTO  H219 3005   5.721   8.520   2.099  0.3246 -0.1579  0.9138
    8CHTO   O76 3006   5.688   8.690   2.240  0.2995 -0.0870  0.0993
    8CHTO  C122 3007   5.712   8.833   2.236 -0.1314 -0.1829  0.1828
    8CHTO  H226 3008   5.818   8.858   2.230  0.1852 -1.5336 -0.0301
    8CHTO  C126 3009   5.668   8.898   2.363  0.7953  0.3833 -0.3625
    8CHTO   O85 3010   5.711   9.031   2.388  0.0758 -0.1104  0.1764
    8CHTO  H206 3011   5.688   9.052   2.477  2.6718 -0.8583  1.0791
    8CHTO  C121 3012   5.650   8.902   2.107  0.2548  0.5665 -0.5760
    8CHTO  H225 3013   5.540   8.891   2.099  0.2723 -1.5166  1.6881
    8CHTO   O81 3014   5.697   9.039   2.103  0.5180  0.4111  0.3540
    8CHTO  H202 3015   5.656   9.078   2.028 -0.4839  0.1731  0.7829
    8CHTO  C119 3016   5.717   8.840   1.981  0.4646 -0.6899  0.3188
    8CHTO  H223 3017   5.671   8.885   1.893 -0.8438 -1.1816  0.7440
    8CHTO  C117 3018   5.687   8.688   1.974 -0.6226 -0.1038 -0.1391
    8CHTO  H221 3019   5.738   8.635   1.893 -2.1523 -2.1310  0.1851
    8CHTO   N20 3020   5.544   8.659   1.945  0.1102  0.3306 -0.2084
    8CHTO  H209 3021   5.533   8.552   1.944  0.5624  0.2799 -0.1115
    8CHTO  H210 3022   5.523   8.694   1.845  1.3211 -0.9272 -0.9073
    8CHTO   O80 3023   5.888   8.879   1.956  0.4484 -0.1063  0.2459
    8CHTO  C103 3024   5.924   9.008   1.891 -0.1528 -0.0395 -0.0903
    8CHTO  H190 3025   5.842   9.077   1.872 -0.8947 -0.6108  0.9889
    8CHTO  C101 3026   6.032   9.098   1.967  0.2177  0.2437 -0.1133
    8CHTO  H188 3027   6.120   9.042   1.999  0.0137  0.1267  0.2454
    8CHTO   O68 3028   5.967   9.148   2.112 -0.5229 -0.3215 -0.3355
    8CHTO  H168 3029   6.026   9.187   2.174  0.5887  0.3820 -1.8189
    8CHTO   C99 3030   6.090   9.219   1.872 -0.4180 -0.3513 -0.3694
    8CHTO  H186 3031   6.015   9.300   1.869 -1.9621 -1.7664 -0.9884
    8CHTO   N17 3032   6.210   9.279   1.937  0.7422  0.0721  0.1136
    8CHTO  H174 3033   6.295   9.296   1.872  0.8025 -0.1122  0.1416
    8CHTO  H175 3034   6.243   9.239   2.032 -2.4190  1.9094  2.0626
    8CHTO   C97 3035   6.110   9.174   1.730 -0.6483  0.6507 -0.2402
    8CHTO  H184 3036   6.208   9.126   1.718 -0.0642  1.9124 -0.5944
    8CHTO   O64 3037   6.005   9.087   1.677  0.6345 -0.3436  0.2049
    8CHTO  C104 3038   5.974   8.961   1.747  0.2148 -0.6598 -0.2713
    8CHTO  H191 3039   6.068   8.909   1.762  0.9234  0.4820 -0.7554
    8CHTO  C108 3040   5.879   8.873   1.663 -0.0682 -0.7046 -0.0882
    8CHTO   O71 3041   5.940   8.852   1.536 -0.2236  0.4495 -0.0558
    8CHTO  H171 3042   5.885   8.816   1.469  2.8154 -2.5153 -1.0637
    8CHTO   O62 3043   6.116   9.286   1.639 -0.3086 -0.4229 -0.2092
    8CHTO   C91 3044   6.195   9.284   1.519  0.4217  0.3762 -0.4336
    8CHTO  H178 3045   6.233   9.185   1.495 -0.8661  0.1391 -1.5264
    8CHTO   C92 3046   6.328   9.362   1.555 -0.3662 -0.6100  0.1588
    8CHTO  H179 3047   6.376   9.326   1.647  0.5573  1.1706  0.3896
    8CHTO   O66 3048   6.426   9.334   1.461 -0.7095  0.6063  0.7086
    8CHTO  H166 3049   6.414   9.359   1.371 -0.7490  0.6553  0.7273
    8CHTO   C93 3050   6.313   9.518   1.559  0.0777 -0.0483 -0.4496
    8CHTO  H180 3051   6.405   9.561   1.518  0.1434  0.4866  0.2527
    8CHTO   N16 3052   6.307   9.577   1.698  0.0765 -0.2894  0.7698
    8CHTO  H172 3053   6.327   9.683   1.691  0.3842 -0.5283 -2.5819
    8CHTO  H173 3054   6.385   9.536   1.760  0.6385 -1.0453 -0.4282
    8CHTO   C94 3055   6.194   9.565   1.470 -0.5302 -0.3891 -0.3581
    8CHTO  H181 3056   6.101   9.571   1.527  0.0886 -0.0228  0.6144
    8CHTO   O61 3057   6.169   9.471   1.363  0.0588 -0.6945 -0.3532
    8CHTO   C95 3058   6.116   9.343   1.401 -0.0664 -0.5254  0.1207
    8CHTO  H182 3059   6.008   9.352   1.418  0.3677  0.9363  2.2821
    8CHTO  C106 3060   6.133   9.245   1.280  0.2048 -0.4292 -0.0402
    8CHTO   O69 3061   6.040   9.135   1.284 -0.4141 -0.2949  0.1806
    8CHTO  H169 3062   5.952   9.166   1.293 -0.6978 -0.2744 -2.2487
    8CHTO   O63 3063   6.228   9.700   1.389  0.1345 -0.3450 -0.5278
    8CHTO   C96 3064   6.165   9.728   1.257  0.4696 -0.1741  0.0560
    8CHTO  H183 3065   6.102   9.644   1.226 -2.0079  1.4301  0.6213
    8CHTO   C98 3066   6.266   9.749   1.140 -0.7559 -0.6633  0.4425
    8CHTO  H185 3067   6.326   9.838   1.164 -0.4384 -0.6743 -0.3141
    8CHTO   O67 3068   6.360   9.638   1.130  0.1932  0.2377 -0.7473
    8CHTO  H167 3069   6.450   9.663   1.144  0.5611 -1.1316 -0.6160
    8CHTO  C102 3070   6.178   9.778   1.012 -0.5524 -0.0625  0.7516
    8CHTO  H189 3071   6.120   9.685   0.999  1.8679 -1.3342 -1.6103
    8CHTO   N18 3072   6.256   9.790   0.885  0.3259 -0.0345 -0.4272
    8CHTO  H176 3073   6.199   9.780   0.794 -0.2895  2.8011 -0.3880
    8CHTO  H177 3074   6.318   9.879   0.883  0.7063 -0.3067 -0.9855
    8CHTO  C105 3075   6.085   9.904   1.038  0.6471  0.5185 -0.1421
    8CHTO  H192 3076   6.143   9.995   1.054  0.2076  0.3456  2.6631
    8CHTO   O65 3077   6.003   9.879   1.149  0.3887  0.0441 -0.3769
    8CHTO  C100 3078   6.075   9.867   1.272  1.3737  0.6570 -0.1407
    8CHTO  H187 3079   6.133   9.961   1.276  1.0631  0.8484 -0.1413
    8CHTO  C107 3080   5.969   9.855   1.379  0.0645  0.4430 -0.0850
    8CHTO   O70 3081   6.017   9.859   1.517 -0.3597 -0.4512  0.2498
    8CHTO  H170 3082   6.060   9.942   1.521 -0.4291 -0.3869 -0.3287
    8CHTO   O57 3083   5.992   9.919   0.899  0.1492 -0.4516 -0.0884
    8CHTO   C85 3084   5.975  10.051   0.830 -0.1466  0.2382 -0.9011
    8CHTO  H157 3085   6.078  10.068   0.790  0.6949  1.1167  1.5598
    8CHTO   C83 3086   5.941  10.167   0.925 -0.0970 -0.0730 -0.5994
    8CHTO  H155 3087   6.025  10.177   0.994 -0.1967  0.7378 -0.5880
    8CHTO   O56 3088   5.831  10.127   1.010  0.3218  0.0575  0.5830
    8CHTO  H135 3089   5.775  10.202   1.016 -0.4334 -0.4579  0.0707
    8CHTO   C81 3090   5.919  10.306   0.847 -0.1728 -0.0032  0.1759
    8CHTO  H153 3091   6.012  10.325   0.793 -0.7629  0.0538 -0.8495
    8CHTO   N14 3092   5.902  10.420   0.945  0.1657  0.1425  0.5044
    8CHTO  H141 3093   5.897  10.388   1.046 -1.6048 -0.9041  0.1059
    8CHTO  H142 3094   5.811  10.471   0.922 -0.3797 -0.1758  1.9210
    8CHTO   C79 3095   5.803  10.281   0.743 -0.0233  0.7651  0.4014
    8CHTO  H151 3096   5.797  10.367   0.676 -2.5180 -1.8638 -2.9429
    8CHTO   O52 3097   5.831  10.165   0.656 -0.1110  0.2293 -0.3339
    8CHTO   C86 3098   5.868  10.039   0.714 -0.4810 -0.7662 -0.4188
    8CHTO  H158 3099   5.776   9.995   0.757 -0.1104 -0.1897  0.9994
    8CHTO   C90 3100   5.922   9.942   0.601  0.3151  0.2420  0.2801
    8CHTO   O60 3101   5.842   9.931   0.487  0.3907  0.7770  0.3583
    8CHTO  H138 3102   5.809  10.014   0.459  1.1819  0.1586 -2.5780
    8CHTO   O50 3103   5.678  10.264   0.810 -0.3942 -0.2791  0.4585
    8CHTO   C73 3104   5.539  10.259   0.817  0.1964 -0.8081  0.2146
    8CHTO  H145 3105   5.491  10.291   0.724 -3.0371 -0.2520  2.0199
    8CHTO   C74 3106   5.495  10.371   0.926  1.3858  0.0954 -0.3876
    8CHTO  H146 3107   5.532  10.471   0.900  0.2208  0.4177 -0.8367
    8CHTO   O54 3108   5.350  10.375   0.916 -0.1172 -0.2333 -0.3915
    8CHTO  H133 3109   5.322  10.362   0.827  2.0712  0.1323 -1.1571
    8CHTO   C75 3110   5.551  10.324   1.069 -0.4615 -0.1277 -0.3301
    8CHTO  H147 3111   5.658  10.304   1.062 -0.5253 -0.6094  0.0272
    8CHTO   N13 3112   5.519  10.427   1.173  0.3211  0.2740 -0.0646
    8CHTO  H139 3113   5.443  10.491   1.130 -0.0552 -0.7988 -1.0308
    8CHTO  H140 3114   5.604  10.487   1.200  0.9231 -0.8106  0.5143
    8CHTO   C76 3115   5.481  10.185   1.097 -0.9281 -0.7416  0.5263
    8CHTO  H148 3116   5.373  10.199   1.094 -0.7558  0.8371  1.4022
    8CHTO   O49 3117   5.513  10.082   0.991  0.2219  0.0922  0.4891
    8CHTO   C77 3118   5.474  10.122   0.859 -0.6989  0.3577 -0.2004
    8CHTO  H149 3119   5.366  10.131   0.865 -1.0427 -3.0804 -0.3350
    8CHTO   C88 3120   5.489  10.013   0.757 -1.0065  0.4736 -0.5674
    8CHTO   O58 3121   5.434  10.023   0.649  0.2482  0.6368 -0.2279
    8CHTO  H136 3122   5.353  10.066   0.670 -0.7858 -2.7912  3.2943
    8CHTO   O51 3123   5.552  10.128   1.234 -0.1338 -0.7357 -0.7093
    8CHTO   C78 3124   5.485   9.998   1.280  0.1142 -0.2391  0.1883
    8CHTO  H150 3125   5.418   9.954   1.203  0.1054 -0.4163  0.2968
    8CHTO   C80 3126   5.409  10.042   1.408 -0.2468  0.5041 -0.3003
    8CHTO  H152 3127   5.479  10.090   1.481  1.2104  0.4690 -1.6522
    8CHTO   O55 3128   5.310  10.144   1.376  0.1001  0.0377 -0.2252
    8CHTO  H134 3129   5.288  10.184   1.457 -2.1061  0.6240 -1.0923
    8CHTO   C84 3130   5.343   9.914   1.481 -0.3280  0.0664 -0.0636
    8CHTO  H156 3131   5.275   9.871   1.408 -3.1290 -2.5686  3.9389
    8CHTO   N15 3132   5.263   9.938   1.606 -0.7788  0.2983  0.2120
    8CHTO  H143 3133   5.160   9.921   1.580 -1.0619  1.1227  0.7788
    8CHTO  H144 3134   5.277  10.040   1.635  0.2326 -0.1274  1.2410
    8CHTO   C87 3135   5.459   9.811   1.502 -0.2661  0.5084 -0.0566
    8CHTO  H159 3136   5.534   9.842   1.574  1.8032 -3.7037 -0.2344
    8CHTO   O53 3137   5.531   9.777   1.382  0.2701 -0.4461  0.0608
    8CHTO   C82 3138   5.587   9.890   1.312 -0.0594 -0.4714 -0.0613
    8CHTO  H154 3139   5.671   9.933   1.368 -1.0764 -1.4660  2.3037
    8CHTO   C89 3140   5.647   9.845   1.182 -0.2529  0.3235  0.2416
    8CHTO   O59 3141   5.556   9.783   1.092 -0.0106 -0.0710  0.2772
    8CHTO  H137 3142   5.607   9.721   1.044  1.5238 -0.2164  2.0259
    8CHTO   O45 3143   5.406   9.659   1.556  0.1839  0.3752  0.0921
    8CHTO   C67 3144   5.491   9.596   1.650 -0.2165  0.1593  0.0782
    8CHTO  H124 3145   5.447   9.497   1.655 -2.5633  1.1030 -1.0445
    8CHTO   C65 3146   5.641   9.581   1.615 -0.0671  0.1463 -0.3583
    8CHTO  H122 3147   5.661   9.644   1.529 -0.3816  0.0086 -0.5315
    8CHTO   O44 3148   5.659   9.444   1.584 -0.1356 -0.2464 -0.7909
    8CHTO  H102 3149   5.739   9.417   1.543  0.1203 -2.0197  0.7720
    8CHTO   C63 3150   5.730   9.638   1.729 -0.3528  0.1206  0.5116
    8CHTO  H120 3151   5.713   9.746   1.736  0.5960  0.3450 -0.4254
    8CHTO   N11 3152   5.882   9.624   1.720  0.1012  0.1176  0.1109
    8CHTO  H108 3153   5.929   9.721   1.716  1.6577 -0.5676  1.3047
    8CHTO  H109 3154   5.898   9.573   1.627 -1.2541  1.8714 -1.1312
    8CHTO   C61 3155   5.686   9.566   1.860  0.1106 -0.4407 -0.2123
    8CHTO  H118 3156   5.743   9.618   1.938 -3.2758  0.7514  1.5728
    8CHTO   O40 3157   5.547   9.598   1.884  0.4099 -0.3198  0.2537
    8CHTO   C68 3158   5.462   9.659   1.782 -0.6031 -0.2170  0.4840
    8CHTO  H125 3159   5.480   9.769   1.784 -1.6285 -0.0140 -1.0628
    8CHTO   C72 3160   5.317   9.631   1.824  0.2812  0.0534  0.0863
    8CHTO   O48 3161   5.294   9.678   1.956  0.0277 -0.1146 -0.2656
    8CHTO  H105 3162   5.232   9.748   1.962 -0.2007 -0.5345  3.3915
    8CHTO   O38 3163   5.717   9.424   1.866 -0.0397 -0.6892 -0.9308
    8CHTO   C55 3164   5.651   9.330   1.953 -0.3730  0.0471  0.3253
    8CHTO  H112 3165   5.737   9.263   1.969 -1.0766 -1.1967 -0.9729
    8CHTO   C56 3166   5.538   9.266   1.870  0.0776 -0.0988  0.2376
    8CHTO  H113 3167   5.492   9.354   1.824  1.7786 -0.0209 -1.4142
    8CHTO   O42 3168   5.595   9.187   1.766  0.4886  0.5103 -0.8243
    8CHTO  H100 3169   5.628   9.242   1.698  2.4792  0.6687  0.2365
    8CHTO   C57 3170   5.429   9.190   1.955 -0.5863 -0.2352  0.3456
    8CHTO  H114 3171   5.465   9.088   1.964 -1.6799 -0.6487  0.1534
    8CHTO   N10 3172   5.299   9.176   1.880  0.1433 -0.0363  0.2288
    8CHTO  H106 3173   5.336   9.159   1.780 -0.2490 -0.3108  0.1299
    8CHTO  H107 3174   5.257   9.084   1.917  2.8293 -1.1222  0.7660
    8CHTO   C58 3175   5.401   9.247   2.096 -0.7945  0.1288  0.1618
    8CHTO  H115 3176   5.352   9.346   2.087  3.5645  2.4353  0.2922
    8CHTO   O37 3177   5.530   9.265   2.162 -0.0490 -0.2267  0.1861
    8CHTO   C59 3178   5.604   9.373   2.102  0.1388 -0.2455  0.6178
    8CHTO  H116 3179   5.542   9.462   2.096  0.6741  0.1235  0.5350
    8CHTO   C70 3180   5.725   9.399   2.188  0.6444 -0.7940 -0.2763
    8CHTO   O46 3181   5.807   9.509   2.153  0.2221 -0.4926  0.2851
    8CHTO  H103 3182   5.888   9.506   2.200  1.3727  0.6606 -1.5354
    8CHTO   O39 3183   5.310   9.142   2.194 -0.0407 -0.2901  0.4899
    8CHTO   C60 3184   5.189   9.197   2.245 -0.4135  0.5551  0.0248
    8CHTO  H117 3185   5.176   9.302   2.218 -0.3726  0.2311 -1.2638
    8CHTO   C62 3186   5.069   9.110   2.193  0.9380  0.2508  0.1502
    8CHTO  H119 3187   5.071   9.092   2.084  0.8180 -3.5047  0.7225
    8CHTO   O43 3188   5.082   8.975   2.229 -0.3302  0.4792  0.0216
    8CHTO  H101 3189   5.151   8.923   2.193  1.6346  3.2454 -0.3460
    8CHTO   C66 3190   4.934   9.166   2.247 -0.2041 -0.5501  0.2108
    8CHTO  H123 3191   4.919   9.265   2.203  2.1523  0.1990  0.9695
    8CHTO   N12 3192   4.812   9.090   2.206 -0.2876 -0.3422  0.4905
    8CHTO  H110 3193   4.839   8.985   2.206 -1.3682 -0.6298 -0.4433
    8CHTO  H111 3194   4.794   9.120   2.104 -1.5574 -2.9253 -0.0840
    8CHTO   C69 3195   4.941   9.189   2.400  0.6458  0.2029  0.3605
    8CHTO  H126 3196   4.927   9.096   2.460 -1.9886  1.3633  1.6110
    8CHTO   O41 3197   5.076   9.253   2.441  0.3310  0.4090 -0.4119
    8CHTO   C64 3198   5.197   9.195   2.399 -0.4252  0.2863  0.1568
    8CHTO  H121 3199   5.213   9.090   2.432  0.1766  0.1253 -0.6098
    8CHTO   C71 3200   5.326   9.281   2.452 -0.9333 -1.0094  0.0809
    8CHTO   O47 3201   5.314   9.413   2.411  0.0177  0.3307  0.5281
    8CHTO  H104 3202   5.392   9.465   2.424 -0.3686  1.7769 -2.5200
    8CHTO   O34 3203   4.826   9.291   2.435  0.5264  0.7658  0.3352
    8CHTO   C49 3204   4.805   9.462   2.425 -0.4416 -0.0742 -0.4140
    8CHTO   H91 3205   4.813   9.513   2.521  1.3461  0.7881 -1.0000
    8CHTO   C47 3206   4.663   9.482   2.374  0.3710  0.2242 -0.0678
    8CHTO   H89 3207   4.650   9.592   2.378 -0.0215  0.1752  0.0252
    8CHTO   O33 3208   4.582   9.416   2.470  0.5099 -0.0621  0.7504
    8CHTO   H70 3209   4.494   9.418   2.438  1.3878 -0.6021 -1.8581
    8CHTO   C45 3210   4.643   9.441   2.219 -0.1811  0.2467  0.2016
    8CHTO   H87 3211   4.684   9.339   2.215  2.0848  1.1712 -0.9010
    8CHTO    N8 3212   4.507   9.447   2.162 -0.1058  0.0046 -0.5135
    8CHTO   H75 3213   4.485   9.552   2.151 -1.2873 -0.4941 -3.1942
    8CHTO   H76 3214   4.494   9.395   2.069  0.5020 -1.7868  0.3683
    8CHTO   C43 3215   4.746   9.517   2.119 -0.1345  0.0530  0.5141
    8CHTO   H85 3216   4.743   9.455   2.029  2.3210 -2.1281  1.8708
    8CHTO   O29 3217   4.876   9.505   2.180 -0.1993 -0.0866  0.1254
    8CHTO   C50 3218   4.902   9.529   2.323 -0.3375 -0.0803 -0.6799
    8CHTO   H92 3219   5.005   9.494   2.339  0.2825  2.7609  2.1075
    8CHTO   C54 3220   4.923   9.676   2.338  0.7346 -0.2512  0.3383
    8CHTO   O36 3221   4.950   9.729   2.466  0.5796  0.3021  0.3316
    8CHTO   H72 3222   5.040   9.707   2.477  0.1514 -0.3987  2.6734
    8CHTO   O27 3223   4.709   9.650   2.088  0.8871  0.0345 -0.3680
    8CHTO   C37 3224   4.669   9.760   1.999 -0.2191  0.3518  0.2364
    8CHTO   H79 3225   4.645   9.715   1.901  1.8550 -2.5645  1.0090
    8CHTO   C38 3226   4.549   9.830   2.050 -0.4110 -0.2665  0.6373
    8CHTO   H80 3227   4.575   9.874   2.148  0.0245  0.2779  0.2814
    8CHTO   O31 3228   4.434   9.742   2.040 -0.6768 -0.1592 -0.0754
    8CHTO   H68 3229   4.430   9.700   1.957 -0.9819  1.3076 -0.8248
    8CHTO   C39 3230   4.510   9.959   1.962 -0.1632  0.4606  0.2813
    8CHTO   H81 3231   4.483   9.922   1.863 -0.8675 -1.0590  1.0287
    8CHTO    N7 3232   4.400  10.042   2.023 -0.5651 -0.6943 -0.3268
    8CHTO   H73 3233   4.332  10.065   1.943  0.3466 -1.4166 -1.3335
    8CHTO   H74 3234   4.359  10.004   2.116  0.4937  2.4454  1.5092
    8CHTO   C40 3235   4.631  10.049   1.936 -0.2419  0.4900 -0.0927
    8CHTO   H82 3236   4.656  10.111   2.023 -0.7705  0.5828 -0.0024
    8CHTO   O26 3237   4.743   9.966   1.894  0.4365  0.4208 -0.2013
    8CHTO   C41 3238   4.793   9.860   1.983 -0.2349 -0.3806  0.2511
    8CHTO   H83 3239   4.820   9.904   2.080 -0.3327  0.2753 -0.0131
    8CHTO   C52 3240   4.916   9.793   1.915  0.2859 -0.1089 -0.8506
    8CHTO   O35 3241   5.032   9.865   1.892  0.4526  0.0304 -0.3310
    8CHTO   H71 3242   5.092   9.818   1.837 -1.3171 -2.2528 -0.3560
    8CHTO   O28 3243   4.603  10.151   1.831  0.0671 -0.5720 -0.1201
    8CHTO   C42 3244   4.611  10.146   1.680  0.2739  0.4266 -0.2095
    8CHTO   H84 3245   4.598  10.250   1.653  1.1233  0.7574  0.6410
    8CHTO   C44 3246   4.497  10.063   1.614 -0.4822 -0.2844 -0.4976
    8CHTO   H86 3247   4.500   9.963   1.659 -1.0124  0.2313  0.7162
    8CHTO   O32 3248   4.383  10.138   1.656  0.2742  0.9191 -0.0451
    8CHTO   H69 3249   4.344  10.087   1.724  1.1601  1.2783  0.7557
    8CHTO   C48 3250   4.502  10.055   1.455  0.7915 -0.2724 -0.3045
    8CHTO   H90 3251   4.466  10.148   1.411  2.3610  0.3261 -0.3612
    8CHTO    N9 3252   4.405   9.955   1.395  0.1091  0.5784  0.5870
    8CHTO   H77 3253   4.433   9.920   1.297 -2.3355  1.0424 -0.3082
    8CHTO   H78 3254   4.391   9.868   1.458 -1.0697  0.0947 -0.3078
    8CHTO   C51 3255   4.649  10.023   1.400 -0.2494  0.0209  0.1566
    8CHTO   H93 3256   4.676   9.926   1.442  3.0107  1.9472  2.7664
    8CHTO   O30 3257   4.731  10.124   1.458 -0.2204  0.1722 -0.1743
    8CHTO   C46 3258   4.744  10.102   1.624  0.2930  0.6482  0.2905
    8CHTO   H88 3259   4.752   9.996   1.650 -2.0314  0.5095  0.5633
    8CHTO   C53 3260   4.864  10.186   1.664  0.2315 -0.0876 -0.1645
    8CHTO   O72 3261   4.943  10.134   1.773  0.3366 -0.3090 -0.3573
    8CHTO  H199 3262   4.888  10.127   1.848 -0.0786  2.8614 -0.3289
    8CHTO   O22 3263   4.670  10.040   1.261  0.0151  0.3313  0.5715
    8CHTO   C31 3264   4.758   9.953   1.172 -0.4720  0.2664  1.0697
    8CHTO   H59 3265   4.761  10.001   1.072 -1.1445 -3.9654 -1.0939
    8CHTO   C29 3266   4.904   9.956   1.228  0.3011 -1.2579  0.2357
    8CHTO   H57 3267   4.910   9.908   1.327  2.5254 -0.8433  0.3304
    8CHTO   O21 3268   4.951  10.091   1.233  0.0950  0.2205 -0.2762
    8CHTO   H37 3269   5.022  10.099   1.293 -1.1835  1.3519  1.1033
    8CHTO   C27 3270   5.001   9.875   1.129  0.6860  1.0455  0.0589
    8CHTO   H55 3271   5.011   9.928   1.034  1.5618 -0.0030 -0.4421
    8CHTO    N5 3272   5.140   9.850   1.175 -0.1020  0.2359 -0.2046
    8CHTO   H43 3273   5.186   9.780   1.107  0.2488 -0.5720  0.8493
    8CHTO   H44 3274   5.181   9.947   1.197 -3.2838  1.6848 -0.3195
    8CHTO   C25 3275   4.935   9.730   1.111 -0.3959  0.2359 -0.0653
    8CHTO   H53 3276   4.928   9.665   1.199 -0.1970  0.4406  0.1030
    8CHTO   O17 3277   4.797   9.733   1.065 -0.2049 -0.1731 -0.4713
    8CHTO   C32 3278   4.707   9.804   1.147  0.3613 -0.1089 -0.2060
    8CHTO   H60 3279   4.689   9.761   1.245  2.0490  2.0048  1.0845
    8CHTO   C36 3280   4.566   9.828   1.082  0.6682 -0.4021  0.1410
    8CHTO   O25 3281   4.513   9.704   1.043  0.0881  0.5547  0.4509
    8CHTO   H40 3282   4.463   9.710   0.964 -1.0326  0.0801  1.0943
    8CHTO   O15 3283   5.014   9.657   0.998  0.7299 -0.2390  0.3503
    8CHTO   C19 3284   5.021   9.666   0.856  0.0666 -0.2911  0.2989
    8CHTO   H47 3285   4.924   9.621   0.828 -0.3929  0.9822 -0.2179
    8CHTO   C20 3286   5.021   9.812   0.792 -0.0339 -0.2291 -0.4517
    8CHTO   H48 3287   5.104   9.875   0.830 -0.6651 -0.0920  0.7144
    8CHTO   O19 3288   4.898   9.875   0.841  0.2470 -0.3817 -0.6714
    8CHTO   H35 3289   4.846   9.823   0.900 -0.9390 -1.8257 -2.9320
    8CHTO   C21 3290   5.021   9.810   0.634 -0.1976  0.2541  0.2611
    8CHTO   H49 3291   4.932   9.757   0.603 -0.4574  0.2292  1.0384
    8CHTO    N4 3292   5.026   9.948   0.586  0.5622 -0.0063 -0.2767
    8CHTO   H41 3293   5.030   9.954   0.478 -1.1357  2.1517 -0.2456
    8CHTO   H42 3294   4.941  10.004   0.622  2.0175  3.1166 -1.5472
    8CHTO   C22 3295   5.139   9.726   0.586 -0.4107  0.7042  0.2940
    8CHTO   H50 3296   5.232   9.778   0.608 -0.1527 -0.5888  2.3865
    8CHTO   O14 3297   5.121   9.591   0.645 -0.3443 -0.0716 -0.0045
    8CHTO   C23 3298   5.137   9.583   0.786 -0.2886  0.1124 -0.5217
    8CHTO   H51 3299   5.237   9.620   0.812  0.3215 -2.2998  0.7529
    8CHTO   C34 3300   5.133   9.429   0.828  0.3982 -0.3293  0.2512
    8CHTO   O23 3301   5.134   9.395   0.968 -0.6276 -0.3341 -0.2381
    8CHTO   H38 3302   5.212   9.429   1.009 -1.5081 -0.5607  1.6789
    8CHTO   O16 3303   5.144   9.701   0.444  0.7698 -0.2034  0.0452
    8CHTO   C24 3304   5.269   9.628   0.387 -0.0050 -0.0243  0.0901
    8CHTO   H52 3305   5.319   9.568   0.464 -0.4021  1.7716  1.7867
    8CHTO   C26 3306   5.374   9.733   0.336  0.0492  0.3056  0.2432
    8CHTO   H54 3307   5.328   9.796   0.258 -0.6708  0.7030  0.9768
    8CHTO   O20 3308   5.431   9.818   0.445  0.0415 -0.1535  0.4632
    8CHTO   H36 3309   5.506   9.868   0.420 -0.2643  0.4396  0.7192
    8CHTO   C30 3310   5.485   9.663   0.254 -0.3219  0.0266  0.1306
    8CHTO   H58 3311   5.541   9.599   0.323 -2.4669 -0.9014  1.0536
    8CHTO    N6 3312   5.574   9.766   0.189  0.0377 -0.0622 -0.3822
    8CHTO   H45 3313   5.645   9.733   0.114 -0.4871 -1.5712 -0.2401
    8CHTO   H46 3314   5.521   9.851   0.149 -0.3035  0.0265  0.2458
    8CHTO   C33 3315   5.431   9.564   0.143 -0.2952  0.0781  0.3603
    8CHTO   H61 3316   5.381   9.610   0.057  0.8233  1.6043  0.5076
    8CHTO   O18 3317   5.338   9.474   0.205 -0.0126  0.3454 -0.0335
    8CHTO   C28 3318   5.219   9.521   0.274 -0.6814 -0.0130  0.0954
    8CHTO   H56 3319   5.165   9.570   0.193 -1.5806 -0.9983  0.0863
    8CHTO   C35 3320   5.150   9.389   0.331 -0.3935  0.1957  0.3349
    8CHTO   O24 3321   5.018   9.401   0.389  0.1075 -0.6930 -0.0655
    8CHTO   H39 3322   4.955   9.420   0.323  0.5129  1.9642  0.2610
    8CHTO    O9 3323   5.546   9.495   0.083 -0.4895 -0.2652 -0.0019
    8CHTO   C13 3324   5.562   9.311   0.104 -1.1469  0.2642 -0.1569
    8CHTO   H26 3325   5.484   9.263   0.040  0.5775  0.5617 -2.5530
    8CHTO   C11 3326   5.565   9.247   0.254 -0.0927 -0.1816  0.0676
    8CHTO   H24 3327   5.458   9.240   0.275 -0.5392  0.3743 -1.8328
    8CHTO    O8 3328   5.629   9.334   0.347  0.7155  0.0304  0.4293
    8CHTO    H3 3329   5.639   9.419   0.309 -0.8041  0.4081  0.8327
    8CHTO    C9 3330   5.628   9.110   0.248  0.5213  0.5225 -0.3587
    8CHTO   H22 3331   5.581   9.050   0.169  0.2811  0.9344 -0.5297
    8CHTO    N2 3332   5.602   9.032   0.370 -0.4629 -0.0813  0.9610
    8CHTO   H10 3333   5.676   9.067   0.441 -0.0315 -0.8452  0.9027
    8CHTO   H11 3334   5.619   8.929   0.342 -1.6945 -0.5155  1.7327
    8CHTO    C7 3335   5.780   9.135   0.196  0.1542  0.5076  0.5170
    8CHTO   H20 3336   5.805   9.043   0.139 -1.9236 -0.5497  1.2840
    8CHTO    O4 3337   5.807   9.251   0.111  0.6790 -0.0696  0.2338
    8CHTO   C14 3338   5.694   9.276   0.024  0.0295  0.5524 -0.0604
    8CHTO   H27 3339   5.670   9.182  -0.029 -0.3078  0.9807 -0.6865
    8CHTO   C18 3340   5.747   9.379  -0.083  0.5992  0.0464  0.2731
    8CHTO   O13 3341   5.663   9.413  -0.193  0.0374  0.4507 -0.0772
    8CHTO    H7 3342   5.668   9.354  -0.265 -1.9116 -1.4788  1.2941
    8CHTO    O2 3343   5.890   9.138   0.322 -0.2034 -0.3513  0.0549
    8CHTO    C1 3344   6.025   9.098   0.307 -0.7211 -0.5812  0.0274
    8CHTO   H14 3345   6.068   9.123   0.406 -0.1470 -1.1736 -0.0670
    8CHTO    C2 3346   6.106   9.175   0.195  0.8325  0.3895  0.4677
    8CHTO   H15 3347   6.054   9.166   0.099 -0.6437  1.6058  1.1465
    8CHTO    O6 3348   6.118   9.316   0.235 -0.2716 -0.1752  0.0096
    8CHTO    H1 3349   6.036   9.357   0.257 -0.0581  0.9962 -1.3538
    8CHTO    C3 3350   6.254   9.107   0.178  0.0986  0.2895 -0.2653
    8CHTO   H16 3351   6.308   9.142   0.267 -1.0294  0.4698  0.3648
    8CHTO    N1 3352   6.327   9.158   0.064 -0.4365 -0.1186 -0.0246
    8CHTO    H8 3353   6.319   9.266   0.068  0.2236 -0.0206 -1.2000
    8CHTO    H9 3354   6.279   9.124  -0.027  1.8610 -0.1783 -1.2630
    8CHTO    C4 3355   6.247   8.953   0.195 -0.1072 -0.0516 -0.1164
    8CHTO   H17 3356   6.226   8.909   0.098  1.1548 -1.0513  0.0475
    8CHTO    O1 3357   6.161   8.899   0.296 -0.9525 -0.9180 -0.1483
    8CHTO    C5 3358   6.031   8.948   0.279  1.0121 -0.2023  0.2165
    8CHTO   H18 3359   5.994   8.935   0.177  1.5778  0.6920 -0.1067
    8CHTO   C16 3360   5.945   8.864   0.382  0.0955 -0.1126 -0.1520
    8CHTO   O11 3361   5.882   8.764   0.301  0.1694  0.9282  0.0630
    8CHTO    H5 3362   5.793   8.753   0.327  0.2583  1.0518  0.4306
    8CHTO    O3 3363   6.382   8.915   0.229  0.4140  0.2970  0.0053
    8CHTO    C6 3364   6.457   8.796   0.188 -0.1005  0.1983 -0.5479
    8CHTO   H19 3365   6.394   8.730   0.130 -0.5470  2.0289 -2.2000
    8CHTO    C8 3366   6.581   8.840   0.103  0.2576  0.6304 -0.4924
    8CHTO   H21 3367   6.644   8.916   0.150 -0.0751  1.3610 -1.2108
    8CHTO    O7 3368   6.536   8.908  -0.015  0.0398 -0.0873 -0.2387
    8CHTO    H2 3369   6.606   8.957  -0.053 -0.1996  0.8412  0.5178
    8CHTO   C12 3370   6.673   8.716   0.069  0.8023  0.5128 -0.9411
    8CHTO   H25 3371   6.618   8.645   0.003  0.0789 -0.3171  0.5302
    8CHTO    N3 3372   6.797   8.755  -0.009 -0.1406 -0.1383 -0.4801
    8CHTO   H12 3373   6.854   8.825   0.049 -2.7006  0.9167  0.8250
    8CHTO   H13 3374   6.760   8.793  -0.103 -0.8940  0.2905 -0.0078
    8CHTO   C15 3375   6.702   8.638   0.197 -0.4548 -0.2807  0.3858
    8CHTO   H28 3376   6.757   8.704   0.264  1.7787 -1.0713 -0.6367
    8CHTO   O10 3377   6.758   8.490   0.175  0.5423 -0.5247  0.0978
    8CHTO    H4 3378   6.820   8.494   0.104  1.3294 -1.3169  0.7236
    8CHTO    O5 3379   6.577   8.600   0.251 -0.3176 -0.4502 -0.1951
    8CHTO   C10 3380   6.508   8.714   0.306 -0.1309 -0.0509  0.3733
    8CHTO   H23 3381   6.580   8.766   0.370  3.2928 -1.2962 -2.3230
    8CHTO   C17 3382   6.381   8.677   0.393  0.2929  0.3446  0.6022
    8CHTO   O12 3383   6.414   8.603   0.509  0.3614  0.3583  0.5281
    8CHTO    H6 3384   6.340   8.574   0.558  0.6660  2.0601  2.0589
    9CHTO  H203 3385   7.495   2.847   2.614  1.2691 -0.1154  2.7025
    9CHTO   O82 3386   7.444   2.926   2.621  0.2505 -0.4158 -0.4568
    9CHTO  C123 3387   7.490   3.012   2.726  0.0221  0.3397  0.2178
    9CHTO  H227 3388   7.491   2.953   2.819 -0.1532  0.7417  0.4743
    9CHTO   O77 3389   7.620   3.057   2.679 -0.1979 -0.1781 -0.0628
    9CHTO  C118 3390   7.690   3.158   2.749  0.1205 -1.2831 -0.3343
    9CHTO  H222 3391   7.719   3.115   2.846  1.4163 -0.8262 -0.5087
    9CHTO  C125 3392   7.821   3.192   2.669  0.2852  0.2988 -0.1189
    9CHTO   O84 3393   7.918   3.088   2.651  0.2051  0.4329 -0.3470
    9CHTO  H205 3394   7.962   3.063   2.730 -0.0984 -1.0813 -0.6373
    9CHTO  C114 3395   7.599   3.281   2.787  0.0300 -0.0016 -0.3355
    9CHTO  H218 3396   7.571   3.330   2.694  2.0006 -1.8507 -1.9720
    9CHTO  C116 3397   7.465   3.231   2.855  0.3066  0.0601 -0.5635
    9CHTO  H220 3398   7.482   3.178   2.951  2.0699  0.4298 -0.6588
    9CHTO   O79 3399   7.388   3.352   2.878  0.2375 -0.0413  0.2190
    9CHTO  H201 3400   7.329   3.335   2.950 -0.8516 -2.4933 -1.1814
    9CHTO  C120 3401   7.394   3.136   2.755 -0.0553 -0.1703  0.2456
    9CHTO  H224 3402   7.381   3.190   2.659  1.5566  0.8280  0.5673
    9CHTO   N21 3403   7.254   3.097   2.798 -0.4241 -0.0178 -0.2776
    9CHTO  H211 3404   7.232   2.993   2.779 -0.8099  0.2131 -1.1308
    9CHTO  H212 3405   7.175   3.168   2.775 -0.3763  0.2423  0.3440
    9CHTO   O75 3406   7.684   3.371   2.850  0.1373 -0.5008  0.3253
    9CHTO  C112 3407   7.647   3.540   2.814 -0.3235 -0.4728 -0.0516
    9CHTO  H216 3408   7.540   3.566   2.811  0.0017  0.7480 -1.4836
    9CHTO   O73 3409   7.714   3.562   2.688 -0.4784  0.1289 -0.0178
    9CHTO  C113 3410   7.683   3.680   2.627 -0.4050 -0.2492  0.0981
    9CHTO  H217 3411   7.573   3.697   2.628 -0.4012  0.1031 -2.4819
    9CHTO  C124 3412   7.710   3.681   2.475  0.2454 -0.7532 -0.6876
    9CHTO   O83 3413   7.843   3.652   2.431  0.2727 -0.1342 -0.1639
    9CHTO  H204 3414   7.871   3.571   2.471 -1.0180  0.3485  1.7839
    9CHTO  C109 3415   7.756   3.794   2.712  0.0612 -0.1664  0.0028
    9CHTO  H213 3416   7.865   3.783   2.702  0.1506 -1.3584  1.9760
    9CHTO  C110 3417   7.709   3.779   2.862  0.4875 -0.4414  0.3929
    9CHTO  H214 3418   7.607   3.815   2.865  0.4942 -0.1041 -2.0559
    9CHTO   O78 3419   7.791   3.866   2.945 -0.1501 -0.4308 -0.4027
    9CHTO  H200 3420   7.757   3.954   2.939 -1.1885 -0.8333 -0.5512
    9CHTO  C111 3421   7.712   3.634   2.916  0.0094 -0.0375 -0.1810
    9CHTO  H215 3422   7.817   3.602   2.930  0.1647  0.6032  0.1402
    9CHTO   N19 3423   7.646   3.615   3.054 -0.1215  0.0947  0.2376
    9CHTO  H207 3424   7.544   3.649   3.051 -0.7208 -1.6684  0.1152
    9CHTO  H208 3425   7.653   3.510   3.076  1.3346 -0.1360 -1.2048
    9CHTO   O74 3426   7.710   3.924   2.654  0.1128  0.0508  0.0326
    9CHTO  C115 3427   7.801   4.038   2.665 -0.2204 -0.4993 -0.1948
    9CHTO  H219 3428   7.871   4.025   2.747  0.1414 -0.0961 -0.4333
    9CHTO   O76 3429   7.894   4.045   2.539 -0.4988  0.0600 -0.5497
    9CHTO  C122 3430   7.815   4.051   2.418 -1.3717  0.1871 -0.9599
    9CHTO  H226 3431   7.753   3.961   2.420 -0.7692 -0.2233 -0.6282
    9CHTO  C126 3432   7.919   4.022   2.305 -0.2100 -0.0123  0.4172
    9CHTO   O85 3433   7.839   3.986   2.186 -0.5202 -0.6575 -0.2338
    9CHTO  H206 3434   7.894   3.972   2.111  1.9304  0.0148  1.3554
    9CHTO  C121 3435   7.729   4.185   2.415 -0.7330 -0.5254  0.3082
    9CHTO  H225 3436   7.803   4.267   2.429 -2.1696  0.5097  1.9682
    9CHTO   O81 3437   7.664   4.202   2.289 -0.3594 -0.4658 -0.7397
    9CHTO  H202 3438   7.631   4.289   2.283 -1.2623 -0.8598 -1.6845
    9CHTO  C119 3439   7.639   4.173   2.536  0.2204  0.3385  0.3282
    9CHTO  H223 3440   7.582   4.266   2.537  0.1447  0.3421 -2.1281
    9CHTO  C117 3441   7.710   4.164   2.674  0.2892  0.4937  0.3637
    9CHTO  H221 3442   7.652   4.134   2.761  0.3531 -0.3861  0.1145
    9CHTO   N20 3443   7.785   4.280   2.721  0.1572 -0.0286 -0.3297
    9CHTO  H209 3444   7.727   4.371   2.721  1.3721  0.8009 -3.5838
    9CHTO  H210 3445   7.809   4.258   2.824 -1.5164 -0.6762 -0.0642
    9CHTO   O80 3446   7.523   4.066   2.501 -0.3487 -0.5146  0.5847
    9CHTO  C103 3447   7.376   4.072   2.561  0.4835 -1.2458 -0.3047
    9CHTO  H190 3448   7.318   3.985   2.531  1.8829 -2.3739  0.2013
    9CHTO  C101 3449   7.361   4.076   2.714  0.2613  0.1423 -0.8644
    9CHTO  H188 3450   7.438   4.147   2.744  0.4216 -0.5598  0.3840
    9CHTO   O68 3451   7.391   3.936   2.781 -0.4179  0.6304 -0.3452
    9CHTO  H168 3452   7.341   3.871   2.736 -1.4832  0.4949  1.0370
    9CHTO   C99 3453   7.216   4.136   2.753  0.5251 -0.2075  0.8376
    9CHTO  H186 3454   7.135   4.063   2.730 -0.1358  0.4421  1.0703
    9CHTO   N17 3455   7.191   4.171   2.893 -0.9102 -0.3575  0.0913
    9CHTO  H174 3456   7.186   4.079   2.949  0.1274 -0.4110  0.0932
    9CHTO  H175 3457   7.092   4.212   2.908 -1.9128 -1.1522 -3.8334
    9CHTO   C97 3458   7.188   4.261   2.668  0.0482 -0.0301 -0.0872
    9CHTO  H184 3459   7.261   4.341   2.683 -0.8154  0.5887  0.8878
    9CHTO   O64 3460   7.177   4.218   2.531 -0.1479 -0.3821  0.0169
    9CHTO  C104 3461   7.309   4.205   2.488  0.0161 -0.4282 -0.0351
    9CHTO  H191 3462   7.377   4.288   2.507  0.8288 -0.9370 -0.7071
    9CHTO  C108 3463   7.315   4.182   2.337 -0.1977 -0.0056 -0.4133
    9CHTO   O71 3464   7.308   4.308   2.271 -0.0616 -0.5089 -0.2701
    9CHTO  H171 3465   7.334   4.310   2.181  0.8731  3.5934 -0.0263
    9CHTO   O62 3466   7.052   4.313   2.691 -0.0639  0.5308  0.1389
    9CHTO   C91 3467   7.035   4.446   2.635 -0.4055 -0.7887  0.1715
    9CHTO  H178 3468   7.115   4.465   2.563 -1.2727  1.0645 -0.3237
    9CHTO   C92 3469   7.080   4.555   2.743 -0.3567 -0.1159 -0.1514
    9CHTO  H179 3470   7.169   4.511   2.790 -1.7213 -2.8326 -0.0152
    9CHTO   O66 3471   7.114   4.675   2.677  0.1050 -0.2564 -0.2726
    9CHTO  H166 3472   7.207   4.677   2.672  0.4155  2.7128  3.9262
    9CHTO   C93 3473   6.971   4.593   2.847 -0.2655 -0.0085 -0.2194
    9CHTO  H180 3474   6.992   4.693   2.887  0.8422 -0.7754  1.1786
    9CHTO   N16 3475   6.966   4.497   2.963 -1.1205 -0.1324 -0.0062
    9CHTO  H172 3476   7.063   4.489   3.010 -0.2141 -0.6459 -1.9306
    9CHTO  H173 3477   6.926   4.401   2.935  0.4616 -0.5494 -0.8708
    9CHTO   C94 3478   6.829   4.602   2.776  0.3488 -0.2020  0.1645
    9CHTO  H181 3479   6.764   4.520   2.806 -1.5876  1.0300 -0.5016
    9CHTO   O61 3480   6.833   4.589   2.633 -0.0865 -0.2994  0.4519
    9CHTO   C95 3481   6.894   4.474   2.583 -0.2590  0.2014 -0.1258
    9CHTO  H182 3482   6.833   4.387   2.609  0.1953  0.3279  1.4061
    9CHTO  C106 3483   6.902   4.480   2.432 -0.6245  0.3571  0.0546
    9CHTO   O69 3484   6.914   4.346   2.379 -0.9980 -0.2102 -0.0713
    9CHTO  H169 3485   6.850   4.296   2.425 -0.0462 -1.5374 -0.1645
    9CHTO   O63 3486   6.761   4.750   2.817  0.3110 -0.5919  0.0461
    9CHTO   C96 3487   6.620   4.758   2.796  0.3856 -0.1918 -0.0428
    9CHTO  H183 3488   6.591   4.656   2.770 -3.7840  0.9073 -0.0070
    9CHTO   C98 3489   6.585   4.858   2.682  0.0651 -1.0182 -0.3017
    9CHTO  H185 3490   6.649   4.947   2.690 -0.3719 -0.8655  1.5531
    9CHTO   O67 3491   6.621   4.795   2.555  0.0354  0.3246 -0.2471
    9CHTO  H167 3492   6.626   4.865   2.492  1.6029  2.0181  1.7164
    9CHTO  C102 3493   6.440   4.906   2.676 -0.0340 -0.0576  0.4392
    9CHTO  H189 3494   6.381   4.815   2.653  0.6909 -0.5134  0.3526
    9CHTO   N18 3495   6.406   5.004   2.567  0.2020 -0.0251  0.3244
    9CHTO  H176 3496   6.300   5.029   2.562 -0.0494 -1.1120  0.2317
    9CHTO  H177 3497   6.439   4.964   2.472 -1.7966 -0.8492 -0.0578
    9CHTO  C105 3498   6.377   4.948   2.815 -0.2727  0.7474  0.1870
    9CHTO  H192 3499   6.422   5.041   2.848 -1.9571  1.6354  0.0191
    9CHTO   O65 3500   6.410   4.843   2.914 -0.2803  0.1313 -0.1344
    9CHTO  C100 3501   6.549   4.805   2.936  0.2581  0.3978 -0.7920
    9CHTO  H187 3502   6.608   4.884   2.985  1.7250 -1.8714  1.2247
    9CHTO  C107 3503   6.529   4.688   3.039 -0.1585 -0.0625  0.0753
    9CHTO   O70 3504   6.656   4.643   3.081  0.2479  0.0986  0.5433
    9CHTO  H170 3505   6.694   4.593   3.011 -0.5132  2.9295 -1.9909
    9CHTO   O57 3506   6.208   4.972   2.794  0.0978  0.1082  0.1725
    9CHTO   C85 3507   6.104   4.969   2.893  0.4605  0.0046 -0.1899
    9CHTO  H157 3508   6.008   4.975   2.838 -0.3066 -3.1877  0.6994
    9CHTO   C83 3509   6.111   5.093   2.985  0.7698 -0.0249  0.6772
    9CHTO  H155 3510   6.104   5.182   2.923  1.3180 -1.7590 -1.9203
    9CHTO   O56 3511   6.238   5.117   3.044  0.6434 -0.3726 -0.3280
    9CHTO  H135 3512   6.222   5.188   3.104  0.5776 -2.2390  1.9176
    9CHTO   C81 3513   5.985   5.089   3.076  0.1293  0.3686 -0.3050
    9CHTO  H153 3514   5.897   5.077   3.012 -1.6085 -0.0139  2.0982
    9CHTO   N14 3515   5.960   5.215   3.151 -0.1083  0.5141  0.3593
    9CHTO  H141 3516   5.959   5.203   3.258 -0.6754  0.9427  0.4017
    9CHTO  H142 3517   6.013   5.303   3.121 -0.8152  0.4522 -1.0695
    9CHTO   C79 3518   5.992   4.962   3.170 -0.0248 -0.5749  0.1853
    9CHTO  H151 3519   5.892   4.959   3.215 -1.0688 -0.3106 -2.0627
    9CHTO   O52 3520   6.004   4.844   3.089 -0.0633  0.3148  0.1404
    9CHTO   C86 3521   6.108   4.837   2.990  0.1106  0.1774 -0.1059
    9CHTO  H158 3522   6.201   4.833   3.049 -0.6160 -0.4496  1.0270
    9CHTO   C90 3523   6.104   4.703   2.905 -0.4893 -0.5807  0.0095
    9CHTO   O60 3524   6.127   4.585   2.984  0.6630 -0.6039  0.5695
    9CHTO  H138 3525   6.172   4.524   2.929  0.7739 -0.5175  0.5627
    9CHTO   O50 3526   6.101   4.956   3.262  0.1722 -0.0341 -0.0083
    9CHTO   C73 3527   6.083   4.897   3.390 -0.1365  0.8309  0.5295
    9CHTO  H145 3528   5.998   4.827   3.397 -0.7796  1.4441 -0.9037
    9CHTO   C74 3529   6.066   4.996   3.506  0.3826  0.9253 -0.0046
    9CHTO  H146 3530   5.976   5.045   3.467 -0.7778 -1.1109  0.0727
    9CHTO   O54 3531   6.030   4.927   3.626  0.2832 -0.2034 -0.1030
    9CHTO  H133 3532   5.949   4.880   3.619  0.9050 -1.4811  1.2624
    9CHTO   C75 3533   6.185   5.090   3.516  0.0874 -0.0781  0.2990
    9CHTO  H147 3534   6.182   5.153   3.426 -2.4825 -0.0419  0.4009
    9CHTO   N13 3535   6.175   5.187   3.626  0.0434  0.1779  0.0791
    9CHTO  H139 3536   6.088   5.250   3.616  1.1840  1.7091 -0.4107
    9CHTO  H140 3537   6.194   5.139   3.721 -0.9909 -0.7531 -0.1726
    9CHTO   C76 3538   6.328   5.005   3.518 -0.0369 -0.2272 -0.6873
    9CHTO  H148 3539   6.327   4.947   3.610 -3.1711  1.4013  0.3850
    9CHTO   O49 3540   6.327   4.900   3.421  0.0235 -0.6401 -0.6606
    9CHTO   C77 3541   6.212   4.817   3.413 -0.1871  0.4665  0.3477
    9CHTO  H149 3542   6.204   4.767   3.509  1.5613  0.1163  0.3277
    9CHTO   C88 3543   6.236   4.706   3.311  0.2114 -0.1665 -0.4708
    9CHTO   O58 3544   6.110   4.610   3.308 -0.0426  0.0178  0.9425
    9CHTO  H136 3545   6.116   4.543   3.243  0.3238  0.0441  0.9506
    9CHTO   O51 3546   6.474   5.103   3.492  0.3344  0.2237  0.0627
    9CHTO   C78 3547   6.594   5.010   3.526 -0.5824 -0.2719 -0.3087
    9CHTO  H150 3548   6.576   4.901   3.541  2.1961 -0.4731  2.0725
    9CHTO   C80 3549   6.650   5.063   3.656  0.1648 -0.4016  0.1429
    9CHTO  H152 3550   6.667   5.173   3.650  1.8654 -0.6304  0.4920
    9CHTO   O55 3551   6.558   5.034   3.760  0.0788  0.0859 -0.2965
    9CHTO  H134 3552   6.590   5.063   3.843  1.1704 -0.8220 -0.3853
    9CHTO   C84 3553   6.790   5.004   3.697 -0.0204  0.6027 -0.1883
    9CHTO  H156 3554   6.767   4.900   3.722  1.2365  0.3918  0.1375
    9CHTO   N15 3555   6.845   5.060   3.821  0.3891 -0.6403 -0.5648
    9CHTO  H143 3556   6.821   5.163   3.839 -0.0567 -0.1844 -3.5101
    9CHTO  H144 3557   6.950   5.048   3.804  0.5911  1.8472 -1.3228
    9CHTO   C87 3558   6.886   4.979   3.577  0.0548 -0.0475 -0.0799
    9CHTO  H159 3559   6.930   5.077   3.559  1.0195 -0.4532  0.0685
    9CHTO   O53 3560   6.803   4.933   3.457  0.1852 -0.2638  0.1144
    9CHTO   C82 3561   6.704   5.027   3.421 -0.5773 -0.0140 -0.6341
    9CHTO  H154 3562   6.752   5.124   3.413  1.0556 -0.9373 -2.7397
    9CHTO   C89 3563   6.661   4.985   3.280 -0.1775 -0.3910  0.2860
    9CHTO   O59 3564   6.578   5.089   3.214 -0.1591 -0.0269  0.8939
    9CHTO  H137 3565   6.614   5.175   3.228  0.8450 -0.8416  3.7187
    9CHTO   O45 3566   6.998   4.879   3.614  0.7578 -0.0789 -0.4918
    9CHTO   C67 3567   7.065   4.820   3.501  0.0362  0.8434 -0.8904
    9CHTO  H124 3568   7.064   4.883   3.412 -3.1636 -0.2059 -1.6466
    9CHTO   C65 3569   7.215   4.789   3.535  0.0277  0.5925 -0.2292
    9CHTO  H122 3570   7.260   4.881   3.572  0.5341  0.6479 -0.9686
    9CHTO   O44 3571   7.289   4.740   3.420 -0.0404  0.0700 -0.6761
    9CHTO  H102 3572   7.253   4.679   3.358 -0.9791 -0.9151  0.8170
    9CHTO   C63 3573   7.212   4.689   3.658  0.7014  0.1497 -0.4184
    9CHTO  H120 3574   7.137   4.718   3.731  0.4513  0.0593 -0.6391
    9CHTO   N11 3575   7.337   4.688   3.738 -0.1882  0.0113  0.5717
    9CHTO  H108 3576   7.354   4.593   3.784  0.8970  0.8146  1.8527
    9CHTO  H109 3577   7.423   4.703   3.677 -0.5020 -2.5846 -0.5808
    9CHTO   C61 3578   7.151   4.552   3.609  0.0886 -0.0319 -0.0794
    9CHTO  H118 3579   7.100   4.503   3.693  1.8856  0.3660  1.2732
    9CHTO   O40 3580   7.062   4.561   3.492 -0.0922  0.0551 -0.3116
    9CHTO   C68 3581   6.990   4.686   3.467 -0.2819  0.0742 -0.6637
    9CHTO  H125 3582   6.895   4.687   3.524  0.3123 -2.5619  0.4382
    9CHTO   C72 3583   6.952   4.681   3.319  0.6920  0.2614  0.3480
    9CHTO   O48 3584   7.060   4.699   3.228  0.2413  0.3917  0.3080
    9CHTO  H105 3585   7.034   4.716   3.139  0.9873  0.8609  0.1738
    9CHTO   O38 3586   7.256   4.470   3.546  0.1871  0.3326  0.2082
    9CHTO   C55 3587   7.225   4.336   3.511 -0.0941 -0.2471  0.6477
    9CHTO  H112 3588   7.117   4.320   3.497  0.1143 -1.3006  0.1813
    9CHTO   C56 3589   7.284   4.234   3.616 -0.2074 -1.0240 -0.0300
    9CHTO  H113 3590   7.393   4.243   3.620 -0.3070 -0.6491  2.9731
    9CHTO   O42 3591   7.242   4.284   3.749  0.0391 -0.0755 -0.0321
    9CHTO  H100 3592   7.295   4.357   3.773 -1.5796  1.6284 -1.4793
    9CHTO   C57 3593   7.226   4.091   3.588  0.0135  0.4389 -0.1974
    9CHTO  H114 3594   7.118   4.097   3.602  0.2803  3.3287  0.9775
    9CHTO   N10 3595   7.266   3.993   3.689  0.1973 -0.2689 -0.0943
    9CHTO  H106 3596   7.251   3.893   3.651 -1.0722 -1.2554  2.8566
    9CHTO  H107 3597   7.370   4.007   3.715  0.1118 -0.4579  0.3567
    9CHTO   C58 3598   7.254   4.045   3.441  0.0233 -0.4637 -0.3435
    9CHTO  H115 3599   7.362   4.020   3.435  0.2854  0.2756  1.0668
    9CHTO   O37 3600   7.239   4.153   3.345 -0.0355  0.7160 -0.0200
    9CHTO   C59 3601   7.283   4.289   3.370 -0.3824 -0.3341  0.5676
    9CHTO  H116 3602   7.392   4.296   3.369 -0.3460 -0.7053  1.1897
    9CHTO   C70 3603   7.218   4.378   3.259 -0.5996 -0.0389  0.5239
    9CHTO   O46 3604   7.280   4.372   3.128 -0.4786 -0.1646  0.3328
    9CHTO  H103 3605   7.260   4.454   3.086  0.4781 -0.5361 -0.8350
    9CHTO   O39 3606   7.151   3.927   3.391  0.3692 -0.0947 -0.0423
    9CHTO   C60 3607   7.210   3.792   3.375 -0.0482  0.6541 -0.1142
    9CHTO  H117 3608   7.318   3.801   3.392  0.0036  0.2160 -0.2119
    9CHTO   C62 3609   7.152   3.689   3.477  0.4182  0.2590 -0.3907
    9CHTO  H119 3610   7.162   3.733   3.578 -2.0629  0.3385 -0.1491
    9CHTO   O43 3611   7.011   3.666   3.462 -0.1325 -0.4460  0.0508
    9CHTO  H101 3612   6.972   3.742   3.421 -1.4220 -1.9888 -1.6986
    9CHTO   C66 3613   7.248   3.565   3.458 -0.0896  0.5045 -0.4698
    9CHTO  H123 3614   7.349   3.595   3.484  0.5235  0.1714 -2.4593
    9CHTO   N12 3615   7.215   3.472   3.570 -0.4423 -0.2231 -0.1247
    9CHTO  H110 3616   7.176   3.381   3.527 -0.0808 -1.1528  1.4418
    9CHTO  H111 3617   7.292   3.469   3.646 -1.1549 -0.7917  0.5810
    9CHTO   C69 3618   7.234   3.504   3.318  0.9878  0.8113 -0.1834
    9CHTO  H126 3619   7.129   3.471   3.307  0.5304  2.1213  0.1331
    9CHTO   O41 3620   7.257   3.608   3.199 -0.5186  0.0475 -0.6767
    9CHTO   C64 3621   7.196   3.750   3.229 -0.3996  0.2685 -0.0806
    9CHTO  H121 3622   7.088   3.744   3.206 -0.5525 -1.6459  1.0538
    9CHTO   C71 3623   7.265   3.853   3.130 -0.1566  0.2194 -0.7347
    9CHTO   O47 3624   7.221   3.833   2.995  0.3431  0.3249 -0.0897
    9CHTO  H104 3625   7.269   3.888   2.936 -2.1251  1.1865 -1.3809
    9CHTO   O34 3626   7.337   3.359   3.294 -0.0761 -0.4587 -0.3921
    9CHTO   C49 3627   7.402   3.253   3.227  0.7566  0.4599  0.7235
    9CHTO   H91 3628   7.408   3.275   3.120  0.3348  0.4608  0.6997
    9CHTO   C47 3629   7.314   3.129   3.241  0.0564  0.1289 -0.0247
    9CHTO   H89 3630   7.369   3.047   3.191  0.3522  1.5034 -1.9990
    9CHTO   O33 3631   7.192   3.146   3.169  0.7077 -0.7002 -0.0693
    9CHTO   H70 3632   7.212   3.188   3.088 -0.3585 -1.9478 -0.9832
    9CHTO   C45 3633   7.294   3.095   3.400 -0.2869  0.5489 -0.0490
    9CHTO   H87 3634   7.210   3.151   3.445 -1.1926 -0.6900 -0.1695
    9CHTO    N8 3635   7.261   2.947   3.404 -0.2050  0.0596 -0.1787
    9CHTO   H75 3636   7.332   2.892   3.344  1.4104  3.4604 -1.5051
    9CHTO   H76 3637   7.252   2.917   3.508  1.5529  0.0989 -0.0003
    9CHTO   C43 3638   7.419   3.153   3.487 -0.4374 -0.2554  0.0963
    9CHTO   H85 3639   7.397   3.257   3.510  1.0845  0.2068 -0.4844
    9CHTO   O29 3640   7.537   3.137   3.406 -0.0893 -0.1599  0.3523
    9CHTO   C50 3641   7.544   3.221   3.290  0.0707 -0.4933 -0.0929
    9CHTO   H92 3642   7.588   3.315   3.326  0.3087 -0.1100 -1.3539
    9CHTO   C54 3643   7.656   3.164   3.188 -0.5623  0.4689  0.2904
    9CHTO   O36 3644   7.623   3.032   3.139 -0.4582  0.8411 -0.1080
    9CHTO   H72 3645   7.551   3.039   3.079  0.4800 -0.5186 -1.4127
    9CHTO   O27 3646   7.424   3.106   3.619 -0.4140 -0.0886 -0.3351
    9CHTO   C37 3647   7.469   3.155   3.746  0.1733  0.4683 -0.6252
    9CHTO   H79 3648   7.512   3.076   3.809 -0.8225  1.3218  1.1623
    9CHTO   C38 3649   7.584   3.260   3.728  0.0609  0.4084 -0.0427
    9CHTO   H80 3650   7.550   3.336   3.657 -0.9682 -0.1554 -0.1696
    9CHTO   O31 3651   7.699   3.197   3.660 -0.2906  0.1808 -0.2038
    9CHTO   H68 3652   7.765   3.258   3.633 -0.8140  0.8676  0.0466
    9CHTO   C39 3653   7.625   3.327   3.868 -0.5861  0.4215 -0.1968
    9CHTO   H81 3654   7.683   3.256   3.928 -3.0537 -0.7420  0.8603
    9CHTO    N7 3655   7.721   3.441   3.846 -0.0019 -0.8886  0.2047
    9CHTO   H73 3656   7.812   3.408   3.796 -1.0601 -2.1939 -0.8864
    9CHTO   H74 3657   7.677   3.517   3.783  0.5006 -0.3312  0.5110
    9CHTO   C40 3658   7.497   3.368   3.946  0.5756  0.0302  0.8156
    9CHTO   H82 3659   7.452   3.459   3.906  1.2084  0.1731  0.4196
    9CHTO   O26 3660   7.404   3.261   3.953 -0.0172 -0.2712 -0.2529
    9CHTO   C41 3661   7.350   3.223   3.821  0.0286  0.7324  0.7151
    9CHTO   H83 3662   7.318   3.310   3.762  2.3533  1.2469  0.1218
    9CHTO   C52 3663   7.234   3.134   3.841 -0.2133  0.5627  0.3372
    9CHTO   O35 3664   7.144   3.112   3.713  0.1947  0.0274 -1.0716
    9CHTO   H71 3665   7.115   3.023   3.704  0.6213  0.0804 -3.2727
    9CHTO   O28 3666   7.527   3.399   4.084  0.1666  0.1161 -0.2529
    9CHTO   C42 3667   7.443   3.475   4.176 -0.4687  0.0229  0.7033
    9CHTO   H84 3668   7.488   3.462   4.274 -1.3276  1.2363  1.2722
    9CHTO   C44 3669   7.298   3.418   4.190 -0.8161  0.1810  0.7867
    9CHTO   H86 3670   7.244   3.411   4.095  0.8145 -2.0622 -0.0119
    9CHTO   O32 3671   7.316   3.287   4.254 -0.0059  0.4456 -0.2374
    9CHTO   H69 3672   7.303   3.292   4.346  0.5864 -0.4558 -0.1060
    9CHTO   C48 3673   7.209   3.512   4.285  0.2177 -0.1887  0.2226
    9CHTO   H90 3674   7.234   3.486   4.388 -0.5985 -0.6935  0.3027
    9CHTO    N9 3675   7.060   3.469   4.281  0.1382 -0.1124 -0.5611
    9CHTO   H77 3676   7.035   3.435   4.181 -1.8012 -1.4738  0.3458
    9CHTO   H78 3677   7.005   3.554   4.319 -0.4904 -0.0087 -1.6484
    9CHTO   C51 3678   7.226   3.667   4.250 -0.3834  0.0371 -0.6269
    9CHTO   H93 3679   7.187   3.675   4.149 -2.2726  1.9370  0.2110
    9CHTO   O30 3680   7.364   3.699   4.264  0.1452 -0.3110 -0.3849
    9CHTO   C46 3681   7.451   3.631   4.150  0.9381 -0.6969  0.0611
    9CHTO   H88 3682   7.406   3.657   4.054 -2.1090 -0.6575  1.4162
    9CHTO   C53 3683   7.592   3.678   4.158  0.2068  0.6293  0.1794
    9CHTO   O72 3684   7.647   3.660   4.290 -0.1580 -0.7568 -0.1399
    9CHTO  H199 3685   7.735   3.690   4.280 -0.0300 -0.8425  0.7134
    9CHTO   O22 3686   7.162   3.760   4.342  0.6519  0.2633  0.2668
    9CHTO   C31 3687   7.108   3.891   4.295 -0.1976  0.0778  0.4518
    9CHTO   H59 3688   7.075   3.941   4.389  0.2171  0.4796  0.3866
    9CHTO   C29 3689   7.225   3.975   4.233  0.7218  0.7113 -0.2803
    9CHTO   H57 3690   7.263   3.920   4.146 -1.6619 -0.6606 -0.4773
    9CHTO   O21 3691   7.331   3.988   4.328  0.5813 -0.2887 -0.2352
    9CHTO   H37 3692   7.351   3.903   4.363 -1.8888 -1.1046 -0.6904
    9CHTO   C27 3693   7.172   4.112   4.181  0.1584  0.6495 -0.0283
    9CHTO   H55 3694   7.130   4.167   4.266 -2.3973  0.6208 -1.2078
    9CHTO    N5 3695   7.282   4.191   4.120 -0.2670  0.9748  0.4944
    9CHTO   H43 3696   7.238   4.274   4.066 -0.3899  2.1866  2.4493
    9CHTO   H44 3697   7.359   4.132   4.072  0.6452  3.0398 -0.6482
    9CHTO   C25 3698   7.054   4.082   4.083 -0.3442  0.2300  0.7396
    9CHTO   H53 3699   7.080   4.011   4.003  0.0539  0.1333  0.9573
    9CHTO   O17 3700   6.944   4.006   4.146 -0.1943  0.2072 -0.1397
    9CHTO   C32 3701   6.987   3.878   4.204  0.1291 -0.4974 -0.9106
    9CHTO   H60 3702   7.013   3.808   4.125  0.3186 -1.7307  0.2352
    9CHTO   C36 3703   6.853   3.832   4.276 -0.0196 -0.2003  0.2211
    9CHTO   O25 3704   6.806   3.932   4.370  0.3733  0.1365  0.4211
    9CHTO   H40 3705   6.714   3.919   4.381  0.4725  1.2904  2.8638
    9CHTO   O15 3706   6.993   4.231   4.025  0.2495 -0.4218  0.6336
    9CHTO   C19 3707   6.888   4.266   3.930  0.0843 -0.2232  0.3119
    9CHTO   H47 3708   6.798   4.235   3.984  1.3085 -1.7797  1.5232
    9CHTO   C20 3709   6.897   4.419   3.907 -0.3027 -0.5375 -0.0490
    9CHTO   H48 3710   7.001   4.451   3.887 -0.4768 -0.5098 -0.8996
    9CHTO   O19 3711   6.857   4.473   4.031  0.2341  0.7651 -0.5197
    9CHTO   H35 3712   6.820   4.558   4.016 -0.0043  0.7269 -0.1662
    9CHTO   C21 3713   6.801   4.474   3.790 -0.2367  0.0732 -0.5302
    9CHTO   H49 3714   6.698   4.460   3.822  0.7334 -1.7508  1.9910
    9CHTO    N4 3715   6.807   4.617   3.769 -0.2046 -0.2136  0.4425
    9CHTO   H41 3716   6.815   4.679   3.856 -3.2179  0.0564  0.5862
    9CHTO   H42 3717   6.733   4.660   3.703  1.2391  1.1258 -0.3276
    9CHTO   C22 3718   6.831   4.381   3.672  0.3931 -0.3524  0.4060
    9CHTO   H50 3719   6.933   4.395   3.637  1.1850  1.6271  3.2938
    9CHTO   O14 3720   6.799   4.246   3.704 -0.1943  0.0821  0.3793
    9CHTO   C23 3721   6.892   4.183   3.795 -0.1585 -0.0522  0.0026
    9CHTO   H51 3722   6.991   4.179   3.747 -0.5602  0.1488 -0.8482
    9CHTO   C34 3723   6.841   4.039   3.814  0.3817 -0.2324  0.2176
    9CHTO   O23 3724   6.879   3.954   3.706  0.4299 -0.3842 -0.5996
    9CHTO   H38 3725   6.973   3.944   3.700  0.3013 -2.3247  0.1200
    9CHTO   O16 3726   6.736   4.405   3.566 -0.4426 -0.3095  0.7407
    9CHTO   C24 3727   6.699   4.307   3.446 -0.1458 -0.2048  0.2508
    9CHTO   H52 3728   6.641   4.220   3.478  1.0802 -1.4954 -1.0286
    9CHTO   C26 3729   6.827   4.260   3.371  0.4689 -0.2963  0.4261
    9CHTO   H54 3730   6.895   4.346   3.355 -2.8179  2.4515  0.7989
    9CHTO   O20 3731   6.908   4.175   3.454  0.3996  0.0334 -0.0309
    9CHTO   H36 3732   6.990   4.155   3.413 -0.5895 -1.6153 -1.2774
    9CHTO   C30 3733   6.793   4.190   3.238  0.2129  0.9074  0.5764
    9CHTO   H58 3734   6.751   4.090   3.256  1.4383 -0.0473 -1.7188
    9CHTO    N6 3735   6.919   4.163   3.159  0.4746 -0.5133  0.1001
    9CHTO   H45 3736   6.912   4.090   3.080  2.1055 -1.0584  0.4527
    9CHTO   H46 3737   7.005   4.144   3.220  0.6217 -0.8605 -0.2190
    9CHTO   C33 3738   6.685   4.262   3.154  0.3075 -0.8742 -0.4690
    9CHTO   H61 3739   6.724   4.352   3.106 -2.4957  1.0001  0.6469
    9CHTO   O18 3740   6.570   4.307   3.231  0.0291 -0.1674 -0.1203
    9CHTO   C28 3741   6.607   4.390   3.341  0.1418 -0.3746  0.0435
    9CHTO   H56 3742   6.659   4.479   3.304  0.6985 -0.9338 -0.5241
    9CHTO   C35 3743   6.471   4.439   3.410 -0.2348  0.1152 -0.7009
    9CHTO   O24 3744   6.491   4.547   3.504  0.2000  0.4695 -0.2571
    9CHTO   H39 3745   6.537   4.623   3.473 -0.7503  0.3027 -2.1823
    9CHTO    O9 3746   6.642   4.174   3.047 -0.4081  0.0744  0.3308
    9CHTO   C13 3747   6.623   4.234   2.898 -0.0744 -0.0412  0.0531
    9CHTO   H26 3748   6.722   4.268   2.862 -0.3472  2.9485  1.9686
    9CHTO   C11 3749   6.518   4.351   2.882  0.3644 -0.8805  0.3342
    9CHTO   H24 3750   6.582   4.437   2.909 -2.7727  1.4677  0.6843
    9CHTO    O8 3751   6.415   4.329   2.980 -0.1412 -0.5305 -0.4205
    9CHTO    H3 3752   6.344   4.390   2.978  0.2538 -0.0000  1.0880
    9CHTO    C9 3753   6.474   4.350   2.732 -0.0489  0.2335  0.6150
    9CHTO   H22 3754   6.564   4.374   2.675  0.5574 -1.1135  0.9830
    9CHTO    N2 3755   6.389   4.474   2.709 -0.1894 -0.1280  0.0937
    9CHTO   H10 3756   6.290   4.449   2.675 -0.2367  0.9032 -0.5694
    9CHTO   H11 3757   6.430   4.551   2.645 -0.8874  0.2844  0.1311
    9CHTO    C7 3758   6.425   4.212   2.679  0.0892  0.0079  0.3079
    9CHTO   H20 3759   6.458   4.204   2.573 -0.6204  1.4905 -0.0367
    9CHTO    O4 3760   6.460   4.102   2.757 -0.7393 -0.2525 -0.1106
    9CHTO   C14 3761   6.598   4.112   2.794 -0.0533  0.3740 -0.0329
    9CHTO   H27 3762   6.657   4.131   2.701 -1.2000  1.8526 -0.4718
    9CHTO   C18 3763   6.648   3.983   2.851  0.1559  0.3770 -0.5672
    9CHTO   O13 3764   6.639   3.877   2.763 -0.3284 -0.4314  0.2376
    9CHTO    H7 3765   6.717   3.827   2.777  1.1829  2.1763  1.4354
    9CHTO    O2 3766   6.250   4.222   2.676 -0.3745 -0.0738  0.3265
    9CHTO    C1 3767   6.167   4.110   2.723 -1.0670 -0.7851 -0.5365
    9CHTO   H14 3768   6.215   4.056   2.807 -0.7408 -0.0519 -0.2467
    9CHTO    C2 3769   6.135   4.007   2.612 -0.3090  0.2403  1.1018
    9CHTO   H15 3770   6.088   4.060   2.528 -0.9956 -1.3398  0.4658
    9CHTO    O6 3771   6.265   3.951   2.587  0.0845 -0.2591 -0.6068
    9CHTO    H1 3772   6.279   3.940   2.495  0.4275  0.0352 -0.5917
    9CHTO    C3 3773   6.031   3.895   2.666 -0.1120  0.3498 -0.0771
    9CHTO   H16 3774   6.090   3.843   2.742  1.0434 -0.4118 -1.4826
    9CHTO    N1 3775   5.997   3.801   2.555 -0.7014 -0.3064  0.2852
    9CHTO    H8 3776   6.078   3.731   2.540 -0.6678 -0.6216  1.8494
    9CHTO    H9 3777   5.914   3.739   2.582 -0.6226 -1.3015 -1.6803
    9CHTO    C4 3778   5.905   3.956   2.727 -0.2364 -0.0452  0.3003
    9CHTO   H17 3779   5.842   3.999   2.650  1.8907 -1.1227 -2.1114
    9CHTO    O1 3780   5.948   4.060   2.818 -0.1973  0.2224  0.3454
    9CHTO    C5 3781   6.031   4.165   2.766  0.3639 -0.4692 -0.1036
    9CHTO   H18 3782   5.988   4.207   2.676  1.5111  1.2679  0.1346
    9CHTO   C16 3783   6.027   4.276   2.877 -0.1753 -0.5785  0.4709
    9CHTO   O11 3784   5.904   4.338   2.907  0.3446 -0.4015  0.1383
    9CHTO    H5 3785   5.865   4.372   2.828  1.7230 -0.5081 -0.5998
    9CHTO    O3 3786   5.834   3.859   2.810  0.4396 -0.3627  0.3667
    9CHTO    C6 3787   5.704   3.902   2.869 -0.0074 -0.5791 -0.0294
    9CHTO   H19 3788   5.692   4.010   2.873 -0.3163 -0.6110 -0.0520
    9CHTO    C8 3789   5.582   3.841   2.794 -0.4080  0.1767  0.1139
    9CHTO   H21 3790   5.598   3.733   2.791  2.2624  0.5668 -1.0885
    9CHTO    O7 3791   5.593   3.894   2.658  0.5047 -0.5891 -0.3739
    9CHTO    H2 3792   5.508   3.920   2.627  0.7975 -0.5211 -1.1187
    9CHTO   C12 3793   5.449   3.882   2.864  0.8962  0.6594  0.0343
    9CHTO   H25 3794   5.445   3.992   2.849  0.4790  0.6637  0.1790
    9CHTO    N3 3795   5.335   3.820   2.792 -0.0771 -0.4789  0.7847
    9CHTO   H12 3796   5.365   3.761   2.707 -2.3496 -1.2476  0.4937
    9CHTO   H13 3797   5.273   3.900   2.754 -1.5585 -2.0680 -0.1845
    9CHTO   C15 3798   5.457   3.850   3.014 -0.1766  0.6065 -0.1643
    9CHTO   H28 3799   5.444   3.746   3.043 -1.3765  0.4695 -1.1482
    9CHTO   O10 3800   5.338   3.937   3.102 -0.0366  0.0142 -0.3986
    9CHTO    H4 3801   5.268   3.882   3.133 -0.2845  0.7833  0.4172
    9CHTO    O5 3802   5.578   3.905   3.070 -0.0805 -0.5222  0.0634
    9CHTO   C10 3803   5.701   3.850   3.018 -0.4319 -0.2548 -0.2553
    9CHTO   H23 3804   5.701   3.742   3.023  0.9562 -0.2846 -0.6940
    9CHTO   C17 3805   5.812   3.905   3.104  0.1148 -0.0862 -0.2537
    9CHTO   O12 3806   5.940   3.845   3.095  0.2842 -0.3828 -0.4991
    9CHTO    H6 3807   5.926   3.753   3.104 -0.2094 -0.2351  0.3635
   10CHTO  H203 3808   4.109   6.531   2.829  0.0258 -0.2214  0.9392
   10CHTO   O82 3809   4.117   6.624   2.843 -0.1065 -0.1285  0.3840
   10CHTO  C123 3810   4.014   6.677   2.926  0.4560 -0.7651 -0.1406
   10CHTO  H227 3811   4.055   6.733   3.012  1.0547 -1.4044 -0.0066
   10CHTO   O77 3812   3.946   6.761   2.833 -0.0336  0.3581  0.4850
   10CHTO  C118 3813   3.835   6.831   2.883  0.2099  0.2549  0.1904
   10CHTO  H222 3814   3.864   6.880   2.977  0.1484 -0.6862  0.7001
   10CHTO  C125 3815   3.797   6.942   2.770 -0.4459  0.4023 -0.4164
   10CHTO   O84 3816   3.752   6.889   2.640  0.1699  0.4370  0.2410
   10CHTO  H205 3817   3.685   6.826   2.661  0.4809  0.0713  0.1504
   10CHTO  C114 3818   3.726   6.733   2.914 -0.0789  0.3599  0.1349
   10CHTO  H218 3819   3.706   6.659   2.836 -1.3417 -0.5829  1.3268
   10CHTO  C116 3820   3.771   6.637   3.023 -0.1998 -0.0280 -0.1107
   10CHTO  H220 3821   3.779   6.696   3.117  1.6714 -0.0994 -0.2222
   10CHTO   O79 3822   3.670   6.542   3.049  0.2154 -0.2622 -0.0668
   10CHTO  H201 3823   3.624   6.519   2.971 -2.0125 -2.0292  1.6754
   10CHTO  C120 3824   3.912   6.571   2.982 -0.0831 -0.6658  0.0412
   10CHTO  H224 3825   3.886   6.508   2.894  0.3312 -0.5756 -0.1476
   10CHTO   N21 3826   3.974   6.491   3.086 -0.0273 -0.1334 -0.4256
   10CHTO  H211 3827   3.906   6.425   3.138 -0.3509  0.1733 -0.4585
   10CHTO  H212 3828   4.024   6.559   3.152  0.6734 -1.7059  0.7071
   10CHTO   O75 3829   3.611   6.817   2.945 -0.3192  0.0060 -0.5720
   10CHTO  C112 3830   3.595   6.870   3.097  0.6751  0.1851 -0.2105
   10CHTO  H216 3831   3.696   6.875   3.140  0.0535  0.9621  1.1802
   10CHTO   O73 3832   3.509   6.775   3.169 -0.4945  0.1261 -0.4972
   10CHTO  C113 3833   3.473   6.807   3.302  0.7695  0.3791 -0.6609
   10CHTO  H217 3834   3.562   6.831   3.363  0.7045 -1.3247  0.1163
   10CHTO  C124 3835   3.406   6.684   3.364  0.1028 -0.1625 -0.2331
   10CHTO   O83 3836   3.284   6.637   3.303  0.3383  0.4909 -0.7098
   10CHTO  H204 3837   3.284   6.546   3.324  1.0850  0.1560 -2.1335
   10CHTO  C109 3838   3.387   6.935   3.302 -0.1831  0.1341  0.0728
   10CHTO  H213 3839   3.291   6.911   3.253  0.5542 -0.7823 -0.9478
   10CHTO  C110 3840   3.471   7.051   3.235 -0.5964  0.9902  0.2321
   10CHTO  H214 3841   3.551   7.064   3.308 -0.5909  0.6319  0.2896
   10CHTO   O78 3842   3.398   7.174   3.229 -0.0768 -0.0532 -0.1655
   10CHTO  H200 3843   3.457   7.240   3.201  0.6172  0.0395  1.4673
   10CHTO  C111 3844   3.530   7.011   3.097  0.1206 -0.4849 -0.3451
   10CHTO  H215 3845   3.447   7.012   3.026  0.9294 -1.7151 -1.3257
   10CHTO   N19 3846   3.629   7.110   3.057 -0.0510  0.1494  0.3009
   10CHTO  H207 3847   3.573   7.199   3.033  0.3485 -0.4407 -3.0839
   10CHTO  H208 3848   3.681   7.067   2.973 -0.5667 -1.1526  0.6304
   10CHTO   O74 3849   3.367   6.955   3.444  0.0003  0.1654 -0.3658
   10CHTO  C115 3850   3.230   7.056   3.478 -0.1269  1.2690  0.1477
   10CHTO  H219 3851   3.233   7.150   3.424  1.1700  1.6567  0.8787
   10CHTO   O76 3852   3.108   6.996   3.426  0.5191  0.2562  0.5282
   10CHTO  C122 3853   3.079   6.876   3.499 -0.8996  0.1716 -0.4494
   10CHTO  H226 3854   3.158   6.807   3.468 -0.9661  0.7801 -2.0074
   10CHTO  C126 3855   2.950   6.823   3.436  0.2407 -0.4313  0.1349
   10CHTO   O85 3856   2.969   6.740   3.323  0.1903 -0.2606 -0.2401
   10CHTO  H206 3857   2.988   6.804   3.257  2.0518  0.7174  1.2297
   10CHTO  C121 3858   3.068   6.898   3.660 -0.5652  0.0094 -0.1621
   10CHTO  H225 3859   2.966   6.879   3.699  0.2282 -3.4640  0.4420
   10CHTO   O81 3860   3.153   6.804   3.715 -0.4625  0.0241 -0.1698
   10CHTO  H202 3861   3.166   6.826   3.805 -1.0232  0.2498 -0.1403
   10CHTO  C119 3862   3.109   7.046   3.708 -0.6290 -0.2188  0.7618
   10CHTO  H223 3863   3.021   7.105   3.683 -0.4167  0.1983  0.9798
   10CHTO  C117 3864   3.238   7.086   3.636 -0.0827 -1.0534  0.0168
   10CHTO  H221 3865   3.326   7.031   3.667 -0.0799 -1.0055  0.0939
   10CHTO   N20 3866   3.272   7.228   3.661 -0.9915  0.3411 -0.4303
   10CHTO  H209 3867   3.278   7.258   3.764 -1.4123  0.7660 -0.5284
   10CHTO  H210 3868   3.341   7.265   3.587 -1.1656 -0.6783 -1.1148
   10CHTO   O80 3869   3.115   7.069   3.880 -0.2925  0.0415  0.0467
   10CHTO  C103 3870   2.969   7.092   3.965  0.5121 -0.6083 -0.0980
   10CHTO  H190 3871   2.892   7.131   3.898 -0.4785 -0.9234  0.8538
   10CHTO  C101 3872   2.916   6.975   4.036 -0.2053 -0.5874 -0.3033
   10CHTO  H188 3873   2.992   6.920   4.091 -0.0596  0.1254  0.2013
   10CHTO   O68 3874   2.871   6.879   3.912 -0.4007 -0.2297 -0.2183
   10CHTO  H168 3875   2.946   6.831   3.882  0.7953  0.4203  1.5691
   10CHTO   C99 3876   2.783   7.006   4.122  0.4857  0.7191  0.0556
   10CHTO  H186 3877   2.716   7.056   4.049 -0.0208 -0.3385 -0.2168
   10CHTO   N17 3878   2.719   6.890   4.191  0.1723  0.9306  0.2962
   10CHTO  H174 3879   2.626   6.914   4.240  0.1901 -0.5657  1.1015
   10CHTO  H175 3880   2.786   6.837   4.256  0.0333  0.3499 -0.0321
   10CHTO   C97 3881   2.822   7.112   4.227  0.1991  0.1984  0.1904
   10CHTO  H184 3882   2.891   7.067   4.300  0.4430  0.6247  0.2230
   10CHTO   O64 3883   2.884   7.221   4.159 -0.1365 -0.1992 -0.1633
   10CHTO  C104 3884   3.003   7.206   4.070  0.6579 -0.2568  0.8913
   10CHTO  H191 3885   3.091   7.179   4.129  1.8849 -0.5724 -1.0379
   10CHTO  C108 3886   3.033   7.345   4.011 -0.4120 -0.0939  0.4229
   10CHTO   O71 3887   3.169   7.366   3.964 -0.0759 -0.1733 -0.1830
   10CHTO  H171 3888   3.188   7.325   3.882 -0.8308 -0.7288 -0.0840
   10CHTO   O62 3889   2.709   7.182   4.294 -0.3076  0.2420 -0.2821
   10CHTO   C91 3890   2.678   7.147   4.437 -0.3893  0.0933 -0.1887
   10CHTO  H178 3891   2.705   7.045   4.464  0.2860  0.3111 -0.0306
   10CHTO   C92 3892   2.524   7.148   4.445  0.1862  0.0640 -0.0445
   10CHTO  H179 3893   2.484   7.242   4.405  0.3520  0.0908 -0.1504
   10CHTO   O66 3894   2.477   7.057   4.340  0.3564  0.0139  0.1813
   10CHTO  H166 3895   2.521   7.068   4.259  2.0181  4.2164  1.5491
   10CHTO   C93 3896   2.477   7.126   4.591  0.3480 -0.8887 -0.0358
   10CHTO  H180 3897   2.502   7.023   4.620  0.5167 -0.8991 -0.2143
   10CHTO   N16 3898   2.330   7.146   4.595  0.3655 -0.0326  0.2150
   10CHTO  H172 3899   2.286   7.055   4.633  0.5483 -0.1852  0.0577
   10CHTO  H173 3900   2.298   7.173   4.496  0.1217  1.6900  0.7500
   10CHTO   C94 3901   2.546   7.233   4.675 -0.3022 -0.1360  0.1594
   10CHTO  H181 3902   2.521   7.333   4.639  0.0019 -1.0031 -2.5927
   10CHTO   O61 3903   2.688   7.216   4.673 -0.2544 -0.1074  0.8366
   10CHTO   C95 3904   2.744   7.241   4.542  0.4560 -0.4190 -0.1076
   10CHTO  H182 3905   2.730   7.346   4.514 -0.1435 -0.8088 -1.2962
   10CHTO  C106 3906   2.896   7.225   4.569  0.1773 -1.0422 -0.4651
   10CHTO   O69 3907   2.981   7.242   4.454  0.3476 -0.1716 -0.6546
   10CHTO  H169 3908   2.971   7.326   4.414  1.2102  0.3584  0.2404
   10CHTO   O63 3909   2.497   7.220   4.836 -0.4266  0.0802  0.2931
   10CHTO   C96 3910   2.582   7.111   4.937 -0.7305  0.4401 -0.7305
   10CHTO  H183 3911   2.652   7.058   4.873 -1.0398  0.9651 -1.5257
   10CHTO   C98 3912   2.494   7.012   5.014  0.3102  0.1570  0.4956
   10CHTO  H185 3913   2.414   7.072   5.060 -0.3830 -1.7880  1.9036
   10CHTO   O67 3914   2.436   6.926   4.920 -0.5285  0.9411 -0.1821
   10CHTO  H167 3915   2.491   6.855   4.894 -2.4897 -0.5858 -0.2730
   10CHTO  C102 3916   2.567   6.927   5.127  0.3830 -0.1699  0.0773
   10CHTO  H189 3917   2.637   6.859   5.076 -0.0864 -0.9094  0.4048
   10CHTO   N18 3918   2.479   6.837   5.203  0.6643  0.0270 -0.4979
   10CHTO  H176 3919   2.452   6.755   5.138 -0.4769 -0.1797  0.2179
   10CHTO  H177 3920   2.530   6.797   5.290  1.3857  0.5697 -0.6681
   10CHTO  C105 3921   2.658   7.020   5.215  0.1913  0.0209 -0.1998
   10CHTO  H192 3922   2.597   7.096   5.264 -0.2617 -0.6802  0.3364
   10CHTO   O65 3923   2.742   7.099   5.130 -0.0693  0.0765  0.3603
   10CHTO  C100 3924   2.674   7.193   5.035 -0.8336 -0.5114 -0.1045
   10CHTO  H187 3925   2.619   7.261   5.102 -0.0742  1.7669 -1.7213
   10CHTO  C107 3926   2.778   7.284   4.965  0.0455 -0.1383  0.1806
   10CHTO   O70 3927   2.859   7.360   5.047  0.4304 -0.7406 -0.4020
   10CHTO  H170 3928   2.944   7.372   5.009 -0.6251  2.8685 -1.8269
   10CHTO   O57 3929   2.750   6.925   5.338  0.3281  0.0693  0.0340
   10CHTO   C85 3930   2.701   6.940   5.473 -0.0915  0.1930  0.5209
   10CHTO  H157 3931   2.592   6.916   5.478 -0.0046  0.1742  2.8851
   10CHTO   C83 3932   2.712   7.089   5.523 -0.3568  0.4146  0.2291
   10CHTO  H155 3933   2.649   7.151   5.459 -1.3111  0.0532  0.8145
   10CHTO   O56 3934   2.846   7.135   5.506 -0.1035  0.2423 -0.3755
   10CHTO  H135 3935   2.847   7.228   5.517  2.4023  0.1622  0.4936
   10CHTO   C81 3936   2.655   7.094   5.670 -0.7125 -0.5118 -0.4036
   10CHTO  H153 3937   2.557   7.047   5.663 -0.0924 -1.9623  0.6244
   10CHTO   N14 3938   2.622   7.235   5.711  0.1445 -0.7998  0.1179
   10CHTO  H141 3939   2.534   7.218   5.769  0.9205  0.1400  1.6189
   10CHTO  H142 3940   2.709   7.264   5.767  1.2131  0.0401 -1.9237
   10CHTO   C79 3941   2.745   7.005   5.761 -0.3026  0.6434 -0.1498
   10CHTO  H151 3942   2.699   7.001   5.859 -0.3097  0.6081 -0.1547
   10CHTO   O52 3943   2.749   6.871   5.713 -0.1804  0.3572 -0.4026
   10CHTO   C86 3944   2.783   6.845   5.567  0.3725 -0.3929  0.4932
   10CHTO  H158 3945   2.894   6.851   5.572  0.6161  0.3043 -3.7682
   10CHTO   C90 3946   2.745   6.706   5.528 -0.0474 -0.5619  0.1528
   10CHTO   O60 3947   2.809   6.616   5.618 -0.0556 -0.4712  0.2579
   10CHTO  H138 3948   2.807   6.529   5.583 -0.6909  0.0592 -1.0416
   10CHTO   O50 3949   2.881   7.049   5.769 -0.0186 -0.1748  0.0962
   10CHTO   C73 3950   2.956   7.061   5.892  0.5219 -0.0751  0.2807
   10CHTO  H145 3951   2.911   6.992   5.964 -0.4276 -0.9930 -1.1776
   10CHTO   C74 3952   2.949   7.206   5.937  0.3765  0.7886  0.3599
   10CHTO  H146 3953   2.843   7.235   5.944  0.3425  0.9136 -0.6014
   10CHTO   O54 3954   2.997   7.207   6.075 -0.4966  0.5586 -0.1920
   10CHTO  H133 3955   3.087   7.229   6.089 -0.5545  0.3720  0.4769
   10CHTO   C75 3956   3.021   7.301   5.829 -0.3522  0.1633 -0.0515
   10CHTO  H147 3957   2.977   7.282   5.730  0.8867  0.2460 -0.6275
   10CHTO   N13 3958   3.001   7.444   5.865  0.4670  0.4374 -0.4203
   10CHTO  H139 3959   2.980   7.461   5.970  1.4777  1.0547 -0.3137
   10CHTO  H140 3960   3.090   7.501   5.843 -0.9230  1.1459 -4.5547
   10CHTO   C76 3961   3.169   7.250   5.821  0.7129 -0.0882  0.0905
   10CHTO  H148 3962   3.209   7.265   5.921 -0.4862  0.0504  0.5448
   10CHTO   O49 3963   3.175   7.106   5.776  0.2215 -0.1112 -0.4434
   10CHTO   C77 3964   3.105   7.020   5.873  0.2882  0.5035  0.2536
   10CHTO  H149 3965   3.157   7.023   5.968 -0.8596 -0.3508  0.9235
   10CHTO   C88 3966   3.107   6.870   5.842 -0.1490  0.6474 -0.1207
   10CHTO   O58 3967   3.244   6.826   5.861 -0.1516 -0.3599 -0.5767
   10CHTO  H136 3968   3.297   6.868   5.795  0.4400 -1.5687 -0.8851
   10CHTO   O51 3969   3.246   7.324   5.708 -0.1017 -0.2078 -0.3349
   10CHTO   C78 3970   3.392   7.360   5.729 -0.1069  0.1540 -0.1397
   10CHTO  H150 3971   3.442   7.267   5.761  1.2440  1.6657  2.2485
   10CHTO   C80 3972   3.425   7.469   5.838 -0.4408 -0.2410  0.6577
   10CHTO  H152 3973   3.355   7.553   5.816 -2.7012 -2.1661  0.1929
   10CHTO   O55 3974   3.384   7.418   5.963  0.1026  0.7831 -0.6187
   10CHTO  H134 3975   3.360   7.328   5.972  0.3688  0.8982  1.6703
   10CHTO   C84 3976   3.573   7.516   5.833 -0.3117 -0.1565  0.0441
   10CHTO  H156 3977   3.635   7.429   5.855 -1.2812 -1.2189 -1.3534
   10CHTO   N15 3978   3.610   7.626   5.930  0.6635 -0.1726  0.3968
   10CHTO  H143 3979   3.716   7.636   5.946  0.6503 -0.5900  0.7699
   10CHTO  H144 3980   3.566   7.720   5.907 -0.8675 -0.9410  0.1475
   10CHTO   C87 3981   3.608   7.557   5.687  0.2892  0.4385  0.1573
   10CHTO  H159 3982   3.548   7.643   5.655  1.2231  1.5605  1.3652
   10CHTO   O53 3983   3.588   7.450   5.599 -0.3283 -0.6042 -0.1828
   10CHTO   C82 3984   3.449   7.407   5.593 -0.0162 -0.2393  0.3830
   10CHTO  H154 3985   3.388   7.485   5.547 -0.6154 -1.3749 -0.7879
   10CHTO   C89 3986   3.430   7.283   5.500 -0.2227  0.1378  0.1689
   10CHTO   O59 3987   3.521   7.182   5.546  0.3177  0.0309 -0.2582
   10CHTO  H137 3988   3.600   7.199   5.499 -0.1228 -0.5535 -1.2293
   10CHTO   O45 3989   3.772   7.594   5.671  0.1561  0.2496  0.1676
   10CHTO   C67 3990   3.815   7.660   5.552  0.3106  0.3831 -0.2205
   10CHTO  H124 3991   3.772   7.610   5.465 -2.5985  3.0291 -0.3781
   10CHTO   C65 3992   3.768   7.808   5.559 -0.6253 -0.0968 -0.0364
   10CHTO  H122 3993   3.664   7.810   5.589 -0.7524  0.0030 -0.4759
   10CHTO   O44 3994   3.789   7.868   5.435 -0.1109  0.3579  0.4494
   10CHTO  H102 3995   3.883   7.870   5.428  0.0450 -0.3468  2.0426
   10CHTO   C63 3996   3.829   7.879   5.678 -0.5068  0.0532 -0.1028
   10CHTO  H120 3997   3.793   7.831   5.769 -0.8049  1.8353  0.7351
   10CHTO   N11 3998   3.789   8.020   5.702 -0.2659 -0.2517  0.0699
   10CHTO  H108 3999   3.877   8.079   5.719 -0.8309  0.3950  0.8178
   10CHTO  H109 4000   3.732   8.030   5.792  1.3419 -0.1042  1.0893
   10CHTO   C61 4001   3.995   7.854   5.680  0.6352  0.7260 -0.3525
   10CHTO  H118 4002   4.024   7.866   5.785  1.3080 -1.4686 -0.2596
   10CHTO   O40 4003   4.047   7.718   5.640 -0.0464  0.0902  0.2278
   10CHTO   C68 4004   3.979   7.645   5.535  0.1965  0.0333 -0.3740
   10CHTO  H125 4005   4.006   7.538   5.547 -0.3868 -0.0925 -0.1794
   10CHTO   C72 4006   4.018   7.683   5.394 -0.1539 -0.1357  0.6622
   10CHTO   O48 4007   3.967   7.592   5.300 -0.3388 -0.0932  0.2172
   10CHTO  H105 4008   3.982   7.503   5.325  1.1055 -0.0526 -0.4146
   10CHTO   O38 4009   4.063   7.946   5.592  0.2602  0.3778  0.2866
   10CHTO   C55 4010   4.203   7.996   5.606  0.0522 -0.1554 -0.1368
   10CHTO  H112 4011   4.284   7.926   5.579  0.0292  0.5638 -2.1173
   10CHTO   C56 4012   4.220   8.054   5.755  0.6142 -0.0335  0.0196
   10CHTO  H113 4013   4.121   8.099   5.770  0.5184 -0.1870 -0.1382
   10CHTO   O42 4014   4.227   7.961   5.860  0.3977 -0.1030 -0.4883
   10CHTO  H100 4015   4.137   7.941   5.881  0.4001  0.2909 -0.0956
   10CHTO   C57 4016   4.325   8.175   5.767 -0.2040  0.7113  1.2115
   10CHTO  H114 4017   4.415   8.114   5.769 -0.9718 -0.6389 -1.5678
   10CHTO   N10 4018   4.321   8.250   5.896 -0.3137  0.3746 -0.2322
   10CHTO  H106 4019   4.420   8.245   5.938  0.4665 -0.6718 -2.0981
   10CHTO  H107 4020   4.289   8.353   5.883  1.0356  0.9234  0.7119
   10CHTO   C58 4021   4.333   8.269   5.647 -0.4701 -0.1528 -0.1250
   10CHTO  H115 4022   4.239   8.328   5.651  0.4241  1.1627  3.1827
   10CHTO   O37 4023   4.346   8.189   5.526  0.7942  0.2497  0.1997
   10CHTO   C59 4024   4.229   8.107   5.503 -0.3242 -0.0387  0.2329
   10CHTO  H116 4025   4.141   8.169   5.519  0.2284  0.3174  2.0220
   10CHTO   C70 4026   4.229   8.044   5.366 -0.2501  0.2031  0.0025
   10CHTO   O46 4027   4.225   8.143   5.263  0.2489  0.0510 -0.0134
   10CHTO  H103 4028   4.203   8.098   5.184  0.4529 -3.4147  1.8111
   10CHTO   O39 4029   4.465   8.368   5.653  0.8929  0.4712 -0.0559
   10CHTO   C60 4030   4.428   8.505   5.627  0.0453 -0.2484  0.6036
   10CHTO  H117 4031   4.321   8.516   5.614  0.0109  1.3815  2.1433
   10CHTO   C62 4032   4.472   8.592   5.749  0.3368  0.4584  0.9252
   10CHTO  H119 4033   4.418   8.561   5.841  0.2998  0.7345  0.9968
   10CHTO   O43 4034   4.612   8.573   5.763 -0.7508  0.0725 -0.2422
   10CHTO  H101 4035   4.634   8.482   5.760 -0.0135  0.2713 -0.9209
   10CHTO   C66 4036   4.413   8.737   5.719 -0.3322 -0.1211 -0.3754
   10CHTO  H123 4037   4.305   8.726   5.707 -0.3818  0.9134 -0.8404
   10CHTO   N12 4038   4.429   8.832   5.830  0.1117  0.8966 -0.3732
   10CHTO  H110 4039   4.529   8.861   5.860 -0.0843  0.6419  0.5494
   10CHTO  H111 4040   4.375   8.789   5.913  0.4415  0.8831 -0.1625
   10CHTO   C69 4041   4.471   8.792   5.583 -0.0933  0.5500 -0.3914
   10CHTO  H126 4042   4.581   8.801   5.590  0.1898 -1.5198 -1.8316
   10CHTO   O41 4043   4.439   8.696   5.456 -0.1324 -0.3392  0.5824
   10CHTO   C64 4044   4.491   8.549   5.492  0.1754  0.2691 -0.0511
   10CHTO  H121 4045   4.599   8.536   5.513  0.0965 -0.4398 -0.0570
   10CHTO   C71 4046   4.453   8.456   5.370  0.5852 -0.0972  0.1007
   10CHTO   O47 4047   4.310   8.452   5.341  0.7789  0.0549  0.1096
   10CHTO  H104 4048   4.280   8.540   5.327  1.0475 -0.1225 -1.7388
   10CHTO   O34 4049   4.409   8.933   5.558 -0.3642 -0.1578 -0.6948
   10CHTO   C49 4050   4.292   9.019   5.498  0.5405 -0.1551 -0.3489
   10CHTO   H91 4051   4.305   9.122   5.533 -0.0484 -0.1962 -0.0045
   10CHTO   C47 4052   4.164   8.954   5.552  0.0849  0.2902  0.2534
   10CHTO   H89 4053   4.169   8.964   5.662 -1.8736 -3.7158  0.7994
   10CHTO   O33 4054   4.143   8.815   5.517 -0.6257  0.2842  0.6343
   10CHTO   H70 4055   4.194   8.754   5.568 -0.0368 -0.9570 -1.3978
   10CHTO   C45 4056   4.028   9.040   5.495  0.4479 -0.5674  0.0913
   10CHTO   H87 4057   3.979   8.962   5.435  0.0292  0.5589 -1.0439
   10CHTO    N8 4058   3.936   9.083   5.603  0.1233  0.2272  0.4575
   10CHTO   H75 4059   4.004   9.131   5.672  0.5593  1.5217 -0.8449
   10CHTO   H76 4060   3.883   9.006   5.657  0.2477 -0.0702  0.1515
   10CHTO   C43 4061   4.071   9.145   5.388 -0.3775 -0.2251 -0.3721
   10CHTO   H85 4062   3.982   9.178   5.335  0.0191  2.6895  0.6533
   10CHTO   O29 4063   4.174   9.106   5.300  0.6790 -0.2874  0.4346
   10CHTO   C50 4064   4.285   9.024   5.348 -0.8696 -0.6942 -0.2741
   10CHTO   H92 4065   4.283   8.923   5.303  3.5733 -0.3390 -1.4827
   10CHTO   C54 4066   4.413   9.083   5.288 -0.3260  0.5363  0.0314
   10CHTO   O36 4067   4.403   9.138   5.157  0.0354  0.0600 -0.8136
   10CHTO   H72 4068   4.351   9.086   5.098 -1.7673  1.0895 -0.1958
   10CHTO   O27 4069   4.122   9.265   5.449  0.3199  0.2307  0.6697
   10CHTO   C37 4070   4.189   9.391   5.446 -0.4200 -0.3507  0.4427
   10CHTO   H79 4071   4.298   9.378   5.453 -0.0502  1.8127 -0.8680
   10CHTO   C38 4072   4.170   9.483   5.322 -0.0235  0.1202 -0.5363
   10CHTO   H80 4073   4.068   9.523   5.322  0.1172  0.5242 -1.9819
   10CHTO   O31 4074   4.216   9.414   5.207 -0.3641 -0.1734 -0.5356
   10CHTO   H68 4075   4.309   9.405   5.215 -0.3518 -0.5947 -1.1945
   10CHTO   C39 4076   4.266   9.608   5.336  0.5154 -0.2504 -0.1186
   10CHTO   H81 4077   4.371   9.579   5.343  1.0251  2.0302  2.4726
   10CHTO    N7 4078   4.248   9.704   5.224 -0.0560 -0.3308  0.2421
   10CHTO   H73 4079   4.144   9.732   5.214 -0.0020 -0.0933  0.3407
   10CHTO   H74 4080   4.314   9.788   5.240  0.6707 -0.7016 -0.7486
   10CHTO   C40 4081   4.242   9.678   5.481  0.2929  0.1001 -0.2501
   10CHTO   H82 4082   4.158   9.748   5.488 -0.9175 -1.2702 -0.6263
   10CHTO   O26 4083   4.241   9.579   5.588 -0.3742  0.4254  0.3067
   10CHTO   C41 4084   4.147   9.474   5.572  0.4953  0.4976 -0.1793
   10CHTO   H83 4085   4.046   9.516   5.569  1.0566  1.9007  0.3552
   10CHTO   C52 4086   4.155   9.381   5.706  0.4898  0.3784 -0.4878
   10CHTO   O35 4087   4.281   9.338   5.760  0.0702 -0.2852  0.0364
   10CHTO   H71 4088   4.286   9.249   5.734 -1.3574 -0.3923  0.1028
   10CHTO   O28 4089   4.357   9.758   5.521  1.0325  0.3595  0.2087
   10CHTO   C42 4090   4.395   9.900   5.487  0.1225 -0.5153  0.6165
   10CHTO   H84 4091   4.416   9.933   5.589 -0.7075 -2.8821  1.5949
   10CHTO   C44 4092   4.307  10.006   5.413 -0.7136 -0.3891 -0.1302
   10CHTO   H86 4093   4.300   9.973   5.309 -2.1654  0.4932 -0.3202
   10CHTO   O32 4094   4.178   9.985   5.474 -0.5219 -0.3619  0.4362
   10CHTO   H69 4095   4.114  10.012   5.411  0.3506 -1.7936 -1.0916
   10CHTO   C48 4096   4.364  10.151   5.425  0.2162 -0.3363 -0.4520
   10CHTO   H90 4097   4.386  10.179   5.528  1.4968  1.0431 -1.0784
   10CHTO    N9 4098   4.257  10.254   5.381 -0.1835  0.5154 -1.0565
   10CHTO   H77 4099   4.250  10.332   5.455 -1.9829  0.3086 -0.9898
   10CHTO   H78 4100   4.286  10.311   5.294 -0.3250  2.2013 -0.0250
   10CHTO   C51 4101   4.505  10.145   5.351  0.0875  0.6402  0.2525
   10CHTO   H93 4102   4.485  10.109   5.250 -1.1926  1.4946  0.1805
   10CHTO   O30 4103   4.589  10.052   5.423 -0.3693 -0.0003  0.4344
   10CHTO   C46 4104   4.528   9.908   5.407 -0.0425 -0.4080  0.5129
   10CHTO   H88 4105   4.518   9.878   5.303  1.1475  1.4836 -0.1641
   10CHTO   C53 4106   4.639   9.814   5.469 -0.3918  0.1134  0.6835
   10CHTO   O72 4107   4.675   9.836   5.603 -0.2046  0.0029  0.0865
   10CHTO  H199 4108   4.601   9.825   5.658 -0.4478 -1.0371 -0.4550
   10CHTO   O22 4109   4.580  10.268   5.346  0.2721 -0.0715  0.2751
   10CHTO   C31 4110   4.684  10.300   5.247 -0.4483 -0.3517 -0.0166
   10CHTO   H59 4111   4.746  10.383   5.287 -0.2800  0.2638 -1.5451
   10CHTO   C29 4112   4.781  10.184   5.210 -0.0054  0.7940 -0.1172
   10CHTO   H57 4113   4.735  10.093   5.167  0.6281 -0.5748  2.0340
   10CHTO   O21 4114   4.838  10.127   5.327  0.1295  0.4897  0.1910
   10CHTO   H37 4115   4.778  10.075   5.378  0.1754  1.8934  1.7201
   10CHTO   C27 4116   4.888  10.243   5.105  0.0968  0.0540 -0.3168
   10CHTO   H55 4117   4.947  10.320   5.157  0.5961 -0.1594 -0.5636
   10CHTO    N5 4118   4.986  10.140   5.051 -0.3540 -0.3692 -0.5656
   10CHTO   H43 4119   5.008  10.074   5.134  3.8843  1.2049 -0.2956
   10CHTO   H44 4120   4.945  10.084   4.969  1.7209 -1.2597 -1.0299
   10CHTO   C25 4121   4.828  10.334   4.991  0.7079  0.4738 -0.0518
   10CHTO   H53 4122   4.805  10.275   4.901  1.4462  1.0374 -0.6222
   10CHTO   O17 4123   4.718  10.416   5.025 -0.1282  0.4487 -0.4485
   10CHTO   C32 4124   4.622  10.351   5.112 -0.3591 -0.3385  0.0859
   10CHTO   H60 4125   4.580  10.266   5.057  0.9462 -1.6530  1.0711
   10CHTO   C36 4126   4.507  10.449   5.127 -0.0434  0.0416 -0.1361
   10CHTO   O25 4127   4.440  10.451   4.999  0.2694 -1.1343  0.1231
   10CHTO   H40 4128   4.428  10.540   4.971  0.5540  0.5052  4.8257
   10CHTO   O15 4129   4.969  10.418   4.924  0.5954  0.0526  0.3268
   10CHTO   C19 4130   5.011  10.463   4.795  0.5895  0.2713  0.3288
   10CHTO   H47 4131   4.999  10.381   4.723  0.3228  0.7004 -0.1173
   10CHTO   C20 4132   4.928  10.587   4.741 -0.3172 -0.4348 -0.1005
   10CHTO   H48 4133   4.911  10.662   4.819 -2.7137 -0.8176 -0.2273
   10CHTO   O19 4134   4.799  10.531   4.714 -0.2879  0.3272 -0.2272
   10CHTO   H35 4135   4.736  10.553   4.781 -0.0564 -0.6570  0.3372
   10CHTO   C21 4136   4.988  10.650   4.605 -0.2789 -0.3725 -0.3848
   10CHTO   H49 4137   4.967  10.585   4.520 -1.1841 -1.0425  0.3324
   10CHTO    N4 4138   4.913  10.775   4.569  0.1489  0.0810  0.1169
   10CHTO   H41 4139   4.813  10.738   4.547  1.0221 -1.4756 -1.3645
   10CHTO   H42 4140   4.947  10.836   4.487 -1.2903 -0.0205 -0.5814
   10CHTO   C22 4141   5.134  10.672   4.637 -0.0291 -0.0693  0.3702
   10CHTO   H50 4142   5.138  10.754   4.709  0.7053  1.5808 -1.4940
   10CHTO   O14 4143   5.197  10.548   4.676 -0.4132  0.3065 -0.4588
   10CHTO   C23 4144   5.167  10.493   4.801  0.6257  0.8180 -0.0834
   10CHTO   H51 4145   5.188  10.579   4.867 -2.0279  0.4845  1.2809
   10CHTO   C34 4146   5.258  10.370   4.821  0.6670  0.0066  0.6138
   10CHTO   O23 4147   5.397  10.389   4.842 -0.5316  0.2391  0.3711
   10CHTO   H38 4148   5.448  10.407   4.766  1.0069  1.1706  1.6117
   10CHTO   O16 4149   5.191  10.722   4.513 -0.4681  0.0367  0.0526
   10CHTO   C24 4150   5.341  10.693   4.505  0.2072  0.6613 -0.9109
   10CHTO   H52 4151   5.374  10.632   4.588 -2.0947  1.7228  0.8340
   10CHTO   C26 4152   5.412  10.823   4.487  0.8336 -0.3898  0.1045
   10CHTO   H54 4153   5.379  10.872   4.393 -3.3058 -1.6959  0.7627
   10CHTO   O20 4154   5.365  10.912   4.590  0.1181  0.5155 -0.3175
   10CHTO   H36 4155   5.307  10.981   4.563 -1.2023 -0.3531  0.2337
   10CHTO   C30 4156   5.570  10.798   4.489  0.3853  1.6903 -0.0819
   10CHTO   H58 4157   5.604  10.743   4.578 -0.1437 -0.3793 -1.1084
   10CHTO    N6 4158   5.648  10.918   4.494 -0.1264 -0.2820 -0.0817
   10CHTO   H45 4159   5.639  10.987   4.411 -1.3993 -2.1036 -1.4992
   10CHTO   H46 4160   5.617  10.970   4.584  0.1699 -3.0205  1.6596
   10CHTO   C33 4161   5.608  10.698   4.372  0.5490  0.0329  0.7720
   10CHTO   H61 4162   5.610  10.762   4.282 -0.3974 -0.4733  0.3858
   10CHTO   O18 4163   5.513  10.593   4.349 -0.2490 -0.1561  0.0101
   10CHTO   C28 4164   5.370  10.614   4.378 -0.0020  0.0128  0.1702
   10CHTO   H56 4165   5.322  10.658   4.290 -0.8347  0.8535  1.0329
   10CHTO   C35 4166   5.306  10.474   4.390  0.0104 -0.0863 -0.1238
   10CHTO   O24 4167   5.365  10.381   4.484  0.9874  0.0929 -0.6032
   10CHTO   H39 4168   5.311  10.304   4.484  0.6789  0.3014  0.2323
   10CHTO    O9 4169   5.739  10.650   4.392 -0.1784 -0.1637  0.0670
   10CHTO   C13 4170   5.809  10.586   4.276  0.1713 -0.3074 -0.3390
   10CHTO   H26 4171   5.747  10.599   4.185 -0.9818  0.1905  0.4953
   10CHTO   C11 4172   5.832  10.434   4.312  0.0339 -0.1194 -0.5228
   10CHTO   H24 4173   5.737  10.382   4.331  0.9524 -1.0135  1.7769
   10CHTO    O8 4174   5.894  10.427   4.438 -0.3450 -0.8717 -0.5616
   10CHTO    H3 4175   5.846  10.367   4.492  0.7582 -0.7841  0.5246
   10CHTO    C9 4176   5.902  10.367   4.187  0.4248 -0.3546 -0.4377
   10CHTO   H22 4177   5.843  10.397   4.100  1.1053 -0.1080 -0.8165
   10CHTO    N2 4178   5.895  10.222   4.187 -0.2052 -0.7365  0.0164
   10CHTO   H10 4179   5.969  10.188   4.258  0.2204  0.6496  0.2663
   10CHTO   H11 4180   5.914  10.179   4.090 -0.6926  0.2163 -0.5031
   10CHTO    C7 4181   6.044  10.434   4.174 -0.2973  0.1421 -0.7710
   10CHTO   H20 4182   6.093  10.395   4.082  0.3466 -0.3121 -0.2336
   10CHTO    O4 4183   6.033  10.577   4.158  0.2864 -0.2054 -0.2931
   10CHTO   C14 4184   5.948  10.659   4.238 -0.0113  0.4140 -0.0021
   10CHTO   H27 4185   5.919  10.751   4.184  0.7632  0.4056 -0.4445
   10CHTO   C18 4186   6.023  10.695   4.363 -0.7804  0.4961  0.0604
   10CHTO   O13 4187   5.970  10.818   4.414 -0.5743 -0.4717 -0.2943
   10CHTO    H7 4188   5.901  10.797   4.474 -0.7962 -0.6582 -0.6105
   10CHTO    O2 4189   6.142  10.406   4.314  0.5851  0.2772  0.2577
   10CHTO    C1 4190   6.275  10.351   4.309  0.3459  0.2671  0.3920
   10CHTO   H14 4191   6.327  10.377   4.403  0.9573  0.3961  0.0238
   10CHTO    C2 4192   6.352  10.413   4.188 -0.3568  0.4205  0.3432
   10CHTO   H15 4193   6.299  10.393   4.094  0.0815 -2.3095  0.6369
   10CHTO    O6 4194   6.354  10.554   4.223  0.0715  0.1766  0.5364
   10CHTO    H1 4195   6.359  10.570   4.315 -1.2460  1.6249  0.3746
   10CHTO    C3 4196   6.500  10.344   4.186  0.2698 -0.0026  0.6197
   10CHTO   H16 4197   6.550  10.354   4.283  2.0118 -2.9070  0.0811
   10CHTO    N1 4198   6.579  10.401   4.070  0.5334 -0.4839 -0.6391
   10CHTO    H8 4199   6.537  10.490   4.026  2.2127  1.0541  0.7901
   10CHTO    H9 4200   6.680  10.415   4.105  0.7833  0.0476 -1.5357
   10CHTO    C4 4201   6.481  10.186   4.162 -0.1629  0.1355  0.0460
   10CHTO   H17 4202   6.420  10.159   4.075  0.0961  0.3949 -0.2131
   10CHTO    O1 4203   6.407  10.138   4.271 -0.0389 -0.4845  0.0334
   10CHTO    C5 4204   6.272  10.188   4.290 -1.0412  0.0386  0.2490
   10CHTO   H18 4205   6.198  10.164   4.215 -1.0321  0.5868  0.0584
   10CHTO   C16 4206   6.229  10.116   4.422  0.1946  0.1837 -0.9433
   10CHTO   O11 4207   6.112  10.168   4.488 -0.2491 -0.3560 -0.2181
   10CHTO    H5 4208   6.051  10.108   4.526 -0.2548 -0.2303 -0.0283
   10CHTO    O3 4209   6.605  10.108   4.160  0.1568  0.0562  0.2527
   10CHTO    C6 4210   6.607   9.982   4.083  1.2688  0.3781 -0.2145
   10CHTO   H19 4211   6.514   9.943   4.043  2.2352 -0.6572 -1.4894
   10CHTO    C8 4212   6.693   9.996   3.959  0.4126 -0.5353 -0.3587
   10CHTO   H21 4213   6.792  10.023   3.996 -0.0103 -2.0719  1.9764
   10CHTO    O7 4214   6.626  10.094   3.876 -0.3804  0.1149  0.2864
   10CHTO    H2 4215   6.669  10.098   3.793  1.2034  0.6148  1.0891
   10CHTO   C12 4216   6.707   9.861   3.880  0.1997 -0.0770  1.0288
   10CHTO   H25 4217   6.611   9.831   3.835  1.4591  1.9984 -3.3360
   10CHTO    N3 4218   6.785   9.877   3.756 -1.1539 -1.0015 -0.1873
   10CHTO   H12 4219   6.766   9.811   3.673 -2.1216  2.2775 -2.6593
   10CHTO   H13 4220   6.892   9.870   3.772 -1.0826 -0.5142 -0.4548
   10CHTO   C15 4221   6.755   9.751   3.972  0.0611 -0.1255 -0.3551
   10CHTO   H28 4222   6.855   9.777   4.008 -0.0975 -0.4154  0.2918
   10CHTO   O10 4223   6.754   9.597   3.920 -0.4171  0.2719 -0.1258
   10CHTO    H4 4224   6.843   9.569   3.930  0.0292  1.4203 -0.6960
   10CHTO    O5 4225   6.671   9.746   4.093 -0.3668  0.6680  0.1696
   10CHTO   C10 4226   6.668   9.867   4.172 -0.0805 -0.2796  0.6056
   10CHTO   H23 4227   6.769   9.894   4.202  0.0805 -1.9204  1.5618
   10CHTO   C17 4228   6.597   9.849   4.298 -0.0478 -0.7268 -0.5336
   10CHTO   O12 4229   6.662   9.737   4.361  0.5855 -0.3011 -0.3268
   10CHTO    H6 4230   6.741   9.765   4.402 -0.0615 -2.1090  2.2728
   11CHTO  H203 4231   5.874   5.013   0.985 -3.3697  2.0770  2.4296
   11CHTO   O82 4232   5.915   5.096   0.969  0.1849 -0.0155 -0.0268
   11CHTO  C123 4233   5.923   5.153   1.100  0.0639  0.1558 -0.5549
   11CHTO  H227 4234   5.965   5.076   1.167  1.9062 -2.0745 -4.1221
   11CHTO   O77 4235   6.026   5.256   1.069 -0.0149 -0.1943 -0.0252
   11CHTO  C118 4236   6.053   5.368   1.155 -0.2246 -0.4125  0.5317
   11CHTO  H222 4237   6.110   5.317   1.233  0.5526 -0.5756 -0.1329
   11CHTO  C125 4238   6.150   5.473   1.078 -1.0306  0.3513 -0.1170
   11CHTO   O84 4239   6.099   5.515   0.952  0.2381  0.2410 -0.4985
   11CHTO  H205 4240   6.104   5.441   0.894  2.6418  0.0249 -0.0640
   11CHTO  C114 4241   5.924   5.434   1.206  0.0193 -0.3060 -0.3831
   11CHTO  H218 4242   5.877   5.491   1.126 -1.2686 -0.5024  0.2155
   11CHTO  C116 4243   5.809   5.330   1.258 -0.3126 -0.4850 -0.1089
   11CHTO  H220 4244   5.851   5.271   1.341 -1.3288  1.3096  1.7243
   11CHTO   O79 4245   5.688   5.399   1.292  0.1257 -0.2360  0.0799
   11CHTO  H201 4246   5.697   5.466   1.357 -2.4623 -0.1609  0.4144
   11CHTO  C120 4247   5.790   5.226   1.140 -0.0608  0.3798  0.0401
   11CHTO  H224 4248   5.755   5.285   1.053  0.4824 -0.2127 -0.5837
   11CHTO   N21 4249   5.685   5.118   1.169 -0.8322 -0.1107  0.8827
   11CHTO  H211 4250   5.714   5.025   1.123  0.3930  0.4893  0.4257
   11CHTO  H212 4251   5.579   5.137   1.165 -0.7547 -0.0654 -1.5627
   11CHTO   O75 4252   5.976   5.532   1.303 -0.4314  0.2220  1.1161
   11CHTO  C112 4253   5.876   5.630   1.380 -0.2086  0.0768  0.2163
   11CHTO  H216 4254   5.836   5.586   1.473 -3.2975 -0.8083 -1.4591
   11CHTO   O73 4255   5.766   5.661   1.286 -0.2481  0.2808 -0.0100
   11CHTO  C113 4256   5.662   5.742   1.338  0.3604 -0.6597  0.1988
   11CHTO  H217 4257   5.625   5.704   1.435  0.5342  0.7754  0.8478
   11CHTO  C124 4258   5.548   5.741   1.241  0.4511  0.3246 -0.3567
   11CHTO   O83 4259   5.510   5.602   1.213 -0.5536 -0.1864 -0.1718
   11CHTO  H204 4260   5.464   5.591   1.133  0.2692 -1.3883 -0.5052
   11CHTO  C109 4261   5.718   5.885   1.360 -0.1262  0.2956  0.4585
   11CHTO  H213 4262   5.747   5.920   1.260  0.8146 -1.6759  0.0070
   11CHTO  C110 4263   5.848   5.880   1.454  0.2569  0.1938  0.0900
   11CHTO  H214 4264   5.819   5.851   1.555 -0.3292  0.8438  0.1198
   11CHTO   O78 4265   5.907   6.010   1.475 -0.3980  0.5391 -0.2312
   11CHTO  H200 4266   5.961   6.036   1.403  0.7956  0.6113  0.6719
   11CHTO  C111 4267   5.952   5.770   1.404 -0.3888 -0.8698 -0.4123
   11CHTO  H215 4268   5.989   5.800   1.304  0.3770 -0.2356  0.0577
   11CHTO   N19 4269   6.067   5.752   1.495  0.3326 -0.1706  0.1559
   11CHTO  H207 4270   6.105   5.852   1.512  2.2852 -0.5295 -1.7877
   11CHTO  H208 4271   6.033   5.700   1.583 -1.6296  2.9942  1.3853
   11CHTO   O74 4272   5.610   5.969   1.416  0.0499 -0.2187  0.2559
   11CHTO  C115 4273   5.589   6.100   1.340  0.0153 -0.8852 -0.2625
   11CHTO  H219 4274   5.649   6.107   1.249 -0.4415  0.8190 -0.4494
   11CHTO   O76 4275   5.450   6.113   1.283 -0.1978  0.4915  0.1001
   11CHTO  C122 4276   5.349   6.090   1.383  0.0323  0.6342  0.0257
   11CHTO  H226 4277   5.349   5.984   1.407  3.1783  0.3767 -0.8671
   11CHTO  C126 4278   5.215   6.118   1.318 -0.2830  0.1935 -0.0403
   11CHTO   O85 4279   5.215   6.245   1.249  0.6205  0.0197  0.0564
   11CHTO  H206 4280   5.126   6.272   1.236  0.2976 -2.4064 -3.1197
   11CHTO  C121 4281   5.372   6.187   1.506 -0.1812 -0.0217 -0.1014
   11CHTO  H225 4282   5.275   6.239   1.519 -0.0528 -0.6386  3.7715
   11CHTO   O81 4283   5.406   6.113   1.624 -0.0208  0.5038 -0.1561
   11CHTO  H202 4284   5.399   6.020   1.611  0.0415  0.3947  0.5691
   11CHTO  C119 4285   5.484   6.293   1.469 -0.6172  0.8730 -0.4583
   11CHTO  H223 4286   5.448   6.333   1.374 -2.6636  0.0287 -0.0819
   11CHTO  C117 4287   5.620   6.221   1.432  0.1520 -0.0185 -0.2836
   11CHTO  H221 4288   5.667   6.188   1.525  1.6869 -1.5927 -1.6100
   11CHTO   N20 4289   5.724   6.317   1.374  0.6901  0.2426 -0.1425
   11CHTO  H209 4290   5.714   6.304   1.268  0.5731 -0.3257 -0.0652
   11CHTO  H210 4291   5.717   6.420   1.407 -3.2349  0.6081 -1.9121
   11CHTO   O80 4292   5.475   6.422   1.558 -0.0889 -0.1279 -0.4662
   11CHTO  C103 4293   5.505   6.423   1.706 -0.1709 -0.0639 -0.3522
   11CHTO  H190 4294   5.498   6.321   1.744 -0.0962 -1.1994 -3.2494
   11CHTO  C101 4295   5.642   6.479   1.754  0.3885 -0.2181 -0.3111
   11CHTO  H188 4296   5.672   6.562   1.690  0.1433 -0.0766 -0.2415
   11CHTO   O68 4297   5.747   6.372   1.715  0.6879  0.4697  0.2244
   11CHTO  H168 4298   5.835   6.406   1.710  0.2365  1.5079 -1.0370
   11CHTO   C99 4299   5.647   6.538   1.904  0.4016  0.3623 -0.3562
   11CHTO  H186 4300   5.639   6.451   1.973  0.4477  0.2626 -0.4754
   11CHTO   N17 4301   5.770   6.606   1.935  0.1208  0.4145 -0.5813
   11CHTO  H174 4302   5.792   6.691   1.872  0.6863  0.2671 -0.5868
   11CHTO  H175 4303   5.850   6.534   1.944 -1.9276 -1.9704 -0.8340
   11CHTO   C97 4304   5.515   6.617   1.935 -0.1205 -0.3879 -0.2704
   11CHTO  H184 4305   5.513   6.710   1.877  1.5846 -1.4827 -2.1654
   11CHTO   O64 4306   5.396   6.537   1.909  0.4060 -0.2080 -0.0499
   11CHTO  C104 4307   5.382   6.506   1.770 -0.3286 -0.0141 -0.2697
   11CHTO  H191 4308   5.373   6.601   1.719 -0.1816  0.7474  1.0868
   11CHTO  C108 4309   5.247   6.429   1.750  0.1175 -0.1947 -0.9296
   11CHTO   O71 4310   5.134   6.512   1.787  0.0589 -0.0271  0.2341
   11CHTO  H171 4311   5.129   6.522   1.880  0.0215 -0.8454  0.3216
   11CHTO   O62 4312   5.502   6.649   2.073 -0.1736 -0.5178 -0.2465
   11CHTO   C91 4313   5.396   6.747   2.097  0.1704  0.0352  0.0065
   11CHTO  H178 4314   5.334   6.755   2.008  0.1465 -0.2821 -0.0041
   11CHTO   C92 4315   5.469   6.886   2.113  0.6308 -0.7388  0.2037
   11CHTO  H179 4316   5.531   6.920   2.028 -1.0768  2.6568  0.2303
   11CHTO   O66 4317   5.364   6.982   2.123  0.0250  0.0159 -0.4548
   11CHTO  H166 4318   5.315   6.985   2.042  0.0135 -0.5737 -0.4749
   11CHTO   C93 4319   5.546   6.889   2.251 -0.2586 -0.1474 -0.2063
   11CHTO  H180 4320   5.578   6.994   2.263 -0.2620 -0.2192  0.4663
   11CHTO   N16 4321   5.675   6.816   2.257  0.0006  0.2978 -0.0725
   11CHTO  H172 4322   5.722   6.812   2.160 -0.7989  1.9562 -0.5634
   11CHTO  H173 4323   5.736   6.851   2.339 -1.8096  2.3483  0.4764
   11CHTO   C94 4324   5.451   6.850   2.374  0.0206  0.8939  0.9662
   11CHTO  H181 4325   5.485   6.758   2.422 -0.0860 -0.1259 -0.8314
   11CHTO   O61 4326   5.320   6.823   2.326  0.3213 -0.6545 -0.1147
   11CHTO   C95 4327   5.313   6.721   2.224  1.0950  0.6674 -0.1552
   11CHTO  H182 4328   5.341   6.624   2.266 -0.5265 -0.4543 -1.5331
   11CHTO  C106 4329   5.161   6.689   2.208  0.0057  0.2197 -0.4147
   11CHTO   O69 4330   5.133   6.572   2.130  0.1165  0.2451 -0.5278
   11CHTO  H169 4331   5.040   6.573   2.124  0.0921 -0.2145 -0.2442
   11CHTO   O63 4332   5.454   6.973   2.487  0.2014 -0.4143  0.0748
   11CHTO   C96 4333   5.576   6.954   2.601 -0.1846  0.5654  0.5864
   11CHTO  H183 4334   5.670   6.923   2.554 -0.8553  0.1365 -0.5028
   11CHTO   C98 4335   5.554   6.853   2.716 -0.0177  0.5957  0.6879
   11CHTO  H185 4336   5.462   6.882   2.770 -1.4301 -0.6019 -1.0327
   11CHTO   O67 4337   5.524   6.725   2.660  0.3206  0.1146 -0.3315
   11CHTO  H167 4338   5.433   6.700   2.665  0.5420 -0.7838 -0.5939
   11CHTO  C102 4339   5.680   6.833   2.813  0.5741  0.3784  0.0636
   11CHTO  H189 4340   5.759   6.790   2.751  1.2127  1.0449  0.4028
   11CHTO   N18 4341   5.662   6.737   2.929 -0.5049 -0.3866  0.2294
   11CHTO  H176 4342   5.758   6.740   2.977  0.3146  1.9567 -1.4787
   11CHTO  H177 4343   5.655   6.636   2.889  0.1225  0.0457 -1.0067
   11CHTO  C105 4344   5.719   6.976   2.855  0.4862 -0.2505 -0.1026
   11CHTO  H192 4345   5.642   7.008   2.926  1.2464  0.2019  0.5278
   11CHTO   O65 4346   5.725   7.069   2.745  0.0995  0.0078  0.3099
   11CHTO  C100 4347   5.609   7.092   2.665 -0.0702  0.6393  0.1712
   11CHTO  H187 4348   5.526   7.130   2.727  0.5553 -0.6314  1.8384
   11CHTO  C107 4349   5.653   7.212   2.571 -0.5639  0.1779  0.2096
   11CHTO   O70 4350   5.558   7.233   2.470 -0.4835  0.1560 -0.1376
   11CHTO  H170 4351   5.591   7.190   2.393 -1.1023  0.5215 -0.6106
   11CHTO   O57 4352   5.857   6.978   2.920 -0.3538 -0.3541 -0.3506
   11CHTO   C85 4353   5.891   7.085   3.010  0.3166 -0.1818 -0.3864
   11CHTO  H157 4354   5.795   7.104   3.063 -0.0918 -1.7111 -0.5525
   11CHTO   C83 4355   5.914   7.221   2.932 -0.4153 -0.1564 -0.2260
   11CHTO  H155 4356   5.831   7.248   2.868  0.0092  0.0372 -0.7035
   11CHTO   O56 4357   6.013   7.187   2.828  0.3908  0.3500  0.0553
   11CHTO  H135 4358   5.980   7.120   2.771  2.5009 -1.4822  0.9475
   11CHTO   C81 4359   5.951   7.336   3.028  0.2893 -0.2449 -0.0621
   11CHTO  H153 4360   5.866   7.343   3.096 -0.2991 -0.6004 -0.7494
   11CHTO   N14 4361   5.966   7.467   2.963 -0.6536  0.0596  0.1425
   11CHTO  H141 4362   5.988   7.543   3.035  1.0497  0.6472 -0.9641
   11CHTO  H142 4363   6.051   7.461   2.899  1.3765 -0.4065  2.8173
   11CHTO   C79 4364   6.070   7.305   3.126  0.2921 -0.5390 -0.2536
   11CHTO  H151 4365   6.067   7.383   3.202  1.3330 -1.2821  0.5737
   11CHTO   O52 4366   6.053   7.171   3.200 -0.1171 -0.5247  0.2875
   11CHTO   C86 4367   6.014   7.060   3.113 -0.2464  0.3498  0.2300
   11CHTO  H158 4368   6.107   7.037   3.056 -0.1628 -1.7042  1.1531
   11CHTO   C90 4369   5.988   6.937   3.198  0.7503 -0.1643 -0.1228
   11CHTO   O60 4370   5.965   6.817   3.123  0.4712  0.1477  0.2987
   11CHTO  H138 4371   5.874   6.814   3.099 -0.0535 -1.5067  2.3278
   11CHTO   O50 4372   6.198   7.296   3.060  0.1644 -0.0273  0.1420
   11CHTO   C73 4373   6.338   7.278   3.087 -0.7257  0.4487  0.7027
   11CHTO  H145 4374   6.350   7.185   3.145 -0.2336 -0.6579 -1.1022
   11CHTO   C74 4375   6.391   7.410   3.163 -0.3787 -0.1713  0.2468
   11CHTO  H146 4376   6.338   7.424   3.258 -0.4323 -1.1155  0.3533
   11CHTO   O54 4377   6.523   7.392   3.213 -0.2910  0.2062  0.3489
   11CHTO  H133 4378   6.550   7.303   3.224 -0.1700  0.2774  0.6187
   11CHTO   C75 4379   6.379   7.537   3.071 -0.0532 -0.9737 -0.6281
   11CHTO  H147 4380   6.273   7.547   3.044  0.1133  1.2461 -0.5369
   11CHTO   N13 4381   6.422   7.672   3.123  0.2889 -0.1107  0.0167
   11CHTO  H139 4382   6.355   7.697   3.204  1.0755  0.1448  0.5930
   11CHTO  H140 4383   6.428   7.747   3.045 -3.1845 -1.5128 -1.7234
   11CHTO   C76 4384   6.456   7.507   2.932  0.3822 -0.3346 -0.3395
   11CHTO  H148 4385   6.564   7.508   2.941  0.4119  2.6922 -0.5785
   11CHTO   O49 4386   6.414   7.387   2.871  0.0690 -0.2111  0.5621
   11CHTO   C77 4387   6.415   7.265   2.950 -0.1162  0.1223  0.2011
   11CHTO  H149 4388   6.518   7.234   2.966 -0.8835 -2.0792  1.0751
   11CHTO   C88 4389   6.359   7.149   2.864  0.3344 -0.0656  0.6213
   11CHTO   O58 4390   6.438   7.130   2.774 -0.2376 -0.3504  0.6611
   11CHTO  H136 4391   6.468   7.209   2.732 -1.6586 -0.9692 -1.5939
   11CHTO   O51 4392   6.408   7.605   2.814  0.1108  0.1126 -0.3584
   11CHTO   C78 4393   6.513   7.588   2.690  0.2345  0.4070  0.0597
   11CHTO  H150 4394   6.572   7.494   2.687  0.4493  0.5072  1.0827
   11CHTO   C80 4395   6.614   7.702   2.696 -0.7123 -0.2169  0.2250
   11CHTO  H152 4396   6.560   7.798   2.703 -2.1847 -1.0012 -0.1744
   11CHTO   O55 4397   6.683   7.684   2.814  0.4462 -0.5974  0.2747
   11CHTO  H134 4398   6.746   7.754   2.819  1.2847 -1.1819 -1.7321
   11CHTO   C84 4399   6.705   7.694   2.572  0.4038  0.5659  0.1693
   11CHTO  H156 4400   6.773   7.608   2.574 -0.2937 -0.0088 -0.8257
   11CHTO   N15 4401   6.799   7.812   2.561  0.9443 -0.3216 -0.2721
   11CHTO  H143 4402   6.812   7.839   2.458  2.5264  0.1781  0.0348
   11CHTO  H144 4403   6.895   7.796   2.605  0.3867 -0.4297  0.9091
   11CHTO   C87 4404   6.625   7.684   2.439  0.7259 -0.3656  0.4008
   11CHTO  H159 4405   6.580   7.782   2.425  1.4838 -0.0820 -0.0710
   11CHTO   O53 4406   6.521   7.576   2.451  0.1668 -0.1748 -0.6307
   11CHTO   C82 4407   6.433   7.586   2.564 -0.2526 -0.4805  0.3855
   11CHTO  H154 4408   6.376   7.678   2.552  0.9687  0.5638  2.3158
   11CHTO   C89 4409   6.328   7.468   2.557  0.2751 -0.0751  0.4736
   11CHTO   O59 4410   6.380   7.338   2.550  0.2659 -0.4907 -0.5944
   11CHTO  H137 4411   6.379   7.310   2.639  0.9478  0.7694 -0.1785
   11CHTO   O45 4412   6.750   7.643   2.304 -0.2178 -0.2136  0.5104
   11CHTO   C67 4413   6.685   7.605   2.180  0.1156 -0.7384  0.6852
   11CHTO  H124 4414   6.642   7.506   2.195  0.1234 -1.2775 -2.5965
   11CHTO   C65 4415   6.566   7.705   2.132 -0.0018 -0.2294 -0.0571
   11CHTO  H122 4416   6.596   7.801   2.173  0.2321 -0.0459 -0.6415
   11CHTO   O44 4417   6.446   7.660   2.189 -0.1438 -0.3110 -0.6908
   11CHTO  H102 4418   6.444   7.567   2.173  0.7761 -0.2722 -1.0540
   11CHTO   C63 4419   6.566   7.727   1.974  0.1954 -0.2745 -0.0150
   11CHTO  H120 4420   6.654   7.785   1.946  0.0252 -0.5986 -1.2326
   11CHTO   N11 4421   6.462   7.823   1.932  0.3031  0.5753  0.3322
   11CHTO  H108 4422   6.367   7.774   1.923 -0.1337  0.9193  2.8054
   11CHTO  H109 4423   6.498   7.886   1.852  0.2551 -2.6416 -2.3183
   11CHTO   C61 4424   6.586   7.592   1.898 -0.0155  0.8193 -0.1113
   11CHTO  H118 4425   6.597   7.614   1.791 -2.5546 -2.4223 -1.1406
   11CHTO   O40 4426   6.711   7.520   1.942 -0.7105 -0.2459 -0.0499
   11CHTO   C68 4427   6.787   7.586   2.055 -0.0760  0.1379 -0.3982
   11CHTO  H125 4428   6.822   7.686   2.021 -0.5380  0.8054  1.0689
   11CHTO   C72 4429   6.912   7.499   2.091  0.2128  0.1592  0.1155
   11CHTO   O48 4430   6.996   7.530   2.207 -0.2609 -0.3910 -0.6334
   11CHTO  H105 4431   7.073   7.477   2.208 -1.1397 -1.6803  0.4895
   11CHTO   O38 4432   6.467   7.507   1.910 -0.4262 -0.4178 -0.7041
   11CHTO   C55 4433   6.438   7.401   1.818  0.4182 -0.1128  0.2740
   11CHTO  H112 4434   6.538   7.361   1.795  1.3374  2.4827 -0.4084
   11CHTO   C56 4435   6.366   7.453   1.690  0.7822 -0.2744  0.7543
   11CHTO  H113 4436   6.305   7.539   1.723 -0.1533 -1.1733  1.4142
   11CHTO   O42 4437   6.471   7.513   1.612  0.2806 -0.7054  0.2129
   11CHTO  H100 4438   6.432   7.589   1.573 -0.1806 -1.9721 -1.9032
   11CHTO   C57 4439   6.286   7.352   1.607 -0.5407  1.1888 -0.2738
   11CHTO  H114 4440   6.357   7.292   1.550 -0.6592 -0.5120  1.3225
   11CHTO   N10 4441   6.199   7.410   1.503  0.6376  0.1888 -0.3714
   11CHTO  H106 4442   6.184   7.338   1.424 -0.6663 -2.0784  1.8804
   11CHTO  H107 4443   6.233   7.506   1.467 -0.2083  0.8068  0.4686
   11CHTO   C58 4444   6.209   7.261   1.706 -0.5317  0.7188  0.3916
   11CHTO  H115 4445   6.128   7.322   1.751  1.4158  2.2769  1.8484
   11CHTO   O37 4446   6.301   7.201   1.801 -0.1091 -0.4325  0.2455
   11CHTO   C59 4447   6.360   7.292   1.896 -0.7183 -0.4035  0.1004
   11CHTO  H116 4448   6.282   7.343   1.952 -0.7377  1.1689 -1.3066
   11CHTO   C70 4449   6.447   7.212   1.996 -0.0766 -0.5808  0.0502
   11CHTO   O46 4450   6.556   7.141   1.932 -0.0423  0.2548  0.0319
   11CHTO  H103 4451   6.630   7.136   1.989  1.0122  1.5067 -1.1863
   11CHTO   O39 4452   6.136   7.126   1.621 -0.0182 -0.5348 -0.5871
   11CHTO   C60 4453   5.993   7.099   1.629  0.1513 -0.2552  0.2973
   11CHTO  H117 4454   5.955   7.128   1.727 -0.6834  0.0264 -0.0973
   11CHTO   C62 4455   5.909   7.176   1.528  0.3819 -0.0577 -0.1048
   11CHTO  H119 4456   5.926   7.282   1.555 -0.8423  0.3233 -0.7675
   11CHTO   O43 4457   5.956   7.151   1.398 -0.1521  0.7889 -0.4096
   11CHTO  H101 4458   6.020   7.212   1.367  1.2245 -0.1418  0.5329
   11CHTO   C66 4459   5.754   7.131   1.543  0.5416  0.1378  0.0803
   11CHTO  H123 4460   5.727   7.154   1.646  0.6441 -0.1038  0.1630
   11CHTO   N12 4461   5.662   7.216   1.458 -0.0809 -0.1518  0.3136
   11CHTO  H110 4462   5.656   7.321   1.482 -1.2995  0.1106 -1.0626
   11CHTO  H111 4463   5.687   7.196   1.355 -0.0008 -0.9006  0.4720
   11CHTO   C69 4464   5.735   6.972   1.526 -0.7238  0.0039  0.5869
   11CHTO  H126 4465   5.779   6.929   1.434 -0.5295 -1.0580  1.1666
   11CHTO   O41 4466   5.819   6.908   1.634 -0.7082  0.0079  0.2062
   11CHTO   C64 4467   5.979   6.944   1.617 -0.3221 -0.3450 -0.2415
   11CHTO  H121 4468   6.018   6.914   1.518 -1.1236 -0.4908 -0.5135
   11CHTO   C71 4469   6.049   6.859   1.723 -0.3283 -0.0386 -0.3956
   11CHTO   O47 4470   6.013   6.722   1.709  0.0851 -0.3811 -0.0723
   11CHTO  H104 4471   6.093   6.674   1.704  0.2868 -0.1553  0.9117
   11CHTO   O34 4472   5.596   6.929   1.534 -0.0770  0.2318  0.2309
   11CHTO   C49 4473   5.497   6.840   1.555 -0.0847  0.2497  0.0910
   11CHTO   H91 4474   5.514   6.799   1.654  2.7545  0.6931 -0.1552
   11CHTO   C47 4475   5.492   6.734   1.442 -0.1156 -0.2866  0.0812
   11CHTO   H89 4476   5.412   6.662   1.470 -2.0538  0.8272 -2.4165
   11CHTO   O33 4477   5.624   6.667   1.433  0.0114 -0.0866  0.4286
   11CHTO   H70 4478   5.603   6.575   1.438  2.4766 -0.7208 -0.3766
   11CHTO   C45 4479   5.456   6.808   1.301 -0.4442  0.6745  0.2440
   11CHTO   H87 4480   5.537   6.882   1.290 -1.3259  1.6231  0.1072
   11CHTO    N8 4481   5.459   6.722   1.177 -0.2364  0.0606 -0.2751
   11CHTO   H75 4482   5.362   6.725   1.130  0.3398  0.8176 -1.4431
   11CHTO   H76 4483   5.528   6.761   1.103  1.0094 -1.0657  0.2647
   11CHTO   C43 4484   5.319   6.899   1.316  0.0853 -0.4083 -0.0537
   11CHTO   H85 4485   5.308   6.960   1.226 -1.0331 -1.9148 -0.9406
   11CHTO   O29 4486   5.321   6.981   1.437 -0.1010  0.4028 -0.3740
   11CHTO   C50 4487   5.366   6.922   1.559  0.2855 -0.6196 -0.1824
   11CHTO   H92 4488   5.382   7.012   1.621  0.4713 -0.0269 -1.0877
   11CHTO   C54 4489   5.250   6.851   1.628 -0.0159  0.4651  0.3190
   11CHTO   O36 4490   5.269   6.814   1.763  0.6451 -0.1049 -0.2205
   11CHTO   H72 4491   5.278   6.890   1.817  2.4537 -0.2541 -0.3013
   11CHTO   O27 4492   5.203   6.819   1.311 -0.1797 -0.2428 -0.1558
   11CHTO   C37 4493   5.061   6.802   1.300  0.1328 -0.0922  0.2837
   11CHTO   H79 4494   5.009   6.842   1.388 -1.0284  1.2501 -0.9929
   11CHTO   C38 4495   4.994   6.873   1.177  0.3846  0.3893  0.3963
   11CHTO   H80 4496   5.055   6.839   1.092 -0.9043  1.9283 -1.1943
   11CHTO   O31 4497   5.006   7.014   1.200 -0.1102 -0.0286  0.1927
   11CHTO   H68 4498   4.930   7.047   1.244 -0.1388 -0.1129  0.2068
   11CHTO   C39 4499   4.838   6.834   1.153  0.1175  0.7719  0.2093
   11CHTO   H81 4500   4.787   6.878   1.239 -0.5982  1.6716 -0.6733
   11CHTO    N7 4501   4.780   6.891   1.030 -0.0155  0.2970 -0.6179
   11CHTO   H73 4502   4.823   6.838   0.945  1.9125  0.4078  0.2557
   11CHTO   H74 4503   4.770   6.998   1.023  1.7010  0.6696  1.9142
   11CHTO   C40 4504   4.820   6.679   1.162 -0.4417  0.2252  0.5311
   11CHTO   H82 4505   4.870   6.635   1.075 -1.4769 -0.8631  0.4739
   11CHTO   O26 4506   4.882   6.642   1.289  0.0824 -0.0227  0.1295
   11CHTO   C41 4507   5.030   6.653   1.291 -0.9215  0.4689 -0.0050
   11CHTO   H83 4508   5.078   6.607   1.204 -1.1887 -1.4634  0.8453
   11CHTO   C52 4509   5.071   6.571   1.421  0.3232  0.7112 -0.0833
   11CHTO   O35 4510   5.032   6.624   1.546 -0.1550  0.2199 -0.0751
   11CHTO   H71 4511   4.952   6.587   1.578  1.1153 -0.3527  2.6093
   11CHTO   O28 4512   4.682   6.643   1.163  0.0139  0.3513  0.2540
   11CHTO   C42 4513   4.627   6.523   1.095 -0.5453  0.9090 -0.1492
   11CHTO   H84 4514   4.661   6.525   0.991  2.5865 -0.8909  0.7668
   11CHTO   C44 4515   4.474   6.518   1.090  0.0008  0.3418 -0.5527
   11CHTO   H86 4516   4.437   6.533   1.191  1.1909  1.4776 -0.2771
   11CHTO   O32 4517   4.412   6.623   1.013 -0.1852 -0.3307  0.2381
   11CHTO   H69 4518   4.331   6.653   1.052 -1.0150 -1.4241 -0.6081
   11CHTO   C48 4519   4.406   6.383   1.042  0.3187  0.1128  0.3240
   11CHTO   H90 4520   4.421   6.373   0.934 -0.6409  0.9724  0.0960
   11CHTO    N9 4521   4.253   6.379   1.056  0.2789 -0.5961 -0.4811
   11CHTO   H77 4522   4.216   6.278   1.066  0.6251 -0.7286 -0.4946
   11CHTO   H78 4523   4.199   6.436   0.982 -0.1884 -0.1987  0.1621
   11CHTO   C51 4524   4.475   6.265   1.121 -0.1877  0.2456  0.1303
   11CHTO   H93 4525   4.452   6.290   1.224 -0.2348  0.4523  0.0688
   11CHTO   O30 4526   4.616   6.265   1.092  0.1115 -0.5268  0.1935
   11CHTO   C46 4527   4.686   6.389   1.157  0.0185  0.1047 -0.7128
   11CHTO   H88 4528   4.657   6.389   1.262  2.2482 -0.1561 -0.0741
   11CHTO   C53 4529   4.837   6.366   1.145  0.4056 -0.3176 -0.3265
   11CHTO   O72 4530   4.861   6.235   1.201  0.2379  0.2352 -0.2063
   11CHTO  H199 4531   4.908   6.187   1.136 -0.6707 -0.7103 -0.1705
   11CHTO   O22 4532   4.423   6.134   1.092  0.3342 -0.1679  0.0114
   11CHTO   C31 4533   4.425   6.031   1.189 -0.3377  0.8106 -0.0971
   11CHTO   H59 4534   4.495   6.062   1.270 -2.2011 -0.3841  2.0388
   11CHTO   C29 4535   4.289   6.003   1.261 -0.4740  0.0741  0.1304
   11CHTO   H57 4536   4.215   5.968   1.188  1.8302 -2.3613 -1.1210
   11CHTO   O21 4537   4.237   6.126   1.314 -0.0950  0.3480 -0.9381
   11CHTO   H37 4538   4.145   6.113   1.326 -0.1675  1.3632 -0.3342
   11CHTO   C27 4539   4.308   5.891   1.367 -0.4675  0.4111  0.0056
   11CHTO   H55 4540   4.367   5.930   1.451 -1.1032 -0.4949  0.8717
   11CHTO    N5 4541   4.177   5.840   1.416  0.3361  0.3631 -0.6994
   11CHTO   H43 4542   4.094   5.861   1.349  1.9953 -1.9181 -3.6194
   11CHTO   H44 4543   4.166   5.853   1.522  0.9721  1.9684 -0.8101
   11CHTO   C25 4544   4.388   5.775   1.317  0.0701  0.5388  0.3029
   11CHTO   H53 4545   4.334   5.713   1.243 -0.7425  1.3413  0.2179
   11CHTO   O17 4546   4.512   5.810   1.246 -0.1489  0.4022 -0.1091
   11CHTO   C32 4547   4.478   5.891   1.137 -0.3117  0.0185 -0.0688
   11CHTO   H60 4548   4.395   5.847   1.082 -0.7022  1.4438 -0.6406
   11CHTO   C36 4549   4.605   5.909   1.044  0.5294 -0.3560  0.2455
   11CHTO   O25 4550   4.637   5.785   0.975  0.6311  0.1446 -0.3597
   11CHTO   H40 4551   4.554   5.757   0.942  0.4994  1.0198 -0.7837
   11CHTO   O15 4552   4.439   5.676   1.440  0.5561  0.1403  0.0608
   11CHTO   C19 4553   4.439   5.544   1.498  0.0232 -0.2071  0.2071
   11CHTO   H47 4554   4.544   5.522   1.522  0.4933 -1.4303 -2.7745
   11CHTO   C20 4555   4.350   5.522   1.619  0.2856 -0.0564  0.0430
   11CHTO   H48 4556   4.245   5.545   1.597  0.9439  2.4550 -0.5997
   11CHTO   O19 4557   4.406   5.614   1.719  0.1088 -0.3850  0.2862
   11CHTO   H35 4558   4.425   5.571   1.800  2.5667 -0.5221 -0.3109
   11CHTO   C21 4559   4.358   5.374   1.671  0.3417  0.0173 -0.3612
   11CHTO   H49 4560   4.457   5.354   1.711  0.2143 -1.0858 -0.5711
   11CHTO    N4 4561   4.268   5.355   1.786  0.4285  0.0450  0.2667
   11CHTO   H41 4562   4.320   5.295   1.859  0.1292  0.0370  0.4720
   11CHTO   H42 4563   4.178   5.300   1.763 -0.3429  0.5171  2.0635
   11CHTO   C22 4564   4.329   5.276   1.553  0.2872  0.3450  0.0623
   11CHTO   H50 4565   4.225   5.287   1.525 -0.4051  4.2094  3.6926
   11CHTO   O14 4566   4.417   5.312   1.442 -0.2374  0.1834  0.3726
   11CHTO   C23 4567   4.396   5.439   1.390 -0.4231 -0.3799  0.3522
   11CHTO   H51 4568   4.291   5.451   1.362 -0.0289  0.8714 -0.6668
   11CHTO   C34 4569   4.490   5.446   1.269 -0.3231  0.0290  0.3043
   11CHTO   O23 4570   4.626   5.423   1.314 -0.7935  0.3622  0.1672
   11CHTO   H38 4571   4.674   5.408   1.235 -0.8902 -3.9649  0.8119
   11CHTO   O16 4572   4.351   5.135   1.582  0.1945  0.1115 -0.6111
   11CHTO   C24 4573   4.279   5.050   1.473  0.2511  0.4293  0.2709
   11CHTO   H52 4574   4.251   5.109   1.386 -0.2473  0.2333  0.2965
   11CHTO   C26 4575   4.151   4.985   1.526 -0.1945 -0.2881 -0.2402
   11CHTO   H54 4576   4.172   4.933   1.621  1.8401  1.0818  0.0986
   11CHTO   O20 4577   4.060   5.096   1.552  0.1162  0.1069  0.3140
   11CHTO   H36 4578   3.975   5.067   1.581 -0.0870  1.4421  1.0827
   11CHTO   C30 4579   4.088   4.888   1.422 -0.7116 -0.0285 -0.5715
   11CHTO   H58 4580   4.033   4.950   1.350 -0.7432 -0.7977 -1.2236
   11CHTO    N6 4581   3.969   4.816   1.477  0.1432 -0.0271 -0.2360
   11CHTO   H45 4582   3.999   4.760   1.564  4.1051 -0.0181 -1.5291
   11CHTO   H46 4583   3.929   4.747   1.405  0.4513 -0.3925 -0.0571
   11CHTO   C33 4584   4.195   4.796   1.348  0.7873  0.1936  0.0812
   11CHTO   H61 4585   4.220   4.714   1.417 -0.9957 -0.6111 -0.1917
   11CHTO   O18 4586   4.310   4.870   1.319 -0.3685 -0.1967 -0.1887
   11CHTO   C28 4587   4.378   4.939   1.421  0.2202 -0.7246 -0.1236
   11CHTO   H56 4588   4.412   4.881   1.506  0.0675  0.1761  0.5606
   11CHTO   C35 4589   4.510   5.005   1.365  0.6185  0.3776  0.2661
   11CHTO   O24 4590   4.606   5.018   1.470 -0.3316  0.1336 -0.1163
   11CHTO   H39 4591   4.630   4.937   1.511  2.6167  0.2878 -1.4406
   11CHTO    O9 4592   4.145   4.731   1.229 -0.4237  0.1468 -0.1883
   11CHTO   C13 4593   4.085   4.853   1.110  0.0556 -0.3732  0.2267
   11CHTO   H26 4594   4.067   4.953   1.155 -1.7396 -0.1594 -0.9247
   11CHTO   C11 4595   3.952   4.793   1.045  0.6444  0.9790  0.3747
   11CHTO   H24 4596   3.868   4.774   1.114 -0.6809  0.6911 -1.2932
   11CHTO    O8 4597   3.974   4.668   0.977 -0.0175 -0.2101 -0.3605
   11CHTO    H3 4598   3.957   4.594   1.032  0.1580 -0.2400 -0.3460
   11CHTO    C9 4599   3.895   4.907   0.959  0.4033 -0.2720 -0.4546
   11CHTO   H22 4600   3.862   4.984   1.030 -2.1087 -0.9333 -0.8614
   11CHTO    N2 4601   3.774   4.875   0.876 -0.1460  0.4923 -0.2214
   11CHTO   H10 4602   3.795   4.841   0.775 -0.2353  0.9329 -0.3908
   11CHTO   H11 4603   3.695   4.947   0.892 -0.4453 -0.3237  2.1297
   11CHTO    C7 4604   4.009   4.971   0.865 -0.3652 -0.3110  0.4855
   11CHTO   H20 4605   4.023   5.070   0.915  0.7384  0.0675 -0.5400
   11CHTO    O4 4606   4.132   4.898   0.871  0.1426  0.2648 -0.5844
   11CHTO   C14 4607   4.194   4.884   0.998  0.6083 -0.1697  0.1801
   11CHTO   H27 4608   4.227   4.987   1.023 -0.1921  0.1350  0.0062
   11CHTO   C18 4609   4.327   4.795   0.997  0.3639  0.0403  0.2813
   11CHTO   O13 4610   4.304   4.667   0.949  0.1351 -0.0181  0.6771
   11CHTO    H7 4611   4.373   4.610   0.974 -1.5342 -1.3734  2.3688
   11CHTO    O2 4612   3.967   5.012   0.694 -0.6854 -0.0603  0.4620
   11CHTO    C1 4613   4.031   5.136   0.663  0.8352 -0.5656 -0.3720
   11CHTO   H14 4614   4.114   5.167   0.731  1.1074 -1.7666 -0.1469
   11CHTO    C2 4615   3.926   5.255   0.665  0.4419 -0.4992  0.3299
   11CHTO   H15 4616   3.846   5.236   0.592 -0.8205 -0.5750  1.7074
   11CHTO    O6 4617   3.883   5.258   0.801 -0.1829  0.1652 -0.0792
   11CHTO    H1 4618   3.959   5.280   0.852 -1.1210 -0.8863  1.7829
   11CHTO    C3 4619   4.005   5.389   0.614  0.6964  0.5903 -0.7511
   11CHTO   H16 4620   4.067   5.413   0.701 -0.9002  1.1776  0.2474
   11CHTO    N1 4621   3.910   5.501   0.598  0.4845  0.2466  0.9745
   11CHTO    H8 4622   3.847   5.520   0.683  0.2016 -0.6137  0.9643
   11CHTO    H9 4623   3.849   5.475   0.513  1.5976 -0.6528  0.4280
   11CHTO    C4 4624   4.110   5.362   0.495 -0.0050 -0.1860 -0.0172
   11CHTO   H17 4625   4.057   5.363   0.400  0.8558 -1.4074 -0.5226
   11CHTO    O1 4626   4.181   5.238   0.499 -0.2016 -0.0794  0.2529
   11CHTO    C5 4627   4.098   5.125   0.525 -0.0727 -0.2121 -0.2007
   11CHTO   H18 4628   4.020   5.121   0.450  1.1180 -0.1820 -1.4736
   11CHTO   C16 4629   4.190   5.001   0.512 -0.5803 -0.3132 -0.2597
   11CHTO   O11 4630   4.275   4.975   0.618  0.5509  0.6793 -0.0560
   11CHTO    H5 4631   4.318   5.056   0.634  0.8791  0.3937  0.5287
   11CHTO    O3 4632   4.218   5.460   0.498  0.4006  0.0595 -0.1709
   11CHTO    C6 4633   4.293   5.492   0.371 -0.6889 -0.0679 -0.0146
   11CHTO   H19 4634   4.270   5.423   0.289 -0.1444 -0.1758 -0.0766
   11CHTO    C8 4635   4.259   5.636   0.337  0.5987  0.0774 -0.4459
   11CHTO   H21 4636   4.267   5.692   0.430  0.9809 -0.3584 -0.2164
   11CHTO    O7 4637   4.124   5.633   0.288 -0.4619 -0.1126 -0.3585
   11CHTO    H2 4638   4.096   5.720   0.267 -0.6853 -0.4622 -1.5713
   11CHTO   C12 4639   4.365   5.684   0.223  0.0458 -0.2250 -0.2098
   11CHTO   H25 4640   4.348   5.638   0.124 -0.4606 -0.2874 -0.0931
   11CHTO    N3 4641   4.335   5.833   0.197 -0.2278 -0.4553  0.7495
   11CHTO   H12 4642   4.386   5.855   0.104 -0.1441 -0.1092  0.8747
   11CHTO   H13 4643   4.377   5.896   0.274 -1.0132 -0.4165  1.1478
   11CHTO   C15 4644   4.512   5.655   0.271 -0.4013  0.6199 -0.0095
   11CHTO   H28 4645   4.536   5.711   0.362  1.5466  1.9150 -1.2906
   11CHTO   O10 4646   4.616   5.682   0.156  0.3994  0.5660 -0.4706
   11CHTO    H4 4647   4.591   5.626   0.085  2.2092  0.8440 -1.3751
   11CHTO    O5 4648   4.531   5.512   0.291  0.1651  0.3292  0.2539
   11CHTO   C10 4649   4.448   5.479   0.406  0.6481 -0.6847  0.3476
   11CHTO   H23 4650   4.479   5.537   0.493  0.1005  0.4007 -0.1585
   11CHTO   C17 4651   4.489   5.341   0.440  0.2115 -0.1171 -0.8694
   11CHTO   O12 4652   4.446   5.299   0.569 -0.0831  0.2383 -0.0547
   11CHTO    H6 4653   4.518   5.254   0.608 -1.0221 -0.0822  1.3483
   12CHTO  H203 4654   5.094   1.817   2.608  0.7328 -0.1159  0.1980
   12CHTO   O82 4655   5.140   1.736   2.607  0.0693 -0.5008  0.0328
   12CHTO  C123 4656   5.122   1.667   2.731 -0.6570 -0.3615  0.6227
   12CHTO  H227 4657   5.110   1.742   2.811 -2.6143 -0.7292  0.7132
   12CHTO   O77 4658   4.990   1.599   2.720 -0.1640 -0.4980  0.0500
   12CHTO  C118 4659   4.954   1.518   2.833  0.0974 -0.0084  0.0412
   12CHTO  H222 4660   4.964   1.580   2.924 -0.8120  0.8039 -0.4044
   12CHTO  C125 4661   4.807   1.482   2.812 -0.1551 -0.5695 -0.0596
   12CHTO   O84 4662   4.743   1.457   2.936  0.0021  0.0920 -0.3527
   12CHTO  H205 4663   4.750   1.368   2.964  1.7593  0.3246  0.0149
   12CHTO  C114 4664   5.053   1.397   2.837 -0.0036 -0.5119 -0.4030
   12CHTO  H218 4665   5.046   1.343   2.743  0.2822 -1.5035  0.1488
   12CHTO  C116 4666   5.197   1.449   2.859 -0.0238 -0.0756  0.1944
   12CHTO  H220 4667   5.219   1.472   2.965  0.8260 -2.1835  0.5082
   12CHTO   O79 4668   5.295   1.344   2.836  0.7954 -0.1541  0.3448
   12CHTO  H201 4669   5.302   1.278   2.902  2.3535 -0.8912 -0.5252
   12CHTO  C120 4670   5.238   1.569   2.762  0.4693  0.5996 -0.0479
   12CHTO  H224 4671   5.275   1.517   2.672  0.6861  0.6696  0.0008
   12CHTO   N21 4672   5.356   1.637   2.807  0.3173 -0.6297  0.4198
   12CHTO  H211 4673   5.366   1.621   2.913  1.9846 -2.4935  0.0072
   12CHTO  H212 4674   5.452   1.616   2.762  0.8220  0.9520  0.7171
   12CHTO   O75 4675   4.997   1.324   2.948  0.6728 -0.3439  0.5987
   12CHTO  C112 4676   5.013   1.164   2.916 -0.0467 -0.0497 -0.5944
   12CHTO  H216 4677   5.087   1.151   2.836 -0.2554 -0.3868 -0.7375
   12CHTO   O73 4678   4.883   1.113   2.876 -0.2071 -0.0230  0.6874
   12CHTO  C113 4679   4.887   0.986   2.815 -0.5185 -0.2366 -0.1958
   12CHTO  H217 4680   4.952   0.993   2.725  0.4464 -0.9716  0.4425
   12CHTO  C124 4681   4.739   0.953   2.767  0.2295  0.0450 -0.5658
   12CHTO   O83 4682   4.700   1.051   2.677  0.1830  0.3573  0.2289
   12CHTO  H204 4683   4.626   1.104   2.701 -0.0248 -0.3175  1.0777
   12CHTO  C109 4684   4.938   0.886   2.924  0.8093  0.0028 -0.3155
   12CHTO  H213 4685   4.856   0.884   2.998 -0.0942 -0.0615 -1.2968
   12CHTO  C110 4686   5.072   0.933   2.998  0.4527  0.1442 -0.2135
   12CHTO  H214 4687   5.151   0.923   2.923  0.0826  1.7970 -0.8520
   12CHTO   O78 4688   5.080   0.849   3.118  0.1580 -0.3137  0.1818
   12CHTO  H200 4689   5.105   0.760   3.105  1.4538 -0.0569  0.8795
   12CHTO  C111 4690   5.057   1.081   3.044  0.2055 -0.2488  0.1128
   12CHTO  H215 4691   4.979   1.084   3.122  0.5282 -0.2648  0.4384
   12CHTO   N19 4692   5.182   1.131   3.113  0.0152  0.0882 -0.1574
   12CHTO  H207 4693   5.153   1.145   3.216  0.7182 -1.4662  0.2686
   12CHTO  H208 4694   5.204   1.234   3.087  0.3440  0.7641  2.5532
   12CHTO   O74 4695   4.963   0.756   2.872  0.6650  0.8386 -0.0469
   12CHTO  C115 4696   4.835   0.653   2.848  1.2332  0.6286  0.1874
   12CHTO  H219 4697   4.740   0.697   2.877  0.4700 -1.8510  1.5091
   12CHTO   O76 4698   4.818   0.626   2.707  0.2928  0.4060 -0.5833
   12CHTO  C122 4699   4.714   0.541   2.660 -0.1928  0.8991  0.2116
   12CHTO  H226 4700   4.727   0.517   2.554 -0.4398  0.4884  0.2702
   12CHTO  C126 4701   4.570   0.604   2.670 -0.3632  0.1403  0.1057
   12CHTO   O85 4702   4.574   0.728   2.606 -0.1949 -0.3780  0.3457
   12CHTO  H206 4703   4.565   0.793   2.674 -0.8487  0.7973 -0.8338
   12CHTO  C121 4704   4.720   0.404   2.740  0.4427  0.7416  1.1703
   12CHTO  H225 4705   4.618   0.361   2.726 -0.0398  2.5895 -1.3648
   12CHTO   O81 4706   4.835   0.331   2.692 -0.4008 -0.3746 -0.6682
   12CHTO  H202 4707   4.841   0.326   2.599 -0.2574 -1.3003 -0.6053
   12CHTO  C119 4708   4.738   0.420   2.894 -1.6348 -0.7058 -0.4600
   12CHTO  H223 4709   4.648   0.468   2.932  0.3661  1.8651  1.1984
   12CHTO  C117 4710   4.852   0.519   2.932  0.4104 -0.8568 -0.2206
   12CHTO  H221 4711   4.949   0.490   2.892 -0.5507 -2.2862 -1.5501
   12CHTO   N20 4712   4.873   0.546   3.071 -0.0402  0.7674  0.0347
   12CHTO  H209 4713   4.898   0.453   3.119  0.9046  1.7280  1.4757
   12CHTO  H210 4714   4.962   0.607   3.083  0.5222 -0.1907  0.8479
   12CHTO   O80 4715   4.745   0.292   2.969 -0.4785 -0.3314  0.0229
   12CHTO  C103 4716   4.603   0.232   3.051 -0.4291 -1.1168  0.1086
   12CHTO  H190 4717   4.545   0.313   3.095 -1.0260 -0.3691 -2.0082
   12CHTO  C101 4718   4.500   0.164   2.967 -0.1032  0.2043 -0.5438
   12CHTO  H188 4719   4.544   0.084   2.908 -0.6941 -0.1572 -0.5004
   12CHTO   O68 4720   4.447   0.254   2.876 -0.3144 -0.4718 -0.3278
   12CHTO  H168 4721   4.390   0.313   2.921  0.3458  0.0185 -0.1158
   12CHTO   C99 4722   4.401   0.080   3.059 -0.2471  0.7792 -0.0178
   12CHTO  H186 4723   4.329   0.146   3.111  0.0677  0.3614  0.9473
   12CHTO   N17 4724   4.299  -0.008   2.985  0.3957  0.0312 -0.9365
   12CHTO  H174 4725   4.232  -0.067   3.045  2.0614  0.4386  1.3565
   12CHTO  H175 4726   4.345  -0.064   2.905 -0.5690 -1.9328 -0.1355
   12CHTO   C97 4727   4.473  -0.005   3.166 -0.0411 -0.0897  0.5666
   12CHTO  H184 4728   4.529  -0.086   3.118 -2.9469 -0.5065 -2.3404
   12CHTO   O64 4729   4.556   0.079   3.247  0.4808  0.0361  0.1065
   12CHTO  C104 4730   4.660   0.142   3.170  0.1258 -0.0881  0.3080
   12CHTO  H191 4731   4.728   0.068   3.128 -1.1054 -0.3362 -1.2891
   12CHTO  C108 4732   4.743   0.221   3.272  0.3435 -0.2669  0.6079
   12CHTO   O71 4733   4.678   0.332   3.333 -0.0674  0.5432 -0.3887
   12CHTO  H171 4734   4.640   0.391   3.270 -0.4790  0.0819 -0.5835
   12CHTO   O62 4735   4.390  -0.058   3.274 -0.3379 -0.1940  0.4804
   12CHTO   C91 4736   4.447  -0.176   3.330 -0.2633  0.4778  0.6160
   12CHTO  H178 4737   4.552  -0.177   3.303 -0.9432 -0.5454 -2.1726
   12CHTO   C92 4738   4.390  -0.301   3.257 -0.4129 -0.4222 -0.7671
   12CHTO  H179 4739   4.281  -0.289   3.249 -0.3592 -0.0176 -0.9042
   12CHTO   O66 4740   4.435  -0.305   3.119  0.2283  0.3512 -0.0379
   12CHTO  H166 4741   4.384  -0.255   3.058 -1.5623 -0.8230  0.4480
   12CHTO   C93 4742   4.429  -0.439   3.323 -0.0396  0.2013  0.2138
   12CHTO  H180 4743   4.536  -0.453   3.301 -0.0136  1.6875 -0.6326
   12CHTO   N16 4744   4.362  -0.554   3.268 -0.1951 -0.1775  0.1618
   12CHTO  H172 4745   4.405  -0.573   3.171  0.6289  1.0716  0.2754
   12CHTO  H173 4746   4.381  -0.641   3.329 -1.4947  0.7091  1.8810
   12CHTO   C94 4747   4.406  -0.433   3.485  0.8757 -0.0529  0.5197
   12CHTO  H181 4748   4.301  -0.423   3.511  0.7203 -4.0736  1.7961
   12CHTO   O61 4749   4.467  -0.320   3.535  0.2102  0.2143  0.0304
   12CHTO   C95 4750   4.446  -0.180   3.492 -0.6224  0.1744  0.1591
   12CHTO  H182 4751   4.350  -0.150   3.534 -0.4509 -0.7884  1.2862
   12CHTO  C106 4752   4.564  -0.086   3.547  0.2339  0.1683 -0.1722
   12CHTO   O69 4753   4.519   0.047   3.529  0.0724  0.0970  0.2227
   12CHTO  H169 4754   4.557   0.101   3.596 -1.3441 -1.7131  2.5655
   12CHTO   O63 4755   4.474  -0.543   3.546  0.3959  0.3437  0.6899
   12CHTO   C96 4756   4.491  -0.558   3.713  0.3927 -0.0970 -0.1803
   12CHTO  H183 4757   4.477  -0.455   3.749  1.0007  0.2562 -0.9378
   12CHTO   C98 4758   4.631  -0.600   3.747  0.5555 -0.5776 -0.0853
   12CHTO  H185 4759   4.651  -0.698   3.701  2.4207  0.2909 -1.1474
   12CHTO   O67 4760   4.725  -0.507   3.687  0.3581 -0.5173  0.2491
   12CHTO  H167 4761   4.745  -0.432   3.739 -0.9621  0.5009 -0.6876
   12CHTO  C102 4762   4.645  -0.600   3.905 -0.2654 -0.0206 -0.1972
   12CHTO  H189 4763   4.648  -0.495   3.936 -2.5220  0.5873 -1.8742
   12CHTO   N18 4764   4.779  -0.662   3.938 -0.3507  0.1125 -0.6373
   12CHTO  H176 4765   4.799  -0.677   4.043  1.9038  0.5706 -0.9669
   12CHTO  H177 4766   4.862  -0.632   3.875  0.6053  0.5030  0.8003
   12CHTO  C105 4767   4.528  -0.668   3.977  1.0490  0.4591  0.2420
   12CHTO  H192 4768   4.572  -0.736   4.050  1.0181  1.2212  0.9765
   12CHTO   O65 4769   4.445  -0.737   3.881 -0.0066  0.5334 -0.2421
   12CHTO  C100 4770   4.396  -0.664   3.766  0.0344  0.7331  0.2208
   12CHTO  H187 4771   4.375  -0.738   3.688  1.3853  1.0635 -0.4650
   12CHTO  C107 4772   4.256  -0.608   3.808 -0.0229 -0.3796  0.2607
   12CHTO   O70 4773   4.188  -0.554   3.697 -0.2442  0.0362  0.4321
   12CHTO  H170 4774   4.147  -0.614   3.638  1.2254 -1.5039  0.9492
   12CHTO   O57 4775   4.434  -0.526   4.048 -0.3460  0.7293 -1.0133
   12CHTO   C85 4776   4.408  -0.513   4.192  0.8468  0.3267  0.6559
   12CHTO  H157 4777   4.319  -0.447   4.199  1.6780  1.6706 -0.8863
   12CHTO   C83 4778   4.530  -0.432   4.260  0.5065 -0.2247  0.0954
   12CHTO  H155 4779   4.528  -0.329   4.226 -0.1835  0.6857  2.7434
   12CHTO   O56 4780   4.654  -0.482   4.205 -0.0099  0.2054 -0.7117
   12CHTO  H135 4781   4.725  -0.440   4.249  0.1032 -0.5649 -0.1577
   12CHTO   C81 4782   4.520  -0.433   4.419  0.0886 -0.0574 -0.5133
   12CHTO  H153 4783   4.423  -0.394   4.449  0.3213 -0.4817  0.8315
   12CHTO   N14 4784   4.615  -0.335   4.482 -0.2064 -0.1763 -1.4578
   12CHTO  H141 4785   4.683  -0.282   4.418 -0.8035  0.1893 -1.8046
   12CHTO  H142 4786   4.568  -0.260   4.542  2.1874 -0.1844  0.4937
   12CHTO   C79 4787   4.535  -0.575   4.480  0.8367 -0.4571  0.2294
   12CHTO  H151 4788   4.522  -0.565   4.588 -1.5004 -0.4200 -0.0271
   12CHTO   O52 4789   4.418  -0.652   4.434 -0.8084 -0.3187  0.6417
   12CHTO   C86 4790   4.394  -0.648   4.283 -0.1206  0.0287  0.1580
   12CHTO  H158 4791   4.469  -0.716   4.237  0.2356  0.0001  0.7789
   12CHTO   C90 4792   4.260  -0.705   4.241 -0.0163  0.3171  0.2300
   12CHTO   O60 4793   4.151  -0.655   4.328  0.2109  0.0797 -0.8263
   12CHTO  H138 4794   4.069  -0.666   4.284  0.5493 -0.7903 -1.2560
   12CHTO   O50 4795   4.665  -0.634   4.445  0.2873  0.9345  0.2974
   12CHTO   C73 4796   4.710  -0.758   4.507 -0.3782  0.2839  0.0587
   12CHTO  H145 4797   4.617  -0.804   4.542 -0.4719  1.7969  1.9015
   12CHTO   C74 4798   4.784  -0.713   4.635  0.1076  0.7267 -0.9468
   12CHTO  H146 4799   4.713  -0.644   4.683  1.5601  1.2381  0.4970
   12CHTO   O54 4800   4.810  -0.815   4.737 -0.0214  0.1107  0.1680
   12CHTO  H133 4801   4.731  -0.820   4.788 -0.2010  0.4337 -0.0721
   12CHTO   C75 4802   4.917  -0.639   4.590 -0.1333 -0.0637 -0.7560
   12CHTO  H147 4803   4.891  -0.550   4.531  2.5142 -0.1738 -2.1358
   12CHTO   N13 4804   5.007  -0.590   4.695 -0.1684  0.9511 -0.1811
   12CHTO  H139 4805   5.112  -0.598   4.669  0.1698  1.6270  0.9378
   12CHTO  H140 4806   4.992  -0.647   4.785  2.2363  0.2423 -0.1816
   12CHTO   C76 4807   5.007  -0.733   4.490  0.0032 -0.2508 -0.1942
   12CHTO  H148 4808   5.043  -0.821   4.544  0.9437  0.7015  0.7655
   12CHTO   O49 4809   4.925  -0.782   4.384  0.0023  0.4055  0.2071
   12CHTO   C77 4810   4.804  -0.852   4.426  0.3532 -0.4729  0.4315
   12CHTO  H149 4811   4.832  -0.940   4.484  2.8651 -0.9233 -1.3806
   12CHTO   C88 4812   4.726  -0.902   4.310  0.7540 -0.4557  0.0243
   12CHTO   O58 4813   4.767  -1.027   4.255  0.7554  0.2373 -0.0659
   12CHTO  H136 4814   4.736  -1.031   4.166 -0.4833  0.3570  0.3473
   12CHTO   O51 4815   5.132  -0.646   4.422 -0.1002 -0.1505  0.3442
   12CHTO   C78 4816   5.211  -0.694   4.295  0.2954  0.7089 -0.0721
   12CHTO  H150 4817   5.136  -0.741   4.228 -0.7684  0.0911  1.5133
   12CHTO   C80 4818   5.320  -0.792   4.345 -0.3619 -0.9410  0.6239
   12CHTO  H152 4819   5.381  -0.737   4.419  0.7555 -0.5544 -0.5723
   12CHTO   O55 4820   5.252  -0.900   4.408 -0.2416 -0.0320  0.5732
   12CHTO  H134 4821   5.289  -0.912   4.494  1.2179  0.3671  0.0257
   12CHTO   C84 4822   5.414  -0.837   4.226  0.0682 -0.7820 -0.1975
   12CHTO  H156 4823   5.347  -0.884   4.153 -0.0120  2.0479 -2.0126
   12CHTO   N15 4824   5.527  -0.924   4.260 -0.9031 -0.7083  0.3431
   12CHTO  H143 4825   5.545  -0.914   4.364 -0.7710  0.1909  0.2361
   12CHTO  H144 4826   5.499  -1.026   4.243 -0.4275 -0.8889  0.6442
   12CHTO   C87 4827   5.461  -0.710   4.149 -0.3824 -0.3771  0.6081
   12CHTO  H159 4828   5.530  -0.660   4.217 -0.2132 -0.0454  0.1899
   12CHTO   O53 4829   5.357  -0.630   4.115  0.4386 -0.0233 -0.2086
   12CHTO   C82 4830   5.282  -0.579   4.223 -0.0102 -0.2224  0.2522
   12CHTO  H154 4831   5.351  -0.519   4.282  0.8694 -0.0343 -0.9562
   12CHTO   C89 4832   5.179  -0.476   4.171 -0.5627  0.3925 -0.4204
   12CHTO   O59 4833   5.103  -0.414   4.276  0.6056 -0.0866 -0.0887
   12CHTO  H137 4834   5.052  -0.346   4.238 -0.9239  1.0680  3.7579
   12CHTO   O45 4835   5.541  -0.758   3.997 -0.1751  0.1587 -0.0308
   12CHTO   C67 4836   5.600  -0.664   3.910  0.5402 -0.3389  0.1697
   12CHTO  H124 4837   5.682  -0.713   3.857  1.3837 -0.1059  1.2430
   12CHTO   C65 4838   5.499  -0.609   3.790 -0.6613  0.0186 -0.6203
   12CHTO  H122 4839   5.404  -0.573   3.830 -0.2113  0.6447 -0.0971
   12CHTO   O44 4840   5.489  -0.724   3.703 -0.2155  0.7783 -0.0015
   12CHTO  H102 4841   5.419  -0.707   3.643 -0.4582  2.1671  0.6610
   12CHTO   C63 4842   5.546  -0.475   3.734  0.0333 -0.5038  0.2340
   12CHTO  H120 4843   5.504  -0.399   3.800  1.0888 -1.0252  1.5384
   12CHTO   N11 4844   5.497  -0.434   3.604  0.1911  0.3815 -0.1263
   12CHTO  H108 4845   5.516  -0.329   3.592  2.9771 -0.1427 -0.6831
   12CHTO  H109 4846   5.560  -0.477   3.528  1.9734  1.6139  0.5975
   12CHTO   C61 4847   5.698  -0.452   3.745 -0.7869 -0.6204 -0.0839
   12CHTO  H118 4848   5.722  -0.349   3.714 -1.4236  0.2916  2.3309
   12CHTO   O40 4849   5.743  -0.470   3.885 -0.0537 -0.3418 -0.2190
   12CHTO   C68 4850   5.669  -0.546   3.987 -0.5048 -0.3634  0.2582
   12CHTO  H125 4851   5.595  -0.478   4.034 -1.5621 -0.5244 -1.1502
   12CHTO   C72 4852   5.776  -0.582   4.095  0.1171 -0.6979  0.2470
   12CHTO   O48 4853   5.786  -0.484   4.196  0.9645 -0.2494 -0.7431
   12CHTO  H105 4854   5.763  -0.531   4.274  1.8908 -0.8813 -0.8479
   12CHTO   O38 4855   5.777  -0.536   3.663  0.5332 -0.0899  0.0251
   12CHTO   C55 4856   5.915  -0.498   3.631 -0.0863 -0.2423  1.1482
   12CHTO  H112 4857   5.961  -0.420   3.693  0.7896  1.9980 -2.2013
   12CHTO   C56 4858   5.917  -0.456   3.474 -0.1330  0.2392  0.3851
   12CHTO  H113 4859   5.885  -0.551   3.427  0.3134  0.6474 -0.7411
   12CHTO   O42 4860   5.813  -0.365   3.433 -0.2446 -0.0019 -0.0670
   12CHTO  H100 4861   5.841  -0.278   3.454  0.6541 -0.2806 -0.0903
   12CHTO   C57 4862   6.064  -0.411   3.442 -0.0077  0.2984 -0.4548
   12CHTO  H114 4863   6.085  -0.330   3.512 -1.4387 -0.9557  1.5056
   12CHTO   N10 4864   6.089  -0.367   3.299  0.4531  0.1098  0.9912
   12CHTO  H106 4865   6.056  -0.264   3.290 -1.0202 -0.5377 -1.4642
   12CHTO  H107 4866   6.047  -0.426   3.219  0.6189 -2.7558  2.9828
   12CHTO   C58 4867   6.159  -0.525   3.477 -0.5279  0.3580  0.4670
   12CHTO  H115 4868   6.135  -0.614   3.416 -2.1169  1.2286 -0.2198
   12CHTO   O37 4869   6.146  -0.560   3.613  0.2206 -0.1504  0.4110
   12CHTO   C59 4870   6.016  -0.615   3.646 -0.3713 -0.2809 -0.3967
   12CHTO  H116 4871   5.981  -0.700   3.588  3.3872 -1.9331 -0.4515
   12CHTO   C70 4872   6.033  -0.670   3.786  0.4357  0.4399 -0.4254
   12CHTO   O46 4873   6.126  -0.770   3.803 -0.0093  0.3134 -0.0254
   12CHTO  H103 4874   6.136  -0.829   3.730  0.9757 -0.2631  0.5591
   12CHTO   O39 4875   6.327  -0.486   3.443 -0.1348  0.3130 -0.0371
   12CHTO   C60 4876   6.411  -0.587   3.504  0.7315  0.3499  0.9447
   12CHTO  H117 4877   6.383  -0.590   3.610 -0.1470  0.0829  0.7081
   12CHTO   C62 4878   6.384  -0.724   3.431  0.4123  0.1403  0.7130
   12CHTO  H119 4879   6.279  -0.759   3.434  0.2422  0.6757  0.8622
   12CHTO   O43 4880   6.420  -0.713   3.289 -0.0525  0.4708 -0.8260
   12CHTO  H101 4881   6.382  -0.639   3.245  0.7719  0.4656 -1.5577
   12CHTO   C66 4882   6.459  -0.843   3.501 -0.0164 -0.2725  0.3139
   12CHTO  H123 4883   6.439  -0.838   3.608 -0.8311  3.0146  0.0499
   12CHTO   N12 4884   6.416  -0.984   3.454  0.1111 -0.2663  0.2025
   12CHTO  H110 4885   6.471  -1.056   3.513 -0.6508  0.0107  1.2555
   12CHTO  H111 4886   6.454  -0.988   3.353 -0.2763 -2.5918  0.1280
   12CHTO   C69 4887   6.612  -0.818   3.483 -0.8022 -0.0131 -0.2234
   12CHTO  H126 4888   6.645  -0.816   3.377  0.0977  1.5158  0.0668
   12CHTO   O41 4889   6.647  -0.690   3.553  0.1657 -0.1093  0.5104
   12CHTO   C64 4890   6.558  -0.545   3.502 -0.9416 -0.6652 -0.2739
   12CHTO  H121 4891   6.588  -0.513   3.400  3.0147  3.4845  2.0325
   12CHTO   C71 4892   6.564  -0.424   3.599 -0.8189  0.2032  0.1455
   12CHTO   O47 4893   6.699  -0.378   3.615  0.1314 -0.4666 -0.2701
   12CHTO  H104 4894   6.712  -0.298   3.660 -0.4836  0.0651 -1.0256
   12CHTO   O34 4895   6.700  -0.940   3.555  0.0392 -0.2821 -0.1914
   12CHTO   C49 4896   6.824  -1.020   3.579 -0.5929  0.4302  0.1346
   12CHTO   H91 4897   6.903  -0.959   3.535  0.6000 -1.1286  0.0960
   12CHTO   C47 4898   6.811  -1.161   3.515 -1.1036 -0.4727 -0.5806
   12CHTO   H89 4899   6.902  -1.219   3.539 -0.9537 -0.2102 -0.5212
   12CHTO   O33 4900   6.802  -1.147   3.370 -0.3018 -0.0137 -0.0351
   12CHTO   H70 4901   6.881  -1.106   3.338 -0.3956  0.7337  0.6854
   12CHTO   C45 4902   6.684  -1.253   3.563 -0.1630 -0.1530  0.2959
   12CHTO   H87 4903   6.602  -1.242   3.490  0.1272  1.4427  0.1925
   12CHTO    N8 4904   6.723  -1.397   3.570  0.6557 -0.2852  0.2541
   12CHTO   H75 4905   6.723  -1.442   3.471  0.6931 -0.3756  0.2950
   12CHTO   H76 4906   6.815  -1.412   3.623  0.9638 -2.4602 -0.8407
   12CHTO   C43 4907   6.633  -1.185   3.701 -0.6218  0.4649 -0.2100
   12CHTO   H85 4908   6.582  -1.093   3.673  2.6910  1.8683 -1.9023
   12CHTO   O29 4909   6.753  -1.168   3.774  0.0745 -0.5668 -0.5145
   12CHTO   C50 4910   6.829  -1.050   3.733  0.0640 -0.2172  0.8413
   12CHTO   H92 4911   6.799  -0.965   3.796 -0.1998 -0.4565  1.0400
   12CHTO   C54 4912   6.971  -1.080   3.777 -0.2207  0.6377  1.2078
   12CHTO   O36 4913   6.973  -1.116   3.913 -0.0836 -0.5217 -0.2538
   12CHTO   H72 4914   6.953  -1.042   3.967  0.6604 -1.3815  1.2330
   12CHTO   O27 4915   6.541  -1.268   3.779  0.0319 -0.0895 -0.1401
   12CHTO   C37 4916   6.390  -1.257   3.779 -0.0234  0.4656 -0.1462
   12CHTO   H79 4917   6.349  -1.208   3.690 -2.2885  2.0260  1.7077
   12CHTO   C38 4918   6.327  -1.393   3.783  0.4934  0.1575 -0.3495
   12CHTO   H80 4919   6.365  -1.447   3.871 -0.3394  0.9708  0.5221
   12CHTO   O31 4920   6.357  -1.469   3.664  0.5675  0.5595 -0.0519
   12CHTO   H68 4921   6.347  -1.562   3.670 -0.1375  0.7053  1.1678
   12CHTO   C39 4922   6.170  -1.386   3.807  0.0644  0.2675  0.7447
   12CHTO   H81 4923   6.125  -1.331   3.724 -0.2159  0.4250  0.9985
   12CHTO    N7 4924   6.107  -1.517   3.825  0.0742 -0.0105  0.4772
   12CHTO   H73 4925   6.169  -1.594   3.869 -2.5888 -3.5345 -1.6922
   12CHTO   H74 4926   6.061  -1.557   3.736  0.5196 -0.8686  0.6311
   12CHTO   C40 4927   6.134  -1.291   3.921  0.0877 -0.3119 -0.6431
   12CHTO   H82 4928   6.169  -1.327   4.018  0.1217 -0.3581 -0.6725
   12CHTO   O26 4929   6.193  -1.163   3.893 -0.5461 -0.7626 -0.8414
   12CHTO   C41 4930   6.339  -1.181   3.901  0.2163 -0.1146 -0.2914
   12CHTO   H83 4931   6.361  -1.248   3.985 -0.4283  2.5348  2.0831
   12CHTO   C52 4932   6.385  -1.039   3.938 -0.0903 -0.5277  0.0200
   12CHTO   O35 4933   6.365  -0.929   3.831  0.1446 -0.0014  0.7223
   12CHTO   H71 4934   6.348  -0.851   3.879  3.1664  0.9195  0.3943
   12CHTO   O28 4935   5.991  -1.267   3.945  0.0105 -0.1708 -0.0348
   12CHTO   C42 4936   5.891  -1.236   3.850  0.3434  0.2853  0.2281
   12CHTO   H84 4937   5.896  -1.314   3.775 -0.6810 -1.1734  1.6352
   12CHTO   C44 4938   5.899  -1.101   3.764  0.4093 -0.7952  0.3174
   12CHTO   H86 4939   5.923  -1.017   3.829 -2.3777  1.3622 -1.3368
   12CHTO   O32 4940   6.017  -1.117   3.676 -0.2785 -0.2094  0.3015
   12CHTO   H69 4941   6.090  -1.156   3.719  1.1268  2.6716  0.6303
   12CHTO   C48 4942   5.772  -1.048   3.690  0.3307  0.6558 -0.3154
   12CHTO   H90 4943   5.749  -1.104   3.599 -1.5044 -0.6883  0.9234
   12CHTO    N9 4944   5.783  -0.910   3.648 -0.6963  0.9318  0.6143
   12CHTO   H77 4945   5.691  -0.885   3.598 -1.3093  0.6767  1.5977
   12CHTO   H78 4946   5.786  -0.842   3.732 -3.3001  1.5622  0.2467
   12CHTO   C51 4947   5.642  -1.075   3.782  0.0714 -0.5794  0.5456
   12CHTO   H93 4948   5.653  -1.004   3.864  1.7063  0.3956 -0.4659
   12CHTO   O30 4949   5.636  -1.209   3.830 -0.4526  0.6555  0.1092
   12CHTO   C46 4950   5.749  -1.253   3.918  0.5121  0.6812  0.1383
   12CHTO   H88 4951   5.738  -1.193   4.008 -0.1142  1.8054 -0.6786
   12CHTO   C53 4952   5.720  -1.402   3.953  0.0688  0.0754  0.2736
   12CHTO   O72 4953   5.591  -1.420   4.010 -0.6631 -0.1475  0.3866
   12CHTO  H199 4954   5.525  -1.422   3.943 -0.7741  2.1075  0.4063
   12CHTO   O22 4955   5.524  -1.051   3.702 -0.5041 -0.6452  0.5953
   12CHTO   C31 4956   5.387  -1.093   3.725  1.1222 -0.9771 -0.1524
   12CHTO   H59 4957   5.386  -1.204   3.720  1.4232 -0.9444 -1.0166
   12CHTO   C29 4958   5.332  -1.055   3.867  0.9285 -0.2322  0.3635
   12CHTO   H57 4959   5.358  -0.951   3.892 -0.5418  0.0304  0.8571
   12CHTO   O21 4960   5.400  -1.139   3.963  0.7206  0.0959  0.1775
   12CHTO   H37 4961   5.350  -1.178   4.032  1.0839 -2.5711 -0.9758
   12CHTO   C27 4962   5.176  -1.072   3.890 -0.0117  0.9211  0.5619
   12CHTO   H55 4963   5.156  -1.180   3.900 -0.7509  1.2500  2.9595
   12CHTO    N5 4964   5.132  -1.008   4.020 -0.1501 -0.5302  0.6517
   12CHTO   H43 4965   5.136  -1.081   4.099  0.4869  0.7989  1.8803
   12CHTO   H44 4966   5.043  -0.947   4.009  1.1561  1.2093 -0.6684
   12CHTO   C25 4967   5.099  -1.039   3.759  0.0109 -0.0734 -0.2268
   12CHTO   H53 4968   5.103  -0.931   3.739 -0.1510  0.5775  2.9853
   12CHTO   O17 4969   5.156  -1.102   3.648  0.3959  0.1176 -0.2980
   12CHTO   C32 4970   5.287  -1.043   3.614 -0.0259 -0.1756  0.8629
   12CHTO   H60 4971   5.283  -0.934   3.613 -0.0349 -0.1796  0.3256
   12CHTO   C36 4972   5.332  -1.081   3.475  0.0075 -0.2166 -0.2229
   12CHTO   O25 4973   5.244  -1.065   3.371  0.4907 -0.0305 -0.4422
   12CHTO   H40 4974   5.251  -1.130   3.304  3.4087  1.0489 -1.2257
   12CHTO   O15 4975   4.958  -1.071   3.777  0.6628  0.0470  0.5611
   12CHTO   C19 4976   4.840  -0.997   3.715  0.3033 -0.2093 -0.0908
   12CHTO   H47 4977   4.848  -0.897   3.761  0.9116 -0.8462  1.2274
   12CHTO   C20 4978   4.843  -0.988   3.555  0.1133 -0.5998 -0.3748
   12CHTO   H48 4979   4.855  -1.085   3.505  1.7816  0.2168 -1.6180
   12CHTO   O19 4980   4.965  -0.917   3.531 -0.1018  0.5536  0.0043
   12CHTO   H35 4981   4.969  -0.896   3.439 -1.5699 -1.7029 -0.6366
   12CHTO   C21 4982   4.715  -0.911   3.496  0.2333 -0.4123 -0.2612
   12CHTO   H49 4983   4.726  -0.805   3.518 -1.2646 -0.2900 -0.0886
   12CHTO    N4 4984   4.703  -0.925   3.345  1.0514 -0.3419  0.8045
   12CHTO   H41 4985   4.790  -0.958   3.290  0.3221  0.0762 -0.6177
   12CHTO   H42 4986   4.675  -0.828   3.307  0.1591 -1.1149 -0.5805
   12CHTO   C22 4987   4.584  -0.968   3.562 -0.5258 -0.0899  0.0445
   12CHTO   H50 4988   4.576  -1.073   3.534 -1.2015 -0.0710  0.1679
   12CHTO   O14 4989   4.598  -0.964   3.702 -0.2659 -0.2576 -0.3901
   12CHTO   C23 4990   4.704  -1.048   3.763 -0.0514  0.4094 -0.1762
   12CHTO   H51 4991   4.686  -1.151   3.731 -1.6385 -0.3607  3.0017
   12CHTO   C34 4992   4.682  -1.035   3.914  0.0232 -0.0885  0.1542
   12CHTO   O23 4993   4.551  -1.082   3.951 -0.0544  0.0880 -0.4375
   12CHTO   H38 4994   4.487  -1.027   3.909  0.4821  0.6950 -0.4647
   12CHTO   O16 4995   4.468  -0.887   3.524 -0.4357  0.4586 -0.8345
   12CHTO   C24 4996   4.352  -0.979   3.453  0.0573  0.6162 -0.1472
   12CHTO   H52 4997   4.379  -1.084   3.447 -0.7931  0.5215 -3.1664
   12CHTO   C26 4998   4.307  -0.918   3.321  0.6875  0.4601  0.3342
   12CHTO   H54 4999   4.274  -0.813   3.339 -0.7404  0.2918 -1.1981
   12CHTO   O20 5000   4.421  -0.915   3.230 -0.3551 -0.4551  0.1536
   12CHTO   H36 5001   4.436  -0.999   3.191 -0.6965 -0.7089  0.5514
   12CHTO   C30 5002   4.182  -0.992   3.262 -0.7475 -0.7299 -0.2185
   12CHTO   H58 5003   4.216  -1.090   3.225 -0.7623 -1.2070  1.0367
   12CHTO    N6 5004   4.127  -0.937   3.138 -0.1745 -0.3190  0.0770
   12CHTO   H45 5005   4.181  -0.973   3.052 -0.8312  2.0955 -1.4079
   12CHTO   H46 5006   4.024  -0.967   3.125  0.0537 -0.2920 -1.9854
   12CHTO   C33 5007   4.072  -1.021   3.376 -0.5055  0.1167 -0.2012
   12CHTO   H61 5008   4.017  -0.926   3.388  0.8190  0.7869  0.8068
   12CHTO   O18 5009   4.130  -1.069   3.493 -0.0344 -0.4287 -0.3471
   12CHTO   C28 5010   4.220  -0.976   3.549 -0.5226 -0.5410 -0.3877
   12CHTO   H56 5011   4.182  -0.874   3.555  1.1769  0.1421 -0.9810
   12CHTO   C35 5012   4.261  -1.022   3.695  0.0768 -0.5250  0.1350
   12CHTO   O24 5013   4.146  -1.020   3.783 -0.0922 -0.0747  0.1420
   12CHTO   H39 5014   4.153  -1.013   3.876 -1.4674 -0.4560  0.2764
   12CHTO    O9 5015   3.976  -1.114   3.327 -0.2779 -0.2751  0.8898
   12CHTO   C13 5016   4.028  -1.258   3.298  0.3343  0.9218 -0.1499
   12CHTO   H26 5017   4.134  -1.278   3.324  0.8839  1.8158 -1.6364
   12CHTO   C11 5018   3.998  -1.300   3.143  0.1084 -0.2388 -0.6219
   12CHTO   H24 5019   4.063  -1.234   3.084 -1.4122  1.3501 -0.5691
   12CHTO    O8 5020   3.860  -1.280   3.101 -0.4425 -0.0783 -0.0207
   12CHTO    H3 5021   3.835  -1.190   3.113 -0.3411  0.1128 -1.1740
   12CHTO    C9 5022   4.053  -1.444   3.124 -0.0622 -0.7426  0.0051
   12CHTO   H22 5023   4.161  -1.429   3.137 -0.3147 -0.9362  2.5030
   12CHTO    N2 5024   4.036  -1.484   2.983 -0.6264 -0.1222 -0.1587
   12CHTO   H10 5025   3.933  -1.507   2.962 -0.2550 -0.2398 -1.9310
   12CHTO   H11 5026   4.092  -1.577   2.976  1.0740  0.8253  0.6265
   12CHTO    C7 5027   3.994  -1.544   3.242 -0.6305  0.3427  0.1762
   12CHTO   H20 5028   4.083  -1.573   3.302  0.6479 -1.1462 -2.3272
   12CHTO    O4 5029   3.899  -1.471   3.319 -0.2211  0.8634  0.1176
   12CHTO   C14 5030   3.953  -1.364   3.400 -0.0640  1.0133  0.1183
   12CHTO   H27 5031   4.033  -1.397   3.469 -2.5108 -2.1911  1.5938
   12CHTO   C18 5032   3.835  -1.303   3.493  0.0555  0.2933  0.3435
   12CHTO   O13 5033   3.884  -1.214   3.595 -0.1328  0.4144 -0.6426
   12CHTO    H7 5034   3.916  -1.136   3.555  1.4646  0.1302  0.0486
   12CHTO    O2 5035   3.909  -1.669   3.198  0.4049 -0.0663  0.2412
   12CHTO    C1 5036   3.874  -1.762   3.302  0.1836  0.0412  0.3891
   12CHTO   H14 5037   3.904  -1.720   3.400 -0.7079 -0.4880  0.8981
   12CHTO    C2 5038   3.939  -1.906   3.278 -0.1526  1.0330  0.4636
   12CHTO   H15 5039   3.908  -1.934   3.176  2.8753  1.1531 -0.5420
   12CHTO    O6 5040   4.080  -1.888   3.270  0.7643  0.1220 -0.2971
   12CHTO    H1 5041   4.102  -1.876   3.361  0.8655  0.1218 -0.3212
   12CHTO    C3 5042   3.891  -2.013   3.380 -0.0388  0.5965 -0.7038
   12CHTO   H16 5043   3.940  -1.996   3.477 -0.0191  1.8239 -0.9186
   12CHTO    N1 5044   3.920  -2.151   3.329  0.3071 -0.7356 -0.0200
   12CHTO    H8 5045   3.867  -2.232   3.377  1.1544  0.1237  2.4494
   12CHTO    H9 5046   4.023  -2.175   3.351  0.7347  0.3124 -0.8242
   12CHTO    C4 5047   3.735  -1.997   3.403  0.0086 -0.0412 -0.3667
   12CHTO   H17 5048   3.681  -2.031   3.314  1.2468 -0.5601 -0.9297
   12CHTO    O1 5049   3.696  -1.861   3.430  0.1110 -0.2812  0.4090
   12CHTO    C5 5050   3.721  -1.778   3.315  0.6887  1.1327 -0.2346
   12CHTO   H18 5051   3.679  -1.826   3.227 -0.1538  1.5539 -0.0718
   12CHTO   C16 5052   3.640  -1.650   3.353 -0.3328 -0.5144  0.1493
   12CHTO   O11 5053   3.639  -1.545   3.253  0.6258  0.7764 -0.3298
   12CHTO    H5 5054   3.607  -1.463   3.286  2.4420  1.1294  0.6310
   12CHTO    O3 5055   3.702  -2.069   3.521 -0.3565 -0.1381  0.2237
   12CHTO    C6 5056   3.561  -2.069   3.556  0.7391 -0.2745 -0.6098
   12CHTO   H19 5057   3.494  -1.997   3.508  0.0132 -0.9052 -0.5414
   12CHTO    C8 5058   3.510  -2.215   3.522 -0.4731 -0.8934  0.2962
   12CHTO   H21 5059   3.574  -2.286   3.574 -1.3701 -1.0222  1.2301
   12CHTO    O7 5060   3.517  -2.224   3.378 -0.1509 -0.3245  0.0925
   12CHTO    H2 5061   3.603  -2.234   3.342 -0.5826 -0.9870 -0.7745
   12CHTO   C12 5062   3.364  -2.241   3.581 -0.2075  0.2039 -0.3388
   12CHTO   H25 5063   3.281  -2.185   3.533 -1.1734 -1.5381 -0.7190
   12CHTO    N3 5064   3.329  -2.385   3.552  0.0257  0.8022 -0.2768
   12CHTO   H12 5065   3.336  -2.441   3.644  0.2265 -0.2456 -0.9282
   12CHTO   H13 5066   3.229  -2.393   3.512 -0.5816  0.6588  1.2050
   12CHTO   C15 5067   3.364  -2.203   3.736 -0.3258 -0.7945 -0.5678
   12CHTO   H28 5068   3.416  -2.276   3.798 -1.3647 -0.2440  1.0133
   12CHTO   O10 5069   3.233  -2.187   3.793 -0.0392  0.4217 -0.5365
   12CHTO    H4 5070   3.174  -2.243   3.746  1.0937 -2.6989  1.6088
   12CHTO    O5 5071   3.414  -2.070   3.760  0.1871  0.3257 -0.6007
   12CHTO   C10 5072   3.552  -2.051   3.715 -0.1107 -0.9706  0.2144
   12CHTO   H23 5073   3.622  -2.125   3.754 -1.0371 -2.9630 -1.7369
   12CHTO   C17 5074   3.606  -1.912   3.759 -0.3593  0.9092  0.7321
   12CHTO   O12 5075   3.512  -1.802   3.761 -0.7236  0.2788 -0.5703
   12CHTO    H6 5076   3.560  -1.723   3.781 -1.2716  0.6235 -0.6000
   13CHTO  H203 5077   7.473   4.649   2.218  1.7138 -0.6931 -1.7223
   13CHTO   O82 5078   7.405   4.593   2.186  0.4631 -0.3485  0.2354
   13CHTO  C123 5079   7.286   4.678   2.162 -0.4663 -0.1725  0.1138
   13CHTO  H227 5080   7.308   4.756   2.088  0.5238 -0.5020  0.0496
   13CHTO   O77 5081   7.184   4.588   2.107  1.0890 -0.0032 -0.5135
   13CHTO  C118 5082   7.080   4.665   2.048  0.2032 -0.1106 -0.6169
   13CHTO  H222 5083   7.119   4.745   1.984  1.3049  0.6293  0.9382
   13CHTO  C125 5084   6.981   4.577   1.970 -0.4285 -0.3200 -0.8036
   13CHTO   O84 5085   6.880   4.640   1.890 -0.1926  0.2911 -0.2877
   13CHTO  H205 5086   6.819   4.685   1.945  1.5026  1.8697  0.3713
   13CHTO  C114 5087   7.005   4.732   2.163 -0.4735 -0.1860 -0.4624
   13CHTO  H218 5088   6.974   4.655   2.233 -0.1925  0.5494  0.4739
   13CHTO  C116 5089   7.095   4.813   2.262 -0.5953 -0.1493 -0.1329
   13CHTO  H220 5090   7.126   4.904   2.207 -2.8520  0.1544 -0.9539
   13CHTO   O79 5091   7.028   4.851   2.381  0.2040  0.0487 -0.1810
   13CHTO  H201 5092   7.003   4.774   2.427 -0.0269  0.8014  0.9790
   13CHTO  C120 5093   7.226   4.740   2.293  0.1496  0.3473  0.4060
   13CHTO  H224 5094   7.185   4.654   2.351 -0.5039  0.5452  0.2467
   13CHTO   N21 5095   7.322   4.826   2.370  0.0253  0.3108 -0.2669
   13CHTO  H211 5096   7.397   4.760   2.412  1.0618 -0.4432 -3.2008
   13CHTO  H212 5097   7.373   4.899   2.308 -3.1043 -0.7682 -4.3079
   13CHTO   O75 5098   6.900   4.813   2.109 -0.4458 -0.3839  0.3328
   13CHTO  C112 5099   6.765   4.806   2.189 -0.4950  0.8063  1.0480
   13CHTO  H216 5100   6.793   4.793   2.294  1.3112 -1.5020  0.2989
   13CHTO   O73 5101   6.700   4.690   2.139 -0.7468  0.2364 -0.0775
   13CHTO  C113 5102   6.575   4.660   2.198  0.5529  1.0058  0.2412
   13CHTO  H217 5103   6.605   4.649   2.304 -2.7341 -0.5964  1.0448
   13CHTO  C124 5104   6.521   4.521   2.146 -0.6103 -0.1834 -0.2308
   13CHTO   O83 5105   6.500   4.508   2.006 -0.1308  0.1770  0.7664
   13CHTO  H204 5106   6.452   4.430   1.985  0.6144  0.3044 -1.4791
   13CHTO  C109 5107   6.472   4.770   2.163  0.1778  0.3053 -0.7635
   13CHTO  H213 5108   6.461   4.771   2.053 -1.0954  0.5252 -0.6456
   13CHTO  C110 5109   6.524   4.909   2.211 -0.3879 -0.0600 -0.1844
   13CHTO  H214 5110   6.523   4.923   2.319  1.2367 -2.7739  0.2299
   13CHTO   O78 5111   6.436   5.015   2.167  0.3786 -0.4538 -0.6359
   13CHTO  H200 5112   6.450   5.052   2.082 -0.9627  0.0908 -0.6436
   13CHTO  C111 5113   6.667   4.932   2.154  0.3540  0.0295  0.1619
   13CHTO  H215 5114   6.652   4.946   2.046 -1.6906  0.0562  0.4340
   13CHTO   N19 5115   6.732   5.061   2.203  0.4374  0.0956  0.5284
   13CHTO  H207 5116   6.837   5.063   2.175  0.3745  0.7824  0.3519
   13CHTO  H208 5117   6.694   5.143   2.145  0.1489 -0.6073 -0.3036
   13CHTO   O74 5118   6.346   4.736   2.232  0.4556 -0.5305  0.0064
   13CHTO  C115 5119   6.216   4.820   2.157 -0.8397  0.3258 -0.8741
   13CHTO  H219 5120   6.216   4.927   2.178 -0.6017  0.6019 -2.2139
   13CHTO   O76 5121   6.224   4.813   1.991  0.0594  0.0454 -0.1837
   13CHTO  C122 5122   6.112   4.886   1.934 -0.4181  0.1307  0.0649
   13CHTO  H226 5123   6.118   4.874   1.826  0.0103  0.5905  0.0336
   13CHTO  C126 5124   6.120   5.032   1.965  0.3948  0.1949 -0.3417
   13CHTO   O85 5125   6.229   5.095   1.894  0.1643 -0.1317 -0.0282
   13CHTO  H206 5126   6.245   5.173   1.945  2.0169 -1.0425  0.8035
   13CHTO  C121 5127   5.979   4.838   1.990 -0.1576 -0.6579  0.7674
   13CHTO  H225 5128   5.900   4.902   1.946 -0.5429 -2.0591 -0.6366
   13CHTO   O81 5129   5.961   4.713   1.925  0.2453 -0.1901  0.3333
   13CHTO  H202 5130   5.995   4.643   1.978 -2.4391 -1.2531  0.7332
   13CHTO  C119 5131   5.967   4.837   2.147 -0.3022 -0.1285  0.7432
   13CHTO  H223 5132   5.973   4.942   2.175  1.6585  0.0241 -0.1978
   13CHTO  C117 5133   6.081   4.762   2.215  0.1876  0.5392  0.7589
   13CHTO  H221 5134   6.087   4.654   2.200  1.2558  0.6585  0.3002
   13CHTO   N20 5135   6.066   4.780   2.358  0.0503 -0.3820 -0.7580
   13CHTO  H209 5136   6.095   4.883   2.378  0.2092 -0.4338 -0.7252
   13CHTO  H210 5137   5.963   4.777   2.392  0.1430  2.7684  0.0121
   13CHTO   O80 5138   5.806   4.804   2.202 -0.2046  0.4817 -0.4029
   13CHTO  C103 5139   5.709   4.926   2.290  0.3212 -0.1598 -0.2964
   13CHTO  H190 5140   5.724   4.919   2.398  0.8040  1.4286 -0.2464
   13CHTO  C101 5141   5.740   5.072   2.259 -0.1460 -0.2844  0.2308
   13CHTO  H188 5142   5.757   5.082   2.151 -1.9636  1.2143  0.0600
   13CHTO   O68 5143   5.859   5.115   2.339 -0.4140  0.2781  0.1124
   13CHTO  H168 5144   5.897   5.190   2.297  1.2375  0.1279  1.2772
   13CHTO   C99 5145   5.623   5.169   2.291 -0.0200 -0.1060 -0.5026
   13CHTO  H186 5146   5.609   5.162   2.401 -0.7839 -0.5734 -0.6216
   13CHTO   N17 5147   5.645   5.319   2.256 -0.0387 -0.2139 -0.2802
   13CHTO  H174 5148   5.555   5.369   2.222 -0.5565 -1.5021 -0.8302
   13CHTO  H175 5149   5.688   5.380   2.334  1.4680 -1.9357  0.2687
   13CHTO   C97 5150   5.491   5.117   2.230 -0.8570  0.8993 -0.3517
   13CHTO  H184 5151   5.489   5.127   2.120 -5.0677 -1.9569 -0.6430
   13CHTO   O64 5152   5.460   4.978   2.270  0.4002  0.2134  0.2085
   13CHTO  C104 5153   5.568   4.880   2.250  1.0662 -0.3406  0.0223
   13CHTO  H191 5154   5.560   4.856   2.144  0.2079  0.6305 -0.1382
   13CHTO  C108 5155   5.534   4.750   2.327  0.0691  0.5443 -0.1455
   13CHTO   O71 5156   5.600   4.636   2.294  0.7297  0.2562 -0.4623
   13CHTO  H171 5157   5.554   4.602   2.220 -0.2817 -0.4485  0.4641
   13CHTO   O62 5158   5.380   5.193   2.286  0.0620 -0.0651 -0.0662
   13CHTO   C91 5159   5.247   5.174   2.222 -0.7192 -0.0807 -0.1668
   13CHTO  H178 5160   5.243   5.089   2.154 -0.2107 -0.2623  0.0218
   13CHTO   C92 5161   5.224   5.297   2.124 -0.1125  0.1822 -0.4691
   13CHTO  H179 5162   5.230   5.387   2.188 -0.3356 -0.0789 -0.0807
   13CHTO   O66 5163   5.335   5.311   2.033  0.1256 -0.5801 -0.4408
   13CHTO  H166 5164   5.326   5.390   1.983  2.2827  0.6688  1.0723
   13CHTO   C93 5165   5.086   5.287   2.052  0.0767 -0.0958  0.0273
   13CHTO  H180 5166   5.093   5.204   1.979 -1.4142  0.1570 -0.4115
   13CHTO   N16 5167   5.048   5.402   1.964  0.0998 -0.3222 -0.2141
   13CHTO  H172 5168   5.084   5.487   2.020 -0.8206 -0.2908  0.3419
   13CHTO  H173 5169   4.941   5.407   1.945 -0.0454  2.0076  1.0063
   13CHTO   C94 5170   4.974   5.259   2.163  0.0877 -0.0501 -0.5088
   13CHTO  H181 5171   4.951   5.349   2.221 -1.4260 -2.2195  2.4238
   13CHTO   O61 5172   5.005   5.150   2.249 -0.8117  0.1426  0.2932
   13CHTO   C95 5173   5.129   5.168   2.321 -0.1098 -0.0616  0.0950
   13CHTO  H182 5174   5.119   5.257   2.382 -2.2055 -0.5281  0.4780
   13CHTO  C106 5175   5.144   5.042   2.417  0.2204 -0.5014 -0.3640
   13CHTO   O69 5176   5.254   5.057   2.505 -0.2681 -0.1392  0.1995
   13CHTO  H169 5177   5.282   4.972   2.531  0.6843 -0.1408 -0.7615
   13CHTO   O63 5178   4.821   5.193   2.081  0.3743  0.3532 -0.0948
   13CHTO   C96 5179   4.687   5.242   2.140  0.2228 -0.0249 -0.0149
   13CHTO  H183 5180   4.614   5.184   2.082 -0.4746  1.4375 -0.6191
   13CHTO   C98 5181   4.650   5.393   2.120  0.0018  0.0961  0.5814
   13CHTO  H185 5182   4.729   5.458   2.161 -0.5209  2.4063 -1.9710
   13CHTO   O67 5183   4.649   5.416   1.981  0.0580 -0.1608  0.2617
   13CHTO  H167 5184   4.727   5.462   1.957 -0.2899  0.0547 -0.4538
   13CHTO  C102 5185   4.500   5.431   2.181 -0.3238 -0.0743  0.4528
   13CHTO  H189 5186   4.429   5.376   2.118  0.8272 -3.2098  1.8162
   13CHTO   N18 5187   4.461   5.575   2.166 -0.0921  0.1057  0.0474
   13CHTO  H176 5188   4.362   5.587   2.209 -0.1989  1.8552 -0.6669
   13CHTO  H177 5189   4.447   5.596   2.061 -0.2391 -1.8290 -0.3447
   13CHTO  C105 5190   4.494   5.385   2.328  0.4748 -0.8094 -0.1173
   13CHTO  H192 5191   4.562   5.448   2.386 -0.4659 -0.4791  0.6294
   13CHTO   O65 5192   4.539   5.251   2.340  0.2139 -0.1483  0.0405
   13CHTO  C100 5193   4.666   5.207   2.289 -0.8105 -0.0367  0.2107
   13CHTO  H187 5194   4.743   5.268   2.337 -1.3969 -0.5579  1.8585
   13CHTO  C107 5195   4.686   5.054   2.319 -0.0641  0.6828  0.3966
   13CHTO   O70 5196   4.733   5.022   2.451  0.3330  0.5287 -0.2668
   13CHTO  H170 5197   4.724   4.929   2.456 -0.6372  0.5356 -1.5146
   13CHTO   O57 5198   4.341   5.411   2.386 -0.5947 -0.0562  0.6802
   13CHTO   C85 5199   4.225   5.345   2.326  0.2551  0.4152 -0.0935
   13CHTO  H157 5200   4.271   5.306   2.232  0.1677  0.7287 -0.2695
   13CHTO   C83 5201   4.128   5.451   2.269 -0.7842  0.3057 -0.4958
   13CHTO  H155 5202   4.181   5.514   2.197  0.4801 -1.0565 -0.7788
   13CHTO   O56 5203   4.087   5.539   2.380  0.0739  0.4702  0.3505
   13CHTO  H135 5204   4.081   5.627   2.348 -0.8405  0.2418 -0.1380
   13CHTO   C81 5205   4.018   5.372   2.193 -0.3725  0.0155  0.1528
   13CHTO  H153 5206   4.064   5.315   2.112 -1.9328 -1.2229  0.1309
   13CHTO   N14 5207   3.922   5.463   2.130 -0.4604  0.1848 -0.3616
   13CHTO  H141 5208   3.860   5.502   2.208  0.4412 -1.3716  1.1856
   13CHTO  H142 5209   3.956   5.542   2.067  1.3735 -0.5149 -0.3033
   13CHTO   C79 5210   3.942   5.261   2.286 -0.1250  0.1822 -0.4915
   13CHTO  H151 5211   3.875   5.205   2.220  0.5169 -1.8246  0.5158
   13CHTO   O52 5212   4.030   5.161   2.350  0.9447  0.2334 -0.2685
   13CHTO   C86 5213   4.151   5.230   2.407 -0.3793 -0.4068  0.0446
   13CHTO  H158 5214   4.103   5.259   2.503  0.2949  0.1566  0.2131
   13CHTO   C90 5215   4.246   5.111   2.440  0.0357  0.3229  0.2297
   13CHTO   O60 5216   4.312   5.051   2.327 -0.5121 -0.4877 -0.0753
   13CHTO  H138 5217   4.254   4.992   2.283  2.5585 -1.7805 -2.4934
   13CHTO   O50 5218   3.861   5.319   2.388 -0.0229  0.0924  0.2210
   13CHTO   C73 5219   3.732   5.277   2.444 -0.4185 -0.3600  0.7592
   13CHTO  H145 5220   3.682   5.198   2.385  0.5062  0.0138 -0.5283
   13CHTO   C74 5221   3.644   5.396   2.441  0.4673 -0.0786  0.2723
   13CHTO  H146 5222   3.633   5.433   2.339 -1.2854  0.0318  0.4938
   13CHTO   O54 5223   3.522   5.348   2.481  0.6463  0.0527 -0.2036
   13CHTO  H133 5224   3.469   5.343   2.404 -0.0934  0.5693  0.2681
   13CHTO   C75 5225   3.687   5.514   2.544 -0.4243 -0.4939 -0.0432
   13CHTO  H147 5226   3.783   5.554   2.510  0.3049 -0.1846  2.2791
   13CHTO   N13 5227   3.592   5.627   2.545  0.2066 -0.0344  0.6599
   13CHTO  H139 5228   3.555   5.634   2.443 -0.9487 -0.1930  1.0632
   13CHTO  H140 5229   3.637   5.721   2.574  1.6439 -0.7251  0.7109
   13CHTO   C76 5230   3.701   5.443   2.684 -0.2925 -0.0591  0.3322
   13CHTO  H148 5231   3.600   5.409   2.703 -0.3212 -1.3350 -1.9514
   13CHTO   O49 5232   3.797   5.336   2.662  0.1631  0.0860 -0.2009
   13CHTO   C77 5233   3.753   5.225   2.585 -0.5186  0.4206  0.3973
   13CHTO  H149 5234   3.657   5.190   2.623 -0.6768  0.7493  0.2970
   13CHTO   C88 5235   3.853   5.113   2.595 -0.1113 -0.5080  0.0113
   13CHTO   O58 5236   3.895   5.054   2.732 -0.0340 -0.0943  0.2020
   13CHTO  H136 5237   3.968   4.998   2.711  0.0058  0.2792 -0.6876
   13CHTO   O51 5238   3.752   5.535   2.800  0.5180  0.2778  0.6245
   13CHTO   C78 5239   3.923   5.516   2.847 -0.2659 -0.2043  0.6772
   13CHTO  H150 5240   3.937   5.599   2.920 -3.8447 -0.7236  2.0522
   13CHTO   C80 5241   4.017   5.536   2.728 -0.1731  0.3990 -0.0452
   13CHTO  H152 5242   4.009   5.449   2.659  2.2779 -1.2529  1.6969
   13CHTO   O55 5243   3.979   5.657   2.656  0.5997  0.6118  0.0246
   13CHTO  H134 5244   3.887   5.649   2.642  0.6667  2.0980 -1.3785
   13CHTO   C84 5245   4.166   5.527   2.780  0.7307  0.4443  0.6834
   13CHTO  H156 5246   4.181   5.593   2.865 -0.5712 -0.0440  1.2944
   13CHTO   N15 5247   4.265   5.564   2.679  0.1407 -0.3425 -0.1386
   13CHTO  H143 5248   4.336   5.633   2.720 -0.5206 -0.7048  1.6537
   13CHTO  H144 5249   4.228   5.600   2.585 -1.4767 -3.1668 -0.6189
   13CHTO   C87 5250   4.184   5.385   2.843 -0.0772 -0.6006  1.0196
   13CHTO  H159 5251   4.164   5.310   2.765  0.0219  0.3974  0.0253
   13CHTO   O53 5252   4.093   5.383   2.955 -0.1471  0.2490 -0.0377
   13CHTO   C82 5253   3.953   5.382   2.920 -0.4724 -0.0183  0.3307
   13CHTO  H154 5254   3.927   5.298   2.856 -1.3291 -0.1712  0.8752
   13CHTO   C89 5255   3.865   5.371   3.050 -0.2756  0.9311  0.0109
   13CHTO   O59 5256   3.890   5.246   3.121 -0.0294 -0.4076  0.6758
   13CHTO  H137 5257   3.980   5.252   3.145  0.0735 -1.8020  0.7005
   13CHTO   O45 5258   4.327   5.362   2.905 -0.0104 -0.2693  0.1437
   13CHTO   C67 5259   4.375   5.230   2.872  0.5970 -0.4180 -0.1716
   13CHTO  H124 5260   4.292   5.164   2.846 -0.5190 -0.1203  2.4453
   13CHTO   C65 5261   4.474   5.240   2.755 -0.4870  0.5516  0.3871
   13CHTO  H122 5262   4.422   5.292   2.675 -3.2452 -2.5736  0.0210
   13CHTO   O44 5263   4.511   5.109   2.703  0.0041  0.3217  0.6849
   13CHTO  H102 5264   4.592   5.111   2.655 -0.4278  2.1352  0.0094
   13CHTO   C63 5265   4.591   5.333   2.798  0.0348 -0.0743 -0.8866
   13CHTO  H120 5266   4.550   5.426   2.838  1.0722  0.4663 -1.0812
   13CHTO   N11 5267   4.687   5.378   2.693  0.5551  0.2530  0.4138
   13CHTO  H108 5268   4.732   5.470   2.725  1.8668 -0.5080  0.7565
   13CHTO  H109 5269   4.625   5.385   2.606  0.7037 -2.5104  0.0305
   13CHTO   C61 5270   4.668   5.255   2.918 -0.1972 -0.0564  0.6031
   13CHTO  H118 5271   4.728   5.330   2.971  1.2687 -1.3531  0.8106
   13CHTO   O40 5272   4.581   5.191   3.017  0.2624  0.1634 -0.1729
   13CHTO   C68 5273   4.435   5.172   3.002 -0.2570 -0.2567 -0.3761
   13CHTO  H125 5274   4.385   5.223   3.088  0.0882  1.4238 -1.1471
   13CHTO   C72 5275   4.411   5.025   3.023  0.3147  0.4593  0.6261
   13CHTO   O48 5276   4.467   4.944   2.919 -0.3777  0.2932  0.7043
   13CHTO  H105 5277   4.557   4.939   2.944 -0.3422  0.8059  0.6840
   13CHTO   O38 5278   4.766   5.156   2.875 -0.6562  0.2065  0.4485
   13CHTO   C55 5279   4.886   5.107   2.937 -0.0570  0.3194  0.0909
   13CHTO  H112 5280   4.918   5.022   2.875  2.3264 -0.1232  1.8572
   13CHTO   C56 5281   4.872   5.065   3.087 -0.9611 -0.5702  0.5376
   13CHTO  H113 5282   4.820   5.153   3.129 -0.7287  0.1611 -0.6727
   13CHTO   O42 5283   4.776   4.955   3.082  0.2569 -0.3105 -0.5047
   13CHTO  H100 5284   4.690   4.986   3.060 -0.3799 -0.5921  1.4379
   13CHTO   C57 5285   5.010   5.025   3.154 -0.3744 -0.7120 -0.0463
   13CHTO  H114 5286   5.029   4.927   3.110  0.7391  0.9402 -3.3719
   13CHTO   N10 5287   5.009   5.020   3.305  0.9781 -0.5474 -0.3947
   13CHTO  H106 5288   4.913   4.985   3.338  1.0462  0.7668  1.2963
   13CHTO  H107 5289   5.091   4.962   3.345  0.7129 -0.7041 -0.0849
   13CHTO   C58 5290   5.108   5.137   3.105  0.2545  0.8986  0.5368
   13CHTO  H115 5291   5.086   5.230   3.161 -1.0858  2.2133 -2.0336
   13CHTO   O37 5292   5.115   5.158   2.963 -0.6109  0.2232 -0.1562
   13CHTO   C59 5293   4.996   5.215   2.915  0.1535 -0.3008  0.3875
   13CHTO  H116 5294   4.974   5.315   2.951  1.2236  0.5112 -1.2096
   13CHTO   C70 5295   5.011   5.240   2.762  0.3239 -0.3885  0.4774
   13CHTO   O46 5296   5.120   5.326   2.730 -0.1589 -0.2824  0.2447
   13CHTO  H103 5297   5.110   5.346   2.638 -0.7513 -1.8721 -0.0631
   13CHTO   O39 5298   5.263   5.081   3.134 -0.1408 -0.0135  0.3093
   13CHTO   C60 5299   5.377   5.169   3.143 -0.2741 -0.4295  0.6726
   13CHTO  H117 5300   5.385   5.223   3.049 -0.6391  1.5093  1.7227
   13CHTO   C62 5301   5.351   5.269   3.263  0.5444  0.6132 -0.0398
   13CHTO  H119 5302   5.258   5.322   3.234  0.7739  0.9670 -0.1292
   13CHTO   O43 5303   5.316   5.214   3.389  0.4095 -0.5314 -0.1501
   13CHTO  H101 5304   5.346   5.267   3.460  1.4590 -0.2109 -0.8222
   13CHTO   C66 5305   5.468   5.389   3.262  0.0476 -0.4234 -0.2685
   13CHTO  H123 5306   5.485   5.417   3.158  1.9507  2.3238  0.7213
   13CHTO   N12 5307   5.427   5.507   3.341  0.3797  0.1568  0.2526
   13CHTO  H110 5308   5.495   5.588   3.321  0.8949 -0.4921 -0.6923
   13CHTO  H111 5309   5.324   5.532   3.326  0.7181  1.9104  0.7923
   13CHTO   C69 5310   5.600   5.325   3.312  0.6489 -0.4257  0.2293
   13CHTO  H126 5311   5.580   5.290   3.415  2.2961 -0.5938  0.5084
   13CHTO   O41 5312   5.637   5.184   3.206  0.0488  0.2271 -0.3051
   13CHTO   C64 5313   5.513   5.095   3.174 -0.1445  0.1274 -0.2623
   13CHTO  H121 5314   5.502   5.034   3.266  1.2859  1.1851  0.6269
   13CHTO   C71 5315   5.539   5.005   3.054 -0.1134  0.1922 -0.8398
   13CHTO   O47 5316   5.636   4.908   3.090  0.3178 -0.1774  0.0791
   13CHTO  H104 5317   5.621   4.828   3.045  0.8669 -0.0437 -0.3475
   13CHTO   O34 5318   5.725   5.429   3.311 -0.2110 -0.0108  0.5210
   13CHTO   C49 5319   5.859   5.457   3.396  0.0129  0.2979 -0.2795
   13CHTO   H91 5320   5.920   5.366   3.388 -0.2089  0.1136  0.1004
   13CHTO   C47 5321   5.822   5.474   3.544 -0.1348  0.3121 -0.0032
   13CHTO   H89 5322   5.917   5.466   3.600  1.2763  1.7709 -2.1370
   13CHTO   O33 5323   5.738   5.362   3.586  0.2771  0.3517 -0.2647
   13CHTO   H70 5324   5.723   5.362   3.678  0.4658  0.1590 -0.2346
   13CHTO   C45 5325   5.744   5.614   3.578 -0.2647 -0.5672  0.6370
   13CHTO   H87 5326   5.634   5.603   3.573 -0.9813  4.1421  3.0209
   13CHTO    N8 5327   5.782   5.652   3.714 -0.3368  0.1228 -0.4727
   13CHTO   H75 5328   5.854   5.731   3.706  0.6713 -0.7920 -0.6232
   13CHTO   H76 5329   5.830   5.584   3.782  0.1224  0.2772 -0.6434
   13CHTO   C43 5330   5.763   5.713   3.449  0.6338  0.0551 -0.0731
   13CHTO   H85 5331   5.694   5.669   3.377  0.0502 -0.1828  0.6280
   13CHTO   O29 5332   5.898   5.711   3.403 -0.2264  0.2722  0.1027
   13CHTO   C50 5333   5.942   5.586   3.349  0.1292 -0.0886  0.2947
   13CHTO   H92 5334   5.928   5.602   3.242 -1.6661  2.8355  0.9281
   13CHTO   C54 5335   6.095   5.569   3.387  0.9974 -0.1467  0.2817
   13CHTO   O36 5336   6.132   5.592   3.523  0.3693  0.1347  0.0969
   13CHTO   H72 5337   6.189   5.524   3.553  2.0809  1.3407 -0.3378
   13CHTO   O27 5338   5.719   5.843   3.472  0.4829 -0.2151 -0.0258
   13CHTO   C37 5339   5.656   5.967   3.500 -0.3321  0.3260  0.4285
   13CHTO   H79 5340   5.557   5.969   3.453  0.6169 -0.6263 -1.6796
   13CHTO   C38 5341   5.621   5.980   3.649 -0.3551  0.3966 -0.1801
   13CHTO   H80 5342   5.712   5.960   3.708 -0.1197  0.2150 -0.5985
   13CHTO   O31 5343   5.517   5.893   3.688  0.0911  0.2761  0.2524
   13CHTO   H68 5344   5.497   5.895   3.779  0.8480 -1.4465  0.4729
   13CHTO   C39 5345   5.579   6.130   3.684  0.4636 -0.4470 -0.4515
   13CHTO   H81 5346   5.483   6.152   3.637 -0.3867 -2.1299  0.4477
   13CHTO    N7 5347   5.559   6.159   3.827 -0.3263  0.1098  0.2870
   13CHTO   H73 5348   5.586   6.068   3.880 -1.0745 -0.2004  0.1494
   13CHTO   H74 5349   5.632   6.231   3.860  0.5235 -0.1595 -0.9744
   13CHTO   C40 5350   5.665   6.240   3.616 -0.0307 -0.2032 -0.1282
   13CHTO   H82 5351   5.759   6.242   3.671 -0.6376 -0.2470  0.9182
   13CHTO   O26 5352   5.683   6.204   3.478  0.0928 -0.5616 -0.0634
   13CHTO   C41 5353   5.746   6.080   3.447 -0.1007  1.1022  0.6850
   13CHTO   H83 5354   5.843   6.072   3.497 -0.6735 -0.0729  1.6325
   13CHTO   C52 5355   5.772   6.071   3.294 -0.2957  0.4470  0.0538
   13CHTO   O35 5356   5.838   6.176   3.230  0.0075  0.5291  0.3665
   13CHTO   H71 5357   5.785   6.207   3.159 -0.0269 -1.0104 -0.2850
   13CHTO   O28 5358   5.591   6.365   3.607 -0.1236  0.0826 -0.5551
   13CHTO   C42 5359   5.657   6.499   3.587 -0.1018 -0.1912  0.3554
   13CHTO   H84 5360   5.760   6.477   3.559 -0.0691  1.3812 -0.7741
   13CHTO   C44 5361   5.671   6.593   3.714 -0.4965 -1.5863 -0.0343
   13CHTO   H86 5362   5.572   6.611   3.756 -0.4706  1.2993 -1.1304
   13CHTO   O32 5363   5.759   6.516   3.804  0.3017  0.2083 -0.0139
   13CHTO   H69 5364   5.708   6.476   3.872 -1.8412 -1.0726 -2.3340
   13CHTO   C48 5365   5.748   6.729   3.667  0.4422 -0.5941 -0.1822
   13CHTO   H90 5366   5.841   6.693   3.624 -0.4178 -2.4320 -0.5532
   13CHTO    N9 5367   5.779   6.822   3.789 -0.0188  0.2363 -0.1323
   13CHTO   H77 5368   5.737   6.781   3.880 -2.0925 -1.4220 -1.7897
   13CHTO   H78 5369   5.885   6.834   3.799  0.0931 -0.2094 -0.7624
   13CHTO   C51 5370   5.655   6.795   3.558  0.5523 -0.2735  0.2295
   13CHTO   H93 5371   5.559   6.809   3.607  1.1776  0.6800  1.2244
   13CHTO   O30 5372   5.644   6.709   3.441 -0.2433  0.5323 -0.2993
   13CHTO   C46 5373   5.593   6.575   3.468  0.6146 -0.3320  0.3795
   13CHTO   H88 5374   5.486   6.587   3.485  0.3164 -0.7833 -1.0519
   13CHTO   C53 5375   5.612   6.497   3.331 -0.0649  0.6358 -0.5704
   13CHTO   O72 5376   5.512   6.543   3.238 -0.0967 -0.2326  0.2923
   13CHTO  H199 5377   5.532   6.549   3.146  2.6291 -0.8579  0.8005
   13CHTO   O22 5378   5.715   6.914   3.502  0.2011  0.0852 -0.3924
   13CHTO   C31 5379   5.629   7.014   3.444 -0.2223 -0.3024  0.5384
   13CHTO   H59 5380   5.693   7.100   3.415 -1.7158  0.7650  0.3565
   13CHTO   C29 5381   5.560   6.970   3.315 -0.5625  0.0877 -0.1681
   13CHTO   H57 5382   5.491   6.885   3.322  0.4176 -0.8142 -1.1991
   13CHTO   O21 5383   5.657   6.926   3.218 -0.0998  0.0297  0.3457
   13CHTO   H37 5384   5.617   6.877   3.148  0.6979 -0.3024  0.1134
   13CHTO   C27 5385   5.485   7.091   3.248 -0.5058 -0.4545 -0.2212
   13CHTO   H55 5386   5.560   7.167   3.221 -0.2790 -0.9317 -0.9642
   13CHTO    N5 5387   5.413   7.055   3.124  0.1882  0.0218 -0.0101
   13CHTO   H43 5388   5.437   7.128   3.048 -1.8747  0.0821 -0.6505
   13CHTO   H44 5389   5.307   7.047   3.143 -0.0193  2.2324 -0.0445
   13CHTO   C25 5390   5.394   7.151   3.357 -0.1965  0.5360  0.1900
   13CHTO   H53 5391   5.327   7.072   3.395 -0.5685  0.7852  0.0471
   13CHTO   O17 5392   5.467   7.189   3.478  0.2653  0.5629  0.2900
   13CHTO   C32 5393   5.526   7.079   3.544  0.1125 -0.8494  0.2381
   13CHTO   H60 5394   5.449   7.003   3.563 -2.1825  0.9542 -1.5335
   13CHTO   C36 5395   5.595   7.136   3.668  0.4563 -0.3409  0.4306
   13CHTO   O25 5396   5.681   7.242   3.639 -0.3384  0.5682  0.8059
   13CHTO   H40 5397   5.750   7.241   3.702 -0.0817  2.1211  0.5644
   13CHTO   O15 5398   5.321   7.279   3.296 -0.0474 -0.5577  0.0017
   13CHTO   C19 5399   5.186   7.340   3.307  0.4541  0.5747 -0.0439
   13CHTO   H47 5400   5.161   7.317   3.411  1.0281 -0.4831 -0.1349
   13CHTO   C20 5401   5.181   7.492   3.285 -0.6831  0.4930  0.0075
   13CHTO   H48 5402   5.233   7.525   3.193 -1.5453  1.6300 -0.0816
   13CHTO   O19 5403   5.266   7.540   3.393  0.3033 -0.0681  0.6913
   13CHTO   H35 5404   5.233   7.523   3.479 -0.4349 -2.3761  0.0074
   13CHTO   C21 5405   5.041   7.559   3.299 -0.0870  0.8397  0.0040
   13CHTO   H49 5406   5.004   7.557   3.401  1.0834 -1.7961  0.4208
   13CHTO    N4 5407   5.041   7.706   3.266  0.2963  0.6536 -0.1905
   13CHTO   H41 5408   4.956   7.760   3.305 -0.2335  0.6406 -1.3117
   13CHTO   H42 5409   5.051   7.730   3.161 -2.7216 -0.4515 -0.8081
   13CHTO   C22 5410   4.941   7.472   3.226  0.7355  0.2889  0.6561
   13CHTO   H50 5411   4.947   7.478   3.118  0.4219 -3.6413  0.3318
   13CHTO   O14 5412   4.946   7.332   3.262  0.2824 -0.3783 -0.1163
   13CHTO   C23 5413   5.072   7.272   3.223 -0.2220 -0.0846  0.1132
   13CHTO   H51 5414   5.093   7.271   3.115  0.3789  0.0009  0.2282
   13CHTO   C34 5415   5.059   7.126   3.269 -0.1925  0.0079  0.2124
   13CHTO   O23 5416   4.990   7.053   3.167 -0.1712  0.3515 -0.0969
   13CHTO   H38 5417   4.948   6.972   3.190 -2.0722  0.6399 -2.3585
   13CHTO   O16 5418   4.807   7.509   3.272  0.5022 -0.1240  0.5687
   13CHTO   C24 5419   4.681   7.510   3.163  0.4711  0.7061  0.3027
   13CHTO   H52 5420   4.718   7.502   3.060  1.4697 -0.8471  0.7615
   13CHTO   C26 5421   4.593   7.637   3.193 -0.2313 -0.1225 -0.3083
   13CHTO   H54 5422   4.573   7.643   3.302 -0.4443  0.6999 -0.3856
   13CHTO   O20 5423   4.669   7.756   3.157  0.2057 -0.3323  0.0120
   13CHTO   H36 5424   4.745   7.769   3.210  0.3866 -1.5459  0.0668
   13CHTO   C30 5425   4.457   7.630   3.121 -0.6157  0.7269  0.4705
   13CHTO   H58 5426   4.468   7.634   3.011  1.6887 -2.4523  0.5438
   13CHTO    N6 5427   4.370   7.744   3.155  0.2698 -0.2449  0.9175
   13CHTO   H45 5428   4.358   7.816   3.075 -0.4156 -1.9649 -0.5872
   13CHTO   H46 5429   4.272   7.717   3.193 -0.5975  2.1199  0.4640
   13CHTO   C33 5430   4.392   7.487   3.150  0.1295 -0.3581 -0.2837
   13CHTO   H61 5431   4.383   7.484   3.259  0.0881 -0.5918 -0.2931
   13CHTO   O18 5432   4.483   7.382   3.109  0.0183 -0.0149 -0.2435
   13CHTO   C28 5433   4.605   7.376   3.185  0.2527  0.1536 -0.1918
   13CHTO   H56 5434   4.579   7.369   3.291  1.7135 -2.6249  0.0307
   13CHTO   C35 5435   4.685   7.253   3.147 -0.0238  0.0220  0.0393
   13CHTO   O24 5436   4.729   7.247   3.004  0.3862 -0.0221 -0.1489
   13CHTO   H39 5437   4.757   7.162   2.976 -1.9944 -0.9682  0.2756
   13CHTO    O9 5438   4.262   7.465   3.096 -0.2281 -0.1459 -0.1581
   13CHTO   C13 5439   4.157   7.385   3.204 -0.6735  0.0549 -0.6806
   13CHTO   H26 5440   4.205   7.380   3.304 -0.5246 -0.5890 -0.7834
   13CHTO   C11 5441   4.122   7.240   3.143 -0.3070 -0.5081 -0.0854
   13CHTO   H24 5442   4.221   7.193   3.132  0.0783  0.4958 -1.0239
   13CHTO    O8 5443   4.090   7.260   3.006 -0.3399 -0.4591 -0.0283
   13CHTO    H3 5444   4.008   7.305   3.000  0.2255  0.6062  0.1779
   13CHTO    C9 5445   4.026   7.163   3.235 -1.2065 -0.0685  0.1219
   13CHTO   H22 5446   4.088   7.116   3.313 -0.8285 -0.5577 -0.4699
   13CHTO    N2 5447   3.963   7.045   3.175 -0.4678 -0.0512 -0.6219
   13CHTO   H10 5448   4.011   6.954   3.207  1.1019  1.4181  1.3340
   13CHTO   H11 5449   3.984   7.057   3.070  0.6287  0.4768 -0.3576
   13CHTO    C7 5450   3.927   7.264   3.314  0.0025 -0.8314 -0.2292
   13CHTO   H20 5451   3.984   7.281   3.408  0.7960 -1.8752 -0.5088
   13CHTO    O4 5452   3.905   7.386   3.238 -0.7048  0.2670 -0.2680
   13CHTO   C14 5453   4.025   7.464   3.230 -0.5530 -0.0410 -0.0234
   13CHTO   H27 5454   4.038   7.510   3.330  1.7484  0.5314 -0.5422
   13CHTO   C18 5455   3.996   7.581   3.129 -0.1046 -0.1355 -0.5560
   13CHTO   O13 5456   3.984   7.519   2.999 -0.0114 -0.6621  0.7279
   13CHTO    H7 5457   3.895   7.516   2.968  0.5067  1.4823 -1.0844
   13CHTO    O2 5458   3.781   7.207   3.355 -0.6798  0.6382  0.0036
   13CHTO    C1 5459   3.781   7.183   3.498  0.2335 -0.1728 -0.1834
   13CHTO   H14 5460   3.872   7.225   3.545 -1.0469  0.5149  1.7210
   13CHTO    C2 5461   3.781   7.030   3.526  0.3313  0.0804 -0.0888
   13CHTO   H15 5462   3.702   6.979   3.469 -1.9750  0.4232  2.6282
   13CHTO    O6 5463   3.911   6.973   3.484 -0.0877  0.3279  0.2613
   13CHTO    H1 5464   3.913   6.973   3.390 -0.3661  0.9115  0.2516
   13CHTO    C3 5465   3.763   6.999   3.685  0.1103  0.1559 -0.1725
   13CHTO   H16 5466   3.852   7.043   3.732 -1.3820  1.7266  1.2792
   13CHTO    N1 5467   3.756   6.856   3.722 -0.3358 -0.2446 -0.4626
   13CHTO    H8 5468   3.851   6.809   3.740 -0.6834  0.1696  2.6525
   13CHTO    H9 5469   3.690   6.798   3.659  0.0942  0.9220 -2.0426
   13CHTO    C4 5470   3.641   7.078   3.744 -0.6374 -0.0431 -0.4108
   13CHTO   H17 5471   3.553   7.031   3.698 -0.9997 -0.5412  0.7632
   13CHTO    O1 5472   3.649   7.217   3.702  0.3587 -0.6138  0.4179
   13CHTO    C5 5473   3.651   7.243   3.558  0.2590 -0.5789  1.1938
   13CHTO   H18 5474   3.560   7.206   3.511 -0.6088 -1.0407  3.2143
   13CHTO   C16 5475   3.652   7.398   3.546  0.2921 -0.6224 -0.6957
   13CHTO   O11 5476   3.655   7.447   3.411 -0.2695 -0.2953  0.2428
   13CHTO    H5 5477   3.579   7.430   3.358  0.6884 -1.2849 -0.8278
   13CHTO    O3 5478   3.638   7.064   3.889  0.0322  0.4461  0.5707
   13CHTO    C6 5479   3.501   7.055   3.955  0.0880 -0.5331 -0.4587
   13CHTO   H19 5480   3.422   7.109   3.903 -0.7927 -2.4736 -1.1890
   13CHTO    C8 5481   3.436   6.914   3.972  0.3605 -0.0252 -0.2925
   13CHTO   H21 5482   3.518   6.845   3.992  1.2982  1.0939 -0.1933
   13CHTO    O7 5483   3.388   6.892   3.837  0.1429 -0.1208  0.3591
   13CHTO    H2 5484   3.382   6.800   3.822  0.5595 -0.2411  0.9115
   13CHTO   C12 5485   3.318   6.900   4.082 -0.5383  0.5764 -0.1565
   13CHTO   H25 5486   3.233   6.960   4.041 -0.9211  0.6917  0.7848
   13CHTO    N3 5487   3.290   6.756   4.096  0.3342  0.0690 -0.0272
   13CHTO   H12 5488   3.214   6.739   4.170  1.4376  0.8503  1.3217
   13CHTO   H13 5489   3.375   6.711   4.146 -1.2723 -0.7718  1.9852
   13CHTO   C15 5490   3.370   6.966   4.207 -0.4819 -0.1591 -0.3780
   13CHTO   H28 5491   3.451   6.915   4.258 -0.1530 -0.3680 -1.0967
   13CHTO   O10 5492   3.240   6.994   4.301  0.0322 -0.1176  0.0603
   13CHTO    H4 5493   3.277   6.996   4.387 -1.4085  1.7477  0.6885
   13CHTO    O5 5494   3.401   7.107   4.178  0.0697  0.2758 -0.4026
   13CHTO   C10 5495   3.517   7.123   4.096  0.5851 -0.1393 -0.0938
   13CHTO   H23 5496   3.608   7.093   4.147 -1.7695 -0.7165  4.0295
   13CHTO   C17 5497   3.538   7.273   4.095 -0.2410  0.3039  0.3898
   13CHTO   O12 5498   3.559   7.336   4.227 -0.7684  0.1557 -0.5317
   13CHTO    H6 5499   3.596   7.422   4.222 -0.2194 -0.2116 -3.3630
   14CHTO  H203 5500   6.050   4.624   2.563  0.5827  0.6781  1.1382
   14CHTO   O82 5501   6.008   4.553   2.608 -0.4036  0.5408  0.0297
   14CHTO  C123 5502   5.868   4.575   2.602 -0.1309  0.4812  0.0589
   14CHTO  H227 5503   5.841   4.599   2.498  0.2515  0.0773 -0.1341
   14CHTO   O77 5504   5.821   4.436   2.637  1.0895  0.0251  0.5023
   14CHTO  C118 5505   5.680   4.418   2.639  0.3819  0.4241  0.0176
   14CHTO  H222 5506   5.642   4.434   2.537  0.2386 -0.6623 -0.1036
   14CHTO  C125 5507   5.650   4.267   2.678 -0.7412  0.1741 -0.2989
   14CHTO   O84 5508   5.515   4.230   2.656 -1.0027 -0.0185  0.4531
   14CHTO  H205 5509   5.457   4.260   2.724 -0.5397  0.9808  0.4162
   14CHTO  C114 5510   5.607   4.513   2.736 -0.1707 -0.2777  0.2433
   14CHTO  H218 5511   5.633   4.486   2.838  0.8576  1.1325  0.3762
   14CHTO  C116 5512   5.650   4.656   2.719  0.1764 -0.1194 -0.0508
   14CHTO  H220 5513   5.586   4.696   2.637 -1.4660 -2.6150 -0.0287
   14CHTO   O79 5514   5.617   4.741   2.832  0.1746  0.3913 -0.1905
   14CHTO  H201 5515   5.524   4.748   2.828  0.1939  0.3124 -0.9942
   14CHTO  C120 5516   5.805   4.685   2.697  0.1533  0.2902  0.6867
   14CHTO  H224 5517   5.840   4.680   2.802 -0.1886 -1.1551  0.7450
   14CHTO   N21 5518   5.834   4.822   2.656  0.5281  0.0822  0.3035
   14CHTO  H211 5519   5.837   4.841   2.549  1.1844  0.3733  0.3720
   14CHTO  H212 5520   5.804   4.911   2.710 -0.2554  1.0326 -1.6237
   14CHTO   O75 5521   5.461   4.504   2.710  0.3502  0.4022  0.0348
   14CHTO  C112 5522   5.341   4.579   2.821  0.6506  0.9670 -0.4656
   14CHTO  H216 5523   5.381   4.634   2.908 -0.2707 -2.2325  2.1032
   14CHTO   O73 5524   5.256   4.470   2.864  0.2793 -0.3851  0.0676
   14CHTO  C113 5525   5.134   4.500   2.939 -0.8048 -0.8248 -0.5984
   14CHTO  H217 5526   5.152   4.543   3.040  1.7462  0.7549 -1.6554
   14CHTO  C124 5527   5.068   4.364   2.954  0.0340 -0.5694  0.3433
   14CHTO   O83 5528   4.986   4.351   3.073 -0.4386 -0.2021  0.3618
   14CHTO  H204 5529   5.039   4.302   3.132  0.0355 -0.5747 -0.3636
   14CHTO  C109 5530   5.054   4.597   2.848 -0.3808 -0.5860 -0.3416
   14CHTO  H213 5531   5.032   4.538   2.757 -0.3827 -0.1896 -0.5986
   14CHTO  C110 5532   5.136   4.729   2.816  0.7092  0.0264  0.1158
   14CHTO  H214 5533   5.163   4.785   2.905  1.5227 -2.3906  1.4283
   14CHTO   O78 5534   5.053   4.822   2.743  0.6315 -0.0702 -0.3471
   14CHTO  H200 5535   5.103   4.882   2.691  2.4604 -2.5218 -1.5330
   14CHTO  C111 5536   5.256   4.679   2.732  0.6255 -0.1141  0.0337
   14CHTO  H215 5537   5.221   4.625   2.642 -0.7202  1.4454 -0.4143
   14CHTO   N19 5538   5.339   4.787   2.681 -0.2271 -0.4482  0.7292
   14CHTO  H207 5539   5.367   4.851   2.763 -1.5352  1.6283 -0.3987
   14CHTO  H208 5540   5.294   4.843   2.600 -0.7342 -1.5611  0.2391
   14CHTO   O74 5541   4.926   4.628   2.909 -0.2407  0.3568 -0.5600
   14CHTO  C115 5542   4.799   4.577   2.812  0.6931 -0.4981  0.1454
   14CHTO  H219 5543   4.827   4.566   2.707 -0.3867 -1.4577 -0.0432
   14CHTO   O76 5544   4.742   4.444   2.852  0.5098  0.0609 -0.1689
   14CHTO  C122 5545   4.636   4.393   2.773 -0.3946 -0.3325  0.0693
   14CHTO  H226 5546   4.598   4.308   2.829  1.2495 -2.2832 -1.6899
   14CHTO  C126 5547   4.691   4.332   2.639  0.1257 -0.3732  0.9574
   14CHTO   O85 5548   4.589   4.269   2.559  0.7342  0.2207  0.0045
   14CHTO  H206 5549   4.547   4.333   2.505  1.0221  0.8032  0.4585
   14CHTO  C121 5550   4.525   4.507   2.734  0.6314 -0.3613  0.0952
   14CHTO  H225 5551   4.462   4.467   2.652  1.3579 -1.0150 -0.1545
   14CHTO   O81 5552   4.439   4.521   2.845 -1.0965  0.0794 -0.6084
   14CHTO  H202 5553   4.475   4.572   2.915  1.2795 -2.9016  0.4517
   14CHTO  C119 5554   4.582   4.642   2.701  0.7379  0.1033  0.5588
   14CHTO  H223 5555   4.626   4.631   2.602  2.7732 -2.2609  1.6691
   14CHTO  C117 5556   4.694   4.688   2.806 -0.0042 -0.1515  0.2320
   14CHTO  H221 5557   4.667   4.711   2.910  1.9083 -1.2587  0.9932
   14CHTO   N20 5558   4.741   4.815   2.749 -0.8220 -0.4134  0.0216
   14CHTO  H209 5559   4.783   4.802   2.650  1.4308 -4.3392  1.3890
   14CHTO  H210 5560   4.675   4.899   2.762  0.1966  0.4318 -0.1742
   14CHTO   O80 5561   4.453   4.756   2.671  0.4814  0.3626  0.3059
   14CHTO  C103 5562   4.380   4.749   2.537  0.5385 -0.5426 -0.5668
   14CHTO  H190 5563   4.373   4.851   2.500 -0.0576 -0.4618 -0.2331
   14CHTO  C101 5564   4.452   4.681   2.411 -0.3346  0.2679  0.0252
   14CHTO  H188 5565   4.485   4.583   2.445 -0.6247  0.3755  0.6129
   14CHTO   O68 5566   4.587   4.760   2.377  0.1922 -0.3030  0.2347
   14CHTO  H168 5567   4.647   4.784   2.446 -0.0396 -1.3607  0.8209
   14CHTO   C99 5568   4.347   4.676   2.280  0.2649 -0.1393 -0.3357
   14CHTO  H186 5569   4.347   4.779   2.239 -0.1814 -0.4224 -1.0523
   14CHTO   N17 5570   4.403   4.574   2.178  0.0524  0.1826  0.0585
   14CHTO  H174 5571   4.506   4.596   2.154 -0.0584  0.8810  0.2042
   14CHTO  H175 5572   4.340   4.580   2.091  2.1488  0.7917 -1.4659
   14CHTO   C97 5573   4.200   4.644   2.320 -0.1871  0.3650  0.7099
   14CHTO  H184 5574   4.179   4.536   2.320 -1.9695  0.6783 -2.0569
   14CHTO   O64 5575   4.162   4.712   2.445 -0.3737 -0.4931 -0.4698
   14CHTO  C104 5576   4.236   4.690   2.566 -0.5893 -0.6315  0.1097
   14CHTO  H191 5577   4.243   4.582   2.574 -1.4961 -0.7957 -1.1856
   14CHTO  C108 5578   4.168   4.744   2.696  0.3149 -0.3351 -0.3383
   14CHTO   O71 5579   4.146   4.881   2.686  0.4103 -0.4056 -0.6322
   14CHTO  H171 5580   4.224   4.931   2.681 -0.2379  0.7806  0.8441
   14CHTO   O62 5581   4.123   4.703   2.217  0.2290 -0.8426  0.0078
   14CHTO   C91 5582   3.987   4.647   2.204  0.7839 -0.0154 -0.0606
   14CHTO  H178 5583   3.988   4.544   2.239  1.2367 -0.3546 -1.0618
   14CHTO   C92 5584   3.940   4.652   2.052 -0.0854 -0.2759 -0.3373
   14CHTO  H179 5585   4.017   4.603   1.991 -0.5486  1.3578 -2.2765
   14CHTO   O66 5586   3.821   4.570   2.043  0.4955 -0.0351  0.8136
   14CHTO  H166 5587   3.837   4.479   2.064  0.9100  0.2918  2.0032
   14CHTO   C93 5588   3.904   4.794   2.004 -0.8983 -0.2139 -0.7917
   14CHTO  H180 5589   3.849   4.775   1.911 -0.4249 -0.9065 -0.9350
   14CHTO   N16 5590   4.020   4.879   1.963  0.6514  0.3588 -0.4768
   14CHTO  H172 5591   4.000   4.979   1.929  1.1333  1.1097  1.3576
   14CHTO  H173 5592   4.063   4.831   1.877 -1.5072  1.4431 -2.1986
   14CHTO   C94 5593   3.813   4.869   2.117 -0.3565 -0.2009 -0.2566
   14CHTO  H181 5594   3.861   4.960   2.153  0.0457 -0.7372  0.5681
   14CHTO   O61 5595   3.779   4.792   2.232 -0.3934  0.1919 -0.2206
   14CHTO   C95 5596   3.885   4.728   2.300  0.4328  0.0341 -0.1376
   14CHTO  H182 5597   3.942   4.801   2.358 -0.4380 -0.4652  1.3663
   14CHTO  C106 5598   3.809   4.626   2.396  0.0767 -0.0759 -0.3281
   14CHTO   O69 5599   3.897   4.558   2.491  0.9311  0.0985  0.4893
   14CHTO  H169 5600   3.846   4.507   2.551 -1.0490  2.4886  0.9303
   14CHTO   O63 5601   3.674   4.907   2.043 -1.1714  0.2382  0.5190
   14CHTO   C96 5602   3.624   5.046   2.095  0.8786  0.2347  0.1487
   14CHTO  H183 5603   3.687   5.074   2.180  0.2079  0.3871  0.5928
   14CHTO   C98 5604   3.480   5.043   2.144 -0.7669 -0.2934 -0.1302
   14CHTO  H185 5605   3.421   4.999   2.062 -1.4831  0.4516 -0.0157
   14CHTO   O67 5606   3.480   4.956   2.256  0.1276 -0.6405  0.0707
   14CHTO  H167 5607   3.401   4.963   2.306 -0.5350  0.7486 -1.1223
   14CHTO  C102 5608   3.425   5.188   2.176 -0.2498  0.0633  0.4042
   14CHTO  H189 5609   3.471   5.218   2.272  1.2640 -1.1174  0.0828
   14CHTO   N18 5610   3.282   5.195   2.198  0.2504 -0.2677  0.8095
   14CHTO  H176 5611   3.248   5.295   2.221 -2.2623 -1.0699  0.8079
   14CHTO  H177 5612   3.230   5.167   2.107  1.6168  0.6430 -0.2768
   14CHTO  C105 5613   3.467   5.292   2.066 -0.0975  0.2184 -0.0819
   14CHTO  H192 5614   3.418   5.257   1.976  1.9578 -1.7034 -0.5057
   14CHTO   O65 5615   3.603   5.282   2.031  0.0919 -0.0761 -0.1430
   14CHTO  C100 5616   3.641   5.151   1.977 -0.8531  0.3268 -0.2408
   14CHTO  H187 5617   3.578   5.103   1.901 -0.8998 -2.0840  1.2625
   14CHTO  C107 5618   3.789   5.162   1.924 -0.4695 -0.6863  0.2992
   14CHTO   O70 5619   3.810   5.257   1.814 -0.1386  0.0258  0.5073
   14CHTO  H170 5620   3.889   5.306   1.826  0.3967 -0.4358 -0.9935
   14CHTO   O57 5621   3.425   5.438   2.112  0.5130 -0.1490 -0.3526
   14CHTO   C85 5622   3.387   5.552   2.036 -0.1612 -0.0734 -0.2314
   14CHTO  H157 5623   3.302   5.516   1.974 -0.7128  0.8453 -0.0267
   14CHTO   C83 5624   3.491   5.592   1.934 -0.6450  0.7707  0.0991
   14CHTO  H155 5625   3.527   5.506   1.878  0.8383  0.1731  1.9207
   14CHTO   O56 5626   3.605   5.632   2.006  0.1420 -0.3555 -0.1408
   14CHTO  H135 5627   3.671   5.674   1.954  0.0651  0.4661  0.4218
   14CHTO   C81 5628   3.431   5.694   1.836 -0.3733 -0.7382  0.1106
   14CHTO  H153 5629   3.336   5.652   1.803 -0.0739 -0.3966 -1.2282
   14CHTO   N14 5630   3.507   5.704   1.709 -0.3150 -0.6550  0.1333
   14CHTO  H141 5631   3.445   5.678   1.625 -0.5779  4.2404 -1.3759
   14CHTO  H142 5632   3.556   5.798   1.694  0.7300 -1.2296 -0.0778
   14CHTO   C79 5633   3.401   5.829   1.910 -0.1072 -0.0030 -0.0591
   14CHTO  H151 5634   3.352   5.894   1.837 -1.0616 -0.1975  0.4070
   14CHTO   O52 5635   3.307   5.796   2.024  0.2279  0.0912  0.0465
   14CHTO   C86 5636   3.344   5.685   2.113  0.0373 -0.8121  0.1761
   14CHTO  H158 5637   3.426   5.734   2.171 -2.0910  1.2867  1.5233
   14CHTO   C90 5638   3.235   5.669   2.221  0.3680 -0.6126  0.2051
   14CHTO   O60 5639   3.108   5.630   2.172  0.0633  0.2558 -0.2042
   14CHTO  H138 5640   3.048   5.639   2.244 -0.6176  0.7115 -0.8366
   14CHTO   O50 5641   3.522   5.901   1.949  0.8313  0.1349  0.1314
   14CHTO   C73 5642   3.569   6.028   1.999  0.3490 -0.3324  0.6225
   14CHTO  H145 5643   3.491   6.081   2.057 -0.9281 -1.7409  0.2280
   14CHTO   C74 5644   3.587   6.136   1.885 -0.1372 -0.0350 -0.5181
   14CHTO  H146 5645   3.494   6.142   1.828  0.7767  3.3722 -1.7498
   14CHTO   O54 5646   3.598   6.267   1.937  0.5647  0.2181  0.1564
   14CHTO  H133 5647   3.535   6.287   2.004  1.4393 -2.0595  1.6841
   14CHTO   C75 5648   3.708   6.087   1.796  0.7378  0.4054  0.2616
   14CHTO  H147 5649   3.687   5.984   1.763  0.2609 -0.1778  2.3142
   14CHTO   N13 5650   3.741   6.172   1.680  0.4961 -0.1789 -0.6672
   14CHTO  H139 5651   3.669   6.252   1.667 -0.2748 -0.9339 -1.0679
   14CHTO  H140 5652   3.749   6.122   1.585  1.6953 -1.2825  0.0117
   14CHTO   C76 5653   3.842   6.077   1.882  0.1124  0.0371  0.2449
   14CHTO  H148 5654   3.877   6.175   1.914  0.2540  0.3334 -0.8019
   14CHTO   O49 5655   3.810   5.987   1.992  0.2863  0.1978  0.3014
   14CHTO   C77 5656   3.699   6.009   2.083 -0.5315 -0.2859 -1.1441
   14CHTO  H149 5657   3.731   6.098   2.136  3.2613 -1.3507 -1.5053
   14CHTO   C88 5658   3.711   5.878   2.166  0.3911 -0.4441  0.6576
   14CHTO   O58 5659   3.625   5.901   2.283 -0.1355  0.3930  0.2462
   14CHTO  H136 5660   3.658   5.976   2.329 -0.3249 -0.0164  1.0725
   14CHTO   O51 5661   3.951   6.001   1.806 -0.2315 -0.4884  0.0756
   14CHTO   C78 5662   4.082   6.042   1.845  0.1367  0.2312  0.4750
   14CHTO  H150 5663   4.092   6.089   1.945  0.8358 -1.4727  1.2148
   14CHTO   C80 5664   4.144   6.139   1.737 -0.4011 -0.0621  0.0861
   14CHTO  H152 5665   4.137   6.094   1.636  0.6228  0.1857 -0.1018
   14CHTO   O55 5666   4.060   6.255   1.741 -0.0116 -0.3141  0.0873
   14CHTO  H134 5667   4.048   6.283   1.652 -1.6965 -0.6143  0.2047
   14CHTO   C84 5668   4.296   6.169   1.768 -0.0952  0.4525 -0.0417
   14CHTO  H156 5669   4.300   6.230   1.858 -2.7467 -0.4823  0.7506
   14CHTO   N15 5670   4.359   6.250   1.660  0.0741 -0.2169 -0.1634
   14CHTO  H143 5671   4.463   6.228   1.644 -0.3306 -1.2429 -1.4326
   14CHTO  H144 5672   4.346   6.354   1.680  0.6127  0.0704 -1.2041
   14CHTO   C87 5673   4.367   6.033   1.786 -0.2191  0.0240 -0.5096
   14CHTO  H159 5674   4.363   5.982   1.689 -1.1223  1.2638 -1.1375
   14CHTO   O53 5675   4.302   5.954   1.892  0.0493 -0.3041  0.1308
   14CHTO   C82 5676   4.170   5.918   1.857  0.7819 -0.1065  0.1618
   14CHTO  H154 5677   4.176   5.871   1.758  2.6137  1.9842 -0.7638
   14CHTO   C89 5678   4.118   5.813   1.965 -0.0579  0.3014 -0.5987
   14CHTO   O59 5679   4.179   5.682   1.950  0.2769  0.1573  0.2735
   14CHTO  H137 5680   4.219   5.663   2.033 -1.1252  0.1504  0.9625
   14CHTO   O45 5681   4.506   6.053   1.853 -0.2217  0.5643 -0.2791
   14CHTO   C67 5682   4.590   5.935   1.847 -0.3074  0.1208  0.2983
   14CHTO  H124 5683   4.540   5.845   1.884 -1.5628  1.6606  2.4624
   14CHTO   C65 5684   4.635   5.914   1.694  0.3304 -0.1180  0.0710
   14CHTO  H122 5685   4.548   5.932   1.631  0.8534  2.3932 -0.0087
   14CHTO   O44 5686   4.680   5.776   1.677 -0.1017  0.5580  0.0821
   14CHTO  H102 5687   4.679   5.755   1.585  3.0193  2.1063 -0.3691
   14CHTO   C63 5688   4.736   6.029   1.644  0.3117 -0.6272 -0.2910
   14CHTO  H120 5689   4.687   6.125   1.660 -0.6261 -0.9942 -0.9260
   14CHTO   N11 5690   4.759   6.041   1.502 -0.5018  0.4356 -0.4388
   14CHTO  H108 5691   4.683   6.096   1.451 -1.6989 -1.1324 -0.4067
   14CHTO  H109 5692   4.844   6.105   1.489 -0.8238  0.9402 -0.0570
   14CHTO   C61 5693   4.861   6.028   1.738 -0.0464 -0.1745  0.1837
   14CHTO  H118 5694   4.933   6.107   1.713  0.3793 -0.8825 -0.8671
   14CHTO   O40 5695   4.818   6.049   1.876 -0.4779  0.0152  0.0996
   14CHTO   C68 5696   4.718   5.965   1.938  0.2068  0.3070  0.1850
   14CHTO  H125 5697   4.686   6.024   2.025  1.2277  0.9522  0.1255
   14CHTO   C72 5698   4.792   5.838   1.993  0.3196 -0.0081  0.1651
   14CHTO   O48 5699   4.893   5.875   2.086  0.3784  0.5816  0.4586
   14CHTO  H105 5700   4.938   5.799   2.117  0.7393  1.3175  1.8313
   14CHTO   O38 5701   4.926   5.897   1.735  0.3445  0.7532 -0.1154
   14CHTO   C55 5702   5.064   5.886   1.677  0.4216 -0.4014  0.2007
   14CHTO  H112 5703   5.090   5.972   1.614 -2.3236 -1.7299 -2.9072
   14CHTO   C56 5704   5.072   5.755   1.587 -0.9743 -0.3408 -0.4695
   14CHTO  H113 5705   5.054   5.667   1.649  0.9481 -0.5010 -0.1054
   14CHTO   O42 5706   4.966   5.753   1.487  0.0229 -0.2585 -0.2637
   14CHTO  H100 5707   4.889   5.717   1.527  1.1189 -2.4831 -0.0628
   14CHTO   C57 5708   5.216   5.738   1.532 -0.0047  0.4006  0.4707
   14CHTO  H114 5709   5.251   5.819   1.469  0.8931  1.0750  1.8166
   14CHTO   N10 5710   5.228   5.611   1.454 -0.7928  0.0183  0.8349
   14CHTO  H106 5711   5.330   5.578   1.443 -1.3596 -1.2806 -0.6656
   14CHTO  H107 5712   5.168   5.532   1.496 -1.4356  0.1496  0.1847
   14CHTO   C58 5713   5.296   5.731   1.664 -0.1472  0.0234 -0.8061
   14CHTO  H115 5714   5.270   5.640   1.721  0.1180  0.3529 -0.1525
   14CHTO   O37 5715   5.294   5.848   1.744  0.2712 -0.2906  0.1875
   14CHTO   C59 5716   5.164   5.876   1.795  0.6109 -0.0064 -0.7125
   14CHTO  H116 5717   5.133   5.806   1.871  0.7286 -0.6456 -1.2480
   14CHTO   C70 5718   5.183   6.012   1.875 -0.2297 -0.1009 -0.5338
   14CHTO   O46 5719   5.163   6.138   1.814  0.4552 -0.0178  0.0098
   14CHTO  H103 5720   5.244   6.160   1.772  0.2207 -0.2932 -0.5840
   14CHTO   O39 5721   5.457   5.710   1.624  0.1258  0.4310  0.3025
   14CHTO   C60 5722   5.525   5.646   1.737 -0.3605 -0.1138 -0.0450
   14CHTO  H117 5723   5.474   5.683   1.827  0.1108 -0.0349  0.1926
   14CHTO   C62 5724   5.522   5.492   1.728 -0.5597 -0.0143  0.5656
   14CHTO  H119 5725   5.417   5.457   1.734 -0.2306 -1.0384  0.3861
   14CHTO   O43 5726   5.593   5.450   1.613 -0.3224 -0.3737 -0.3513
   14CHTO  H101 5727   5.678   5.488   1.611 -0.9796  1.1480  0.0191
   14CHTO   C66 5728   5.605   5.433   1.853  0.4158 -0.2984  0.2808
   14CHTO  H123 5729   5.549   5.462   1.942  0.2625  1.3487 -0.3497
   14CHTO   N12 5730   5.607   5.288   1.865 -0.4674  0.0365  0.5346
   14CHTO  H110 5731   5.545   5.249   1.944 -0.7682 -1.7498 -0.5562
   14CHTO  H111 5732   5.579   5.232   1.776  0.8256  1.2522 -0.6583
   14CHTO   C69 5733   5.750   5.491   1.851 -0.2476  0.2283 -0.9428
   14CHTO  H126 5734   5.808   5.470   1.759  2.5825  0.0037  0.8549
   14CHTO   O41 5735   5.744   5.644   1.864 -0.0595  0.1471 -0.5834
   14CHTO   C64 5736   5.663   5.707   1.744  0.2709  0.1084 -0.2951
   14CHTO  H121 5737   5.719   5.684   1.651  0.5098 -2.1695  0.3785
   14CHTO   C71 5738   5.651   5.857   1.769  0.2121  0.1312  0.0934
   14CHTO   O47 5739   5.778   5.922   1.790 -0.7310 -0.0868 -0.0710
   14CHTO  H104 5740   5.821   5.901   1.871  2.5080  0.6226 -1.5528
   14CHTO   O34 5741   5.840   5.435   1.989  0.2174  0.3281  0.3935
   14CHTO   C49 5742   6.003   5.431   1.982 -0.4502  0.3795 -0.3334
   14CHTO   H91 5743   6.028   5.343   1.923  2.2951 -0.1731  1.5597
   14CHTO   C47 5744   6.058   5.422   2.125 -0.4289 -0.3000  0.1462
   14CHTO   H89 5745   6.161   5.383   2.112 -0.2438  0.1004  0.4107
   14CHTO   O33 5746   5.981   5.329   2.196 -0.0022  0.0256  0.4591
   14CHTO   H70 5747   6.009   5.308   2.283  1.9408 -0.8918 -0.3671
   14CHTO   C45 5748   6.056   5.566   2.203 -0.0794  0.3058  0.3174
   14CHTO   H87 5749   5.984   5.564   2.286  0.1729  3.5868  0.6822
   14CHTO    N8 5750   6.182   5.590   2.267 -0.6945 -0.7752 -0.4949
   14CHTO   H75 5751   6.246   5.506   2.241 -1.3915 -1.6409  0.5331
   14CHTO   H76 5752   6.212   5.689   2.235 -1.6478  0.4758  2.3402
   14CHTO   C43 5753   5.993   5.681   2.101 -0.5723 -0.0605 -0.5745
   14CHTO   H85 5754   5.888   5.652   2.094 -0.2886 -0.9490 -1.2824
   14CHTO   O29 5755   6.058   5.689   1.973  0.4819  0.8438 -0.4371
   14CHTO   C50 5756   6.062   5.559   1.904  0.4767 -0.3383 -0.7197
   14CHTO   H92 5757   5.995   5.581   1.820  0.4306 -1.3088 -0.9464
   14CHTO   C54 5758   6.195   5.530   1.841 -0.2612  0.4676 -0.6984
   14CHTO   O36 5759   6.306   5.533   1.937  0.3239  0.2462 -0.3207
   14CHTO   H72 5760   6.323   5.442   1.950 -2.1153 -0.6637 -3.0081
   14CHTO   O27 5761   5.992   5.809   2.168  0.3818 -0.8725 -0.1332
   14CHTO   C37 5762   5.914   5.910   2.232  0.4823 -0.0548 -0.1951
   14CHTO   H79 5763   5.976   5.988   2.279 -2.2486  0.3742  2.8500
   14CHTO   C38 5764   5.823   5.988   2.130 -0.5502  0.2728  0.5300
   14CHTO   H80 5765   5.763   5.913   2.075  0.0663  1.7431 -2.2614
   14CHTO   O31 5766   5.906   6.053   2.029 -0.1695 -0.2358 -0.2806
   14CHTO   H68 5767   5.851   6.075   1.956 -1.8632 -1.5494  0.5522
   14CHTO   C39 5768   5.731   6.095   2.201 -1.0239  0.2517 -0.3033
   14CHTO   H81 5769   5.796   6.170   2.247 -1.3598 -0.1206  0.8001
   14CHTO    N7 5770   5.641   6.166   2.101 -0.0193 -0.0627  0.8260
   14CHTO   H73 5771   5.661   6.143   1.998  0.0516 -3.3639  1.5274
   14CHTO   H74 5772   5.619   6.267   2.132 -2.6019 -0.3675  0.1023
   14CHTO   C40 5773   5.648   6.016   2.311 -0.4629  0.7704  0.7296
   14CHTO   H82 5774   5.580   5.954   2.252  0.1556  1.2308 -0.5080
   14CHTO   O26 5775   5.724   5.938   2.403  0.4175  0.0304 -0.5358
   14CHTO   C41 5776   5.825   5.850   2.342  0.0382  0.8972  0.0271
   14CHTO   H83 5777   5.765   5.771   2.295  1.7338  0.7181 -1.9452
   14CHTO   C52 5778   5.916   5.801   2.457 -0.0358  0.3967  0.3923
   14CHTO   O35 5779   5.842   5.722   2.558 -0.2332  0.2330 -0.1244
   14CHTO   H71 5780   5.901   5.694   2.625 -1.2722 -2.4656 -0.2516
   14CHTO   O28 5781   5.578   6.100   2.404 -0.0277 -0.3821  0.4571
   14CHTO   C42 5782   5.447   6.064   2.459  0.0053 -0.3018 -0.1697
   14CHTO   H84 5783   5.449   6.120   2.552 -0.7794 -0.6897  0.0853
   14CHTO   C44 5784   5.428   5.911   2.497 -0.1225 -0.4673  0.1773
   14CHTO   H86 5785   5.446   5.851   2.408 -0.4449 -0.4946  0.1315
   14CHTO   O32 5786   5.530   5.877   2.591 -0.3555 -0.4802  0.3062
   14CHTO   H69 5787   5.618   5.898   2.566 -1.0010  2.7122  0.5913
   14CHTO   C48 5788   5.283   5.882   2.556  0.3430 -0.0004  0.6095
   14CHTO   H90 5789   5.288   5.929   2.654 -0.4814  0.2148  0.5460
   14CHTO    N9 5790   5.249   5.738   2.578  0.3357  0.4607 -0.2752
   14CHTO   H77 5791   5.272   5.676   2.492  0.4816  0.5345 -0.2884
   14CHTO   H78 5792   5.310   5.698   2.658 -1.1820 -0.7167  0.3178
   14CHTO   C51 5793   5.165   5.949   2.471  0.7234 -0.4200  0.2097
   14CHTO   H93 5794   5.153   5.899   2.375 -1.1605  1.2788 -0.4803
   14CHTO   O30 5795   5.193   6.092   2.455 -0.3844 -0.3798 -0.2079
   14CHTO   C46 5796   5.331   6.118   2.374 -0.5710 -0.1413  0.5838
   14CHTO   H88 5797   5.326   6.071   2.276 -1.1657  0.6557  0.2209
   14CHTO   C53 5798   5.339   6.265   2.345 -0.3027 -0.3621  0.2523
   14CHTO   O72 5799   5.246   6.297   2.244 -0.2014 -0.1431  0.0224
   14CHTO  H199 5800   5.291   6.323   2.166  1.0960  4.4051  2.1074
   14CHTO   O22 5801   5.036   5.947   2.536  0.3037  0.1257  0.1651
   14CHTO   C31 5802   4.905   5.928   2.459  0.1862  0.9633 -0.4903
   14CHTO   H59 5803   4.932   5.861   2.374 -0.3784 -0.8468  0.7210
   14CHTO   C29 5804   4.801   5.852   2.545 -0.2726  0.5581  0.2586
   14CHTO   H57 5805   4.781   5.917   2.632 -0.3313 -0.5354  1.0758
   14CHTO   O21 5806   4.863   5.729   2.597  0.2666 -0.2664  0.4886
   14CHTO   H37 5807   4.931   5.749   2.659  2.6954 -0.5996 -1.9783
   14CHTO   C27 5808   4.670   5.821   2.466  0.8314 -0.3215 -0.3373
   14CHTO   H55 5809   4.695   5.754   2.382  1.3658 -0.6312  0.0667
   14CHTO    N5 5810   4.565   5.746   2.544  0.5961 -0.2345 -0.4873
   14CHTO   H43 5811   4.607   5.657   2.588 -0.0588 -0.2714  0.0760
   14CHTO   H44 5812   4.474   5.713   2.495 -0.0222  0.0505  0.4627
   14CHTO   C25 5813   4.611   5.951   2.413  0.6248  0.2456 -0.1944
   14CHTO   H53 5814   4.566   6.010   2.495 -0.9575 -0.4683 -0.5276
   14CHTO   O17 5815   4.712   6.025   2.330  0.2948 -0.6466 -0.1656
   14CHTO   C32 5816   4.835   6.060   2.397 -0.1044  0.0951 -0.5279
   14CHTO   H60 5817   4.816   6.133   2.476  0.9512 -0.0361 -0.1533
   14CHTO   C36 5818   4.921   6.139   2.300  0.1462  0.3159 -0.0004
   14CHTO   O25 5819   4.884   6.271   2.281 -0.6977 -0.0091 -0.2029
   14CHTO   H40 5820   4.793   6.292   2.289 -0.6362  0.9041 -1.8007
   14CHTO   O15 5821   4.492   5.924   2.322  0.0778 -0.4671 -0.1432
   14CHTO   C19 5822   4.360   5.998   2.297  0.7344  0.3793 -0.8975
   14CHTO   H47 5823   4.360   5.987   2.187  1.1151 -1.9333 -0.6762
   14CHTO   C20 5824   4.239   5.946   2.369  0.2914 -0.2946 -0.2232
   14CHTO   H48 5825   4.247   5.963   2.478  2.9105  0.7929 -0.5383
   14CHTO   O19 5826   4.232   5.803   2.336  0.7036  0.4098 -0.0781
   14CHTO   H35 5827   4.203   5.763   2.415  0.5302 -1.2924 -0.9915
   14CHTO   C21 5828   4.104   6.019   2.316  0.8542  0.4352  0.0352
   14CHTO   H49 5829   4.097   6.019   2.207 -1.1115 -0.8720  0.1471
   14CHTO    N4 5830   3.978   5.960   2.375 -0.1594  0.0039  0.4500
   14CHTO   H41 5831   3.890   6.008   2.335  0.2250 -0.8194 -1.3926
   14CHTO   H42 5832   3.970   5.858   2.340  0.2059  0.7536 -1.9026
   14CHTO   C22 5833   4.125   6.172   2.342 -0.4689  0.2056  1.2099
   14CHTO   H50 5834   4.129   6.182   2.451  2.3980 -0.5151  1.2032
   14CHTO   O14 5835   4.247   6.210   2.277 -0.4536 -0.2254  0.4998
   14CHTO   C23 5836   4.370   6.153   2.324  1.0134  0.2913  1.4216
   14CHTO   H51 5837   4.385   6.176   2.431 -0.1401  0.6380  1.5182
   14CHTO   C34 5838   4.489   6.228   2.258 -0.1758  0.3012  0.2896
   14CHTO   O23 5839   4.487   6.206   2.120 -0.0036  0.8953 -0.4173
   14CHTO   H38 5840   4.452   6.120   2.104  0.6886  0.5459 -0.0416
   14CHTO   O16 5841   4.028   6.250   2.265 -0.5688 -0.4545  0.2087
   14CHTO   C24 5842   4.051   6.417   2.233  0.1761 -0.4969 -0.2746
   14CHTO   H52 5843   3.956   6.468   2.215  0.8688  0.4597 -1.2166
   14CHTO   C26 5844   4.127   6.446   2.103 -0.5642  0.1294  0.1352
   14CHTO   H54 5845   4.206   6.369   2.092 -1.0821 -0.5431  1.0458
   14CHTO   O20 5846   4.042   6.419   1.989 -0.0340  0.1947  0.1673
   14CHTO   H36 5847   4.089   6.426   1.908 -2.4723  0.4002 -1.2677
   14CHTO   C30 5848   4.199   6.587   2.095  0.6444 -0.2562  0.2818
   14CHTO   H58 5849   4.129   6.658   2.048  1.0425  0.8912  1.4194
   14CHTO    N6 5850   4.319   6.591   2.001  0.0550 -0.5342 -0.1747
   14CHTO   H45 5851   4.398   6.639   2.056  0.1762  0.3320 -1.0872
   14CHTO   H46 5852   4.345   6.491   1.969  2.2454  0.1967 -0.7210
   14CHTO   C33 5853   4.239   6.647   2.229  0.7464  0.5161 -0.1533
   14CHTO   H61 5854   4.330   6.598   2.265  1.4736  1.9593  0.0177
   14CHTO   O18 5855   4.132   6.628   2.321  0.0629  0.3498 -0.4112
   14CHTO   C28 5856   4.111   6.488   2.358 -0.2566 -0.5838  0.6428
   14CHTO   H56 5857   4.205   6.437   2.377  0.9661  0.4172 -2.3941
   14CHTO   C35 5858   4.001   6.491   2.466 -0.6303 -0.1282  0.4336
   14CHTO   O24 5859   4.052   6.553   2.586  0.0215  0.0294 -0.5460
   14CHTO   H39 5860   4.144   6.568   2.587 -0.3941  2.8876 -1.5073
   14CHTO    O9 5861   4.278   6.784   2.213  0.7674 -0.2760 -0.1807
   14CHTO   C13 5862   4.372   6.845   2.337  0.2195  0.6319 -0.6283
   14CHTO   H26 5863   4.455   6.772   2.346  0.5836  0.9641 -1.2557
   14CHTO   C11 5864   4.286   6.853   2.470 -0.5308 -0.5871 -0.0280
   14CHTO   H24 5865   4.250   6.757   2.508  0.1175 -1.1759 -0.8863
   14CHTO    O8 5866   4.166   6.931   2.447 -0.2895 -0.5140  0.3371
   14CHTO    H3 5867   4.100   6.898   2.505 -1.5655  0.0523 -0.7667
   14CHTO    C9 5868   4.379   6.918   2.584  0.2030 -0.1968 -0.3846
   14CHTO   H22 5869   4.453   6.839   2.602 -1.5155 -1.7242  0.0952
   14CHTO    N2 5870   4.311   6.934   2.712  0.8990  0.4982 -0.1305
   14CHTO   H10 5871   4.382   6.981   2.778 -0.5165 -0.0486  1.8445
   14CHTO   H11 5872   4.224   6.996   2.695  1.8694  1.7462 -0.6038
   14CHTO    C7 5873   4.450   7.048   2.531  0.0263  0.2974 -0.5600
   14CHTO   H20 5874   4.556   7.017   2.526  0.3116  1.2179 -0.3861
   14CHTO    O4 5875   4.402   7.083   2.401  0.1306 -0.0242 -0.0498
   14CHTO   C14 5876   4.446   6.978   2.306  0.3034 -0.1107  0.3125
   14CHTO   H27 5877   4.556   6.967   2.309  0.3911 -0.6340 -3.2804
   14CHTO   C18 5878   4.406   7.027   2.167  0.1306  0.1424 -0.4104
   14CHTO   O13 5879   4.493   6.961   2.070  1.4544  0.0269  0.0207
   14CHTO    H7 5880   4.565   7.016   2.043  0.8458  0.8811  0.1212
   14CHTO    O2 5881   4.435   7.195   2.636 -0.0203 -0.6485  0.7419
   14CHTO    C1 5882   4.528   7.301   2.614  0.3378 -0.1351 -0.3251
   14CHTO   H14 5883   4.508   7.352   2.518 -0.5312  2.6240  1.2543
   14CHTO    C2 5884   4.683   7.270   2.624 -0.1272  0.2792 -0.0956
   14CHTO   H15 5885   4.698   7.218   2.720  0.2693  0.9867  0.2285
   14CHTO    O6 5886   4.716   7.181   2.516 -0.5337  0.1770  0.3351
   14CHTO    H1 5887   4.756   7.229   2.446  0.6175 -0.0896  0.7954
   14CHTO    C3 5888   4.776   7.404   2.633 -0.5640 -0.1094  0.8405
   14CHTO   H16 5889   4.773   7.445   2.531 -2.0711 -0.3727  0.7691
   14CHTO    N1 5890   4.914   7.358   2.675  0.0844  0.2217  0.5273
   14CHTO    H8 5891   4.923   7.324   2.777 -0.5282 -0.9440  0.1986
   14CHTO    H9 5892   4.950   7.277   2.613 -0.0718  0.8823 -0.4465
   14CHTO    C4 5893   4.718   7.515   2.720  0.2200 -0.2275 -0.3650
   14CHTO   H17 5894   4.725   7.487   2.825 -1.5689 -0.0034 -0.1755
   14CHTO    O1 5895   4.579   7.531   2.698 -0.4616  0.0314  0.5423
   14CHTO    C5 5896   4.497   7.416   2.724 -0.0930 -0.8831 -0.2197
   14CHTO   H18 5897   4.521   7.380   2.824  0.8880  1.6596  0.4815
   14CHTO   C16 5898   4.349   7.468   2.716 -0.7031 -0.2264  0.4019
   14CHTO   O11 5899   4.341   7.586   2.787  0.1526 -0.0811 -0.0066
   14CHTO    H5 5900   4.291   7.576   2.866 -0.2532  0.7106 -0.1665
   14CHTO    O3 5901   4.779   7.640   2.700 -0.4999  0.0645 -0.3106
   14CHTO    C6 5902   4.805   7.739   2.805  0.8675  0.7555 -0.1033
   14CHTO   H19 5903   4.768   7.704   2.901  1.4092  0.7785  0.1171
   14CHTO    C8 5904   4.956   7.762   2.817  0.2575  0.4178  0.2000
   14CHTO   H21 5905   4.988   7.809   2.723 -1.3090  0.7283 -0.1845
   14CHTO    O7 5906   5.027   7.640   2.847  0.0240  0.4447  0.8232
   14CHTO    H2 5907   5.010   7.571   2.786 -0.0637 -0.1335  1.4930
   14CHTO   C12 5908   4.989   7.874   2.932  0.2635 -0.0321 -0.1506
   14CHTO   H25 5909   4.977   7.825   3.031  1.6370  0.0793  0.0901
   14CHTO    N3 5910   5.140   7.905   2.929 -0.2005 -0.0270 -0.6480
   14CHTO   H12 5911   5.189   7.872   2.839 -1.3675 -0.8917 -0.9885
   14CHTO   H13 5912   5.186   7.880   3.023 -0.5736 -0.0098 -0.4586
   14CHTO   C15 5913   4.895   7.994   2.914 -0.6239 -0.4302 -0.5628
   14CHTO   H28 5914   4.921   8.049   2.823 -1.2500 -2.6468 -2.1518
   14CHTO   O10 5915   4.922   8.100   3.030  0.7337 -0.3069 -0.2841
   14CHTO    H4 5916   4.861   8.172   3.023  0.8094 -0.0727  1.3226
   14CHTO    O5 5917   4.758   7.965   2.897  0.3647  0.2716 -1.0736
   14CHTO   C10 5918   4.733   7.880   2.782  0.0848 -0.0270  0.0707
   14CHTO   H23 5919   4.769   7.927   2.690  0.5910 -0.4642  0.0468
   14CHTO   C17 5920   4.577   7.872   2.759 -0.8922  0.3043 -0.3488
   14CHTO   O12 5921   4.553   7.842   2.627  0.3957  0.1559  0.6861
   14CHTO    H6 5922   4.481   7.893   2.593  0.4402 -0.0869  0.2347
   15CHTO  H203 5923   5.028   4.722   2.462  0.1782  2.8128 -1.3674
   15CHTO   O82 5924   5.112   4.706   2.423 -0.0964 -0.0153 -0.9303
   15CHTO  C123 5925   5.103   4.637   2.302  0.0971  0.1578  0.3534
   15CHTO  H227 5926   5.010   4.664   2.250  1.0973 -0.4894 -1.8663
   15CHTO   O77 5927   5.205   4.691   2.213 -0.0872  0.4939  0.5579
   15CHTO  C118 5928   5.196   4.635   2.081 -0.5584 -0.0821 -0.3064
   15CHTO  H222 5929   5.100   4.659   2.034 -0.4576 -0.0802 -0.5132
   15CHTO  C125 5930   5.304   4.707   1.998 -0.2922 -0.7403 -0.2506
   15CHTO   O84 5931   5.286   4.847   2.001  0.1986 -0.0617  0.4020
   15CHTO  H205 5932   5.223   4.875   1.937 -1.6908 -0.7398  1.9262
   15CHTO  C114 5933   5.220   4.482   2.082  0.1320 -0.0840  0.1193
   15CHTO  H218 5934   5.319   4.457   2.121 -0.1121  0.1243  0.8877
   15CHTO  C116 5935   5.122   4.414   2.173 -0.0221  0.1846 -0.6459
   15CHTO  H220 5936   5.019   4.418   2.132 -0.0639 -0.0216 -0.5610
   15CHTO   O79 5937   5.163   4.277   2.186 -0.2977  0.1188 -0.0138
   15CHTO  H201 5938   5.243   4.263   2.233 -0.1400 -1.9541 -0.8366
   15CHTO  C120 5939   5.126   4.485   2.317 -0.0817 -0.0991 -0.0558
   15CHTO  H224 5940   5.228   4.469   2.357 -0.3723 -0.1926  0.6415
   15CHTO   N21 5941   5.031   4.415   2.403 -0.2995  0.7393  0.0253
   15CHTO  H211 5942   4.949   4.394   2.336  0.3519 -2.1320  0.0523
   15CHTO  H212 5943   5.073   4.317   2.419 -1.1668  0.4983  0.8385
   15CHTO   O75 5944   5.215   4.436   1.947 -0.0727 -0.5727  0.0161
   15CHTO  C112 5945   5.332   4.328   1.898  0.6592 -0.6716 -0.1939
   15CHTO  H216 5946   5.346   4.260   1.983 -3.3255  0.0669  1.1609
   15CHTO   O73 5947   5.446   4.403   1.869  0.0195  0.2980  0.6987
   15CHTO  C113 5948   5.556   4.334   1.824  0.4022 -0.0549 -0.3515
   15CHTO  H217 5949   5.595   4.275   1.910  0.4742  0.7603  0.1817
   15CHTO  C124 5950   5.668   4.438   1.812  0.6595 -0.0229 -0.0213
   15CHTO   O83 5951   5.808   4.401   1.804 -0.2815  0.3637  0.3740
   15CHTO  H204 5952   5.826   4.345   1.877  2.2206  2.3113  1.3350
   15CHTO  C109 5953   5.528   4.249   1.703 -0.5819 -0.6005  0.7747
   15CHTO  H213 5954   5.530   4.316   1.616  0.4110 -1.7008 -0.0786
   15CHTO  C110 5955   5.394   4.166   1.712  0.3602  0.1018  0.4281
   15CHTO  H214 5956   5.421   4.074   1.764 -0.1361 -1.4544 -2.0160
   15CHTO   O78 5957   5.369   4.126   1.577  0.4873 -0.5156 -0.1136
   15CHTO  H200 5958   5.284   4.090   1.560  0.7242 -0.8029 -0.7019
   15CHTO  C111 5959   5.277   4.240   1.780 -0.1180 -0.5705  0.4168
   15CHTO  H215 5960   5.242   4.319   1.713 -3.4946 -2.0401  0.3322
   15CHTO   N19 5961   5.154   4.160   1.809 -0.6126 -0.2299 -0.1798
   15CHTO  H207 5962   5.155   4.119   1.909  0.8894  0.0779 -0.0532
   15CHTO  H208 5963   5.153   4.081   1.735  2.5962  2.4722 -3.3039
   15CHTO   O74 5964   5.641   4.158   1.690  0.4013  0.7227  0.1040
   15CHTO  C115 5965   5.681   4.096   1.539  0.4719  0.3072  0.1547
   15CHTO  H219 5966   5.592   4.064   1.484  1.2255 -0.5499 -0.5733
   15CHTO   O76 5967   5.758   4.202   1.447 -0.1768  0.1481 -0.2157
   15CHTO  C122 5968   5.904   4.195   1.442  0.0926 -0.2195 -0.0865
   15CHTO  H226 5969   5.939   4.215   1.543 -1.2106 -1.7202  0.6841
   15CHTO  C126 5970   5.965   4.313   1.349 -0.3687  0.6790 -0.2747
   15CHTO   O85 5971   5.934   4.294   1.212  0.3907 -0.5497 -0.3139
   15CHTO  H206 5972   6.003   4.320   1.155 -0.0555  1.0028 -0.1967
   15CHTO  C121 5973   5.942   4.048   1.397 -0.7638  0.1951 -0.2439
   15CHTO  H225 5974   5.943   4.044   1.286 -0.1226  4.0916 -0.4783
   15CHTO   O81 5975   6.076   4.022   1.445  0.3944 -0.2780 -0.3871
   15CHTO  H202 5976   6.137   4.020   1.374  1.8606  2.1354  0.7374
   15CHTO  C119 5977   5.846   3.937   1.443  0.1491  0.2305  0.1015
   15CHTO  H223 5978   5.780   3.937   1.356 -0.2186 -1.6924  0.3735
   15CHTO  C117 5979   5.766   3.966   1.568  0.5992 -0.3992 -0.0450
   15CHTO  H221 5980   5.830   3.979   1.655  0.6755 -1.2294  0.0292
   15CHTO   N20 5981   5.670   3.852   1.599  0.2174  0.1780  0.0602
   15CHTO  H209 5982   5.662   3.784   1.516 -0.8265 -2.3572  2.1518
   15CHTO  H210 5983   5.570   3.888   1.620  0.3050  1.3115 -1.4633
   15CHTO   O80 5984   5.912   3.798   1.432 -0.2411 -0.2540  0.2009
   15CHTO  C103 5985   5.843   3.678   1.349  0.7565 -0.0228  0.0427
   15CHTO  H190 5986   5.775   3.630   1.421  1.4527 -1.5716 -0.3011
   15CHTO  C101 5987   5.766   3.705   1.218  0.4084 -0.3336  0.3003
   15CHTO  H188 5988   5.830   3.760   1.149  1.0189  0.3110  1.3726
   15CHTO   O68 5989   5.645   3.793   1.242 -0.3069  0.2726 -0.0185
   15CHTO  H168 5990   5.576   3.792   1.179  0.7723  2.8473 -1.2820
   15CHTO   C99 5991   5.733   3.563   1.140  0.1884 -0.6605  0.1823
   15CHTO  H186 5992   5.658   3.513   1.205 -0.5356  0.5014  0.2467
   15CHTO   N17 5993   5.676   3.583   1.000 -0.5667 -0.8179 -0.6083
   15CHTO  H174 5994   5.584   3.637   1.007  0.6095  1.1145  0.2281
   15CHTO  H175 5995   5.751   3.626   0.935 -1.4836  3.1401  0.8095
   15CHTO   C97 5996   5.864   3.478   1.139 -0.3994 -0.1744 -0.7388
   15CHTO  H184 5997   5.937   3.522   1.069 -1.0598 -1.0600 -2.0220
   15CHTO   O64 5998   5.923   3.453   1.265  0.1940  0.6483  0.2391
   15CHTO  C104 5999   5.963   3.577   1.320  0.1653  0.2843  0.4697
   15CHTO  H191 6000   6.031   3.615   1.244  1.9170 -1.6555  1.0307
   15CHTO  C108 6001   6.056   3.550   1.438 -0.1964  0.0515 -0.0301
   15CHTO   O71 6002   6.151   3.647   1.470 -0.0157  0.0998  0.2526
   15CHTO  H171 6003   6.195   3.634   1.552  1.1167 -0.5256 -0.4272
   15CHTO   O62 6004   5.831   3.341   1.100 -0.5977  0.0470 -0.0186
   15CHTO   C91 6005   5.917   3.276   1.009 -0.3942 -0.1683  0.3236
   15CHTO  H178 6006   5.946   3.356   0.940  1.1622 -0.6855  0.3586
   15CHTO   C92 6007   5.828   3.180   0.928 -0.4544 -0.1675  0.5989
   15CHTO  H179 6008   5.741   3.236   0.891 -0.7762 -1.9392 -1.4294
   15CHTO   O66 6009   5.893   3.149   0.799 -0.0901 -0.2088  0.1917
   15CHTO  H166 6010   5.972   3.098   0.804  0.3764  0.5806  1.0688
   15CHTO   C93 6011   5.795   3.048   0.997 -0.3762  0.4633  0.4398
   15CHTO  H180 6012   5.766   2.976   0.918 -0.8856  0.0817  0.9643
   15CHTO   N16 6013   5.675   3.056   1.080 -0.0691 -0.1666  0.1430
   15CHTO  H172 6014   5.599   3.106   1.022 -0.1419 -1.8105 -1.1950
   15CHTO  H173 6015   5.625   2.963   1.102 -1.0413  0.0588 -1.0688
   15CHTO   C94 6016   5.915   2.985   1.088  0.5668  0.4358 -0.1841
   15CHTO  H181 6017   5.897   2.995   1.194 -2.8794 -1.4558 -0.5325
   15CHTO   O61 6018   6.039   3.052   1.044 -0.1644 -0.3018 -0.5924
   15CHTO   C95 6019   6.042   3.186   1.075  0.1626 -0.2389 -0.2565
   15CHTO  H182 6020   6.037   3.198   1.184 -3.5280  1.8908 -0.5801
   15CHTO  C106 6021   6.176   3.251   1.019  0.2064  0.6417  0.0400
   15CHTO   O69 6022   6.293   3.175   1.044  0.3227 -0.2633  0.0086
   15CHTO  H169 6023   6.305   3.113   0.975 -0.7032  0.6364 -0.9854
   15CHTO   O63 6024   5.922   2.849   1.056  1.0648 -0.1393 -0.3120
   15CHTO   C96 6025   6.003   2.764   1.144 -0.3569  0.5429 -0.1335
   15CHTO  H183 6026   5.997   2.811   1.242 -1.1478 -0.4549  0.2928
   15CHTO   C98 6027   6.149   2.745   1.102  0.2145  0.2952  0.5921
   15CHTO  H185 6028   6.156   2.736   0.992  0.1559 -0.3715  0.6419
   15CHTO   O67 6029   6.211   2.872   1.135 -0.2363 -0.1619  0.3830
   15CHTO  H167 6030   6.293   2.880   1.089 -0.4533 -1.0563 -0.1656
   15CHTO  C102 6031   6.222   2.622   1.179  0.4721 -0.6512 -0.4493
   15CHTO  H189 6032   6.224   2.655   1.284 -2.5788 -1.5071 -0.0871
   15CHTO   N18 6033   6.367   2.595   1.144  0.3727  0.4184 -0.0786
   15CHTO  H176 6034   6.436   2.639   1.214  0.7184 -0.6932  0.2894
   15CHTO  H177 6035   6.391   2.628   1.044  0.7747  0.8756  0.1675
   15CHTO  C105 6036   6.137   2.497   1.162 -0.4788  0.1637  0.4356
   15CHTO  H192 6037   6.129   2.480   1.055  2.9744 -0.3885  0.1953
   15CHTO   O65 6038   6.012   2.522   1.227 -0.2089 -0.2227  0.1489
   15CHTO  C100 6039   5.932   2.628   1.170 -0.0765 -0.1163  0.0996
   15CHTO  H187 6040   5.899   2.592   1.072  1.6626 -0.2103 -0.4684
   15CHTO  C107 6041   5.804   2.643   1.255  0.3670  0.5859  0.6596
   15CHTO   O70 6042   5.697   2.726   1.207 -0.6225 -0.0822 -0.7981
   15CHTO  H170 6043   5.659   2.760   1.286 -0.4768  1.8614 -1.5462
   15CHTO   O57 6044   6.218   2.365   1.248 -0.4331 -0.0283 -0.0465
   15CHTO   C85 6045   6.134   2.251   1.294  0.4879 -0.1331  0.3556
   15CHTO  H157 6046   6.043   2.298   1.337  0.8441  3.0054 -2.1594
   15CHTO   C83 6047   6.212   2.181   1.405  0.3211 -0.2728  0.6250
   15CHTO  H155 6048   6.230   2.251   1.487  0.3167  0.9187 -0.3784
   15CHTO   O56 6049   6.341   2.145   1.358 -0.0796 -0.2659 -0.1545
   15CHTO  H135 6050   6.405   2.213   1.356 -0.8425  0.4516 -0.2816
   15CHTO   C81 6051   6.127   2.072   1.472 -0.6045  0.3897 -0.4319
   15CHTO  H153 6052   6.042   2.121   1.519 -1.9187 -0.2276 -2.1357
   15CHTO   N14 6053   6.204   2.005   1.583  0.2023 -0.0467  0.3518
   15CHTO  H141 6054   6.282   1.950   1.534  4.4696  4.5736  1.5522
   15CHTO  H142 6055   6.249   2.090   1.630  0.9100 -0.2369  0.0325
   15CHTO   C79 6056   6.078   1.972   1.360  0.0630  0.3944 -0.7500
   15CHTO  H151 6057   5.998   1.912   1.404  0.5663 -0.5061 -1.0603
   15CHTO   O52 6058   6.021   2.026   1.243 -0.0646  0.5379  0.2213
   15CHTO   C86 6059   6.100   2.138   1.190  0.4605 -0.6103  0.6565
   15CHTO  H158 6060   6.193   2.092   1.152 -0.8873 -1.3582 -1.8499
   15CHTO   C90 6061   6.025   2.195   1.066  0.9562 -0.9248 -0.0556
   15CHTO   O60 6062   6.010   2.087   0.969 -0.1427 -0.2615 -0.2514
   15CHTO  H138 6063   5.938   2.032   0.993 -0.8083  1.0031  0.7123
   15CHTO   O50 6064   6.186   1.889   1.310 -0.1936  0.6138  0.7873
   15CHTO   C73 6065   6.175   1.769   1.230  0.2638 -0.0417  0.8683
   15CHTO  H145 6066   6.107   1.775   1.143  0.0636  2.1757  1.1386
   15CHTO   C74 6067   6.112   1.655   1.315  0.2241 -0.2023 -0.0148
   15CHTO  H146 6068   6.025   1.702   1.363  0.9471  0.2351  0.9041
   15CHTO   O54 6069   6.080   1.548   1.228  0.5137  0.3248 -0.8467
   15CHTO  H133 6070   6.058   1.472   1.280  1.0647  0.7266 -0.0193
   15CHTO   C75 6071   6.216   1.619   1.423 -0.3596 -0.0443 -0.0843
   15CHTO  H147 6072   6.225   1.702   1.495  2.0419 -1.6479  1.5578
   15CHTO   N13 6073   6.176   1.509   1.509 -0.3186  0.8137 -0.0415
   15CHTO  H139 6074   6.213   1.413   1.478 -1.1124 -0.0026  1.4303
   15CHTO  H140 6075   6.068   1.513   1.513 -0.3337  0.3158  0.0105
   15CHTO   C76 6076   6.371   1.591   1.365  0.0888 -0.0444  0.2216
   15CHTO  H148 6077   6.379   1.497   1.310  0.9961  0.9904 -1.4432
   15CHTO   O49 6078   6.403   1.700   1.277  0.1387 -0.4803  0.2753
   15CHTO   C77 6079   6.309   1.716   1.172 -0.5779  0.1005 -0.5407
   15CHTO  H149 6080   6.290   1.620   1.124  1.7655 -1.1512  0.8798
   15CHTO   C88 6081   6.364   1.805   1.063  0.0353  0.1263 -0.6871
   15CHTO   O58 6082   6.279   1.818   0.934  0.8824 -0.0300 -0.1613
   15CHTO  H136 6083   6.192   1.842   0.958  0.0154 -1.5388 -1.6847
   15CHTO   O51 6084   6.467   1.590   1.502  0.2813  0.3498  0.2765
   15CHTO   C78 6085   6.614   1.576   1.471  0.5623 -0.3848 -0.0419
   15CHTO  H150 6086   6.631   1.582   1.362 -1.5421 -0.2781 -0.3998
   15CHTO   C80 6087   6.674   1.441   1.520 -0.5634  0.1030  0.1826
   15CHTO  H152 6088   6.655   1.431   1.629 -1.6631  1.0712  0.0825
   15CHTO   O55 6089   6.596   1.336   1.459  0.1649 -0.3528 -0.5875
   15CHTO  H134 6090   6.647   1.302   1.388 -0.3599 -0.6116 -0.8474
   15CHTO   C84 6091   6.830   1.420   1.497 -0.3447  0.2564 -0.1592
   15CHTO  H156 6092   6.852   1.434   1.391 -0.7174  1.8700 -0.0366
   15CHTO   N15 6093   6.893   1.294   1.544 -0.0628  0.4492 -0.1126
   15CHTO  H143 6094   6.998   1.294   1.524  0.0645  0.4612  0.5462
   15CHTO  H144 6095   6.877   1.269   1.647  2.6310 -1.6353 -0.1530
   15CHTO   C87 6096   6.908   1.545   1.548  0.4936 -0.1146 -0.1418
   15CHTO  H159 6097   6.907   1.532   1.657  0.7257 -1.7954 -0.3204
   15CHTO   O53 6098   6.840   1.682   1.513 -0.1460 -0.1682  0.0631
   15CHTO   C82 6099   6.698   1.677   1.544  0.3519 -0.0619  0.2276
   15CHTO  H154 6100   6.695   1.659   1.652  0.9080  1.8895  0.5930
   15CHTO   C89 6101   6.635   1.821   1.521 -0.9086  0.1104 -0.6897
   15CHTO   O59 6102   6.633   1.852   1.384 -0.0848 -0.3139 -0.2861
   15CHTO  H137 6103   6.644   1.945   1.379  1.6951 -0.3608  1.9323
   15CHTO   O45 6104   7.062   1.545   1.499  0.0506 -0.1930  0.7089
   15CHTO   C67 6105   7.125   1.669   1.510  0.4156  0.4000 -0.1330
   15CHTO  H124 6106   7.054   1.745   1.477 -0.7346 -0.7357 -0.2771
   15CHTO   C65 6107   7.152   1.702   1.666 -0.5928  0.5067  0.2084
   15CHTO  H122 6108   7.171   1.610   1.722  1.8690  0.5878 -0.4272
   15CHTO   O44 6109   7.040   1.772   1.725  0.1624  0.3722 -0.2492
   15CHTO  H102 6110   7.044   1.782   1.818  0.0017  0.6739 -0.2734
   15CHTO   C63 6111   7.287   1.783   1.681 -0.2163 -0.3003 -0.2460
   15CHTO  H120 6112   7.370   1.713   1.669 -1.2760 -1.3194 -1.6483
   15CHTO   N11 6113   7.315   1.839   1.818 -0.1634  0.6975  0.2633
   15CHTO  H108 6114   7.278   1.940   1.811 -1.8152  0.1672  1.0251
   15CHTO  H109 6115   7.262   1.776   1.886  0.5441  1.1715  1.2638
   15CHTO   C61 6116   7.309   1.885   1.560  0.0092  0.0399  0.2345
   15CHTO  H118 6117   7.407   1.932   1.581 -0.0914 -0.5819  2.2381
   15CHTO   O40 6118   7.321   1.814   1.433 -0.3080  0.0047 -0.8536
   15CHTO   C68 6119   7.263   1.684   1.429  0.1999  0.1904 -0.6469
   15CHTO  H125 6120   7.333   1.606   1.466 -0.5917 -0.2776 -0.0916
   15CHTO   C72 6121   7.226   1.652   1.285 -0.3724  1.0571 -0.5835
   15CHTO   O48 6122   7.336   1.582   1.223  0.2273  0.1941 -0.0571
   15CHTO  H105 6123   7.355   1.497   1.257  3.1282 -0.4897 -3.1085
   15CHTO   O38 6124   7.209   1.984   1.542  0.4100 -0.4658 -0.0697
   15CHTO   C55 6125   7.240   2.089   1.448 -0.1853  0.4456 -0.2596
   15CHTO  H112 6126   7.297   2.046   1.365  1.6468  0.2728  1.0599
   15CHTO   C56 6127   7.320   2.215   1.514 -0.3767  0.1747 -0.4981
   15CHTO  H113 6128   7.258   2.244   1.601 -3.1669  0.6589 -2.5842
   15CHTO   O42 6129   7.448   2.176   1.567  0.2749  0.3399 -0.0258
   15CHTO  H100 6130   7.456   2.087   1.539  1.2868  1.0440 -2.0710
   15CHTO   C57 6131   7.339   2.334   1.415 -0.0685  0.0875  0.0093
   15CHTO  H114 6132   7.398   2.295   1.331 -0.5719 -1.0513  0.1705
   15CHTO   N10 6133   7.410   2.448   1.482  0.6769 -0.0491 -0.0966
   15CHTO  H106 6134   7.334   2.501   1.536  0.0069 -0.9732 -0.1321
   15CHTO  H107 6135   7.489   2.429   1.553 -0.2073 -1.8070  0.4429
   15CHTO   C58 6136   7.206   2.378   1.358 -0.2349  0.1339 -0.0284
   15CHTO  H115 6137   7.143   2.422   1.438  0.5871  1.9759 -0.3658
   15CHTO   O37 6138   7.144   2.262   1.306 -1.0413 -0.1790 -0.5074
   15CHTO   C59 6139   7.111   2.152   1.391 -0.4150  0.7065  0.1999
   15CHTO  H116 6140   7.044   2.196   1.465 -1.2302 -1.1783  0.5965
   15CHTO   C70 6141   7.026   2.053   1.315  0.1848  0.9597  0.0971
   15CHTO   O46 6142   7.088   1.957   1.223  0.2615  0.1265  0.6266
   15CHTO  H103 6143   7.109   1.998   1.141 -0.1631 -0.8302  0.0301
   15CHTO   O39 6144   7.231   2.491   1.234 -0.6549 -0.7577 -0.6435
   15CHTO   C60 6145   7.115   2.506   1.147  0.8180 -0.2418  0.0851
   15CHTO  H117 6146   7.102   2.412   1.094  0.8639 -0.8052  1.0468
   15CHTO   C62 6147   6.972   2.526   1.222 -0.1257 -0.0896 -0.5726
   15CHTO  H119 6148   6.967   2.451   1.304  1.5539 -0.4008 -0.7227
   15CHTO   O43 6149   6.966   2.658   1.279  0.0968  0.0439 -0.3184
   15CHTO  H101 6150   7.034   2.667   1.343 -0.6489  0.4502  0.4226
   15CHTO   C66 6151   6.855   2.504   1.115  1.4315  0.2104  0.5036
   15CHTO  H123 6152   6.873   2.406   1.071  1.0204  0.2666  0.2069
   15CHTO   N12 6153   6.726   2.507   1.193 -0.1454  0.5465  0.1466
   15CHTO  H110 6154   6.652   2.487   1.118 -0.8659  1.3071  0.6463
   15CHTO  H111 6155   6.704   2.597   1.248 -2.7877 -0.7013  1.2318
   15CHTO   C69 6156   6.871   2.616   1.005 -0.2365  0.5373  0.2280
   15CHTO  H126 6157   6.843   2.708   1.060  0.4600  0.3463  0.9084
   15CHTO   O41 6158   7.025   2.611   0.949  0.1248 -0.3962 -0.4045
   15CHTO   C64 6159   7.137   2.619   1.044  0.6789 -0.1903 -0.3543
   15CHTO  H121 6160   7.142   2.717   1.096  0.3313 -0.8516  0.9502
   15CHTO   C71 6161   7.272   2.584   0.967 -0.6096 -0.5757 -0.1621
   15CHTO   O47 6162   7.291   2.673   0.853  0.0984 -1.1346 -0.2377
   15CHTO  H104 6163   7.358   2.649   0.793  0.7513  0.8148 -0.3155
   15CHTO   O34 6164   6.781   2.590   0.893  0.0931 -0.6259 -0.2660
   15CHTO   C49 6165   6.692   2.663   0.822 -0.0801  0.1255 -0.4724
   15CHTO   H91 6166   6.600   2.606   0.829 -0.2979  0.3344 -1.5650
   15CHTO   C47 6167   6.729   2.685   0.674  0.5012 -0.3391 -0.5160
   15CHTO   H89 6168   6.631   2.721   0.635 -0.1538 -1.4281  0.0939
   15CHTO   O33 6169   6.758   2.555   0.615  0.2580  0.4650  0.1278
   15CHTO   H70 6170   6.786   2.553   0.526 -0.3193 -0.0217 -0.0457
   15CHTO   C45 6171   6.845   2.793   0.665 -0.7694 -0.3833 -0.2387
   15CHTO   H87 6172   6.930   2.763   0.728 -0.5647  1.7396  0.5203
   15CHTO    N8 6173   6.895   2.811   0.524  0.3664  0.1890 -0.3925
   15CHTO   H75 6174   6.810   2.853   0.471  1.3669 -0.3792 -2.5393
   15CHTO   H76 6175   6.910   2.712   0.482 -0.5293 -0.5446  0.9811
   15CHTO   C43 6176   6.798   2.933   0.727  0.7020  0.3307  0.1232
   15CHTO   H85 6177   6.887   2.997   0.735 -0.6709  2.1090  1.6755
   15CHTO   O29 6178   6.756   2.903   0.862 -0.0349 -1.1150  0.1737
   15CHTO   C50 6179   6.661   2.794   0.891 -0.4209 -0.0711 -0.0506
   15CHTO   H92 6180   6.654   2.773   0.999  1.4767  0.8305  0.2775
   15CHTO   C54 6181   6.516   2.837   0.866  0.2156 -0.1844 -0.3735
   15CHTO   O36 6182   6.482   2.962   0.931  0.1143 -0.3418  0.0109
   15CHTO   H72 6183   6.527   3.034   0.892  2.3770 -3.0209 -2.5266
   15CHTO   O27 6184   6.700   3.008   0.654  0.7311  0.3627  0.1742
   15CHTO   C37 6185   6.653   3.069   0.534  0.0348 -0.0978 -0.2157
   15CHTO   H79 6186   6.688   3.011   0.448  1.7801 -0.2143  0.5637
   15CHTO   C38 6187   6.498   3.067   0.527 -0.3296  0.2748 -0.0160
   15CHTO   H80 6188   6.452   3.109   0.618 -0.8716 -2.5695  1.0649
   15CHTO   O31 6189   6.480   2.923   0.527 -0.3063 -0.1336 -0.1392
   15CHTO   H68 6190   6.401   2.911   0.479  0.5592  0.3858 -1.7311
   15CHTO   C39 6191   6.451   3.134   0.395  0.5864 -0.4712  0.0182
   15CHTO   H81 6192   6.494   3.083   0.309 -0.1138  1.5373 -1.5300
   15CHTO    N7 6193   6.301   3.137   0.386  0.1787 -0.0315 -0.0379
   15CHTO   H73 6194   6.255   3.228   0.422 -0.1434 -1.0892  2.3290
   15CHTO   H74 6195   6.262   3.125   0.287 -1.9899  0.2115  0.7572
   15CHTO   C40 6196   6.514   3.278   0.383 -0.0503  0.6786 -0.3672
   15CHTO   H82 6197   6.470   3.337   0.463  0.1052 -0.7742  0.8158
   15CHTO   O26 6198   6.657   3.270   0.390  0.4932 -0.2977 -0.1117
   15CHTO   C41 6199   6.702   3.216   0.518 -0.2959 -0.3212  0.6484
   15CHTO   H83 6200   6.669   3.277   0.604  2.2213  0.0032  1.4138
   15CHTO   C52 6201   6.853   3.226   0.516 -1.0781  0.4909  0.2336
   15CHTO   O35 6202   6.903   3.147   0.414  0.5544 -0.2305  0.1324
   15CHTO   H71 6203   6.919   3.061   0.448  1.2396  0.2640  1.0974
   15CHTO   O28 6204   6.504   3.340   0.251  0.0425  0.0371 -0.3448
   15CHTO   C42 6205   6.519   3.483   0.219 -0.0442 -0.1653  0.7099
   15CHTO   H84 6206   6.507   3.490   0.111 -0.5228  0.2054  0.7861
   15CHTO   C44 6207   6.653   3.549   0.248  0.3006 -0.1386  0.7181
   15CHTO   H86 6208   6.680   3.532   0.352  1.1500 -1.5409  0.2818
   15CHTO   O32 6209   6.746   3.482   0.165 -0.2206  0.0226 -0.2361
   15CHTO   H69 6210   6.773   3.404   0.210  1.6399 -0.2798 -1.7667
   15CHTO   C48 6211   6.649   3.712   0.237  0.3873 -0.4762 -0.8060
   15CHTO   H90 6212   6.647   3.730   0.129  0.6911  0.3261 -0.6804
   15CHTO    N9 6213   6.783   3.758   0.290  0.2001  0.0127 -0.0246
   15CHTO   H77 6214   6.807   3.707   0.382  0.6071 -2.1493 -1.2773
   15CHTO   H78 6215   6.862   3.734   0.219 -0.0336  3.8940 -1.7085
   15CHTO   C51 6216   6.527   3.763   0.311  0.3206 -0.1079 -0.1821
   15CHTO   H93 6217   6.535   3.730   0.414 -0.6165 -0.8752 -0.3416
   15CHTO   O30 6218   6.410   3.710   0.240  0.3850 -0.0785  0.1123
   15CHTO   C46 6219   6.407   3.563   0.284 -0.1345  0.1846  0.9065
   15CHTO   H88 6220   6.427   3.551   0.390  0.7916  0.9309  0.8271
   15CHTO   C53 6221   6.269   3.488   0.245  0.3300  0.2892  0.5663
   15CHTO   O72 6222   6.167   3.553   0.315 -0.0833 -0.6525  0.0334
   15CHTO  H199 6223   6.176   3.646   0.322  2.2570 -0.7974 -0.6574
   15CHTO   O22 6224   6.523   3.908   0.302  0.0524  0.1625  0.2551
   15CHTO   C31 6225   6.443   3.978   0.403  0.2401  0.0068  0.0965
   15CHTO   H59 6226   6.481   4.082   0.404 -0.7929  0.3939 -0.5131
   15CHTO   C29 6227   6.289   3.991   0.357  0.3773  0.1521  0.1097
   15CHTO   H57 6228   6.242   3.891   0.361  1.6452 -0.4300  0.6267
   15CHTO   O21 6229   6.297   4.051   0.225 -0.0971  0.2551  0.5534
   15CHTO   H37 6230   6.212   4.067   0.188  0.0995 -0.7628 -0.3813
   15CHTO   C27 6231   6.218   4.086   0.455  0.0149 -0.0364 -0.3609
   15CHTO   H55 6232   6.269   4.182   0.448  1.1874 -0.6797 -0.7415
   15CHTO    N5 6233   6.074   4.106   0.418  0.3555 -0.0278 -0.2108
   15CHTO   H43 6234   6.072   4.122   0.312  1.0893  1.3073 -0.0320
   15CHTO   H44 6235   5.999   4.032   0.441  0.0382 -0.2656 -1.9649
   15CHTO   C25 6236   6.218   4.018   0.600  0.3055  0.1668 -0.2762
   15CHTO   H53 6237   6.152   3.931   0.607  1.9464 -1.1213 -0.5098
   15CHTO   O17 6238   6.354   3.994   0.648  0.2076 -0.1362 -0.0771
   15CHTO   C32 6239   6.442   3.928   0.549  0.4658 -0.0170  0.6650
   15CHTO   H60 6240   6.411   3.824   0.546 -0.1146  0.1662  0.3128
   15CHTO   C36 6241   6.586   3.945   0.603 -0.7524 -0.5127  0.3409
   15CHTO   O25 6242   6.607   3.873   0.727  0.3780  0.4846 -0.2177
   15CHTO   H40 6243   6.566   3.789   0.720 -1.5177  1.3198  0.3911
   15CHTO   O15 6244   6.154   4.133   0.712 -0.6553 -0.2738 -0.0258
   15CHTO   C19 6245   6.174   4.270   0.752 -0.1779 -0.4103  0.8765
   15CHTO   H47 6246   6.245   4.295   0.672 -1.1616  1.5457  0.5851
   15CHTO   C20 6247   6.050   4.368   0.755  0.2177  0.3818  0.8247
   15CHTO   H48 6248   5.973   4.337   0.828 -1.4584 -1.4695 -1.6519
   15CHTO   O19 6249   5.999   4.376   0.622 -0.5359 -0.1397 -0.1708
   15CHTO   H35 6250   5.940   4.304   0.611  0.1675 -0.9318  1.0603
   15CHTO   C21 6251   6.088   4.518   0.795 -0.5456 -0.3055  0.2596
   15CHTO   H49 6252   6.133   4.570   0.711 -0.0045  1.9245  1.8931
   15CHTO    N4 6253   5.975   4.612   0.824  0.0298  0.5075 -0.1417
   15CHTO   H41 6254   5.889   4.588   0.763  0.2780 -0.5528 -0.0790
   15CHTO   H42 6255   6.002   4.716   0.817 -3.2934  1.5733  1.5331
   15CHTO   C22 6256   6.193   4.525   0.913 -0.4805  0.7604  0.1800
   15CHTO   H50 6257   6.136   4.514   1.005 -4.3710  0.1079 -2.2245
   15CHTO   O14 6258   6.293   4.420   0.901 -0.0715  0.1507 -0.4956
   15CHTO   C23 6259   6.247   4.286   0.882  0.0130 -0.1226  0.4021
   15CHTO   H51 6260   6.184   4.259   0.968  1.9502 -0.2331  1.8028
   15CHTO   C34 6261   6.364   4.190   0.893 -0.7835  0.0587 -0.2251
   15CHTO   O23 6262   6.467   4.234   0.807  0.3209  0.2056 -0.2580
   15CHTO   H38 6263   6.472   4.171   0.737  0.4580 -0.5185  0.3890
   15CHTO   O16 6264   6.269   4.645   0.923 -0.0778 -0.1123 -0.1958
   15CHTO   C24 6265   6.289   4.706   1.073 -0.0656  0.2127 -0.1431
   15CHTO   H52 6266   6.213   4.671   1.142  0.9350  1.1741  1.4714
   15CHTO   C26 6267   6.278   4.859   1.060  0.7344  0.3182  0.0439
   15CHTO   H54 6268   6.343   4.890   0.976  1.0068 -0.7302 -0.1441
   15CHTO   O20 6269   6.143   4.895   1.028  0.6570 -0.4973 -0.1744
   15CHTO   H36 6270   6.135   4.988   1.018  1.8360 -0.4922 -1.2726
   15CHTO   C30 6271   6.324   4.925   1.191 -0.0719  0.6310 -0.1352
   15CHTO   H58 6272   6.252   4.910   1.272 -0.5391  1.6771 -0.3495
   15CHTO    N6 6273   6.331   5.076   1.180 -0.8817 -0.4542  0.0534
   15CHTO   H45 6274   6.280   5.121   1.096  1.0410  0.5267 -0.6195
   15CHTO   H46 6275   6.307   5.133   1.268 -0.5289 -0.3535  0.0814
   15CHTO   C33 6276   6.463   4.872   1.234  0.3057  0.1797  0.3132
   15CHTO   H61 6277   6.531   4.895   1.150 -2.4413 -0.2082 -2.1085
   15CHTO   O18 6278   6.462   4.730   1.251  0.3355  0.7475  0.3084
   15CHTO   C28 6279   6.430   4.658   1.130  1.1596  0.4794  0.4779
   15CHTO   H56 6280   6.507   4.678   1.055  0.7514  1.4728  0.3195
   15CHTO   C35 6281   6.420   4.508   1.164 -1.2526  0.1151 -0.1059
   15CHTO   O24 6282   6.540   4.462   1.222 -0.5819  0.0971  0.7459
   15CHTO   H39 6283   6.564   4.374   1.198 -2.5095 -0.0642 -0.6566
   15CHTO    O9 6284   6.522   4.937   1.353  0.2140 -0.2898 -0.0418
   15CHTO   C13 6285   6.687   4.930   1.383  0.0992 -0.4547 -0.0787
   15CHTO   H26 6286   6.711   5.033   1.415 -0.1746 -0.2877 -0.4065
   15CHTO   C11 6287   6.774   4.889   1.261  0.4065  0.4075  0.0241
   15CHTO   H24 6288   6.760   4.969   1.187  1.3197  0.0682 -0.5188
   15CHTO    O8 6289   6.740   4.758   1.209  0.3001  0.0120 -0.3902
   15CHTO    H3 6290   6.658   4.767   1.164  1.7887  3.2595 -2.7240
   15CHTO    C9 6291   6.918   4.889   1.316 -0.3169  0.4080 -0.2863
   15CHTO   H22 6292   6.929   4.990   1.358 -2.6392  0.8161 -0.5850
   15CHTO    N2 6293   7.020   4.876   1.212 -0.2597  0.6545 -0.2695
   15CHTO   H10 6294   7.021   4.771   1.184  1.9549  0.1906  1.4010
   15CHTO   H11 6295   6.980   4.935   1.131  0.9820  1.5202 -0.2560
   15CHTO    C7 6296   6.933   4.787   1.439 -0.1721  0.4367 -0.0791
   15CHTO   H20 6297   6.981   4.855   1.514 -0.1581  0.5252 -0.1685
   15CHTO    O4 6298   6.809   4.744   1.498 -0.2094 -0.0367 -0.0700
   15CHTO   C14 6299   6.720   4.857   1.520 -0.4598  0.0974  0.1524
   15CHTO   H27 6300   6.765   4.927   1.593  0.3266  0.6596 -0.8566
   15CHTO   C18 6301   6.595   4.802   1.588  0.1553  0.5454 -0.3043
   15CHTO   O13 6302   6.629   4.758   1.718 -0.1425  0.2751  0.2887
   15CHTO    H7 6303   6.560   4.780   1.777  1.0341  0.9166  1.4309
   15CHTO    O2 6304   7.030   4.660   1.405 -0.3123 -0.3443 -0.0030
   15CHTO    C1 6305   7.095   4.604   1.522  0.5636 -0.4163 -0.3752
   15CHTO   H14 6306   7.043   4.636   1.615 -0.4837  0.2791 -1.1838
   15CHTO    C2 6307   7.247   4.636   1.536  0.6814  0.0556  0.1253
   15CHTO   H15 6308   7.289   4.610   1.438  1.9924 -0.0697  0.7128
   15CHTO    O6 6309   7.255   4.778   1.552 -0.0268 -0.0376 -0.0925
   15CHTO    H1 6310   7.343   4.810   1.558  0.2564 -0.4768 -1.6875
   15CHTO    C3 6311   7.313   4.553   1.660 -0.3373  0.0417  0.4838
   15CHTO   H16 6312   7.273   4.589   1.756 -1.8830  1.3696 -0.6327
   15CHTO    N1 6313   7.464   4.578   1.669  0.0224  0.0324 -0.2611
   15CHTO    H8 6314   7.489   4.590   1.773  0.4890  0.0910 -0.3762
   15CHTO    H9 6315   7.498   4.669   1.621  0.3468 -1.1688 -2.4042
   15CHTO    C4 6316   7.283   4.400   1.648  0.7512  0.7517  0.2211
   15CHTO   H17 6317   7.336   4.359   1.562 -2.1090 -0.4200 -1.0201
   15CHTO    O1 6318   7.139   4.375   1.633  0.3505 -0.0784 -0.1863
   15CHTO    C5 6319   7.071   4.442   1.519 -0.1913  0.0856 -0.2239
   15CHTO   H18 6320   7.123   4.402   1.431 -1.2754  1.1465 -1.3694
   15CHTO   C16 6321   6.922   4.404   1.521 -0.3292 -0.2239 -0.3482
   15CHTO   O11 6322   6.913   4.261   1.492 -0.0297  0.1890 -0.4461
   15CHTO    H5 6323   6.883   4.245   1.405 -0.2349  0.9229 -0.5174
   15CHTO    O3 6324   7.313   4.322   1.766  0.7268  0.4932 -0.0376
   15CHTO    C6 6325   7.354   4.185   1.743  0.5771  0.2452 -0.2452
   15CHTO   H19 6326   7.326   4.156   1.642 -2.5426 -0.3072  0.7235
   15CHTO    C8 6327   7.505   4.156   1.746  0.1443  0.5799 -0.7717
   15CHTO   H21 6328   7.550   4.181   1.842  3.8143 -0.9830 -1.9663
   15CHTO    O7 6329   7.570   4.245   1.650  0.0603  0.5549 -0.0204
   15CHTO    H2 6330   7.660   4.257   1.673  0.6949 -2.1469 -0.8587
   15CHTO   C12 6331   7.530   3.997   1.724 -0.3597 -0.5431  0.3848
   15CHTO   H25 6332   7.510   3.979   1.616 -1.6981  1.2855  0.3023
   15CHTO    N3 6333   7.673   3.963   1.739 -0.2646  0.2678  0.1501
   15CHTO   H12 6334   7.734   4.052   1.744 -0.7373  0.8776 -3.4519
   15CHTO   H13 6335   7.684   3.914   1.835  1.6655  0.8316  0.2499
   15CHTO   C15 6336   7.432   3.900   1.801  0.7941 -0.5369 -0.5840
   15CHTO   H28 6337   7.462   3.893   1.906 -0.3777  1.1494 -0.1124
   15CHTO   O10 6338   7.411   3.764   1.726 -0.0804 -0.1288 -0.0661
   15CHTO    H4 6339   7.482   3.709   1.752  1.8552  2.1188 -0.4366
   15CHTO    O5 6340   7.297   3.953   1.795 -0.1692  0.8224 -0.1583
   15CHTO   C10 6341   7.274   4.087   1.835  0.0722 -0.0017 -0.0910
   15CHTO   H23 6342   7.315   4.099   1.936 -1.4505 -1.0897  0.6782
   15CHTO   C17 6343   7.122   4.111   1.854  0.6683  0.3125  0.5001
   15CHTO   O12 6344   7.036   4.093   1.741 -0.2459 -0.0405 -0.4520
   15CHTO    H6 6345   7.052   4.011   1.698 -0.2072  0.4113 -1.3053
   16CHTO  H203 6346   5.056   4.202   0.354  0.6121 -0.0242 -2.5506
   16CHTO   O82 6347   5.121   4.137   0.370  0.1252  0.2216  0.7186
   16CHTO  C123 6348   5.168   4.150   0.508 -0.2432  0.1130  0.0672
   16CHTO  H227 6349   5.085   4.140   0.579 -0.4865 -2.2174 -0.5071
   16CHTO   O77 6350   5.251   4.029   0.512  0.0736 -0.2452  0.4087
   16CHTO  C118 6351   5.317   4.001   0.633  0.2410 -0.1927 -0.8329
   16CHTO  H222 6352   5.241   4.000   0.713 -0.0938 -0.6813 -1.1567
   16CHTO  C125 6353   5.398   3.860   0.622 -0.1656  0.7233 -0.7120
   16CHTO   O84 6354   5.489   3.859   0.517 -0.6408  0.6288 -0.4960
   16CHTO  H205 6355   5.537   3.780   0.530 -1.6364 -0.1494 -1.4432
   16CHTO  C114 6356   5.417   4.125   0.662  0.4260  0.0288 -0.1661
   16CHTO  H218 6357   5.495   4.118   0.586  0.6096 -3.0321  0.2352
   16CHTO  C116 6358   5.346   4.254   0.677  0.0960  0.3188 -0.0844
   16CHTO  H220 6359   5.284   4.248   0.770  0.0253 -1.0953 -0.2016
   16CHTO   O79 6360   5.437   4.364   0.701  0.1444  0.0066 -0.2455
   16CHTO  H201 6361   5.398   4.449   0.695  0.7607  0.4559  1.9060
   16CHTO  C120 6362   5.261   4.277   0.541 -0.3533  0.3812 -0.0293
   16CHTO  H224 6363   5.336   4.294   0.460 -1.7009  0.2464 -1.3324
   16CHTO   N21 6364   5.184   4.404   0.552 -0.1071 -0.4076 -0.5900
   16CHTO  H211 6365   5.176   4.449   0.455  0.5174 -0.3832 -0.6336
   16CHTO  H212 6366   5.089   4.391   0.601 -0.8635  1.3921 -1.5556
   16CHTO   O75 6367   5.489   4.089   0.780  0.0466  0.4550  0.0153
   16CHTO  C112 6368   5.658   4.070   0.768  0.2604 -0.4387 -0.4057
   16CHTO  H216 6369   5.706   4.155   0.719 -0.2859  0.2103  0.1698
   16CHTO   O73 6370   5.687   3.946   0.702  0.7883 -0.3979 -0.6045
   16CHTO  C113 6371   5.830   3.923   0.684  0.3056 -0.4232 -0.1438
   16CHTO  H217 6372   5.871   4.012   0.631 -1.8380 -0.0673 -1.2701
   16CHTO  C124 6373   5.861   3.812   0.583  0.0839  0.4095 -0.4139
   16CHTO   O83 6374   5.801   3.686   0.611 -0.4042  0.0672  0.4419
   16CHTO  H204 6375   5.859   3.613   0.622 -0.0286  0.4942  1.3348
   16CHTO  C109 6376   5.885   3.903   0.821 -0.5757 -0.1769  0.1542
   16CHTO  H213 6377   5.827   3.827   0.875 -0.7328  0.6792  1.2158
   16CHTO  C110 6378   5.858   4.036   0.904  0.2569  0.6832  1.3493
   16CHTO  H214 6379   5.921   4.112   0.858  1.5145 -0.7049  0.7247
   16CHTO   O78 6380   5.923   4.028   1.033 -0.5296 -0.1371 -0.3105
   16CHTO  H200 6381   6.011   4.060   1.026 -2.0282  4.9855  1.8663
   16CHTO  C111 6382   5.710   4.068   0.913  0.1900  0.6101  0.7174
   16CHTO  H215 6383   5.663   3.987   0.972 -0.1583  2.1337  2.5746
   16CHTO   N19 6384   5.676   4.200   0.978 -0.6709  0.0797 -0.9057
   16CHTO  H207 6385   5.761   4.265   0.983 -1.0100  0.5778 -1.5912
   16CHTO  H208 6386   5.603   4.191   1.058 -2.2200 -0.7892 -2.3660
   16CHTO   O74 6387   6.023   3.865   0.820 -0.4446  0.1797 -0.3542
   16CHTO  C115 6388   6.058   3.754   0.922  0.2046 -0.4214  0.3932
   16CHTO  H219 6389   5.983   3.746   1.001  0.8705 -1.1480  0.9585
   16CHTO   O76 6390   6.056   3.604   0.846  0.0499 -0.4299  0.5723
   16CHTO  C122 6391   6.174   3.596   0.757 -0.7227 -0.5029 -0.5530
   16CHTO  H226 6392   6.165   3.683   0.692 -0.4797 -0.1207 -0.0781
   16CHTO  C126 6393   6.165   3.470   0.673 -0.5460 -0.9008  0.2956
   16CHTO   O85 6394   6.285   3.454   0.597  0.4512 -0.0293  0.0034
   16CHTO  H206 6395   6.279   3.385   0.534  0.8164 -0.5470  0.5376
   16CHTO  C121 6396   6.309   3.604   0.840  0.2831 -0.2975  0.1248
   16CHTO  H225 6397   6.349   3.501   0.846 -0.5426 -0.7532 -1.8672
   16CHTO   O81 6398   6.397   3.676   0.763 -0.2784 -0.2620  0.3582
   16CHTO  H202 6399   6.398   3.641   0.676 -0.8073  0.7329 -0.0486
   16CHTO  C119 6400   6.298   3.671   0.982 -0.1202 -0.3876 -0.7106
   16CHTO  H223 6401   6.249   3.594   1.042  1.3996 -0.4347  0.5094
   16CHTO  C117 6402   6.202   3.797   0.980  0.0962 -0.1613  0.5978
   16CHTO  H221 6403   6.227   3.885   0.920  1.2314 -0.1968  1.0065
   16CHTO   N20 6404   6.184   3.848   1.116  0.4352 -0.5870 -0.0742
   16CHTO  H209 6405   6.161   3.953   1.110  0.1455 -0.7040 -0.9991
   16CHTO  H210 6406   6.114   3.795   1.179  0.1670  0.5360  0.5791
   16CHTO   O80 6407   6.437   3.681   1.054  0.4972 -0.4842  0.1713
   16CHTO  C103 6408   6.530   3.547   1.063 -0.0028  0.2792  0.0401
   16CHTO  H190 6409   6.470   3.462   1.033  0.2004 -0.1168  0.7201
   16CHTO  C101 6410   6.676   3.563   0.992 -0.3139  0.7724 -0.3843
   16CHTO  H188 6411   6.733   3.635   1.049 -0.9558  1.9463 -1.1977
   16CHTO   O68 6412   6.648   3.602   0.837  0.1835 -0.2700 -0.6736
   16CHTO  H168 6413   6.560   3.581   0.813  0.6078 -3.3636  0.3100
   16CHTO   C99 6414   6.746   3.426   1.001 -0.7776  0.3067  0.2337
   16CHTO  H186 6415   6.690   3.350   0.942 -0.5161  1.2103 -1.2045
   16CHTO   N17 6416   6.882   3.418   0.937  0.2455 -0.1590  0.1245
   16CHTO  H174 6417   6.859   3.392   0.835  0.2620 -0.9172  0.3081
   16CHTO  H175 6418   6.934   3.336   0.984  0.4001  0.5012  1.1238
   16CHTO   C97 6419   6.761   3.366   1.145 -0.2915  0.5470 -0.5585
   16CHTO  H184 6420   6.850   3.411   1.191  1.7543 -1.0824 -2.8107
   16CHTO   O64 6421   6.643   3.388   1.221  0.4854 -0.9539  0.0820
   16CHTO  C104 6422   6.569   3.512   1.210  0.1431 -0.0013  0.6749
   16CHTO  H191 6423   6.625   3.597   1.250 -0.7388  1.0035 -0.1862
   16CHTO  C108 6424   6.441   3.510   1.293 -0.6188  0.3407 -0.2703
   16CHTO   O71 6425   6.366   3.395   1.265  0.3636  0.1149  0.7645
   16CHTO  H171 6426   6.335   3.352   1.343  2.1667 -0.8537  0.9743
   16CHTO   O62 6427   6.780   3.223   1.131  0.7360 -0.4030 -0.0673
   16CHTO   C91 6428   6.813   3.161   1.249  0.3393 -0.4004 -0.4588
   16CHTO  H178 6429   6.817   3.234   1.330 -2.1070 -0.6958 -0.0489
   16CHTO   C92 6430   6.962   3.111   1.247 -0.0955  0.0073 -0.0452
   16CHTO  H179 6431   6.980   3.040   1.165  2.5783  1.8242 -1.1476
   16CHTO   O66 6432   7.060   3.210   1.210 -0.4155 -0.2392  0.0836
   16CHTO  H166 6433   7.051   3.239   1.121 -1.8488 -0.4369  0.1570
   16CHTO   C93 6434   7.002   3.043   1.386  0.5501  0.3386 -0.1227
   16CHTO  H180 6435   7.023   3.125   1.457 -0.7364  0.7183 -0.1754
   16CHTO   N16 6436   7.127   2.974   1.381 -0.5157 -0.3016  0.0568
   16CHTO  H172 6437   7.166   2.943   1.477  0.1795 -1.1562 -0.4883
   16CHTO  H173 6438   7.207   3.014   1.320 -2.1170 -1.5006 -2.9390
   16CHTO   C94 6439   6.882   2.949   1.448  0.3564  0.4341  0.1215
   16CHTO  H181 6440   6.872   2.855   1.393 -0.9609  0.2110  0.7222
   16CHTO   O61 6441   6.749   3.007   1.432 -0.6018  0.5727 -0.1068
   16CHTO   C95 6442   6.720   3.046   1.292  0.6496  0.1565  0.2872
   16CHTO  H182 6443   6.732   2.962   1.223 -3.2886 -0.1779 -0.1038
   16CHTO  C106 6444   6.572   3.081   1.283  0.3740  0.3432  0.2523
   16CHTO   O69 6445   6.494   2.964   1.279 -0.1658  0.0046  0.2987
   16CHTO  H169 6446   6.477   2.949   1.370  0.7658 -0.8341  0.3365
   16CHTO   O63 6447   6.902   2.911   1.600 -0.4045  0.6830 -0.3659
   16CHTO   C96 6448   6.786   2.796   1.660 -0.8708 -0.5477 -0.1403
   16CHTO  H183 6449   6.823   2.747   1.750 -2.7353 -0.0342  0.9430
   16CHTO   C98 6450   6.726   2.693   1.558 -0.2592 -0.4404  0.0271
   16CHTO  H185 6451   6.716   2.736   1.457  0.7425 -2.1531 -0.8283
   16CHTO   O67 6452   6.830   2.596   1.551  0.0163  0.0780  0.2945
   16CHTO  H167 6453   6.911   2.639   1.530 -0.5645  0.0278 -2.2304
   16CHTO  C102 6454   6.587   2.632   1.604  0.5413 -0.1523 -0.1141
   16CHTO  H189 6455   6.612   2.580   1.698  0.8199 -0.0972 -0.1558
   16CHTO   N18 6456   6.525   2.532   1.506 -0.1048 -0.1875  0.2538
   16CHTO  H176 6457   6.578   2.541   1.412 -1.2624 -0.6275 -0.4473
   16CHTO  H177 6458   6.513   2.431   1.542 -1.9183 -0.4212 -0.9546
   16CHTO  C105 6459   6.497   2.755   1.634  0.3755  0.9892 -0.0001
   16CHTO  H192 6460   6.498   2.821   1.547 -3.3466 -1.1082 -1.7808
   16CHTO   O65 6461   6.548   2.833   1.739 -0.3578  0.0428  0.3163
   16CHTO  C100 6462   6.669   2.897   1.713 -0.2870 -0.1700 -0.7760
   16CHTO  H187 6463   6.643   2.974   1.638  1.5245  0.1576 -1.0781
   16CHTO  C107 6464   6.710   2.975   1.833  0.0576 -0.0884 -0.1340
   16CHTO   O70 6465   6.750   2.884   1.942 -0.6152 -0.5403  0.1537
   16CHTO  H170 6466   6.843   2.871   1.931 -0.6228  1.0216 -1.9574
   16CHTO   O57 6467   6.341   2.711   1.665  0.0678  0.1676 -0.4941
   16CHTO   C85 6468   6.248   2.772   1.579  0.9707 -0.6005  0.4535
   16CHTO  H157 6469   6.286   2.740   1.480 -0.2778  0.0449 -0.2550
   16CHTO   C83 6470   6.249   2.925   1.574 -0.7235  0.4886 -0.1537
   16CHTO  H155 6471   6.346   2.955   1.534 -1.5573  0.6679 -2.1077
   16CHTO   O56 6472   6.236   2.987   1.704  0.4172  0.5126  0.0054
   16CHTO  H135 6473   6.162   2.956   1.753  1.0135  0.4008  0.8586
   16CHTO   C81 6474   6.143   2.977   1.475 -0.2155  0.3593 -0.1865
   16CHTO  H153 6475   6.166   2.935   1.377 -0.1639  1.3212 -0.5873
   16CHTO   N14 6476   6.156   3.125   1.442 -0.2526  0.0741 -0.3866
   16CHTO  H141 6477   6.256   3.161   1.428 -0.0002 -0.2463  0.5171
   16CHTO  H142 6478   6.116   3.178   1.526 -1.0301 -0.4084 -0.4464
   16CHTO   C79 6479   5.995   2.934   1.513 -0.2880  0.1023 -0.4527
   16CHTO  H151 6480   5.931   2.959   1.428  0.8556  1.8903 -0.8001
   16CHTO   O52 6481   5.986   2.791   1.525  0.0623 -0.4000  0.1333
   16CHTO   C86 6482   6.098   2.732   1.598 -0.1220  0.1232 -0.1888
   16CHTO  H158 6483   6.070   2.746   1.705  0.4652  0.1981 -0.0410
   16CHTO   C90 6484   6.086   2.579   1.572  0.2617 -0.0129  0.2528
   16CHTO   O60 6485   5.955   2.526   1.606  0.9509 -0.3092 -0.7387
   16CHTO  H138 6486   5.969   2.436   1.627 -0.3705 -0.0546  1.4380
   16CHTO   O50 6487   5.943   3.003   1.629 -0.3792 -0.3499 -0.2308
   16CHTO   C73 6488   5.835   2.960   1.714  0.6437  0.7456 -0.5278
   16CHTO  H145 6489   5.838   2.853   1.740 -1.4824  0.2347 -2.1553
   16CHTO   C74 6490   5.693   2.989   1.652 -0.7368  0.1980 -0.6551
   16CHTO  H146 6491   5.696   2.930   1.559  0.0905 -0.6473 -0.0966
   16CHTO   O54 6492   5.590   2.922   1.725  0.3415 -0.2809 -0.3407
   16CHTO  H133 6493   5.500   2.949   1.717  0.2691 -0.2512  0.5233
   16CHTO   C75 6494   5.659   3.145   1.623 -0.5709 -0.2492  0.7197
   16CHTO  H147 6495   5.737   3.180   1.554  0.8067 -2.4756  1.0761
   16CHTO   N13 6496   5.538   3.168   1.547 -0.1068 -0.5487 -0.1197
   16CHTO  H139 6497   5.479   3.078   1.541 -0.4444 -0.2151 -1.9124
   16CHTO  H140 6498   5.571   3.201   1.449 -1.4046  1.0189 -0.0481
   16CHTO   C76 6499   5.671   3.227   1.750  0.3442 -0.1056  0.4545
   16CHTO  H148 6500   5.578   3.214   1.807 -1.5105  0.6423 -2.3215
   16CHTO   O49 6501   5.791   3.189   1.833  0.1258  0.2710 -0.4198
   16CHTO   C77 6502   5.836   3.050   1.846 -0.2198  0.6366 -0.6382
   16CHTO  H149 6503   5.765   3.009   1.917  0.0574 -1.1806 -1.3937
   16CHTO   C88 6504   5.967   3.058   1.914 -0.0648  0.1414 -0.3643
   16CHTO   O58 6505   5.962   3.100   2.041  0.1427 -0.1416  0.1162
   16CHTO  H136 6506   5.925   3.186   2.040 -1.3753 -0.7932 -1.5147
   16CHTO   O51 6507   5.700   3.385   1.717 -0.3613  0.3688 -0.2941
   16CHTO   C78 6508   5.635   3.467   1.846 -0.2344 -0.2083  0.4029
   16CHTO  H150 6509   5.609   3.400   1.931  1.9719 -0.3410  0.9993
   16CHTO   C80 6510   5.499   3.530   1.791 -0.4415 -0.8587 -0.0856
   16CHTO  H152 6511   5.527   3.584   1.698  0.2562 -1.0911 -0.0176
   16CHTO   O55 6512   5.419   3.420   1.755 -0.1990 -0.1706 -0.3647
   16CHTO  H134 6513   5.420   3.406   1.662 -0.3879 -0.5312 -0.3133
   16CHTO   C84 6514   5.434   3.630   1.889 -0.4811  0.5706 -0.1253
   16CHTO  H156 6515   5.389   3.570   1.968  2.0523 -0.4089  0.6014
   16CHTO   N15 6516   5.319   3.707   1.836 -0.0906 -0.6612 -0.0191
   16CHTO  H143 6517   5.350   3.782   1.767  1.0199 -1.0614  0.0332
   16CHTO  H144 6518   5.266   3.760   1.912  0.2524  2.4170 -1.8287
   16CHTO   C87 6519   5.535   3.721   1.959  0.4245  0.2599 -0.4016
   16CHTO  H159 6520   5.566   3.803   1.894 -0.5502  0.5012 -0.5693
   16CHTO   O53 6521   5.656   3.645   2.008  0.2556 -0.2352  0.2624
   16CHTO   C82 6522   5.727   3.573   1.902  0.4244  0.0383  0.3995
   16CHTO  H154 6523   5.752   3.649   1.828 -1.4901 -0.9738 -1.3480
   16CHTO   C89 6524   5.858   3.517   1.950 -1.2738  0.7810 -0.0789
   16CHTO   O59 6525   5.946   3.476   1.847  0.1424 -0.4863  0.5572
   16CHTO  H137 6526   5.925   3.387   1.827 -1.9464 -0.0715  0.8224
   16CHTO   O45 6527   5.469   3.783   2.101 -0.4662 -0.0243 -0.9460
   16CHTO   C67 6528   5.559   3.870   2.176 -0.1447 -0.0392 -0.1297
   16CHTO  H124 6529   5.657   3.868   2.128  0.0376  0.5758  0.2061
   16CHTO   C65 6530   5.501   4.014   2.168  0.4580  0.2585  0.2609
   16CHTO  H122 6531   5.392   4.016   2.167  0.4844  2.8315 -0.2894
   16CHTO   O44 6532   5.554   4.074   2.044  0.3312 -0.4125 -0.3658
   16CHTO  H102 6533   5.593   4.157   2.063  1.5366 -1.1975  0.6400
   16CHTO   C63 6534   5.537   4.112   2.295 -0.4325 -1.4925 -0.3694
   16CHTO  H120 6535   5.479   4.077   2.381 -0.4586 -0.8555 -0.1236
   16CHTO   N11 6536   5.508   4.266   2.287 -0.4991  0.5972 -0.4297
   16CHTO  H108 6537   5.475   4.300   2.191  0.1114 -0.4602 -1.0240
   16CHTO  H109 6538   5.590   4.326   2.321 -0.4349  0.1449  0.2123
   16CHTO   C61 6539   5.685   4.072   2.336  0.3997  0.0393 -0.1469
   16CHTO  H118 6540   5.714   4.132   2.424 -0.2266 -0.1139  0.1682
   16CHTO   O40 6541   5.687   3.926   2.373  0.2605  0.5300 -0.2850
   16CHTO   C68 6542   5.580   3.834   2.330  0.1430 -0.0199  0.1747
   16CHTO  H125 6543   5.493   3.863   2.393  0.4598 -0.8389  1.0104
   16CHTO   C72 6544   5.615   3.686   2.365 -0.3606  0.3065  0.1904
   16CHTO   O48 6545   5.500   3.601   2.353 -0.2956  0.0451  0.5885
   16CHTO  H105 6546   5.430   3.621   2.412 -1.5623 -1.7541 -0.2569
   16CHTO   O38 6547   5.783   4.097   2.232 -0.1568  0.2040 -0.5295
   16CHTO   C55 6548   5.916   4.082   2.280  0.4579  0.1373 -0.6510
   16CHTO  H112 6549   5.932   4.025   2.372  2.5560  0.8618 -0.5459
   16CHTO   C56 6550   5.977   4.223   2.287 -0.1712 -0.5800  0.1862
   16CHTO  H113 6551   5.945   4.278   2.198  0.7177 -1.0381 -0.4201
   16CHTO   O42 6552   5.909   4.291   2.394 -0.4413  0.2367 -0.3587
   16CHTO  H100 6553   5.955   4.369   2.417  1.1618 -0.5839 -0.6526
   16CHTO   C57 6554   6.135   4.229   2.309 -0.0247  0.8117 -0.0277
   16CHTO  H114 6555   6.143   4.195   2.412  0.1542  2.3922  0.5009
   16CHTO   N10 6556   6.191   4.366   2.298 -0.3539  0.2613  0.0845
   16CHTO  H106 6557   6.133   4.423   2.226  0.3784  0.4101 -0.3885
   16CHTO  H107 6558   6.187   4.415   2.394  0.2281  1.0918 -0.3030
   16CHTO   C58 6559   6.210   4.131   2.208  0.1891 -0.2801 -0.3571
   16CHTO  H115 6560   6.192   4.173   2.107 -0.5372  2.0993  0.7297
   16CHTO   O37 6561   6.142   4.003   2.218 -0.2958  0.2256 -0.4989
   16CHTO   C59 6562   6.005   4.008   2.172  0.2613  0.3020  0.7430
   16CHTO  H116 6563   6.002   4.055   2.074 -1.3843 -1.2569  0.0032
   16CHTO   C70 6564   5.960   3.863   2.158 -0.1320  0.8233  0.0173
   16CHTO   O46 6565   6.030   3.789   2.058  0.5967  0.4639  0.2919
   16CHTO  H103 6566   6.071   3.848   1.997  2.7212  1.0179  2.1967
   16CHTO   O39 6567   6.366   4.099   2.231  0.1904 -0.3730  0.6336
   16CHTO   C60 6568   6.435   4.038   2.118  0.5173  0.7807 -0.7462
   16CHTO  H117 6569   6.365   3.994   2.046 -2.1353  3.0222  0.3450
   16CHTO   C62 6570   6.533   4.142   2.034 -0.9571  0.1180  0.1551
   16CHTO  H119 6571   6.462   4.216   1.991 -3.0240 -0.8347  1.7937
   16CHTO   O43 6572   6.619   4.199   2.130  0.2937 -0.8340  0.2733
   16CHTO  H101 6573   6.682   4.132   2.150 -0.7446 -1.6274  0.9468
   16CHTO   C66 6574   6.620   4.061   1.917  0.3200 -0.1104 -0.4003
   16CHTO  H123 6575   6.558   4.017   1.839 -0.1705  0.7905 -0.5267
   16CHTO   N12 6576   6.696   4.156   1.829  0.3353 -0.1874  0.2954
   16CHTO  H110 6577   6.643   4.189   1.741  2.7984  0.3850 -1.0285
   16CHTO  H111 6578   6.729   4.242   1.885 -0.3326 -0.0417  0.4605
   16CHTO   C69 6579   6.695   3.950   1.985  0.1343  0.3205 -0.9319
   16CHTO  H126 6580   6.761   3.997   2.062 -1.7453 -0.7553  1.3979
   16CHTO   O41 6581   6.595   3.860   2.059  0.1760  0.3773  0.2935
   16CHTO   C64 6582   6.527   3.922   2.170 -0.3787 -0.0526  0.1734
   16CHTO  H121 6583   6.601   3.961   2.243 -0.2635 -1.6429  0.9325
   16CHTO   C71 6584   6.449   3.806   2.238  0.4243 -0.1272 -0.3578
   16CHTO   O47 6585   6.399   3.849   2.363 -0.3350 -0.0330 -0.0220
   16CHTO  H104 6586   6.461   3.876   2.428  0.2153  1.5610 -1.1839
   16CHTO   O34 6587   6.778   3.863   1.888 -0.4567 -0.0822 -0.1980
   16CHTO   C49 6588   6.858   3.741   1.822  0.2144 -0.0813 -0.0161
   16CHTO   H91 6589   6.903   3.779   1.730 -0.3917  0.0404 -0.2576
   16CHTO   C47 6590   6.770   3.620   1.790 -0.6424  0.2889 -0.3194
   16CHTO   H89 6591   6.826   3.543   1.733 -0.4389  1.1628 -1.2953
   16CHTO   O33 6592   6.657   3.667   1.708 -0.0397  0.8821  0.6765
   16CHTO   H70 6593   6.671   3.636   1.621 -1.0524  0.8247  0.5347
   16CHTO   C45 6594   6.723   3.554   1.930 -0.0369 -0.3049 -0.3214
   16CHTO   H87 6595   6.677   3.632   1.993  2.7042  0.9205  0.2414
   16CHTO    N8 6596   6.623   3.444   1.919  0.7089 -0.2492  0.7396
   16CHTO   H75 6597   6.612   3.395   2.015  0.8188 -2.9363 -0.5561
   16CHTO   H76 6598   6.528   3.489   1.894  1.6121  0.6298 -1.2624
   16CHTO   C43 6599   6.858   3.518   2.011 -0.8170  0.0095 -0.2255
   16CHTO   H85 6600   6.829   3.474   2.106  0.2647  2.2508  1.1687
   16CHTO   O29 6601   6.940   3.635   2.030 -0.0791  0.4525 -0.0902
   16CHTO   C50 6602   6.977   3.713   1.920  0.0336  0.1156 -0.1417
   16CHTO   H92 6603   7.007   3.807   1.969  1.1170 -0.3558  0.1137
   16CHTO   C54 6604   7.097   3.659   1.835  0.2731  0.3888 -0.3155
   16CHTO   O36 6605   7.215   3.644   1.927  0.0767 -0.1676 -0.7529
   16CHTO   H72 6606   7.231   3.551   1.926  1.9820  0.1229  0.3137
   16CHTO   O27 6607   6.936   3.420   1.951  0.4943  0.5369 -0.0599
   16CHTO   C37 6608   7.031   3.318   1.990 -0.1476  0.6462 -0.7230
   16CHTO   H79 6609   7.134   3.358   1.989  1.0043 -2.1766  1.3014
   16CHTO   C38 6610   7.016   3.260   2.130 -0.2077 -0.0521 -0.2668
   16CHTO   H80 6611   6.910   3.236   2.145 -0.1099 -0.4861 -0.2855
   16CHTO   O31 6612   7.048   3.383   2.204  0.0045  0.1353  0.3260
   16CHTO   H68 6613   6.970   3.432   2.223 -0.2885  0.0218 -0.5573
   16CHTO   C39 6614   7.105   3.140   2.167 -0.9554  0.1560  0.5285
   16CHTO   H81 6615   7.203   3.186   2.164 -0.1251 -1.6083 -0.0886
   16CHTO    N7 6616   7.075   3.091   2.310  0.6583 -0.3201  0.1102
   16CHTO   H73 6617   7.121   2.997   2.337  0.4414 -0.6805 -0.7516
   16CHTO   H74 6618   6.969   3.086   2.330  0.9222 -1.4816  1.3203
   16CHTO   C40 6619   7.103   3.028   2.058  0.0233  0.4732  0.0062
   16CHTO   H82 6620   7.014   2.965   2.062  2.4840 -3.1222  0.7465
   16CHTO   O26 6621   7.124   3.095   1.928  0.2176 -0.2269 -0.6586
   16CHTO   C41 6622   7.019   3.193   1.895 -0.0205 -0.3552 -0.1956
   16CHTO   H83 6623   6.924   3.140   1.909  0.0632 -0.7875 -1.2173
   16CHTO   C52 6624   7.036   3.240   1.748 -0.2570 -0.1098 -0.5145
   16CHTO   O35 6625   6.924   3.282   1.691  0.0083 -0.5197 -0.5576
   16CHTO   H71 6626   6.939   3.368   1.656  0.7023  0.5657  2.2438
   16CHTO   O28 6627   7.224   2.943   2.075  0.3203  0.3897  0.2946
   16CHTO   C42 6628   7.225   2.812   2.011  0.1464 -0.3600  0.2279
   16CHTO   H84 6629   7.324   2.768   2.018  1.3077  2.1210 -0.2176
   16CHTO   C44 6630   7.194   2.814   1.859 -0.2188 -0.5482  0.6665
   16CHTO   H86 6631   7.105   2.875   1.841 -0.4598 -1.1631 -0.2799
   16CHTO   O32 6632   7.303   2.890   1.801 -1.0429 -0.7502 -0.0346
   16CHTO   H69 6633   7.279   2.923   1.717 -0.5697 -1.3394 -0.4118
   16CHTO   C48 6634   7.185   2.669   1.793 -0.3334  0.3904 -0.0583
   16CHTO   H90 6635   7.281   2.617   1.782  0.4465  1.8474 -0.2904
   16CHTO    N9 6636   7.154   2.677   1.644 -0.0964  0.1838  0.1793
   16CHTO   H77 6637   7.059   2.722   1.619 -0.1893  0.1398  0.4538
   16CHTO   H78 6638   7.157   2.576   1.605 -0.7230 -0.1051  0.8713
   16CHTO   C51 6639   7.089   2.575   1.871  0.6777  0.2698  0.1188
   16CHTO   H93 6640   6.988   2.616   1.864  0.8459  0.9070  1.2533
   16CHTO   O30 6641   7.134   2.574   2.007 -0.2729 -0.9893  0.2111
   16CHTO   C46 6642   7.126   2.711   2.072  0.6159  0.1663  0.5527
   16CHTO   H88 6643   7.025   2.753   2.067  1.0281  1.0622 -0.5380
   16CHTO   C53 6644   7.156   2.678   2.217 -0.8625 -0.1926  0.2295
   16CHTO   O72 6645   7.294   2.641   2.244 -0.1156  0.2132 -0.2728
   16CHTO  H199 6646   7.298   2.597   2.326 -1.2088  0.8879  0.1630
   16CHTO   O22 6647   7.092   2.438   1.813 -0.0669 -0.4491 -0.5680
   16CHTO   C31 6648   6.993   2.331   1.850  0.2804  0.1616  0.8730
   16CHTO   H59 6649   6.962   2.359   1.953  0.9102  0.1418  1.0741
   16CHTO   C29 6650   6.864   2.327   1.767  0.3579 -0.1328  0.1185
   16CHTO   H57 6651   6.904   2.302   1.668  0.9098  1.1500  0.0066
   16CHTO   O21 6652   6.803   2.456   1.759 -0.0151  0.0265  0.3200
   16CHTO   H37 6653   6.865   2.519   1.728 -0.4500 -0.6567 -1.9958
   16CHTO   C27 6654   6.758   2.217   1.808 -0.1860 -0.0604  0.4023
   16CHTO   H55 6655   6.708   2.256   1.898 -1.2701  0.1682 -0.2789
   16CHTO    N5 6656   6.659   2.202   1.696  0.3661 -0.2735 -0.7875
   16CHTO   H43 6657   6.619   2.101   1.699 -2.5217  0.8443 -0.8183
   16CHTO   H44 6658   6.637   2.289   1.637  1.1135 -0.0299 -0.7066
   16CHTO   C25 6659   6.827   2.082   1.833 -0.2456  0.0597  0.5729
   16CHTO   H53 6660   6.853   2.041   1.734 -0.4409 -1.1596  1.0283
   16CHTO   O17 6661   6.951   2.100   1.913  0.3611  0.0024  0.3321
   16CHTO   C32 6662   7.048   2.183   1.856  0.0427  0.0212  1.1451
   16CHTO   H60 6663   7.073   2.154   1.753 -0.1579 -0.6790  1.2900
   16CHTO   C36 6664   7.176   2.165   1.943 -0.0974 -0.3103  0.6657
   16CHTO   O25 6665   7.156   2.218   2.072 -0.2374  0.6180  0.0922
   16CHTO   H40 6666   7.111   2.157   2.127 -1.7132 -0.2844 -2.0573
   16CHTO   O15 6667   6.731   1.994   1.922  0.0880  0.1758 -0.0687
   16CHTO   C19 6668   6.646   1.980   2.034  0.4464 -0.2328 -0.7265
   16CHTO   H47 6669   6.662   1.881   2.079 -1.7999 -1.1610 -1.8798
   16CHTO   C20 6670   6.672   2.082   2.144 -0.2197 -0.0586 -0.3018
   16CHTO   H48 6671   6.669   2.185   2.105  1.8818  0.5130  0.9466
   16CHTO   O19 6672   6.806   2.073   2.191 -0.2072  0.3996  0.7094
   16CHTO   H35 6673   6.821   2.022   2.268  0.2395 -0.1154  0.2863
   16CHTO   C21 6674   6.555   2.067   2.255  0.0581 -0.4277  0.4358
   16CHTO   H49 6675   6.560   1.970   2.304 -0.6775 -0.9255 -0.4554
   16CHTO    N4 6676   6.570   2.172   2.362 -0.4784  0.2696 -0.1873
   16CHTO   H41 6677   6.654   2.150   2.426 -0.6387 -2.1631 -0.7318
   16CHTO   H42 6678   6.481   2.184   2.423 -1.1920  0.4606 -1.2492
   16CHTO   C22 6679   6.415   2.060   2.191  0.0619 -0.2947 -0.0375
   16CHTO   H50 6680   6.383   2.155   2.147 -4.1942 -0.9494  1.4200
   16CHTO   O14 6681   6.410   1.957   2.092  0.0956  0.1269  0.0941
   16CHTO   C23 6682   6.499   1.978   1.983  0.1808  0.2227  0.1578
   16CHTO   H51 6683   6.474   2.070   1.928 -0.4223 -0.0170  0.0264
   16CHTO   C34 6684   6.474   1.863   1.882 -0.5993  0.9828  0.1638
   16CHTO   O23 6685   6.499   1.730   1.932  0.4352 -0.3949  0.8775
   16CHTO   H38 6686   6.590   1.707   1.936  1.3835  2.8627 -0.1516
   16CHTO   O16 6687   6.322   2.022   2.289  0.8603 -0.5475 -0.7929
   16CHTO   C24 6688   6.165   2.097   2.267 -0.5637 -0.0988  0.7120
   16CHTO   H52 6689   6.152   2.134   2.165 -0.9289  0.1623  0.8524
   16CHTO   C26 6690   6.149   2.217   2.364  0.3252  0.4926 -0.5951
   16CHTO   H54 6691   6.174   2.181   2.466 -0.2090 -1.0953 -1.0113
   16CHTO   O20 6692   6.240   2.324   2.331 -0.0856 -0.0368 -0.3370
   16CHTO   H36 6693   6.327   2.289   2.338 -0.6560 -1.3727  0.2140
   16CHTO   C30 6694   6.003   2.263   2.369 -0.7427 -0.2736  0.1702
   16CHTO   H58 6695   5.970   2.315   2.278  2.2505  0.3587 -0.5886
   16CHTO    N6 6696   5.977   2.357   2.484 -0.5035  0.4971  0.3541
   16CHTO   H45 6697   6.031   2.447   2.459  0.5573 -0.6588 -1.5475
   16CHTO   H46 6698   5.873   2.385   2.495 -0.1134  2.0018  0.3345
   16CHTO   C33 6699   5.906   2.141   2.379 -0.3957 -0.0498  0.0659
   16CHTO   H61 6700   5.916   2.091   2.477  0.5096  3.1553  1.6670
   16CHTO   O18 6701   5.929   2.045   2.277 -0.6484 -0.1696 -1.1279
   16CHTO   C28 6702   6.060   1.988   2.287  0.0835  0.1543  0.2871
   16CHTO   H56 6703   6.077   1.943   2.385  3.2129 -1.1391 -0.7916
   16CHTO   C35 6704   6.070   1.894   2.164 -0.3308 -0.0215 -0.4302
   16CHTO   O24 6705   6.173   1.797   2.181 -0.2950 -0.5618 -0.3970
   16CHTO   H39 6706   6.254   1.833   2.151 -1.3766  1.2506 -1.2367
   16CHTO    O9 6707   5.767   2.183   2.380 -0.8271  0.0763 -0.1350
   16CHTO   C13 6708   5.659   2.091   2.491  0.0319  0.6263  0.2602
   16CHTO   H26 6709   5.694   2.098   2.596  0.3226 -3.5661  0.5142
   16CHTO   C11 6710   5.657   1.943   2.439  0.1402  0.3977 -0.3354
   16CHTO   H24 6711   5.754   1.893   2.454 -1.6368 -2.6613  1.7361
   16CHTO    O8 6712   5.641   1.934   2.299 -0.9527 -0.1593  0.2084
   16CHTO    H3 6713   5.562   1.981   2.282  0.5967  2.6662  0.4337
   16CHTO    C9 6714   5.552   1.860   2.516 -0.2469 -0.5254  0.1619
   16CHTO   H22 6715   5.588   1.869   2.620  0.8082  1.6004 -0.3595
   16CHTO    N2 6716   5.555   1.711   2.479  0.1953  0.7903 -0.3094
   16CHTO   H10 6717   5.555   1.697   2.372  0.1662 -1.4210 -0.0595
   16CHTO   H11 6718   5.634   1.657   2.530  2.0827  3.4556 -0.3382
   16CHTO    C7 6719   5.414   1.923   2.483  0.2636  0.0035 -0.4428
   16CHTO   H20 6720   5.344   1.864   2.545 -0.1656 -0.0585 -0.9840
   16CHTO    O4 6721   5.414   2.064   2.532  0.3430  0.0424 -0.3466
   16CHTO   C14 6722   5.520   2.160   2.494  0.0033  1.0340 -1.0182
   16CHTO   H27 6723   5.532   2.245   2.563  1.1814  0.6343 -0.7167
   16CHTO   C18 6724   5.480   2.219   2.355 -0.2250  0.4341  0.0890
   16CHTO   O13 6725   5.563   2.322   2.305 -0.2974  0.0621 -0.1916
   16CHTO    H7 6726   5.651   2.290   2.308 -0.1584  0.5766  1.0928
   16CHTO    O2 6727   5.371   1.921   2.317 -0.2701  0.0964 -0.1113
   16CHTO    C1 6728   5.237   1.917   2.269  0.4706 -0.5427  0.0523
   16CHTO   H14 6729   5.226   1.955   2.166 -0.3358  1.8202  0.9663
   16CHTO    C2 6730   5.132   1.989   2.361  0.8745  0.5151 -0.3202
   16CHTO   H15 6731   5.158   1.968   2.466 -1.4807 -1.1920 -0.0373
   16CHTO    O6 6732   5.144   2.134   2.350 -0.1061  0.4134  0.3344
   16CHTO    H1 6733   5.150   2.167   2.262 -1.2913 -0.1992  0.0170
   16CHTO    C3 6734   4.972   1.944   2.337 -0.0261 -0.5189  0.6876
   16CHTO   H16 6735   4.938   1.990   2.244 -0.4671 -0.6236  0.7942
   16CHTO    N1 6736   4.883   1.999   2.448  0.1671 -0.5483  0.4763
   16CHTO    H8 6737   4.922   1.976   2.546 -0.0880  0.5191  0.8367
   16CHTO    H9 6738   4.863   2.104   2.434  0.4792 -0.5960 -0.3769
   16CHTO    C4 6739   4.961   1.786   2.319  1.2237 -0.1101 -0.1245
   16CHTO   H17 6740   4.983   1.733   2.412 -1.4398 -2.1348 -0.5412
   16CHTO    O1 6741   5.060   1.742   2.222  0.0359 -0.7208  0.0285
   16CHTO    C5 6742   5.195   1.765   2.264 -0.7130 -0.0086  0.0419
   16CHTO   H18 6743   5.210   1.707   2.354  1.9582 -1.6191 -1.3675
   16CHTO   C16 6744   5.287   1.700   2.151 -0.2675  0.3008  0.2491
   16CHTO   O11 6745   5.286   1.555   2.162  0.9307 -0.1086 -0.0795
   16CHTO    H5 6746   5.206   1.534   2.117  0.5274  1.3894 -0.1101
   16CHTO    O3 6747   4.832   1.751   2.275 -0.9787  0.3066 -0.3707
   16CHTO    C6 6748   4.787   1.618   2.302  0.4079  0.2430 -0.8251
   16CHTO   H19 6749   4.861   1.546   2.337 -0.6027 -0.2321  0.3748
   16CHTO    C8 6750   4.672   1.609   2.407  0.5677  0.0391  0.3879
   16CHTO   H21 6751   4.576   1.647   2.371  1.2227  2.1746  0.7691
   16CHTO    O7 6752   4.720   1.683   2.522 -0.0845 -0.0678  0.1438
   16CHTO    H2 6753   4.649   1.732   2.557  0.6723  2.0094 -1.1527
   16CHTO   C12 6754   4.640   1.465   2.435 -0.2085  0.0780 -0.5804
   16CHTO   H25 6755   4.728   1.418   2.483  0.6521  2.2583  0.0420
   16CHTO    N3 6756   4.529   1.454   2.542  0.2943  0.4829  0.2968
   16CHTO   H12 6757   4.469   1.366   2.525  0.9069  0.2715 -0.8201
   16CHTO   H13 6758   4.586   1.441   2.633  0.4158  0.5209  0.2256
   16CHTO   C15 6759   4.607   1.389   2.295  0.7262 -0.0013 -1.4624
   16CHTO   H28 6760   4.513   1.430   2.257  0.6764  0.4747 -0.8336
   16CHTO   O10 6761   4.608   1.244   2.298  0.1190  0.4471 -0.5864
   16CHTO    H4 6762   4.597   1.204   2.214  2.1282  1.0672 -1.1715
   16CHTO    O5 6763   4.692   1.418   2.189  0.3759 -0.5146 -0.0689
   16CHTO   C10 6764   4.736   1.555   2.167 -0.2662  0.1119 -0.4632
   16CHTO   H23 6765   4.646   1.608   2.135 -0.7260  1.2901  2.6199
   16CHTO   C17 6766   4.833   1.568   2.052  0.1241  0.4980  0.0487
   16CHTO   O12 6767   4.772   1.517   1.929 -0.5176  0.2811 -0.0621
   16CHTO    H6 6768   4.835   1.457   1.894  0.0297 -0.1952  1.6436
   17CHTO  H203 6769   4.789   4.422   0.431  0.4240 -0.0763 -0.1766
   17CHTO   O82 6770   4.844   4.488   0.469 -0.3235  0.5436 -0.1749
   17CHTO  C123 6771   4.754   4.571   0.550 -0.1398  0.1789 -0.1769
   17CHTO  H227 6772   4.685   4.504   0.603 -2.6910  1.6153 -1.6252
   17CHTO   O77 6773   4.848   4.633   0.652 -0.2479  0.9375  0.0476
   17CHTO  C118 6774   4.790   4.709   0.755  0.1308 -0.6693 -0.1184
   17CHTO  H222 6775   4.718   4.655   0.819  1.2059  0.4615  2.0891
   17CHTO  C125 6776   4.912   4.754   0.847  0.0879  0.3562 -0.0335
   17CHTO   O84 6777   4.961   4.633   0.913  0.3595 -0.2512  0.1300
   17CHTO  H205 6778   4.929   4.620   1.000  0.0317 -0.8180 -0.0728
   17CHTO  C114 6779   4.736   4.835   0.682 -0.4537 -0.2925 -0.3626
   17CHTO  H218 6780   4.822   4.883   0.634  1.8297 -1.7755  2.1129
   17CHTO  C116 6781   4.635   4.800   0.568 -0.1814  0.3095 -0.5532
   17CHTO  H220 6782   4.538   4.772   0.613 -0.4023  0.5685 -0.8639
   17CHTO   O79 6783   4.601   4.916   0.494  0.2180 -0.1322 -0.4104
   17CHTO  H201 6784   4.678   4.960   0.465 -0.1349 -0.1311 -1.3460
   17CHTO  C120 6785   4.695   4.685   0.468  0.6770  0.3353  0.0218
   17CHTO  H224 6786   4.774   4.723   0.399 -0.9245 -0.1256 -2.1401
   17CHTO   N21 6787   4.595   4.637   0.369 -0.3551 -0.1144  0.2360
   17CHTO  H211 6788   4.525   4.712   0.337 -0.0074  1.0072  2.0707
   17CHTO  H212 6789   4.542   4.552   0.411 -1.0813 -0.1067 -0.6413
   17CHTO   O75 6790   4.681   4.917   0.774  0.3398 -0.0426  0.2568
   17CHTO  C112 6791   4.719   5.077   0.755  0.2813 -0.6979 -0.1727
   17CHTO  H216 6792   4.689   5.098   0.651  1.7848  1.0185 -0.2744
   17CHTO   O73 6793   4.860   5.096   0.770 -0.0042 -0.1199  0.1195
   17CHTO  C113 6794   4.909   5.227   0.727 -0.4233 -0.5834  0.2788
   17CHTO  H217 6795   4.886   5.243   0.619  0.5802  0.5012  0.2254
   17CHTO  C124 6796   5.062   5.230   0.739 -0.1197 -0.3115 -0.0700
   17CHTO   O83 6797   5.114   5.354   0.694  0.4051 -0.3610  0.0947
   17CHTO  H204 6798   5.203   5.363   0.722 -0.3917 -0.6846  2.8854
   17CHTO  C109 6799   4.831   5.337   0.813  0.4082 -0.2623  0.0409
   17CHTO  H213 6800   4.872   5.340   0.914 -0.9800  1.3672  0.5845
   17CHTO  C110 6801   4.676   5.309   0.827 -0.4415 -0.4921 -0.7065
   17CHTO  H214 6802   4.629   5.344   0.735 -2.0521  1.5853  0.8227
   17CHTO   O78 6803   4.641   5.392   0.945  0.2659 -0.2773  1.1626
   17CHTO  H200 6804   4.683   5.476   0.949  0.2332 -0.2615  1.1914
   17CHTO  C111 6805   4.642   5.165   0.864 -0.3264 -0.2110 -0.7629
   17CHTO  H215 6806   4.687   5.136   0.960 -0.8270 -1.2457 -0.8333
   17CHTO   N19 6807   4.497   5.143   0.872  0.6639  0.0725 -0.6747
   17CHTO  H207 6808   4.456   5.202   0.953 -1.0177 -2.5644  0.4750
   17CHTO  H208 6809   4.463   5.165   0.772 -1.4019  2.5960  0.5274
   17CHTO   O74 6810   4.859   5.471   0.742  0.5760 -0.1707 -0.7244
   17CHTO  C115 6811   4.888   5.601   0.836 -0.0836  0.2149 -0.2815
   17CHTO  H219 6812   4.804   5.622   0.902  0.9150  0.9217  0.8087
   17CHTO   O76 6813   4.998   5.578   0.924 -0.3495  0.2932  0.0936
   17CHTO  C122 6814   5.047   5.681   1.010  0.3596  0.2442  0.3224
   17CHTO  H226 6815   5.146   5.646   1.040 -0.0189 -0.6682  0.5415
   17CHTO  C126 6816   4.961   5.715   1.140 -0.0044 -0.4340  0.4552
   17CHTO   O85 6817   4.943   5.594   1.213 -0.5027  0.4408 -0.3499
   17CHTO  H206 6818   4.900   5.533   1.156  0.8728 -2.3413  1.5083
   17CHTO  C121 6819   5.070   5.817   0.933 -0.3560  0.2599  0.4896
   17CHTO  H225 6820   5.068   5.894   1.013  1.6789 -1.4581  2.2495
   17CHTO   O81 6821   5.203   5.808   0.872 -0.0024  0.2714  0.2539
   17CHTO  H202 6822   5.205   5.738   0.811  2.0990 -1.0019  1.7298
   17CHTO  C119 6823   4.960   5.848   0.827 -0.1168  0.2191  0.1904
   17CHTO  H223 6824   4.875   5.888   0.880  0.8575  3.3212 -0.5074
   17CHTO  C117 6825   4.926   5.726   0.742  0.5270  0.3947 -0.2109
   17CHTO  H221 6826   5.002   5.681   0.678  0.8376  0.1828  0.3032
   17CHTO   N20 6827   4.816   5.761   0.647  0.2465  0.3291  0.0722
   17CHTO  H209 6828   4.729   5.790   0.704  0.6295 -1.3999  1.6075
   17CHTO  H210 6829   4.849   5.832   0.573 -0.8704  1.6778  0.8414
   17CHTO   O80 6830   5.006   5.988   0.744  0.0308  0.5199 -0.5210
   17CHTO  C103 6831   5.005   6.137   0.830 -0.2441  0.4469  0.2599
   17CHTO  H190 6832   4.947   6.121   0.921  1.1754  0.2194  1.1375
   17CHTO  C101 6833   5.155   6.192   0.855 -0.1400  0.5701  0.0879
   17CHTO  H188 6834   5.212   6.173   0.764  0.5632 -0.4576  0.7323
   17CHTO   O68 6835   5.233   6.106   0.972  0.1669  0.8838  0.3295
   17CHTO  H168 6836   5.245   6.017   0.945 -0.6034  1.0176 -0.4739
   17CHTO   C99 6837   5.154   6.358   0.878  0.3415  0.0862  0.1143
   17CHTO  H186 6838   5.102   6.369   0.976  3.2348  0.8812  1.6106
   17CHTO   N17 6839   5.289   6.422   0.899 -0.0281 -0.2289  0.1202
   17CHTO  H174 6840   5.268   6.523   0.932  0.8611 -0.4098  1.2885
   17CHTO  H175 6841   5.338   6.373   0.982  0.8846 -1.4956 -1.1584
   17CHTO   C97 6842   5.069   6.424   0.772 -0.4392 -0.3781  0.3451
   17CHTO  H184 6843   5.113   6.401   0.674 -2.0154 -1.1808 -0.1933
   17CHTO   O64 6844   4.938   6.365   0.787 -0.4661 -0.1116  0.0793
   17CHTO  C104 6845   4.926   6.236   0.736  0.7445  0.3407 -0.2585
   17CHTO  H191 6846   4.965   6.228   0.635  1.4490 -0.3291  0.0595
   17CHTO  C108 6847   4.779   6.201   0.735  0.4124  0.4744 -0.0498
   17CHTO   O71 6848   4.744   6.074   0.689  0.7724  0.0295 -0.4419
   17CHTO  H171 6849   4.654   6.079   0.662  0.8596  0.3793 -0.6634
   17CHTO   O62 6850   5.052   6.560   0.797 -0.3878  0.1164 -0.3007
   17CHTO   C91 6851   5.021   6.643   0.683  0.3865 -0.6003 -0.8605
   17CHTO  H178 6852   4.992   6.582   0.598 -1.4802  0.7319 -1.2157
   17CHTO   C92 6853   5.151   6.702   0.636  0.0284  0.1296  0.4874
   17CHTO  H179 6854   5.234   6.631   0.623 -0.3955  0.1741 -3.1799
   17CHTO   O66 6855   5.123   6.751   0.501 -0.0699 -0.3731  0.8034
   17CHTO  H166 6856   5.167   6.698   0.437 -0.6486  2.1576 -1.7374
   17CHTO   C93 6857   5.199   6.827   0.717  0.2186 -0.3325 -0.1947
   17CHTO  H180 6858   5.260   6.889   0.649  0.4591 -0.7728 -0.3888
   17CHTO   N16 6859   5.284   6.780   0.829  0.5454  0.0986  0.4631
   17CHTO  H172 6860   5.375   6.732   0.795  0.4062 -1.3367  2.0760
   17CHTO  H173 6861   5.292   6.859   0.902  0.8045  0.4844  0.0282
   17CHTO   C94 6862   5.076   6.910   0.771  0.1095 -0.3835 -0.3324
   17CHTO  H181 6863   5.048   6.882   0.872  0.2962  1.8278  0.3587
   17CHTO   O61 6864   4.960   6.889   0.688  0.3833  0.0403  0.6278
   17CHTO   C95 6865   4.910   6.756   0.707  0.2465  0.5569 -0.4543
   17CHTO  H182 6866   4.877   6.751   0.811  3.4706 -0.6178  0.5632
   17CHTO  C106 6867   4.782   6.725   0.622  0.5675  0.4199  0.8177
   17CHTO   O69 6868   4.664   6.754   0.688  0.1583 -0.0920 -0.4654
   17CHTO  H169 6869   4.593   6.722   0.636 -0.3106 -0.3870  0.3401
   17CHTO   O63 6870   5.098   7.043   0.759  0.3943  0.5049  0.2804
   17CHTO   C96 6871   5.027   7.154   0.884 -1.2369  0.6970  0.2143
   17CHTO  H183 6872   5.001   7.098   0.973  0.8085 -0.8622 -0.1264
   17CHTO   C98 6873   4.904   7.219   0.818  0.3390 -0.1118 -0.1173
   17CHTO  H185 6874   4.942   7.266   0.726  1.0675  0.7669  0.6197
   17CHTO   O67 6875   4.811   7.115   0.777  0.4186 -0.7709  0.1536
   17CHTO  H167 6876   4.728   7.142   0.811  0.2404  0.0726 -0.8995
   17CHTO  C102 6877   4.832   7.335   0.914 -0.1755 -0.0199  0.4987
   17CHTO  H189 6878   4.777   7.280   0.992 -0.1891 -1.6225 -0.6125
   17CHTO   N18 6879   4.736   7.416   0.847  0.1329  0.2246  0.0844
   17CHTO  H176 6880   4.781   7.451   0.755  1.3660  0.2574  0.6963
   17CHTO  H177 6881   4.701   7.501   0.904 -0.0170  0.3905 -0.2563
   17CHTO  C105 6882   4.935   7.420   0.996  1.5390  0.2549 -0.6198
   17CHTO  H192 6883   4.970   7.507   0.940  2.8052  0.2791  0.1914
   17CHTO   O65 6884   5.059   7.351   1.023  0.1202  0.3376  0.0990
   17CHTO  C100 6885   5.119   7.271   0.920 -0.2393 -0.1686  0.8369
   17CHTO  H187 6886   5.133   7.328   0.827  2.4573  0.9592  1.8671
   17CHTO  C107 6887   5.262   7.220   0.959 -0.6690  0.5419 -0.1901
   17CHTO   O70 6888   5.358   7.325   0.965 -0.4841  0.2634  0.5135
   17CHTO  H170 6889   5.399   7.332   1.049 -0.5999 -2.7973  0.9037
   17CHTO   O57 6890   4.867   7.448   1.135  0.4930 -0.3957  0.1536
   17CHTO   C85 6891   4.857   7.581   1.182 -0.0566 -0.0732 -0.6559
   17CHTO  H157 6892   4.854   7.641   1.090  0.2942 -2.0254 -1.9734
   17CHTO   C83 6893   4.998   7.610   1.253  0.2651 -0.4347 -0.2698
   17CHTO  H155 6894   5.079   7.593   1.182  2.7292  0.3432  2.2696
   17CHTO   O56 6895   5.031   7.529   1.368  0.1449  0.8006  0.0945
   17CHTO  H135 6896   5.123   7.516   1.378 -0.1256  0.1139  1.8023
   17CHTO   C81 6897   4.994   7.767   1.289  0.5661 -0.3840  0.2694
   17CHTO  H153 6898   4.967   7.816   1.195 -0.6003  0.4359  1.0183
   17CHTO   N14 6899   5.126   7.828   1.327 -0.1925  0.2460 -0.0292
   17CHTO  H141 6900   5.191   7.848   1.245  0.0776 -1.3197 -0.2179
   17CHTO  H142 6901   5.103   7.920   1.375 -0.0795 -0.3509  1.1793
   17CHTO   C79 6902   4.885   7.793   1.394 -0.0211 -0.0704 -0.7995
   17CHTO  H151 6903   4.877   7.900   1.414 -1.0082 -0.3050  0.1110
   17CHTO   O52 6904   4.754   7.753   1.340 -0.1612  0.1756  0.1431
   17CHTO   C86 6905   4.746   7.617   1.286  0.4354  0.2783 -0.8239
   17CHTO  H158 6906   4.758   7.556   1.378  0.4777 -0.3853 -1.2613
   17CHTO   C90 6907   4.599   7.582   1.236  0.4555  0.3101  0.2414
   17CHTO   O60 6908   4.569   7.646   1.115  0.5699 -0.2886 -0.3094
   17CHTO  H138 6909   4.518   7.596   1.055  0.1306  0.5474 -0.6306
   17CHTO   O50 6910   4.913   7.731   1.526 -0.3098  0.0734 -0.2253
   17CHTO   C73 6911   4.879   7.730   1.668 -0.3573 -0.2515  0.3606
   17CHTO  H145 6912   4.847   7.832   1.695  1.1082 -0.1297  1.7003
   17CHTO   C74 6913   5.005   7.690   1.762 -0.3002  0.2305  0.3678
   17CHTO  H146 6914   5.081   7.767   1.743 -1.5460  1.4847  0.4248
   17CHTO   O54 6915   4.967   7.690   1.903 -0.0816 -0.3920  0.0629
   17CHTO  H133 6916   4.978   7.774   1.944 -0.0587 -0.7882  0.8652
   17CHTO   C75 6917   5.052   7.543   1.722 -1.0031 -0.0449 -0.1446
   17CHTO  H147 6918   5.086   7.545   1.618 -0.8807 -1.7718 -0.1496
   17CHTO   N13 6919   5.169   7.496   1.796  0.0623 -0.0746 -0.3137
   17CHTO  H139 6920   5.164   7.508   1.903  1.1626 -1.3117 -0.1068
   17CHTO  H140 6921   5.257   7.553   1.768  0.3930  0.8306  2.3995
   17CHTO   C76 6922   4.942   7.441   1.733  0.3652 -0.5034  0.1110
   17CHTO  H148 6923   4.922   7.423   1.839 -1.8177 -0.7138 -0.3205
   17CHTO   O49 6924   4.822   7.486   1.667 -0.7214  0.0145 -0.7405
   17CHTO   C77 6925   4.770   7.619   1.701  0.1623 -0.5208 -0.5366
   17CHTO  H149 6926   4.740   7.630   1.806  1.2947  1.5592 -0.4067
   17CHTO   C88 6927   4.639   7.643   1.625  0.0890  0.2986 -0.1585
   17CHTO   O58 6928   4.563   7.762   1.684 -0.3484  0.1756  0.2647
   17CHTO  H136 6929   4.561   7.832   1.621  0.2707 -1.1359 -1.2553
   17CHTO   O51 6930   4.978   7.311   1.663 -0.5085 -0.1866 -0.0982
   17CHTO   C78 6931   4.870   7.189   1.630 -0.3338  0.9395 -0.3682
   17CHTO  H150 6932   4.768   7.233   1.635 -0.5581  0.2390  1.8532
   17CHTO   C80 6933   4.885   7.085   1.743  0.3047 -0.3810 -0.0199
   17CHTO  H152 6934   4.991   7.056   1.754  0.9985  2.2728  0.5338
   17CHTO   O55 6935   4.843   7.149   1.865 -0.2394  0.4068 -0.3232
   17CHTO  H134 6936   4.829   7.086   1.933 -0.6821 -0.0470 -0.8343
   17CHTO   C84 6937   4.805   6.956   1.718  0.5337  0.4951  0.3637
   17CHTO  H156 6938   4.700   6.984   1.728  0.5972  1.6788 -2.0197
   17CHTO   N15 6939   4.819   6.850   1.826  0.1077  0.5638  0.1750
   17CHTO  H143 6940   4.884   6.772   1.795  1.5529  1.1431  1.6652
   17CHTO  H144 6941   4.726   6.805   1.855  0.3265  0.4702  0.7445
   17CHTO   C87 6942   4.845   6.906   1.576 -0.4232  0.3269 -0.5692
   17CHTO  H159 6943   4.951   6.880   1.583  0.0694  2.3588 -0.0489
   17CHTO   O53 6944   4.819   7.012   1.475 -0.1981  0.4266  0.1462
   17CHTO   C82 6945   4.899   7.130   1.492 -0.4928 -0.1993 -0.7529
   17CHTO  H154 6946   5.005   7.105   1.488 -0.8817 -2.5167  2.0331
   17CHTO   C89 6947   4.863   7.244   1.390  0.1052  0.7720  0.4544
   17CHTO   O59 6948   4.721   7.260   1.380  0.5609 -0.2059 -0.1512
   17CHTO  H137 6949   4.683   7.285   1.462  1.0510 -2.1961  0.7006
   17CHTO   O45 6950   4.761   6.762   1.521  0.3483 -0.5801 -0.0970
   17CHTO   C67 6951   4.620   6.753   1.538  0.0354 -0.5485  0.1653
   17CHTO  H124 6952   4.594   6.770   1.642  0.6532 -0.9452  0.3860
   17CHTO   C65 6953   4.548   6.867   1.455 -0.1969 -0.6476  0.0122
   17CHTO  H122 6954   4.613   6.899   1.375 -1.3393 -1.7999 -1.4090
   17CHTO   O44 6955   4.512   6.978   1.542 -0.6928 -0.5897  0.1656
   17CHTO  H102 6956   4.591   7.023   1.565  0.5879 -1.1069 -2.8891
   17CHTO   C63 6957   4.436   6.814   1.364 -0.6631  0.1303 -0.2926
   17CHTO  H120 6958   4.475   6.737   1.298  0.4336  1.1243 -0.7991
   17CHTO   N11 6959   4.372   6.906   1.268 -0.0803  0.4467  0.1468
   17CHTO  H108 6960   4.435   6.990   1.249 -0.7046  0.3613 -2.5045
   17CHTO  H109 6961   4.279   6.940   1.311 -1.2565 -3.0147  0.4732
   17CHTO   C61 6962   4.339   6.728   1.453 -0.7221  0.3684  0.0826
   17CHTO  H118 6963   4.287   6.676   1.371 -1.9284  0.2806  0.8895
   17CHTO   O40 6964   4.405   6.620   1.528  0.4113  0.8072  0.0444
   17CHTO   C68 6965   4.552   6.611   1.505  0.1563 -0.7527 -0.0497
   17CHTO  H125 6966   4.571   6.585   1.399 -0.4289 -0.3144 -0.2625
   17CHTO   C72 6967   4.621   6.500   1.590  0.0156 -0.4150 -0.1433
   17CHTO   O48 6968   4.741   6.455   1.535 -0.3158 -0.2054 -0.4260
   17CHTO  H105 6969   4.728   6.366   1.506  0.4681  0.0490 -1.6000
   17CHTO   O38 6970   4.263   6.810   1.542 -1.0302  0.3391  0.0075
   17CHTO   C55 6971   4.187   6.756   1.654 -0.6646 -0.2830 -0.4877
   17CHTO  H112 6972   4.262   6.700   1.713 -1.2753  0.6748  1.2450
   17CHTO   C56 6973   4.064   6.667   1.618 -0.2119  0.0925 -0.1327
   17CHTO  H113 6974   4.002   6.724   1.548  0.4424  0.7161 -0.2119
   17CHTO   O42 6975   4.111   6.545   1.549  0.2848  0.0503  0.4271
   17CHTO  H100 6976   4.039   6.504   1.504 -1.9390  2.6542  1.4110
   17CHTO   C57 6977   3.978   6.629   1.747  0.1530  0.4537 -0.8334
   17CHTO  H114 6978   4.039   6.558   1.802  1.9622  0.9559 -2.1468
   17CHTO   N10 6979   3.844   6.562   1.710  0.3015 -0.3581  0.4227
   17CHTO  H106 6980   3.811   6.496   1.789  0.2965  0.7466  1.3470
   17CHTO  H107 6981   3.766   6.635   1.699 -0.0770 -0.9292 -0.8009
   17CHTO   C58 6982   3.951   6.755   1.834  0.7686  0.1355 -0.7111
   17CHTO  H115 6983   3.882   6.823   1.779  0.8023  0.7025 -0.0603
   17CHTO   O37 6984   4.074   6.823   1.869  0.4380  0.6050 -0.5519
   17CHTO   C59 6985   4.143   6.874   1.754  0.2681 -0.1148  0.0589
   17CHTO  H116 6986   4.077   6.937   1.694 -0.1314  1.1565  1.8275
   17CHTO   C70 6987   4.266   6.957   1.798 -0.3744 -0.5305  0.3713
   17CHTO   O46 6988   4.228   7.075   1.851 -0.6779 -0.6817  0.0138
   17CHTO  H103 6989   4.308   7.115   1.877 -1.1039  0.2623 -0.1243
   17CHTO   O39 6990   3.890   6.732   1.975  0.3610  0.3745 -0.4222
   17CHTO   C60 6991   3.789   6.832   2.019 -0.0390  0.8626 -0.0236
   17CHTO  H117 6992   3.825   6.933   2.004  0.6337  0.7829  1.0041
   17CHTO   C62 6993   3.657   6.810   1.936  0.2360 -0.4119  0.2772
   17CHTO  H119 6994   3.679   6.810   1.827 -0.0625  1.2761  0.1986
   17CHTO   O43 6995   3.605   6.681   1.948  0.2134  0.1567  0.5151
   17CHTO  H101 6996   3.518   6.675   1.914 -0.1793 -0.0163  1.5186
   17CHTO   C66 6997   3.551   6.930   1.972 -0.5836 -0.1892 -0.4248
   17CHTO  H123 6998   3.602   7.025   1.956  3.0371 -2.0041 -0.1646
   17CHTO   N12 6999   3.429   6.936   1.889  0.1328 -0.1597 -0.0176
   17CHTO  H110 7000   3.351   7.003   1.921 -0.7683 -1.9812  1.7473
   17CHTO  H111 7001   3.388   6.836   1.881 -0.1154 -0.1665  1.3083
   17CHTO   C69 7002   3.524   6.917   2.124  0.1598 -0.1652  1.1177
   17CHTO  H126 7003   3.481   6.816   2.144 -2.2688  0.6115  0.0083
   17CHTO   O41 7004   3.652   6.927   2.200 -0.0671  0.0746 -0.3474
   17CHTO   C64 7005   3.756   6.811   2.165 -0.2774 -0.1239  0.2949
   17CHTO  H121 7006   3.712   6.709   2.169  0.9385 -0.5812  2.9007
   17CHTO   C71 7007   3.880   6.820   2.256  0.3064  0.0359  0.2770
   17CHTO   O47 7008   3.843   6.787   2.390  0.1206 -0.3513 -0.0605
   17CHTO  H104 7009   3.915   6.806   2.446 -0.1770  1.4169 -0.2267
   17CHTO   O34 7010   3.419   7.016   2.171  0.1536 -0.8252 -0.1025
   17CHTO   C49 7011   3.345   7.103   2.292  0.6790 -0.1143 -0.3540
   17CHTO   H91 7012   3.410   7.189   2.310 -0.7670  1.1176 -0.8924
   17CHTO   C47 7013   3.324   7.005   2.406 -0.1138  0.2390  0.4639
   17CHTO   H89 7014   3.285   7.070   2.488 -0.2530 -1.5667  1.8600
   17CHTO   O33 7015   3.444   6.942   2.456 -0.1674 -0.0065  0.5207
   17CHTO   H70 7016   3.429   6.895   2.536  2.2936  2.2802  2.4129
   17CHTO   C45 7017   3.219   6.885   2.365  0.8797  0.0160 -0.5864
   17CHTO   H87 7018   3.285   6.800   2.342  2.4228  1.2670 -0.8553
   17CHTO    N8 7019   3.142   6.839   2.480 -0.0903  0.7630  0.0123
   17CHTO   H75 7020   3.078   6.918   2.516 -0.3122  0.1954  0.8814
   17CHTO   H76 7021   3.205   6.804   2.560 -0.6735  0.1933  0.2250
   17CHTO   C43 7022   3.141   6.924   2.231 -0.3619 -0.0194  0.5006
   17CHTO   H85 7023   3.217   6.894   2.158 -0.6352 -1.3723  0.7592
   17CHTO   O29 7024   3.105   7.065   2.217  0.1831  0.1560 -0.1770
   17CHTO   C50 7025   3.208   7.165   2.244  0.5662 -0.1751  0.1640
   17CHTO   H92 7026   3.236   7.215   2.150  3.7764  0.5697  1.4645
   17CHTO   C54 7027   3.146   7.282   2.327 -0.0167  0.4667 -0.1678
   17CHTO   O36 7028   3.228   7.391   2.371 -0.3787 -0.2086  0.1565
   17CHTO   H72 7029   3.209   7.407   2.461 -1.8989 -1.5656  0.0927
   17CHTO   O27 7030   3.026   6.850   2.199  0.4131 -0.4238  0.2905
   17CHTO   C37 7031   2.947   6.786   2.109 -0.3528 -0.2917  0.1502
   17CHTO   H79 7032   2.841   6.786   2.137 -0.4133 -3.6705  0.1742
   17CHTO   C38 7033   2.942   6.849   1.968  0.0949 -0.7133  0.2651
   17CHTO   H80 7034   3.042   6.870   1.928 -0.6267  0.2396 -1.0789
   17CHTO   O31 7035   2.884   6.978   1.983  0.1888  0.1103 -0.5289
   17CHTO   H68 7036   2.792   6.964   1.996  0.4239 -1.1026 -0.1058
   17CHTO   C39 7037   2.867   6.757   1.858 -0.3856 -0.2004  0.0515
   17CHTO   H81 7038   2.763   6.764   1.891 -0.7273  0.1088 -1.0430
   17CHTO    N7 7039   2.867   6.817   1.722 -0.2285 -0.3374 -0.3180
   17CHTO   H73 7040   2.827   6.751   1.647 -0.9225  1.4554 -1.5518
   17CHTO   H74 7041   2.847   6.922   1.708  0.4355  0.2350  2.6718
   17CHTO   C40 7042   2.926   6.615   1.867 -0.7136  0.4384 -0.0946
   17CHTO   H82 7043   3.031   6.628   1.840 -0.8322  0.2598 -0.6464
   17CHTO   O26 7044   2.912   6.561   1.998  0.5839  0.2435 -0.3264
   17CHTO   C41 7045   2.991   6.635   2.091  0.2382  0.0288  0.3939
   17CHTO   H83 7046   3.094   6.631   2.052  0.3575 -0.4870  0.7585
   17CHTO   C52 7047   2.996   6.567   2.230  0.5068  0.3164 -0.1884
   17CHTO   O35 7048   2.882   6.597   2.333 -0.4817  0.1871  0.4490
   17CHTO   H71 7049   2.830   6.521   2.350  0.0952  0.0024  1.4611
   17CHTO   O28 7050   2.853   6.522   1.780 -0.2802  0.1970  0.2919
   17CHTO   C42 7051   2.916   6.404   1.731 -0.0223 -0.4208  0.2989
   17CHTO   H84 7052   2.837   6.354   1.675 -1.6382  0.5148  1.6804
   17CHTO   C44 7053   2.960   6.306   1.840 -0.1870  0.2816  0.2459
   17CHTO   H86 7054   3.029   6.358   1.908  0.1862  0.7772 -0.5066
   17CHTO   O32 7055   2.843   6.270   1.910 -0.0863  0.4204  0.2865
   17CHTO   H69 7056   2.790   6.215   1.855 -2.3183  1.6525  1.1617
   17CHTO   C48 7057   3.049   6.184   1.787  0.5449 -0.0691 -0.1222
   17CHTO   H90 7058   2.992   6.117   1.722  0.1624 -0.2270  0.3720
   17CHTO    N9 7059   3.104   6.096   1.896  0.1012 -0.6891  0.0338
   17CHTO   H77 7060   3.162   6.019   1.848  0.2442 -0.1450 -0.6678
   17CHTO   H78 7061   3.161   6.144   1.975 -2.1968  1.1043  0.6740
   17CHTO   C51 7062   3.155   6.249   1.692 -0.5312 -0.4454  0.7807
   17CHTO   H93 7063   3.224   6.310   1.750  0.0939 -0.6457  0.2650
   17CHTO   O30 7064   3.089   6.326   1.593 -0.2661  0.3543  0.0214
   17CHTO   C46 7065   3.023   6.440   1.634  0.3458 -0.3729 -0.0111
   17CHTO   H88 7066   3.098   6.506   1.679 -1.1778  0.3526  1.5037
   17CHTO   C53 7067   2.972   6.498   1.500  0.3979 -0.1256 -0.4151
   17CHTO   O72 7068   3.080   6.537   1.416 -0.0651  0.3565 -0.3764
   17CHTO  H199 7069   3.131   6.461   1.397 -2.7077 -1.8673  1.0167
   17CHTO   O22 7070   3.219   6.143   1.617 -0.8206  0.1177 -0.5918
   17CHTO   C31 7071   3.346   6.137   1.541  0.0249  0.0682 -0.0524
   17CHTO   H59 7072   3.427   6.125   1.616 -1.2531 -2.4167  0.9898
   17CHTO   C29 7073   3.351   6.014   1.453  0.2247  0.5190  0.5669
   17CHTO   H57 7074   3.269   6.012   1.380  1.5981 -0.1259 -0.9774
   17CHTO   O21 7075   3.331   5.901   1.544  0.1745  0.4425 -0.6914
   17CHTO   H37 7076   3.337   5.927   1.634  2.0975 -0.0106 -0.6717
   17CHTO   C27 7077   3.484   6.004   1.374  0.1128  0.0950  0.1693
   17CHTO   H55 7078   3.565   6.001   1.449  1.3261  1.9225 -1.0186
   17CHTO    N5 7079   3.487   5.878   1.299 -0.1375  0.0746 -0.2063
   17CHTO   H43 7080   3.521   5.900   1.199 -0.2036 -0.0024 -0.2451
   17CHTO   H44 7081   3.556   5.805   1.338 -1.2287 -0.9436 -0.1467
   17CHTO   C25 7082   3.503   6.128   1.285  0.4788 -0.3384 -1.0718
   17CHTO   H53 7083   3.423   6.140   1.211  0.6829 -1.3485 -1.4625
   17CHTO   O17 7084   3.495   6.249   1.365 -0.5795 -0.3620  0.0796
   17CHTO   C32 7085   3.381   6.262   1.455 -0.1953 -0.5964 -0.5568
   17CHTO   H60 7086   3.294   6.292   1.396 -0.5265  1.0610  0.7457
   17CHTO   C36 7087   3.405   6.386   1.542  0.4571  0.2202 -0.2397
   17CHTO   O25 7088   3.400   6.510   1.467  0.1152 -0.7701 -0.0895
   17CHTO   H40 7089   3.475   6.562   1.488  0.5943 -1.1346 -0.8654
   17CHTO   O15 7090   3.660   6.128   1.187 -0.3641  0.7082 -0.4969
   17CHTO   C19 7091   3.703   6.258   1.136 -0.7688 -0.2145 -0.4578
   17CHTO   H47 7092   3.777   6.229   1.060  0.6427  2.1918 -0.0286
   17CHTO   C20 7093   3.599   6.345   1.053  0.0190 -0.2886 -0.6812
   17CHTO   H48 7094   3.498   6.343   1.097 -0.2310 -1.1648 -1.2914
   17CHTO   O19 7095   3.578   6.288   0.926 -0.5493 -0.0577 -0.3702
   17CHTO   H35 7096   3.661   6.262   0.890 -0.8182  2.6334 -3.2101
   17CHTO   C21 7097   3.640   6.494   1.034 -0.1385  0.1926  0.2852
   17CHTO   H49 7098   3.714   6.504   0.955 -1.2160 -2.6664 -1.1680
   17CHTO    N4 7099   3.529   6.575   0.976  0.1755  0.5089 -0.3112
   17CHTO   H41 7100   3.511   6.561   0.871  1.4109  0.8712 -0.5812
   17CHTO   H42 7101   3.434   6.571   1.026  1.2540  3.9092  2.2311
   17CHTO   C22 7102   3.704   6.552   1.167  0.1139 -0.1893  0.1569
   17CHTO   H50 7103   3.623   6.546   1.239 -1.8502  2.3628 -1.7778
   17CHTO   O14 7104   3.814   6.470   1.211 -0.1943  0.1255  0.5268
   17CHTO   C23 7105   3.783   6.333   1.247  0.1920  0.7248 -0.1121
   17CHTO   H51 7106   3.722   6.351   1.336 -1.5556  0.3767 -1.2117
   17CHTO   C34 7107   3.916   6.265   1.281 -0.2907 -0.1560  0.7008
   17CHTO   O23 7108   3.949   6.316   1.411  0.0912 -0.3315 -0.6794
   17CHTO   H38 7109   4.032   6.360   1.407  1.4456 -2.6815  0.8320
   17CHTO   O16 7110   3.760   6.688   1.156  0.2359 -0.3993 -0.1291
   17CHTO   C24 7111   3.830   6.752   1.301 -0.1412 -0.0501 -0.3203
   17CHTO   H52 7112   3.868   6.674   1.367 -0.1820 -1.6957 -2.2262
   17CHTO   C26 7113   3.720   6.836   1.368  0.2039  0.0005 -1.0881
   17CHTO   H54 7114   3.671   6.901   1.292 -2.4611 -1.4608 -0.6905
   17CHTO   O20 7115   3.622   6.739   1.418 -0.2928 -0.1964 -0.0257
   17CHTO   H36 7116   3.536   6.775   1.430 -0.7401 -0.8739 -1.1362
   17CHTO   C30 7117   3.792   6.927   1.476 -0.3454 -0.3305  0.3024
   17CHTO   H58 7118   3.840   6.858   1.547  1.3398 -0.6403 -1.1083
   17CHTO    N6 7119   3.697   7.013   1.556  0.8996 -0.0713  0.2602
   17CHTO   H45 7120   3.722   6.991   1.659  0.7297  0.3898  0.3993
   17CHTO   H46 7121   3.709   7.120   1.545  1.6611  0.1002  2.4469
   17CHTO   C33 7122   3.906   7.006   1.410  0.1317  0.3981 -0.3604
   17CHTO   H61 7123   3.860   7.059   1.325  1.3019  1.0735 -0.5859
   17CHTO   O18 7124   4.002   6.913   1.358 -0.0282 -0.5612  0.2874
   17CHTO   C28 7125   3.951   6.829   1.253  0.2991 -0.2034 -0.1695
   17CHTO   H56 7126   3.918   6.894   1.172 -0.8526  1.7357  1.8070
   17CHTO   C35 7127   4.061   6.728   1.206 -0.4849 -0.0807 -0.2494
   17CHTO   O24 7128   4.029   6.654   1.092 -0.4538  0.2364 -0.1207
   17CHTO   H39 7129   4.001   6.703   1.017  0.2120 -0.9131 -1.1413
   17CHTO    O9 7130   3.969   7.102   1.496 -0.0820 -0.0521  0.1779
   17CHTO   C13 7131   4.054   7.204   1.430  0.0254  0.0749  0.0067
   17CHTO   H26 7132   4.083   7.166   1.330 -0.5665 -1.5178  0.4234
   17CHTO   C11 7133   4.183   7.225   1.520 -0.2729  0.1795  0.9230
   17CHTO   H24 7134   4.226   7.123   1.521 -0.8503 -0.0786  0.0508
   17CHTO    O8 7135   4.160   7.269   1.658 -0.1002 -0.1076  0.8429
   17CHTO    H3 7136   4.073   7.305   1.659 -0.4869 -0.7306 -2.3642
   17CHTO    C9 7137   4.284   7.301   1.435 -0.2038  0.1166  0.0619
   17CHTO   H22 7138   4.306   7.239   1.346 -0.7509  2.7529 -1.9690
   17CHTO    N2 7139   4.420   7.317   1.492  0.2835  0.5034  0.2100
   17CHTO   H10 7140   4.455   7.218   1.516 -0.5876  0.2656  0.4876
   17CHTO   H11 7141   4.483   7.373   1.423 -2.4901  0.4818 -2.4338
   17CHTO    C7 7142   4.221   7.439   1.393 -0.0098  0.6314 -0.2195
   17CHTO   H20 7143   4.287   7.471   1.310 -1.4890 -0.7454 -1.9678
   17CHTO    O4 7144   4.083   7.437   1.345  0.1890 -0.0370  0.0413
   17CHTO   C14 7145   3.982   7.352   1.403  0.2695  0.6000 -0.2763
   17CHTO   H27 7146   3.899   7.343   1.331  0.9359  1.4243 -1.1658
   17CHTO   C18 7147   3.923   7.419   1.530  0.1055 -0.8238  0.4146
   17CHTO   O13 7148   3.857   7.541   1.494  0.5698 -0.9323  0.2909
   17CHTO    H7 7149   3.874   7.611   1.555 -0.8691  0.0630 -0.4121
   17CHTO    O2 7150   4.233   7.553   1.518 -1.0799  0.2608 -0.0858
   17CHTO    C1 7151   4.192   7.682   1.482 -0.1573  0.0319 -0.1973
   17CHTO   H14 7152   4.083   7.679   1.460 -0.5963 -1.1529  1.9368
   17CHTO    C2 7153   4.269   7.754   1.354 -0.1698  0.0749 -0.1425
   17CHTO   H15 7154   4.369   7.708   1.353  0.1666  0.8229 -2.3468
   17CHTO    O6 7155   4.213   7.715   1.232 -0.2493  0.3218  0.0530
   17CHTO    H1 7156   4.211   7.622   1.222  3.8853 -0.0820  2.0165
   17CHTO    C3 7157   4.278   7.918   1.357 -0.2587 -0.3333 -0.5609
   17CHTO   H16 7158   4.185   7.957   1.312 -0.4282 -0.3591 -0.2362
   17CHTO    N1 7159   4.391   7.960   1.275  0.1781  0.0190  0.0700
   17CHTO    H8 7160   4.480   7.902   1.294 -0.4026 -0.3031  1.9653
   17CHTO    H9 7161   4.360   7.945   1.173 -0.9798  0.6326  0.3166
   17CHTO    C4 7162   4.277   7.977   1.501 -0.0485 -0.0966 -0.2633
   17CHTO   H17 7163   4.375   7.962   1.547  1.1350  2.9455 -1.6621
   17CHTO    O1 7164   4.172   7.904   1.573  0.7431  0.0769 -0.2226
   17CHTO    C5 7165   4.204   7.765   1.605  0.2818 -0.7910  0.0255
   17CHTO   H18 7166   4.309   7.760   1.631 -0.1425  1.6485  2.5139
   17CHTO   C16 7167   4.117   7.712   1.728 -0.2534  0.2305 -0.0021
   17CHTO   O11 7168   4.163   7.587   1.778 -0.3119  0.4163  0.0301
   17CHTO    H5 7169   4.134   7.590   1.867 -0.1755 -1.1640  0.1457
   17CHTO    O3 7170   4.243   8.119   1.497 -0.0031  0.3652  0.4938
   17CHTO    C6 7171   4.261   8.208   1.611 -0.5905 -0.2543  0.0766
   17CHTO   H19 7172   4.188   8.289   1.605 -0.5218 -0.1487  0.6897
   17CHTO    C8 7173   4.245   8.138   1.749  0.5249 -0.1834 -0.2247
   17CHTO   H21 7174   4.305   8.047   1.745  0.0183 -0.5749  0.9049
   17CHTO    O7 7175   4.103   8.103   1.770 -0.1211  0.5642  0.5584
   17CHTO    H2 7176   4.070   8.066   1.690  0.0515  0.6509  0.4467
   17CHTO   C12 7177   4.297   8.216   1.871  0.0205 -0.1643 -0.1308
   17CHTO   H25 7178   4.224   8.297   1.892 -2.7606 -2.7261  0.3569
   17CHTO    N3 7179   4.298   8.134   2.000  0.1821 -0.2309 -0.2880
   17CHTO   H12 7180   4.196   8.118   2.031  0.1064  1.8558  0.6627
   17CHTO   H13 7181   4.356   8.043   1.995 -0.0424 -0.6435  3.6292
   17CHTO   C15 7182   4.439   8.275   1.836 -0.1967  0.0795  0.1157
   17CHTO   H28 7183   4.522   8.205   1.834 -1.2628 -1.1842 -0.2060
   17CHTO   O10 7184   4.492   8.371   1.936 -0.2069 -0.3683 -0.4232
   17CHTO    H4 7185   4.524   8.331   2.014  0.2431 -3.0447 -1.9264
   17CHTO    O5 7186   4.431   8.355   1.716  0.4738  0.6092 -0.1489
   17CHTO   C10 7187   4.406   8.277   1.598 -0.0451 -0.2267 -0.4297
   17CHTO   H23 7188   4.482   8.199   1.595  0.7796  0.5716 -0.4416
   17CHTO   C17 7189   4.428   8.363   1.478  0.0233 -0.0992  0.4820
   17CHTO   O12 7190   4.479   8.289   1.371  0.2946  0.5647 -0.1064
   17CHTO    H6 7191   4.528   8.348   1.316  0.1680  0.8821  0.1205
   18CHTO  H203 7192   5.328   7.477   2.419  0.2521 -1.4688 -0.5023
   18CHTO   O82 7193   5.418   7.488   2.396  0.0893  0.0543 -0.4311
   18CHTO  C123 7194   5.441   7.526   2.263  0.8425 -0.2425 -0.0097
   18CHTO  H227 7195   5.347   7.548   2.211  0.4856 -1.5016  0.0744
   18CHTO   O77 7196   5.524   7.646   2.288  0.2115  0.2505 -0.1687
   18CHTO  C118 7197   5.567   7.724   2.179  0.2794 -0.0964 -0.6436
   18CHTO  H222 7198   5.484   7.764   2.120 -1.9365 -0.9224  1.8150
   18CHTO  C125 7199   5.649   7.836   2.243  0.0438 -0.1356  0.1594
   18CHTO   O84 7200   5.578   7.919   2.336 -0.1512 -0.0423 -0.2798
   18CHTO  H205 7201   5.569   8.007   2.307  1.0249  0.2409  0.2111
   18CHTO  C114 7202   5.662   7.638   2.096 -0.1077 -0.6378  0.1887
   18CHTO  H218 7203   5.755   7.631   2.152 -0.0549  0.8490  0.3089
   18CHTO  C116 7204   5.610   7.499   2.065 -0.2153  0.1118 -0.0760
   18CHTO  H220 7205   5.533   7.507   1.986 -0.2124 -0.4645 -0.1412
   18CHTO   O79 7206   5.725   7.423   2.016  0.0410  0.6788  0.5023
   18CHTO  H201 7207   5.708   7.338   1.981  1.1805  0.9194 -0.6791
   18CHTO  C120 7208   5.536   7.427   2.188  0.2164  0.1754 -0.5214
   18CHTO  H224 7209   5.619   7.403   2.258 -1.4192 -0.5641  1.2024
   18CHTO   N21 7210   5.471   7.297   2.157  0.0711 -0.3856 -0.7154
   18CHTO  H211 7211   5.371   7.329   2.133 -0.0405 -0.5744 -0.4929
   18CHTO  H212 7212   5.469   7.236   2.245  1.1881  0.2398 -0.2398
   18CHTO   O75 7213   5.690   7.712   1.973  0.3054 -0.0261  0.7518
   18CHTO  C112 7214   5.832   7.719   1.922  0.1918  0.3864 -0.4383
   18CHTO  H216 7215   5.886   7.631   1.960 -3.2981 -1.7927 -0.3264
   18CHTO   O73 7216   5.884   7.842   1.963 -0.1384 -0.1657  0.0980
   18CHTO  C113 7217   6.022   7.876   1.917  0.1591 -0.9183 -0.0369
   18CHTO  H217 7218   6.099   7.812   1.964  1.5244  0.8359  0.1856
   18CHTO  C124 7219   6.058   8.018   1.972  0.3106 -0.3834 -0.0580
   18CHTO   O83 7220   6.055   8.014   2.115  0.6271 -0.5000  0.3834
   18CHTO  H204 7221   6.133   7.977   2.152  1.1663  1.2088  1.0416
   18CHTO  C109 7222   6.031   7.864   1.762  1.0001 -0.3099 -0.0378
   18CHTO  H213 7223   5.974   7.947   1.719 -1.9138 -2.2699 -0.1176
   18CHTO  C110 7224   5.973   7.733   1.706  0.3277 -0.0887 -0.3317
   18CHTO  H214 7225   6.039   7.652   1.737 -0.6337  0.3956  3.2455
   18CHTO   O78 7226   5.975   7.748   1.564  0.3435 -0.9459 -0.1613
   18CHTO  H200 7227   5.913   7.685   1.533 -1.1099  0.3746 -0.0090
   18CHTO  C111 7228   5.828   7.709   1.763  0.4956  0.6994  0.4450
   18CHTO  H215 7229   5.758   7.782   1.720 -0.9994 -0.5983  0.6257
   18CHTO   N19 7230   5.774   7.579   1.723  0.1474  0.8613 -0.2732
   18CHTO  H207 7231   5.845   7.500   1.744 -2.1805 -0.6662  2.2807
   18CHTO  H208 7232   5.684   7.561   1.781 -1.1906 -0.0503 -2.5544
   18CHTO   O74 7233   6.165   7.878   1.722 -0.0555 -0.3020  0.4258
   18CHTO  C115 7234   6.188   7.955   1.568  0.0924 -0.5938 -0.1561
   18CHTO  H219 7235   6.114   7.923   1.495 -1.4925  0.8406  0.7992
   18CHTO   O76 7236   6.171   8.109   1.581 -0.0354  0.1065  0.0219
   18CHTO  C122 7237   6.168   8.189   1.461 -0.3635  0.3281 -0.6632
   18CHTO  H226 7238   6.186   8.293   1.487  0.9912 -0.7629  3.1022
   18CHTO  C126 7239   6.028   8.185   1.391  0.3001  0.2015  0.6429
   18CHTO   O85 7240   6.011   8.273   1.276  0.2520 -0.4084 -0.3210
   18CHTO  H206 7241   6.081   8.253   1.217  2.3986  3.2650  0.7740
   18CHTO  C121 7242   6.285   8.151   1.360  0.5997 -0.4379  0.1445
   18CHTO  H225 7243   6.264   8.189   1.258 -0.1096  1.3617  0.9344
   18CHTO   O81 7244   6.406   8.223   1.396 -0.0253 -0.3792 -0.0460
   18CHTO  H202 7245   6.382   8.311   1.416 -0.3363  0.0717 -2.3056
   18CHTO  C119 7246   6.308   7.998   1.354  0.1356 -0.1099 -0.3422
   18CHTO  H223 7247   6.219   7.948   1.317 -0.7579  0.3736  1.1142
   18CHTO  C117 7248   6.327   7.939   1.498  0.2013  0.1756  0.0345
   18CHTO  H221 7249   6.399   7.990   1.562 -0.4605  1.3595 -0.1411
   18CHTO   N20 7250   6.373   7.800   1.496  0.5891  0.2651 -0.5523
   18CHTO  H209 7251   6.399   7.757   1.592  2.2532  0.8842 -0.7121
   18CHTO  H210 7252   6.454   7.780   1.428  1.7024 -0.9169  1.0653
   18CHTO   O80 7253   6.419   7.948   1.240 -0.3773 -0.1141 -0.4605
   18CHTO  C103 7254   6.367   7.867   1.105 -0.3776 -0.1130  0.2168
   18CHTO  H190 7255   6.447   7.844   1.034 -0.2011 -0.5307  0.5471
   18CHTO  C101 7256   6.271   7.739   1.138  0.0680  0.1511  0.2412
   18CHTO  H188 7257   6.205   7.752   1.224  0.6946 -0.5227  0.8236
   18CHTO   O68 7258   6.372   7.618   1.171 -0.3109  0.1830  0.0513
   18CHTO  H168 7259   6.327   7.549   1.215  0.0477 -0.1001 -0.0165
   18CHTO   C99 7260   6.174   7.699   1.019 -0.5030  0.2174  0.3585
   18CHTO  H186 7261   6.241   7.661   0.939  0.2304 -0.9172  1.4826
   18CHTO   N17 7262   6.078   7.587   1.047 -0.0262  0.5047  0.2172
   18CHTO  H174 7263   6.020   7.553   0.963 -1.0333 -1.7118  1.7480
   18CHTO  H175 7264   6.142   7.510   1.087 -1.6911 -0.7154  0.5631
   18CHTO   C97 7265   6.101   7.828   0.965 -0.3279 -0.2142  0.5673
   18CHTO  H184 7266   6.030   7.871   1.037 -0.4794  1.1800 -0.4035
   18CHTO   O64 7267   6.202   7.927   0.925  0.1002  1.2372  0.0076
   18CHTO  C104 7268   6.280   7.981   1.038 -0.3555  0.0021  0.7866
   18CHTO  H191 7269   6.215   8.023   1.116 -1.2472  1.4195 -0.6966
   18CHTO  C108 7270   6.386   8.094   0.995 -0.1214  0.4231 -0.4208
   18CHTO   O71 7271   6.318   8.203   0.929 -0.2613 -0.5804  0.2845
   18CHTO  H171 7272   6.357   8.221   0.845  0.8057 -0.1915  0.8562
   18CHTO   O62 7273   6.021   7.804   0.844 -0.3405  0.2941  0.1510
   18CHTO   C91 7274   5.884   7.852   0.845 -0.8630  0.1355  0.2848
   18CHTO  H178 7275   5.844   7.866   0.946  0.3557 -2.6835  1.2018
   18CHTO   C92 7276   5.792   7.745   0.772  0.1353  0.0810 -0.0344
   18CHTO  H179 7277   5.843   7.739   0.676  0.8620  2.6150  0.1520
   18CHTO   O66 7278   5.818   7.624   0.845  0.5890  0.3673  0.3258
   18CHTO  H166 7279   5.747   7.566   0.864  0.0392  1.1248  0.5724
   18CHTO   C93 7280   5.641   7.793   0.769  0.1969  0.5377  0.5973
   18CHTO  H180 7281   5.614   7.795   0.876  1.6121  0.5544  0.9726
   18CHTO   N16 7282   5.553   7.692   0.693 -0.0067  0.4826  0.2992
   18CHTO  H172 7283   5.453   7.728   0.709 -0.7541 -0.5204 -1.9560
   18CHTO  H173 7284   5.581   7.689   0.589  1.9355 -1.6059  0.8320
   18CHTO   C94 7285   5.625   7.940   0.715 -0.3274 -0.0456 -0.2186
   18CHTO  H181 7286   5.653   7.946   0.610  0.1455 -1.9593 -0.2229
   18CHTO   O61 7287   5.712   8.028   0.788  0.0779  1.0819 -0.6419
   18CHTO   C95 7288   5.853   7.991   0.783  0.1386 -0.0618  0.6626
   18CHTO  H182 7289   5.882   7.988   0.678 -0.7641 -1.3840  0.4347
   18CHTO  C106 7290   5.939   8.108   0.840  0.5011 -0.3702 -0.4458
   18CHTO   O69 7291   5.922   8.113   0.984  0.6543  0.0492 -0.2741
   18CHTO  H169 7292   6.003   8.132   1.027 -0.4272 -1.0377  2.3155
   18CHTO   O63 7293   5.478   8.003   0.729  0.3976 -0.0325 -0.1601
   18CHTO   C96 7294   5.474   8.123   0.610  0.2756  0.3344 -0.1240
   18CHTO  H183 7295   5.547   8.100   0.532  0.5021 -0.3224  0.2711
   18CHTO   C98 7296   5.502   8.265   0.669  0.0434  0.2809  0.6554
   18CHTO  H185 7297   5.461   8.260   0.770  1.0121 -1.2756  0.9934
   18CHTO   O67 7298   5.645   8.271   0.683 -0.1947  0.1659  0.0947
   18CHTO  H167 7299   5.676   8.347   0.730 -3.1719  0.7161  1.3225
   18CHTO  C102 7300   5.460   8.396   0.576  0.5232  0.3119 -0.2033
   18CHTO  H189 7301   5.538   8.406   0.499  0.2756 -0.9652 -0.6301
   18CHTO   N18 7302   5.446   8.529   0.641 -0.0042 -0.2009  0.5656
   18CHTO  H176 7303   5.453   8.518   0.748 -0.7393  1.9811  0.8596
   18CHTO  H177 7304   5.352   8.578   0.620  0.2237  0.2452  0.5683
   18CHTO  C105 7305   5.334   8.364   0.489 -0.2702  0.0377 -0.1489
   18CHTO  H192 7306   5.247   8.376   0.553 -0.0759 -1.1140  0.3502
   18CHTO   O65 7307   5.335   8.221   0.439  0.0343 -0.2292 -0.6228
   18CHTO  C100 7308   5.329   8.122   0.544  0.7120  0.1630 -0.0038
   18CHTO  H187 7309   5.260   8.145   0.626  2.0495 -0.7250  1.3950
   18CHTO  C107 7310   5.291   7.984   0.493 -0.6022  0.1782 -0.0315
   18CHTO   O70 7311   5.156   7.984   0.440 -0.2519 -0.2053  0.1408
   18CHTO  H170 7312   5.140   7.902   0.399 -0.7176 -1.5695  2.8978
   18CHTO   O57 7313   5.344   8.473   0.365  0.6413  0.0446 -0.1264
   18CHTO   C85 7314   5.238   8.501   0.275 -0.1139 -0.7173  0.2601
   18CHTO  H157 7315   5.283   8.551   0.186  1.7935  2.7664  3.0425
   18CHTO   C83 7316   5.154   8.617   0.340  0.0694  0.0759  0.4898
   18CHTO  H155 7317   5.213   8.708   0.352 -2.2695  1.7457 -0.1953
   18CHTO   O56 7318   5.110   8.569   0.471 -0.0593  0.0428  0.1241
   18CHTO  H135 7319   5.063   8.489   0.470 -0.2995  0.1800 -0.7362
   18CHTO   C81 7320   5.034   8.649   0.253  0.3668 -0.0123  0.7703
   18CHTO  H153 7321   5.072   8.671   0.153 -1.6260 -0.6363 -0.1369
   18CHTO   N14 7322   4.974   8.778   0.298 -0.2990  0.0902  0.3696
   18CHTO  H141 7323   4.897   8.801   0.228 -0.9965 -1.5037  0.5899
   18CHTO  H142 7324   4.929   8.770   0.395 -0.2897 -0.6180  0.3189
   18CHTO   C79 7325   4.938   8.519   0.242 -0.3548 -0.4421  0.0162
   18CHTO  H151 7326   4.858   8.542   0.173  1.8991  2.3085 -1.7746
   18CHTO   O52 7327   5.018   8.410   0.174 -0.1891 -0.6075  0.1104
   18CHTO   C86 7328   5.145   8.378   0.236  0.0271 -0.3054 -0.2993
   18CHTO  H158 7329   5.107   8.322   0.324  0.2692  0.9655  0.6267
   18CHTO   C90 7330   5.228   8.271   0.150 -0.1882 -0.9752  0.4735
   18CHTO   O60 7331   5.245   8.326   0.015  0.5133  0.5107 -0.0976
   18CHTO  H138 7332   5.319   8.290  -0.030  0.9416  0.0951  0.9187
   18CHTO   O50 7333   4.886   8.468   0.368 -0.6404  0.0016  0.6843
   18CHTO   C73 7334   4.768   8.387   0.372 -0.3581 -0.0419  0.1945
   18CHTO  H145 7335   4.766   8.312   0.292 -0.2466 -0.5033  0.6159
   18CHTO   C74 7336   4.648   8.486   0.366 -0.1565 -0.2891 -0.0735
   18CHTO  H146 7337   4.661   8.538   0.270  1.4254  0.1824  0.3790
   18CHTO   O54 7338   4.522   8.417   0.362  0.6213  0.3072 -0.2242
   18CHTO  H133 7339   4.497   8.380   0.445 -1.1787 -0.9081 -1.2725
   18CHTO   C75 7340   4.653   8.582   0.481 -0.4664 -0.1999 -0.6677
   18CHTO  H147 7341   4.751   8.631   0.478 -0.8540  0.5546 -1.3967
   18CHTO   N13 7342   4.550   8.689   0.482  0.1937 -0.1360  0.1266
   18CHTO  H139 7343   4.557   8.750   0.393  1.5704  0.7836  0.8515
   18CHTO  H140 7344   4.565   8.754   0.568  0.1568 -0.0282  0.0516
   18CHTO   C76 7345   4.647   8.501   0.617  0.1697  0.5722 -0.2975
   18CHTO  H148 7346   4.550   8.451   0.612  0.6036 -0.3832  0.5732
   18CHTO   O49 7347   4.753   8.400   0.622  0.0432 -0.2643 -0.0151
   18CHTO   C77 7348   4.765   8.315   0.509 -0.1397 -0.1055 -0.1982
   18CHTO  H149 7349   4.682   8.244   0.508 -0.6381  0.4641  0.4674
   18CHTO   C88 7350   4.890   8.232   0.532 -0.1534  0.1775 -0.4038
   18CHTO   O58 7351   5.011   8.319   0.587 -0.2843 -0.0402  0.3637
   18CHTO  H136 7352   5.039   8.391   0.534  1.3446 -0.6702  0.3416
   18CHTO   O51 7353   4.672   8.605   0.757 -0.0685 -0.4160 -0.0326
   18CHTO   C78 7354   4.681   8.528   0.895 -0.1314  0.4862 -0.4572
   18CHTO  H150 7355   4.696   8.419   0.877 -0.3428  0.4914 -0.6633
   18CHTO   C80 7356   4.548   8.551   0.974 -0.1231  0.7448 -0.0961
   18CHTO  H152 7357   4.522   8.658   0.960 -1.8404  0.2022 -1.2395
   18CHTO   O55 7358   4.455   8.461   0.909  0.7231 -0.1554 -0.3634
   18CHTO  H134 7359   4.364   8.470   0.932  0.4244  1.9936 -2.1512
   18CHTO   C84 7360   4.542   8.530   1.135 -0.7424  0.3951  0.0891
   18CHTO  H156 7361   4.538   8.424   1.158 -0.2239 -0.3556 -2.9935
   18CHTO   N15 7362   4.421   8.594   1.195 -0.1235 -0.2667  0.3489
   18CHTO  H143 7363   4.338   8.536   1.160  0.0144  0.3177 -1.0177
   18CHTO  H144 7364   4.409   8.691   1.151 -0.8783 -0.0090  1.1163
   18CHTO   C87 7365   4.674   8.580   1.196  0.1739  0.3294  0.0519
   18CHTO  H159 7366   4.671   8.687   1.218 -0.9339  0.0015  1.5879
   18CHTO   O53 7367   4.792   8.526   1.114  0.1128 -0.7071 -0.1815
   18CHTO   C82 7368   4.793   8.584   0.983 -0.0938 -0.1557  0.7919
   18CHTO  H154 7369   4.789   8.693   0.990  2.1575 -0.0806  1.3868
   18CHTO   C89 7370   4.933   8.545   0.926  0.2209 -0.1593  0.0257
   18CHTO   O59 7371   4.969   8.626   0.811  0.3531 -0.3095  0.2003
   18CHTO  H137 7372   4.966   8.715   0.840  2.1217 -0.2389  0.2265
   18CHTO   O45 7373   4.690   8.521   1.355 -0.4961 -0.1619 -0.0989
   18CHTO   C67 7374   4.830   8.522   1.394  0.1191  0.3255 -0.2872
   18CHTO  H124 7375   4.882   8.468   1.315 -0.5579  0.4699 -0.8358
   18CHTO   C65 7376   4.893   8.664   1.405  0.0564  0.3733 -0.4807
   18CHTO  H122 7377   4.807   8.726   1.434  0.8567  1.3002 -0.0767
   18CHTO   O44 7378   4.943   8.708   1.278  0.5047 -0.1519 -0.1679
   18CHTO  H102 7379   5.021   8.760   1.282  0.8698 -0.5688 -1.7428
   18CHTO   C63 7380   4.985   8.687   1.525  0.2146 -0.1312 -0.1941
   18CHTO  H120 7381   4.926   8.700   1.615 -0.6485  0.7864 -0.8810
   18CHTO   N11 7382   5.054   8.819   1.524  0.8319 -0.5797  0.3012
   18CHTO  H108 7383   5.095   8.847   1.619  1.3341 -1.5034  0.3642
   18CHTO  H109 7384   5.132   8.824   1.451  0.5922 -0.6679  0.0401
   18CHTO   C61 7385   5.070   8.553   1.545 -0.5256 -0.3595 -0.0706
   18CHTO  H118 7386   5.135   8.560   1.633 -1.3654 -2.3053  0.7104
   18CHTO   O40 7387   4.982   8.435   1.573 -0.6141 -0.7589  0.1574
   18CHTO   C68 7388   4.845   8.440   1.528 -0.2782 -0.1545 -0.6041
   18CHTO  H125 7389   4.792   8.494   1.609  0.7184 -2.4444  1.6277
   18CHTO   C72 7390   4.783   8.296   1.523 -0.0844 -0.2048 -0.5008
   18CHTO   O48 7391   4.813   8.203   1.416  0.3029 -0.2285 -0.7962
   18CHTO  H105 7392   4.764   8.226   1.340 -1.1399 -3.0144 -0.7625
   18CHTO   O38 7393   5.148   8.515   1.428  0.4163 -0.4611 -0.0904
   18CHTO   C55 7394   5.271   8.444   1.447  0.2375 -0.0571 -0.3042
   18CHTO  H112 7395   5.265   8.386   1.541 -1.2252 -0.9886 -0.9708
   18CHTO   C56 7396   5.398   8.546   1.445  0.0444  0.1996  0.3652
   18CHTO  H113 7397   5.404   8.588   1.344 -1.4973 -2.0756 -0.7019
   18CHTO   O42 7398   5.370   8.649   1.548  0.1136  0.0899  0.2081
   18CHTO  H100 7399   5.288   8.691   1.528  0.5715  1.3710  0.9768
   18CHTO   C57 7400   5.531   8.477   1.487 -0.0054  0.2028  0.6434
   18CHTO  H114 7401   5.511   8.450   1.591 -0.9611  0.2725  0.4866
   18CHTO   N10 7402   5.656   8.557   1.480 -0.1001 -0.4676  0.1208
   18CHTO  H106 7403   5.643   8.644   1.416  1.1990  0.3494  0.9395
   18CHTO  H107 7404   5.698   8.593   1.572  3.9412 -1.4037 -1.2583
   18CHTO   C58 7405   5.544   8.345   1.404  0.0217 -0.3773 -0.6672
   18CHTO  H115 7406   5.596   8.368   1.309  0.6621  1.4771  0.1232
   18CHTO   O37 7407   5.424   8.273   1.377  0.1806  0.1202 -0.1852
   18CHTO   C59 7408   5.299   8.342   1.337  0.5251 -0.6196 -0.2942
   18CHTO  H116 7409   5.309   8.399   1.245  2.4441  1.1394  0.9557
   18CHTO   C70 7410   5.186   8.240   1.329 -0.2884  0.1481 -0.3395
   18CHTO   O46 7411   5.208   8.135   1.238 -0.8033  0.1195  0.4170
   18CHTO  H103 7412   5.217   8.159   1.148  0.6322 -2.0161 -0.0569
   18CHTO   O39 7413   5.641   8.230   1.475 -0.0773  0.2126 -0.1326
   18CHTO   C60 7414   5.578   8.178   1.592 -0.1580 -0.7313  0.1233
   18CHTO  H117 7415   5.491   8.241   1.609 -0.2293 -0.4192 -1.2954
   18CHTO   C62 7416   5.527   8.033   1.572 -0.1760 -0.0977 -0.3507
   18CHTO  H119 7417   5.475   8.036   1.474 -1.0283  0.1958  0.1043
   18CHTO   O43 7418   5.641   7.950   1.561 -0.0796  0.0439 -0.1587
   18CHTO  H101 7419   5.634   7.872   1.510 -1.8279 -1.1820  1.8331
   18CHTO   C66 7420   5.431   7.988   1.692 -0.2426  0.2910  0.6113
   18CHTO  H123 7421   5.352   8.062   1.703 -0.1378  0.7294 -1.3351
   18CHTO   N12 7422   5.366   7.855   1.672 -0.5100 -0.0842  0.0520
   18CHTO  H110 7423   5.358   7.804   1.767 -0.9870 -1.8303 -0.9054
   18CHTO  H111 7424   5.413   7.800   1.593 -1.8410 -0.3199 -0.5906
   18CHTO   C69 7425   5.510   7.987   1.824 -0.5842  0.1163  0.1587
   18CHTO  H126 7426   5.573   7.896   1.823  2.0251  1.8729 -1.4721
   18CHTO   O41 7427   5.591   8.118   1.844 -0.1429 -0.0865  0.0479
   18CHTO   C64 7428   5.668   8.179   1.723 -0.2849  0.2920  0.3060
   18CHTO  H121 7429   5.759   8.119   1.704 -0.9594 -0.6178 -0.0574
   18CHTO   C71 7430   5.710   8.322   1.768  0.7558 -0.5307 -0.5354
   18CHTO   O47 7431   5.772   8.330   1.899  0.1407 -0.1203  0.3753
   18CHTO  H104 7432   5.812   8.415   1.905 -1.4648  0.7558 -0.9630
   18CHTO   O34 7433   5.424   7.981   1.939  0.1852  0.0719  0.5643
   18CHTO   C49 7434   5.364   8.056   2.066  0.2948 -0.1351 -0.8725
   18CHTO   H91 7435   5.419   8.018   2.151 -0.0835  0.9078 -0.1492
   18CHTO   C47 7436   5.212   8.022   2.069 -0.0798 -0.0414 -0.0724
   18CHTO   H89 7437   5.180   8.063   2.168 -2.1783 -2.3876  0.2656
   18CHTO   O33 7438   5.205   7.877   2.075  0.1475  0.2640  0.2575
   18CHTO   H70 7439   5.223   7.839   1.992 -0.6803  1.6119 -0.5628
   18CHTO   C45 7440   5.126   8.101   1.956 -0.5194 -0.0557  0.4484
   18CHTO   H87 7441   5.171   8.078   1.859  3.3719  0.6157  1.9974
   18CHTO    N8 7442   4.979   8.071   1.953  0.0037  0.6143 -0.1991
   18CHTO   H75 7443   4.924   8.162   1.935 -0.8824  0.1279  0.0248
   18CHTO   H76 7444   4.942   8.042   2.050  0.1562 -0.0122 -0.3255
   18CHTO   C43 7445   5.157   8.258   1.976 -0.2901 -0.6826  0.2640
   18CHTO   H85 7446   5.106   8.301   1.890  1.3291 -0.8578 -0.8153
   18CHTO   O29 7447   5.301   8.282   1.965  0.0864  0.2110 -0.6970
   18CHTO   C50 7448   5.386   8.212   2.057 -0.9157 -0.1832 -0.6257
   18CHTO   H92 7449   5.490   8.230   2.025 -0.9577  2.8268  0.7321
   18CHTO   C54 7450   5.391   8.276   2.207 -0.0587 -0.0179 -0.0850
   18CHTO   O36 7451   5.479   8.222   2.298  0.0199  0.7373  0.4164
   18CHTO   H72 7452   5.495   8.132   2.277 -0.2434  0.4407  1.4565
   18CHTO   O27 7453   5.110   8.322   2.092 -0.2372  0.3813  0.3366
   18CHTO   C37 7454   5.030   8.440   2.116  0.1432 -0.0181 -0.4168
   18CHTO   H79 7455   5.037   8.472   2.221  0.2081  2.1293 -1.0703
   18CHTO   C38 7456   5.093   8.565   2.033  0.3410  0.2495  0.7779
   18CHTO   H80 7457   5.103   8.539   1.927 -2.0552  2.2223  0.0067
   18CHTO   O31 7458   5.217   8.606   2.096 -0.0718  0.3610 -0.6137
   18CHTO   H68 7459   5.239   8.687   2.055  1.8378  0.0845 -0.1738
   18CHTO   C39 7460   4.989   8.690   2.038 -0.4416 -0.2836 -0.7327
   18CHTO   H81 7461   4.999   8.733   2.138 -0.5296 -1.0763 -0.3815
   18CHTO    N7 7462   5.030   8.803   1.944  0.3871  0.1593 -0.3347
   18CHTO   H73 7463   5.056   8.758   1.849 -3.1545  1.5209 -2.0736
   18CHTO   H74 7464   5.116   8.863   1.971  0.1620  0.0461  0.6329
   18CHTO   C40 7465   4.839   8.656   2.030 -0.1635 -0.8764 -0.5790
   18CHTO   H82 7466   4.832   8.632   1.924 -0.3388  0.8559 -0.9767
   18CHTO   O26 7467   4.806   8.545   2.116  0.1655  0.8291  0.0192
   18CHTO   C41 7468   4.879   8.426   2.086 -0.0522 -0.5807 -0.0284
   18CHTO   H83 7469   4.883   8.399   1.979 -0.9026  0.9030 -0.4477
   18CHTO   C52 7470   4.805   8.310   2.165 -0.1046  0.1334  0.1512
   18CHTO   O35 7471   4.678   8.260   2.089  0.4888 -0.4574  0.3055
   18CHTO   H71 7472   4.619   8.334   2.094  2.2464  1.0504 -0.7495
   18CHTO   O28 7473   4.756   8.766   2.057  0.0278 -0.2164  0.4403
   18CHTO   C42 7474   4.611   8.783   2.007 -0.0956  0.3446 -0.6454
   18CHTO   H84 7475   4.607   8.891   2.019  2.4313  0.1712  2.4085
   18CHTO   C44 7476   4.499   8.719   2.096  0.8958 -0.9618 -0.3292
   18CHTO   H86 7477   4.524   8.614   2.111  1.8149 -0.7160 -0.1012
   18CHTO   O32 7478   4.510   8.784   2.222 -0.2431  0.5851 -0.1429
   18CHTO   H69 7479   4.584   8.748   2.267 -1.3740  0.8437  2.0166
   18CHTO   C48 7480   4.353   8.737   2.034 -0.7767  0.7492 -0.5260
   18CHTO   H90 7481   4.327   8.842   2.048 -3.3232  0.2881 -1.6074
   18CHTO    N9 7482   4.249   8.660   2.115 -0.1552  0.3880 -0.3449
   18CHTO   H77 7483   4.243   8.555   2.087  1.1056  0.3383 -0.4693
   18CHTO   H78 7484   4.155   8.713   2.118 -0.6328 -0.5205  2.5394
   18CHTO   C51 7485   4.354   8.709   1.877 -0.0492 -0.6466  0.5083
   18CHTO   H93 7486   4.372   8.602   1.865  0.4690 -0.5121  0.0450
   18CHTO   O30 7487   4.453   8.788   1.811 -0.0472 -0.0732 -0.0605
   18CHTO   C46 7488   4.592   8.749   1.858 -0.3141  0.9676 -0.0809
   18CHTO   H88 7489   4.604   8.641   1.849 -2.1275  0.5764  1.6752
   18CHTO   C53 7490   4.696   8.818   1.767  0.4042  0.1528  0.5085
   18CHTO   O72 7491   4.668   8.785   1.628  0.1982  0.5421 -0.3621
   18CHTO  H199 7492   4.646   8.865   1.584 -0.8987  0.0663 -0.7068
   18CHTO   O22 7493   4.234   8.764   1.821 -0.6251  0.3995  0.2778
   18CHTO   C31 7494   4.168   8.687   1.703  0.1087 -0.3116  0.1143
   18CHTO   H59 7495   4.236   8.603   1.674 -1.0120 -0.5125 -2.0817
   18CHTO   C29 7496   4.028   8.626   1.736 -0.0937  0.0919  0.0767
   18CHTO   H57 7497   3.958   8.703   1.771  1.6260  1.8461 -0.2805
   18CHTO   O21 7498   4.037   8.525   1.841  0.0634  0.2504 -0.5675
   18CHTO   H37 7499   3.982   8.556   1.910  1.1248  1.7960 -0.3966
   18CHTO   C27 7500   3.956   8.550   1.613 -1.2645 -0.1254  0.3727
   18CHTO   H55 7501   4.023   8.470   1.581 -0.5385  0.7091 -0.2000
   18CHTO    N5 7502   3.812   8.499   1.639 -0.5991 -0.7963 -0.2960
   18CHTO   H43 7503   3.751   8.538   1.559  0.0924  2.0866  0.5208
   18CHTO   H44 7504   3.804   8.391   1.639 -1.7290 -0.7185 -0.5373
   18CHTO   C25 7505   3.951   8.662   1.499 -0.0105  1.7899  0.3483
   18CHTO   H53 7506   3.891   8.742   1.543 -0.6260  0.9079  1.1376
   18CHTO   O17 7507   4.073   8.712   1.470 -0.0322 -0.4406 -0.0030
   18CHTO   C32 7508   4.151   8.774   1.574  0.3422 -0.0786 -0.1004
   18CHTO   H60 7509   4.091   8.862   1.600  0.6561  0.5646 -1.5223
   18CHTO   C36 7510   4.288   8.817   1.505  0.3708 -0.1381  0.9543
   18CHTO   O25 7511   4.275   8.921   1.412  0.3700 -0.1069  0.7916
   18CHTO   H40 7512   4.358   8.952   1.380  0.9391 -1.9810  0.3981
   18CHTO   O15 7513   3.893   8.613   1.367  0.3803 -0.3104 -0.3164
   18CHTO   C19 7514   3.895   8.558   1.230 -1.0140  0.5243  0.6428
   18CHTO   H47 7515   3.787   8.562   1.208 -1.0232  2.0318  0.8896
   18CHTO   C20 7516   3.980   8.637   1.124 -0.4571  0.1290 -0.7359
   18CHTO   H48 7517   4.085   8.651   1.156 -1.1461  0.1856  1.5675
   18CHTO   O19 7518   3.925   8.770   1.126 -0.2624 -0.0988 -0.1441
   18CHTO   H35 7519   3.979   8.833   1.083 -2.3084  0.1888 -2.3666
   18CHTO   C21 7520   3.986   8.576   0.982 -1.5330  0.3996 -0.3031
   18CHTO   H49 7521   3.884   8.588   0.944 -1.7043  0.1534  0.0635
   18CHTO    N4 7522   4.086   8.643   0.885  0.1938 -0.3741 -0.2962
   18CHTO   H41 7523   4.102   8.578   0.801  2.1656 -0.1772 -0.0798
   18CHTO   H42 7524   4.067   8.746   0.857  0.4488  0.3095  1.9178
   18CHTO   C22 7525   4.023   8.427   0.991 -0.0392  0.1903 -0.8031
   18CHTO   H50 7526   4.119   8.411   1.040  0.0724 -0.4280 -1.2140
   18CHTO   O14 7527   3.929   8.371   1.083  0.2584 -0.0759  0.4894
   18CHTO   C23 7528   3.932   8.407   1.226 -0.0090 -0.1788 -0.0108
   18CHTO   H51 7529   4.035   8.391   1.261  0.4100  0.3547 -0.9825
   18CHTO   C34 7530   3.829   8.324   1.299 -0.1552 -0.4378  0.3509
   18CHTO   O23 7531   3.701   8.339   1.240  0.2402  0.3438  0.6615
   18CHTO   H38 7532   3.635   8.337   1.306 -0.6250 -0.2429 -0.2173
   18CHTO   O16 7533   4.014   8.336   0.881  0.2127  0.2081  0.0188
   18CHTO   C24 7534   4.152   8.259   0.855 -0.4235 -0.0840  0.2100
   18CHTO   H52 7535   4.238   8.297   0.910 -0.7796  2.6430 -1.0322
   18CHTO   C26 7536   4.185   8.274   0.704 -0.0327 -0.0695  0.1782
   18CHTO   H54 7537   4.113   8.225   0.636 -0.6164  3.3050 -1.7347
   18CHTO   O20 7538   4.183   8.411   0.667 -0.0005 -0.3346 -0.4771
   18CHTO   H36 7539   4.250   8.449   0.720  0.2395  2.0986 -2.4587
   18CHTO   C30 7540   4.322   8.192   0.681  0.2349 -0.3030  0.0426
   18CHTO   H58 7541   4.408   8.224   0.741  1.3429 -4.5773  0.8880
   18CHTO    N6 7542   4.370   8.194   0.537 -0.5587 -0.0543  0.0254
   18CHTO   H45 7543   4.459   8.254   0.529 -1.4116  1.0542 -1.3767
   18CHTO   H46 7544   4.296   8.240   0.473  0.0266  0.6549 -0.1530
   18CHTO   C33 7545   4.306   8.046   0.726 -0.6938 -0.1817 -0.1106
   18CHTO   H61 7546   4.224   8.003   0.668 -0.5732  1.3300 -1.4648
   18CHTO   O18 7547   4.269   8.045   0.865  0.2117  0.1465 -0.4317
   18CHTO   C28 7548   4.141   8.107   0.882  0.0916 -0.0515  0.1531
   18CHTO   H56 7549   4.058   8.068   0.823 -1.2056  0.4251  1.6365
   18CHTO   C35 7550   4.098   8.072   1.027  0.3471  0.6166 -0.4863
   18CHTO   O24 7551   4.071   7.936   1.051  0.4141 -0.2221 -0.5062
   18CHTO   H39 7552   4.034   7.920   1.135  2.6099 -0.3041  0.4737
   18CHTO    O9 7553   4.419   7.967   0.696 -0.0958 -0.1960  0.2864
   18CHTO   C13 7554   4.523   7.937   0.824  0.5867  0.0096 -0.2307
   18CHTO   H26 7555   4.463   7.884   0.901 -0.8237 -0.8395 -1.8815
   18CHTO   C11 7556   4.587   8.068   0.879  0.5063  0.0999 -0.6728
   18CHTO   H24 7557   4.513   8.140   0.917 -0.3658 -0.0973 -1.9661
   18CHTO    O8 7558   4.657   8.138   0.772  0.1255 -0.0477  0.6862
   18CHTO    H3 7559   4.650   8.229   0.794  4.1092  0.2913  1.0323
   18CHTO    C9 7560   4.682   8.027   0.992 -0.4829 -1.1632 -0.2035
   18CHTO   H22 7561   4.626   7.977   1.072  0.7620 -0.6459  1.0177
   18CHTO    N2 7562   4.741   8.152   1.061 -0.5547  0.4019  0.0743
   18CHTO   H10 7563   4.711   8.168   1.163 -0.0997  1.1767  0.0916
   18CHTO   H11 7564   4.847   8.136   1.062 -0.7776 -1.2284 -0.4805
   18CHTO    C7 7565   4.801   7.930   0.942 -0.1580 -0.4101 -0.0064
   18CHTO   H20 7566   4.853   7.902   1.037  3.0285 -0.4880 -1.6993
   18CHTO    O4 7567   4.737   7.813   0.887 -0.4233 -0.0086  0.3687
   18CHTO   C14 7568   4.633   7.826   0.788 -0.1736  0.1889 -0.4229
   18CHTO   H27 7569   4.574   7.732   0.782 -1.0042  0.6193  0.7961
   18CHTO   C18 7570   4.694   7.846   0.648 -0.7605 -0.0456  0.6574
   18CHTO   O13 7571   4.767   7.732   0.610 -0.2234 -0.5215 -0.0356
   18CHTO    H7 7572   4.859   7.750   0.597 -0.6418  0.9553 -1.0522
   18CHTO    O2 7573   4.914   7.993   0.841 -0.1244  0.2610  0.1520
   18CHTO    C1 7574   5.050   7.947   0.854 -0.0528 -0.6249 -0.3863
   18CHTO   H14 7575   5.087   7.966   0.751  1.7228  1.2257  0.5598
   18CHTO    C2 7576   5.077   7.792   0.886  0.1041 -0.2131  0.1936
   18CHTO   H15 7577   5.032   7.765   0.982  0.3540 -0.7603  0.1582
   18CHTO    O6 7578   5.016   7.707   0.785 -0.2929 -0.5461 -1.1803
   18CHTO    H1 7579   5.083   7.651   0.751  0.1108  0.8494 -2.7215
   18CHTO    C3 7580   5.236   7.764   0.900  0.3412  0.2050 -0.4323
   18CHTO   H16 7581   5.287   7.760   0.803 -0.0436  1.4088 -0.6941
   18CHTO    N1 7582   5.262   7.628   0.958 -0.6475  0.0271  0.2751
   18CHTO    H8 7583   5.304   7.550   0.897 -0.3751 -0.3172  0.8881
   18CHTO    H9 7584   5.311   7.633   1.054 -0.5733  0.1908  0.2278
   18CHTO    C4 7585   5.303   7.873   0.986 -0.0389  0.8420  0.6110
   18CHTO   H17 7586   5.258   7.876   1.085 -0.4257  3.4595  0.3856
   18CHTO    O1 7587   5.268   8.003   0.937  0.2011 -0.4434 -0.2197
   18CHTO    C5 7588   5.130   8.045   0.948 -0.0622  0.2052 -0.4977
   18CHTO   H18 7589   5.102   8.041   1.053 -0.9004 -0.7127 -0.7523
   18CHTO   C16 7590   5.122   8.196   0.893  0.1705  0.3309  0.5769
   18CHTO   O11 7591   5.213   8.274   0.975 -0.0154  0.4380  0.2658
   18CHTO    H5 7592   5.174   8.354   1.005 -0.0989  0.7078 -0.5769
   18CHTO    O3 7593   5.444   7.877   0.993 -0.1057  0.2025  0.2090
   18CHTO    C6 7594   5.506   7.897   1.124  0.6032  0.0399 -1.2330
   18CHTO   H19 7595   5.435   7.930   1.200  0.2930 -1.4459 -0.8598
   18CHTO    C8 7596   5.576   7.759   1.165 -0.7483 -0.0555  0.0112
   18CHTO   H21 7597   5.631   7.723   1.078 -0.8600  2.0330 -0.9807
   18CHTO    O7 7598   5.476   7.665   1.188 -0.6872  0.4424 -0.1888
   18CHTO    H2 7599   5.411   7.680   1.254  0.0945  0.7411  0.5309
   18CHTO   C12 7600   5.679   7.781   1.285  0.0765 -0.1782 -0.4514
   18CHTO   H25 7601   5.620   7.807   1.375  1.0335  0.3197  0.0339
   18CHTO    N3 7602   5.764   7.660   1.321 -0.2528 -0.1497 -0.9554
   18CHTO   H12 7603   5.811   7.607   1.240 -0.5218 -1.3728 -0.3198
   18CHTO   H13 7604   5.828   7.682   1.405 -1.1327  1.0982 -0.6088
   18CHTO   C15 7605   5.771   7.902   1.255 -0.7402  0.2669 -0.3914
   18CHTO   H28 7606   5.835   7.876   1.170 -1.8910 -0.3629 -1.0830
   18CHTO   O10 7607   5.846   7.951   1.361  0.1270 -0.0185  0.6006
   18CHTO    H4 7608   5.848   7.912   1.446  1.8462 -0.9944  0.1505
   18CHTO    O5 7609   5.700   8.022   1.228  0.3579  0.0660 -0.0843
   18CHTO   C10 7610   5.612   8.011   1.114 -0.3354  0.7318  0.5198
   18CHTO   H23 7611   5.679   7.990   1.030 -0.4827  1.2563  0.2716
   18CHTO   C17 7612   5.545   8.147   1.096 -0.1413  0.3566  0.0239
   18CHTO   O12 7613   5.640   8.242   1.043  0.2247 -0.1497  0.1861
   18CHTO    H6 7614   5.613   8.326   1.076  0.5555  0.7591 -1.8107
   19CHTO  H203 7615   5.075   9.883   0.250 -0.5941 -0.3744  0.2959
   19CHTO   O82 7616   5.105   9.854   0.166 -0.3338  0.1238  0.2133
   19CHTO  C123 7617   4.994   9.783   0.106  0.0649  0.1531 -0.2319
   19CHTO  H227 7618   4.935   9.848   0.040  0.8152 -0.8178 -1.8964
   19CHTO   O77 7619   5.047   9.685   0.016 -0.6384 -0.3162  0.0755
   19CHTO  C118 7620   4.958   9.596  -0.052 -0.5754 -0.3812  0.1839
   19CHTO  H222 7621   4.898   9.661  -0.118  0.3137 -2.0365 -2.3600
   19CHTO  C125 7622   5.041   9.505  -0.149  0.2747  0.8502 -0.0129
   19CHTO   O84 7623   5.144   9.433  -0.082 -0.5667  0.2264  0.5140
   19CHTO  H205 7624   5.220   9.482  -0.059 -0.9938  1.3415 -0.4071
   19CHTO  C114 7625   4.868   9.518   0.048 -0.0269  0.0987  0.1089
   19CHTO  H218 7626   4.933   9.463   0.116 -1.0204 -1.3243 -0.0661
   19CHTO  C116 7627   4.793   9.617   0.137  0.1693 -0.2261  0.0638
   19CHTO  H220 7628   4.726   9.684   0.080 -0.1930 -0.4628  0.2143
   19CHTO   O79 7629   4.719   9.534   0.228  0.1738 -0.1022  0.2278
   19CHTO  H201 7630   4.765   9.520   0.309 -0.8985 -1.8815  0.5379
   19CHTO  C120 7631   4.899   9.711   0.210 -0.8364  0.2800  0.2676
   19CHTO  H224 7632   4.968   9.647   0.268 -0.4296 -0.4596 -1.0009
   19CHTO   N21 7633   4.827   9.805   0.299 -0.8699 -1.3514  0.4503
   19CHTO  H211 7634   4.799   9.891   0.240 -1.9200 -1.2462  1.0912
   19CHTO  H212 7635   4.896   9.833   0.376 -2.4291 -1.7866  2.0380
   19CHTO   O75 7636   4.798   9.428  -0.029 -0.4472  0.5865 -0.1197
   19CHTO  C112 7637   4.807   9.260   0.003 -0.0279  0.0462 -0.5419
   19CHTO  H216 7638   4.750   9.239   0.095 -0.2392 -2.0478 -1.1253
   19CHTO   O73 7639   4.947   9.225   0.019 -0.0319 -0.9388 -0.1713
   19CHTO  C113 7640   4.984   9.089   0.012  0.3651  0.2785  0.0927
   19CHTO  H217 7641   4.925   9.043   0.094  1.2852 -0.9066  0.1085
   19CHTO  C124 7642   5.131   9.074   0.043 -0.0893  0.2758 -0.8098
   19CHTO   O83 7643   5.145   9.054   0.180  0.2663 -0.3820 -0.0045
   19CHTO  H204 7644   5.237   9.048   0.199  0.1749  1.2316  1.0752
   19CHTO  C109 7645   4.943   9.036  -0.122  0.2185  0.1529  0.2877
   19CHTO  H213 7646   4.989   9.101  -0.198 -0.1976  0.0847 -0.0253
   19CHTO  C110 7647   4.791   9.050  -0.147 -0.5357 -0.1610 -0.0964
   19CHTO  H214 7648   4.740   8.989  -0.072 -1.5221 -0.2986 -0.8775
   19CHTO   O78 7649   4.748   9.002  -0.274  0.5478 -0.0641 -1.0588
   19CHTO  H200 7650   4.724   8.911  -0.268 -0.1408  0.1197 -0.9196
   19CHTO  C111 7651   4.738   9.194  -0.127 -0.0712  0.0059  0.2488
   19CHTO  H215 7652   4.774   9.253  -0.213 -0.9759  0.3846  0.1294
   19CHTO   N19 7653   4.593   9.226  -0.110  0.4316 -0.3366  0.1829
   19CHTO  H207 7654   4.527   9.172  -0.042 -0.4184 -0.1724 -0.5023
   19CHTO  H208 7655   4.555   9.229  -0.211  0.5390 -1.2777  0.1031
   19CHTO   O74 7656   4.983   8.902  -0.148  0.3670  0.0828  0.6367
   19CHTO  C115 7657   5.013   8.838  -0.311 -0.0063 -0.0538  0.2864
   19CHTO  H219 7658   4.964   8.898  -0.388  1.2866 -0.8708 -1.2134
   19CHTO   O76 7659   5.166   8.838  -0.349  0.0884  0.4216 -0.9642
   19CHTO  C122 7660   5.250   8.752  -0.267 -0.9409 -0.0886 -0.1107
   19CHTO  H226 7661   5.298   8.810  -0.188 -0.3833 -0.7580  0.0438
   19CHTO  C126 7662   5.367   8.703  -0.360 -0.3922  0.4041  0.4111
   19CHTO   O85 7663   5.316   8.637  -0.480  0.3484  0.4686  0.3471
   19CHTO  H206 7664   5.288   8.701  -0.543  1.8799  1.8488  1.0184
   19CHTO  C121 7665   5.186   8.616  -0.206  0.2207  0.0284 -0.4880
   19CHTO  H225 7666   5.256   8.532  -0.225 -1.1906 -0.7841 -2.1486
   19CHTO   O81 7667   5.176   8.631  -0.068  0.2136  0.3223 -0.0785
   19CHTO  H202 7668   5.126   8.707  -0.045  0.1421  0.3544 -0.3443
   19CHTO  C119 7669   5.053   8.578  -0.288  0.0421  0.2417  0.5290
   19CHTO  H223 7670   5.086   8.563  -0.390 -1.5480  0.5266 -0.0364
   19CHTO  C117 7671   4.945   8.695  -0.297 -0.8698  0.3718 -0.3896
   19CHTO  H221 7672   4.880   8.709  -0.211  4.0092 -1.6418  3.9118
   19CHTO   N20 7673   4.862   8.676  -0.422 -0.1783 -0.1648 -0.1475
   19CHTO  H209 7674   4.815   8.768  -0.453 -1.4829 -0.1621  1.7452
   19CHTO  H210 7675   4.792   8.594  -0.410  1.3474 -1.5564 -0.6047
   19CHTO   O80 7676   5.002   8.442  -0.257 -0.5033  0.8093 -0.1760
   19CHTO  C103 7677   5.025   8.330  -0.350 -0.3884 -0.3581 -0.0117
   19CHTO  H190 7678   5.013   8.357  -0.455  1.4284  2.0410  0.3271
   19CHTO  C101 7679   5.160   8.256  -0.332  0.7941  0.2580  0.7164
   19CHTO  H188 7680   5.171   8.235  -0.226 -0.8681  2.1197  1.2844
   19CHTO   O68 7681   5.274   8.345  -0.363  0.1390  0.2990  0.6187
   19CHTO  H168 7682   5.307   8.329  -0.449 -0.4955  1.3907  0.1622
   19CHTO   C99 7683   5.159   8.113  -0.407 -0.4064 -0.0767  0.5093
   19CHTO  H186 7684   5.164   8.136  -0.515 -2.0521  1.4862  0.7428
   19CHTO   N17 7685   5.277   8.030  -0.370  0.2229 -0.0609  0.5603
   19CHTO  H174 7686   5.300   7.947  -0.435  1.2032  3.0096 -3.1309
   19CHTO  H175 7687   5.261   7.991  -0.270 -2.2863  0.6643  0.4892
   19CHTO   C97 7688   5.031   8.037  -0.385  0.6077 -0.2162 -0.0197
   19CHTO  H184 7689   5.037   7.990  -0.286  0.3013  0.6289  0.4055
   19CHTO   O64 7690   4.913   8.116  -0.397  0.0968 -0.2777  0.0796
   19CHTO  C104 7691   4.912   8.230  -0.311  0.8301  0.2372 -0.5418
   19CHTO  H191 7692   4.926   8.203  -0.206  0.2680 -0.5418 -0.6608
   19CHTO  C108 7693   4.774   8.296  -0.334 -0.1690 -0.1251 -0.0118
   19CHTO   O71 7694   4.663   8.207  -0.312 -0.0040  0.0986  0.1983
   19CHTO  H171 7695   4.593   8.249  -0.267  0.5698  0.6002  0.6392
   19CHTO   O62 7696   5.014   7.946  -0.498 -0.4510  0.1194 -0.3592
   19CHTO   C91 7697   4.933   7.827  -0.492  0.0305  0.7197 -0.2982
   19CHTO  H178 7698   4.903   7.809  -0.388 -0.4372 -0.4911 -0.6335
   19CHTO   C92 7699   5.031   7.701  -0.536 -0.0790 -0.0579  0.7919
   19CHTO  H179 7700   5.080   7.726  -0.631 -1.6907  2.0431  0.4700
   19CHTO   O66 7701   5.127   7.677  -0.437  0.2118 -0.1075  0.2638
   19CHTO  H166 7702   5.078   7.670  -0.358 -2.2964 -3.7048 -1.4946
   19CHTO   C93 7703   4.945   7.561  -0.566 -0.5110  0.1255  0.0194
   19CHTO  H180 7704   4.907   7.519  -0.472  0.7864 -0.6632  0.2103
   19CHTO   N16 7705   5.033   7.462  -0.627 -0.0202  0.0785  0.3005
   19CHTO  H172 7706   4.970   7.375  -0.640 -0.8034  0.8140 -1.0651
   19CHTO  H173 7707   5.104   7.424  -0.555 -1.0529 -0.8856  0.8207
   19CHTO   C94 7708   4.823   7.601  -0.661 -0.1593 -0.1032  0.0429
   19CHTO  H181 7709   4.854   7.626  -0.762 -2.2951 -0.0976 -0.6355
   19CHTO   O61 7710   4.750   7.710  -0.603 -0.1080 -0.5831 -0.2212
   19CHTO   C95 7711   4.819   7.839  -0.594 -0.3956  0.3218 -0.1037
   19CHTO  H182 7712   4.869   7.859  -0.689  0.5936  0.2709  0.4030
   19CHTO  C106 7713   4.714   7.948  -0.567 -0.1955 -0.0235 -0.1555
   19CHTO   O69 7714   4.637   7.979  -0.682  0.2367 -0.3660  0.2185
   19CHTO  H169 7715   4.583   8.056  -0.685 -0.2546 -0.7241 -0.3717
   19CHTO   O63 7716   4.714   7.488  -0.673 -0.2972 -0.6598 -0.0968
   19CHTO   C96 7717   4.594   7.514  -0.788  0.9439 -0.2844  0.7287
   19CHTO  H183 7718   4.635   7.557  -0.879 -1.4286  2.1060  0.7354
   19CHTO   C98 7719   4.488   7.619  -0.749  0.1370 -0.5299 -0.3930
   19CHTO  H185 7720   4.530   7.716  -0.720  0.2618 -0.1962 -1.6841
   19CHTO   O67 7721   4.407   7.638  -0.864 -0.1109 -0.0674 -0.3596
   19CHTO  H167 7722   4.385   7.728  -0.873 -2.3211 -0.2589  2.3676
   19CHTO  C102 7723   4.386   7.576  -0.640  0.3914  0.3384 -0.3018
   19CHTO  H189 7724   4.295   7.638  -0.647  1.8265  2.3793 -1.3366
   19CHTO   N18 7725   4.427   7.599  -0.500 -0.7243  0.3243  0.1407
   19CHTO  H176 7726   4.350   7.556  -0.437  0.6229 -1.1850  0.7954
   19CHTO  H177 7727   4.447   7.701  -0.473  1.2602 -0.0234  0.0486
   19CHTO  C105 7728   4.336   7.428  -0.660  0.2369 -0.3762 -0.3099
   19CHTO  H192 7729   4.383   7.359  -0.589  0.6575 -0.1153 -0.3342
   19CHTO   O65 7730   4.377   7.380  -0.790  0.7638  0.0126  0.2370
   19CHTO  C100 7731   4.519   7.378  -0.817  0.0281  0.0135 -0.2306
   19CHTO  H187 7732   4.556   7.295  -0.755 -0.8547 -1.3277 -1.4569
   19CHTO  C107 7733   4.513   7.333  -0.964  0.0490  1.0124 -0.1659
   19CHTO   O70 7734   4.643   7.344  -1.018  0.3375  0.4436 -0.0622
   19CHTO  H170 7735   4.645   7.294  -1.098 -0.3268 -0.9630  0.7890
   19CHTO   O57 7736   4.168   7.431  -0.641  0.6894  0.3921 -0.1153
   19CHTO   C85 7737   4.095   7.308  -0.670 -0.1660 -0.5098 -0.0294
   19CHTO  H157 7738   4.166   7.224  -0.679  1.9008  1.3129 -1.1500
   19CHTO   C83 7739   4.037   7.322  -0.814 -0.2053  0.4362  0.0807
   19CHTO  H155 7740   4.121   7.332  -0.883  0.8873  1.1554  1.4943
   19CHTO   O56 7741   3.966   7.448  -0.833  0.0795  0.4462 -0.1905
   19CHTO  H135 7742   3.996   7.518  -0.779 -1.0186  1.4154 -0.8203
   19CHTO   C81 7743   3.952   7.199  -0.856 -0.4726  0.3279 -0.2461
   19CHTO  H153 7744   4.006   7.104  -0.845 -0.6711  0.2649  0.1742
   19CHTO   N14 7745   3.917   7.199  -0.999 -0.1415 -0.4585 -0.4035
   19CHTO  H141 7746   3.825   7.149  -1.019 -0.4756  0.5721 -1.4239
   19CHTO  H142 7747   3.906   7.300  -1.032 -2.0537 -0.7929 -0.8421
   19CHTO   C79 7748   3.830   7.194  -0.751  0.1554  0.4565 -0.1358
   19CHTO  H151 7749   3.765   7.111  -0.778 -0.3875  1.4430 -1.9210
   19CHTO   O52 7750   3.882   7.179  -0.615 -0.5183  0.1474  0.5534
   19CHTO   C86 7751   3.977   7.279  -0.569 -0.4498  0.5478  0.4738
   19CHTO  H158 7752   3.920   7.371  -0.546 -0.2860  1.0390 -1.0068
   19CHTO   C90 7753   4.028   7.228  -0.429  0.1849 -0.1288 -0.6355
   19CHTO   O60 7754   4.145   7.289  -0.372 -0.0101  0.1964 -0.1272
   19CHTO  H138 7755   4.225   7.263  -0.414  0.2943 -0.3013  0.7399
   19CHTO   O50 7756   3.741   7.311  -0.754  0.7663  0.0687  0.3571
   19CHTO   C73 7757   3.603   7.338  -0.766 -0.2133 -0.0078 -0.0534
   19CHTO  H145 7758   3.546   7.263  -0.708  1.6052  0.8127  2.8724
   19CHTO   C74 7759   3.548   7.338  -0.911 -0.0217 -0.5433 -0.3886
   19CHTO  H146 7760   3.565   7.236  -0.949 -0.4164 -1.0155  0.6831
   19CHTO   O54 7761   3.402   7.352  -0.905  0.2272  0.4914  0.1413
   19CHTO  H133 7762   3.373   7.427  -0.857  1.1852  0.3701  0.9181
   19CHTO   C75 7763   3.625   7.448  -0.993 -0.8356  0.4296  0.4858
   19CHTO  H147 7764   3.727   7.410  -1.009  0.1993  1.6394  3.8236
   19CHTO   N13 7765   3.567   7.459  -1.129 -0.3419  0.3943 -0.2287
   19CHTO  H139 7766   3.565   7.561  -1.163 -0.8851  0.4501 -0.0269
   19CHTO  H140 7767   3.466   7.422  -1.128  0.6988 -2.7191 -1.5924
   19CHTO   C76 7768   3.615   7.586  -0.914  0.3745  0.1370 -0.3212
   19CHTO  H148 7769   3.511   7.617  -0.922  0.6109  0.8785 -0.5338
   19CHTO   O49 7770   3.649   7.574  -0.772 -0.1455  0.7807  0.4753
   19CHTO   C77 7771   3.577   7.475  -0.701 -0.6655  0.6223 -0.5927
   19CHTO  H149 7772   3.471   7.499  -0.696 -0.6192  1.1086 -1.7331
   19CHTO   C88 7773   3.610   7.468  -0.549  0.0817  0.5752  0.0729
   19CHTO   O58 7774   3.565   7.590  -0.469  0.4849  0.5516 -0.3197
   19CHTO  H136 7775   3.612   7.669  -0.489 -1.6044  1.8415 -0.2708
   19CHTO   O51 7776   3.722   7.692  -0.977 -0.9791 -0.0014  0.3304
   19CHTO   C78 7777   3.705   7.837  -0.930 -0.8791 -0.0486 -0.4080
   19CHTO  H150 7778   3.645   7.843  -0.837 -0.6377 -2.8900 -0.0347
   19CHTO   C80 7779   3.627   7.918  -1.035 -0.3683  0.0028  0.0388
   19CHTO  H152 7780   3.644   7.878  -1.137 -1.1116 -0.9174  0.2584
   19CHTO   O55 7781   3.487   7.883  -1.019 -0.1481  0.3447 -0.0445
   19CHTO  H134 7782   3.470   7.792  -1.032  0.4268  0.2083  0.1612
   19CHTO   C84 7783   3.634   8.072  -1.023  0.3636  0.4299  0.4015
   19CHTO  H156 7784   3.569   8.098  -0.940 -0.2902  0.3075 -0.0691
   19CHTO   N15 7785   3.575   8.151  -1.140 -1.0045 -0.2877 -0.2086
   19CHTO  H143 7786   3.575   8.090  -1.228 -0.8877  1.5905 -1.5425
   19CHTO  H144 7787   3.472   8.164  -1.114 -0.5084  1.3787  1.0277
   19CHTO   C87 7788   3.781   8.118  -0.993  0.0395  0.2554  0.1721
   19CHTO  H159 7789   3.839   8.119  -1.086  1.5729 -0.8601  1.0946
   19CHTO   O53 7790   3.842   8.027  -0.885  0.0658 -0.4458 -0.1335
   19CHTO   C82 7791   3.848   7.892  -0.909  0.1760 -0.2425  0.0700
   19CHTO  H154 7792   3.914   7.877  -0.995  0.2148 -0.2023  0.0923
   19CHTO   C89 7793   3.919   7.816  -0.795  0.1560 -0.3941  0.0188
   19CHTO   O59 7794   3.873   7.864  -0.668  0.1211 -0.1857 -0.5209
   19CHTO  H137 7795   3.886   7.806  -0.595  0.6919  4.3872  3.2738
   19CHTO   O45 7796   3.800   8.275  -0.936 -0.6636 -0.0926 -0.1484
   19CHTO   C67 7797   3.753   8.282  -0.795 -0.1835  0.6519 -0.1477
   19CHTO  H124 7798   3.690   8.197  -0.765  2.2509 -2.1403 -2.5979
   19CHTO   C65 7799   3.884   8.286  -0.713  0.0712 -0.1006  0.0389
   19CHTO  H122 7800   3.965   8.321  -0.778  1.1669 -3.1097 -0.2721
   19CHTO   O44 7801   3.910   8.156  -0.657  0.4154  0.2233  0.0662
   19CHTO  H102 7802   3.992   8.148  -0.613  0.1060  0.2846  0.6601
   19CHTO   C63 7803   3.882   8.396  -0.602 -0.2318 -0.1599  0.9111
   19CHTO  H120 7804   3.901   8.494  -0.646  0.6284 -0.9134 -0.4247
   19CHTO   N11 7805   3.997   8.397  -0.512  0.5611 -0.1506  0.0075
   19CHTO  H108 7806   4.032   8.299  -0.487  0.2149  0.0864  1.4763
   19CHTO  H109 7807   3.963   8.454  -0.428  0.7866  0.2002 -0.1399
   19CHTO   C61 7808   3.743   8.403  -0.538 -0.0301 -0.0486  0.0056
   19CHTO  H118 7809   3.739   8.495  -0.477 -0.2291  0.6693 -1.0845
   19CHTO   O40 7810   3.633   8.410  -0.632  0.0640 -0.3025  0.0468
   19CHTO   C68 7811   3.670   8.408  -0.774 -0.1650  0.0770 -0.3005
   19CHTO  H125 7812   3.736   8.487  -0.813 -1.0195  2.1022  2.2155
   19CHTO   C72 7813   3.545   8.414  -0.860  0.6073 -0.3539  0.4743
   19CHTO   O48 7814   3.447   8.324  -0.824 -0.2111 -0.0408 -0.1337
   19CHTO  H105 7815   3.382   8.363  -0.770  0.9888  0.0398  1.2993
   19CHTO   O38 7816   3.725   8.292  -0.449 -0.0470 -0.4752 -0.4638
   19CHTO   C55 7817   3.618   8.316  -0.358 -0.3820  0.4842 -0.1965
   19CHTO  H112 7818   3.546   8.386  -0.402 -0.8818 -0.2386 -0.5489
   19CHTO   C56 7819   3.674   8.369  -0.221  0.3391 -0.0987 -0.2556
   19CHTO  H113 7820   3.755   8.300  -0.192 -1.0355 -0.9606  1.5991
   19CHTO   O42 7821   3.727   8.499  -0.258  0.5598  0.1822 -0.0930
   19CHTO  H100 7822   3.743   8.551  -0.182 -0.2649  2.4914 -1.4638
   19CHTO   C57 7823   3.562   8.390  -0.113  0.4067  0.3816  0.1918
   19CHTO  H114 7824   3.513   8.479  -0.152  0.8819  0.2353 -0.7524
   19CHTO   N10 7825   3.586   8.427   0.031 -0.3912  0.2800 -0.1803
   19CHTO  H106 7826   3.679   8.380   0.058  1.0998  2.3055 -1.6428
   19CHTO  H107 7827   3.508   8.387   0.094  0.2568 -0.7643 -0.0294
   19CHTO   C58 7828   3.465   8.266  -0.115  0.5432  0.2431  0.1261
   19CHTO  H115 7829   3.510   8.186  -0.053 -0.7559 -0.9548 -0.4425
   19CHTO   O37 7830   3.437   8.196  -0.238  0.4408  0.6957 -0.5904
   19CHTO   C59 7831   3.538   8.182  -0.336  0.3054 -1.0053  0.6950
   19CHTO  H116 7832   3.613   8.107  -0.311 -0.0118 -0.7539  2.4832
   19CHTO   C70 7833   3.476   8.132  -0.467 -0.1731 -0.0276 -0.0360
   19CHTO   O46 7834   3.371   8.214  -0.514  0.4880  0.0375  0.4952
   19CHTO  H103 7835   3.305   8.228  -0.448  0.2760  0.5026  0.1936
   19CHTO   O39 7836   3.316   8.310  -0.053  0.1741  0.4677  0.2636
   19CHTO   C60 7837   3.204   8.318  -0.150 -0.0841  0.0209 -0.1884
   19CHTO  H117 7838   3.245   8.329  -0.250  1.3637 -0.7096  0.2930
   19CHTO   C62 7839   3.116   8.182  -0.137  0.4715 -0.1071  0.1979
   19CHTO  H119 7840   3.186   8.096  -0.144  0.1182 -0.5615  1.9955
   19CHTO   O43 7841   3.055   8.177  -0.007  0.8555 -0.2509 -0.0985
   19CHTO  H101 7842   3.009   8.096   0.002 -0.0994  0.4719  1.6079
   19CHTO   C66 7843   3.011   8.168  -0.253  0.4406 -0.5036 -0.2878
   19CHTO  H123 7844   3.061   8.174  -0.349 -2.3064  1.0436 -1.6630
   19CHTO   N12 7845   2.939   8.039  -0.253 -0.5903 -0.1924  0.2337
   19CHTO  H110 7846   2.889   8.021  -0.347  2.2591  2.7639 -1.9375
   19CHTO  H111 7847   2.858   8.039  -0.182 -0.5158 -0.5064  0.3206
   19CHTO   C69 7848   2.908   8.283  -0.241  0.0026 -1.1284  0.4222
   19CHTO  H126 7849   2.848   8.268  -0.149 -1.8496  0.0203 -0.5846
   19CHTO   O41 7850   3.004   8.424  -0.239  0.7240  0.0965  0.1203
   19CHTO   C64 7851   3.103   8.430  -0.119  0.2228  0.2128 -0.5960
   19CHTO  H121 7852   3.052   8.410  -0.023 -0.8002  3.5948 -0.3891
   19CHTO   C71 7853   3.172   8.568  -0.105 -0.5899  0.0798 -0.5182
   19CHTO   O47 7854   3.263   8.596  -0.208 -0.1056  0.2988  0.0606
   19CHTO  H104 7855   3.340   8.545  -0.192  0.6543  0.7600 -1.9952
   19CHTO   O34 7856   2.800   8.298  -0.353 -0.3892  0.3820  0.5921
   19CHTO   C49 7857   2.812   8.372  -0.501 -0.7322  0.3283 -0.1657
   19CHTO   H91 7858   2.820   8.479  -0.482 -1.1044  0.6691 -1.8895
   19CHTO   C47 7859   2.687   8.331  -0.578  0.4646  0.1578  0.4128
   19CHTO   H89 7860   2.699   8.380  -0.677 -1.6080 -0.2964 -0.0929
   19CHTO   O33 7861   2.572   8.381  -0.512 -0.0935 -0.4871 -0.5654
   19CHTO   H70 7862   2.587   8.468  -0.480 -1.7929 -0.8164  1.2635
   19CHTO   C45 7863   2.684   8.167  -0.603  0.1354 -0.0931  0.5368
   19CHTO   H87 7864   2.689   8.113  -0.508  1.7367 -1.6965 -0.4036
   19CHTO    N8 7865   2.559   8.129  -0.669  0.8180 -0.2598 -0.0080
   19CHTO   H75 7866   2.509   8.041  -0.631  1.3714 -0.0584  1.2157
   19CHTO   H76 7867   2.488   8.210  -0.680 -0.4256 -1.3277  0.0833
   19CHTO   C43 7868   2.817   8.120  -0.671 -0.4947 -0.9144 -0.3311
   19CHTO   H85 7869   2.823   8.014  -0.649  1.8116 -0.1951  2.8035
   19CHTO   O29 7870   2.939   8.190  -0.625 -0.2830 -0.4806  0.1656
   19CHTO   C50 7871   2.935   8.325  -0.575 -0.2417  0.2677  0.1879
   19CHTO   H92 7872   3.021   8.322  -0.507 -0.2783  1.1300  0.2755
   19CHTO   C54 7873   2.995   8.426  -0.687 -0.1006  0.1135 -0.7146
   19CHTO   O36 7874   2.923   8.429  -0.812  0.0399 -0.2687 -0.0414
   19CHTO   H72 7875   2.909   8.342  -0.843 -1.0940 -0.7069  1.6626
   19CHTO   O27 7876   2.821   8.141  -0.813 -0.3593  0.2937 -0.0883
   19CHTO   C37 7877   2.867   8.068  -0.925 -0.4804 -0.2732  0.5613
   19CHTO   H79 7878   2.870   7.959  -0.906 -2.0452 -0.7046 -1.5610
   19CHTO   C38 7879   2.773   8.088  -1.046 -0.0698 -0.3331  0.1242
   19CHTO   H80 7880   2.759   8.197  -1.060  1.4686 -0.0373  0.7350
   19CHTO   O31 7881   2.645   8.031  -1.008  0.6106 -0.3720  0.1699
   19CHTO   H68 7882   2.584   8.102  -1.009  1.5352  0.4468  0.3786
   19CHTO   C39 7883   2.837   8.021  -1.174  0.4006  0.4583  0.1644
   19CHTO   H81 7884   2.832   7.916  -1.144  0.0609 -0.4812 -3.0584
   19CHTO    N7 7885   2.757   8.025  -1.301 -0.2736 -0.5423  0.0498
   19CHTO   H73 7886   2.797   7.964  -1.380  1.1116  0.2980  0.0847
   19CHTO   H74 7887   2.660   7.985  -1.278 -0.6283  0.1145 -0.3006
   19CHTO   C40 7888   2.983   8.061  -1.199 -0.2335 -0.5165 -0.1102
   19CHTO   H82 7889   2.988   8.167  -1.224  0.7353  0.2495  3.0437
   19CHTO   O26 7890   3.061   8.035  -1.075  0.1943 -0.3545  0.0170
   19CHTO   C41 7891   3.012   8.110  -0.957  0.0328  0.2067  0.0871
   19CHTO   H83 7892   3.021   8.218  -0.974 -0.7733  0.3538  0.6101
   19CHTO   C52 7893   3.123   8.082  -0.846  0.2302  0.1997  0.4069
   19CHTO   O35 7894   3.265   8.110  -0.880 -0.5506 -0.4377 -0.3132
   19CHTO   H71 7895   3.307   8.029  -0.858 -1.3017 -1.2210 -1.6999
   19CHTO   O28 7896   3.051   8.000  -1.311 -0.0736 -0.0119 -0.4703
   19CHTO   C42 7897   3.194   8.006  -1.342 -0.3021  0.3138  0.1978
   19CHTO   H84 7898   3.252   8.036  -1.255  1.6044  1.7378 -1.5244
   19CHTO   C44 7899   3.237   8.108  -1.456  0.1943  0.0410  0.3199
   19CHTO   H86 7900   3.176   8.093  -1.545 -0.3606 -0.8581  0.8429
   19CHTO   O32 7901   3.204   8.240  -1.403 -0.0817 -0.9790  0.4552
   19CHTO   H69 7902   3.282   8.292  -1.411  0.2301 -1.5423 -0.1992
   19CHTO   C48 7903   3.388   8.090  -1.496  0.1893 -0.1341  0.9384
   19CHTO   H90 7904   3.444   8.128  -1.410  1.8261  0.5090 -0.3764
   19CHTO    N9 7905   3.413   8.184  -1.618 -0.4571 -0.3476 -0.2220
   19CHTO   H77 7906   3.503   8.155  -1.672  1.1994  1.5255  1.4323
   19CHTO   H78 7907   3.428   8.281  -1.574 -1.5803 -0.1564 -0.2659
   19CHTO   C51 7908   3.426   7.946  -1.528  0.0934  0.5327 -0.1353
   19CHTO   H93 7909   3.372   7.907  -1.615  2.1700 -0.6087 -0.9465
   19CHTO   O30 7910   3.398   7.870  -1.409  0.0451  0.0628 -0.2927
   19CHTO   C46 7911   3.243   7.865  -1.386  0.4288 -0.0693 -0.2428
   19CHTO   H88 7912   3.192   7.828  -1.475  1.3541  0.6387 -1.0764
   19CHTO   C53 7913   3.209   7.764  -1.281  0.2319  0.0229  0.2161
   19CHTO   O72 7914   3.269   7.639  -1.306 -0.7349  0.4505  0.0500
   19CHTO  H199 7915   3.341   7.634  -1.247  0.3089  1.3197 -1.1119
   19CHTO   O22 7916   3.566   7.936  -1.552 -1.0032 -0.0299 -0.4637
   19CHTO   C31 7917   3.641   7.812  -1.585  0.0690  0.4187  0.2568
   19CHTO   H59 7918   3.626   7.741  -1.501 -1.5693 -1.3556 -1.4841
   19CHTO   C29 7919   3.597   7.730  -1.720  1.2085  0.3778  0.0644
   19CHTO   H57 7920   3.584   7.808  -1.796 -0.4335  0.2152  0.1760
   19CHTO   O21 7921   3.468   7.664  -1.701 -0.3372  0.7110  0.7596
   19CHTO   H37 7922   3.421   7.665  -1.782  1.5940  0.2418 -0.4202
   19CHTO   C27 7923   3.708   7.628  -1.773 -0.5538 -0.6921  0.9897
   19CHTO   H55 7924   3.709   7.536  -1.712 -0.2976 -0.9883  0.5425
   19CHTO    N5 7925   3.674   7.588  -1.908  0.2934  0.2128 -0.0463
   19CHTO   H43 7926   3.754   7.525  -1.943  0.4048  0.2495  0.1417
   19CHTO   H44 7927   3.586   7.525  -1.908  0.2895  0.2137 -1.4130
   19CHTO   C25 7928   3.852   7.686  -1.753  0.1763 -0.1873  0.4247
   19CHTO   H53 7929   3.869   7.761  -1.831 -1.9931 -0.8865 -0.7489
   19CHTO   O17 7930   3.873   7.728  -1.621 -0.0402  0.3875  0.4916
   19CHTO   C32 7931   3.793   7.842  -1.586 -0.4092 -0.2660 -0.2318
   19CHTO   H60 7932   3.810   7.931  -1.648 -2.8163  0.9490  0.8052
   19CHTO   C36 7933   3.845   7.869  -1.438  0.3899 -0.2322 -0.1538
   19CHTO   O25 7934   3.798   7.997  -1.401 -0.0209  0.8569  0.0919
   19CHTO   H40 7935   3.829   8.038  -1.323 -1.0607  0.7751  0.5527
   19CHTO   O15 7936   3.962   7.581  -1.775  0.1816  0.0279  0.0903
   19CHTO   C19 7937   4.021   7.528  -1.892  0.3952  0.5350  0.7384
   19CHTO   H47 7938   3.940   7.541  -1.965 -0.6818 -0.5306  1.7114
   19CHTO   C20 7939   4.146   7.586  -1.962  0.5591 -0.3136 -0.0609
   19CHTO   H48 7940   4.232   7.588  -1.894  0.6031  1.4752 -0.1364
   19CHTO   O19 7941   4.110   7.717  -2.008  0.0291 -0.5436  0.1440
   19CHTO   H35 7942   4.154   7.782  -1.956 -0.2330  0.8837 -1.3677
   19CHTO   C21 7943   4.190   7.506  -2.093 -0.5804  0.1848 -0.7850
   19CHTO   H49 7944   4.107   7.512  -2.164 -0.0378  3.7270 -1.2221
   19CHTO    N4 7945   4.316   7.554  -2.153 -1.1584 -0.5854  0.5127
   19CHTO   H41 7946   4.306   7.660  -2.165  0.4677 -0.5689 -0.9163
   19CHTO   H42 7947   4.321   7.508  -2.251 -3.6933  1.1710 -0.4901
   19CHTO   C22 7948   4.196   7.359  -2.052  0.7427  0.1679  0.4995
   19CHTO   H50 7949   4.279   7.349  -1.981  0.3479 -0.6364  0.8531
   19CHTO   O14 7950   4.074   7.309  -2.000 -0.1935  0.4544 -0.5842
   19CHTO   C23 7951   4.042   7.372  -1.875 -0.4045  0.2432 -0.1000
   19CHTO   H51 7952   4.115   7.348  -1.796 -1.2931 -1.1665  0.3165
   19CHTO   C34 7953   3.911   7.302  -1.834  0.2100 -0.4504 -0.3217
   19CHTO   O23 7954   3.932   7.166  -1.802  0.5714 -0.3505 -0.4586
   19CHTO   H38 7955   3.879   7.134  -1.732 -0.8265 -0.4283 -1.5166
   19CHTO   O16 7956   4.220   7.276  -2.172 -0.4244  0.0968 -0.0902
   19CHTO   C24 7957   4.309   7.139  -2.152  0.4107  0.3910 -0.4411
   19CHTO   H52 7958   4.380   7.151  -2.070 -1.4656  1.0508  1.1157
   19CHTO   C26 7959   4.375   7.108  -2.290  0.1863  0.0550 -0.1751
   19CHTO   H54 7960   4.302   7.132  -2.369  0.4851 -0.1944 -0.5268
   19CHTO   O20 7961   4.479   7.207  -2.302 -0.4258 -0.3400  0.0767
   19CHTO   H36 7962   4.564   7.169  -2.309 -0.2613 -0.2859  1.6186
   19CHTO   C30 7963   4.423   6.963  -2.319 -0.1393  0.5158 -0.4984
   19CHTO   H58 7964   4.501   6.935  -2.247 -1.9162  0.3294  1.3718
   19CHTO    N6 7965   4.469   6.944  -2.458  0.2977  0.1555 -0.2252
   19CHTO   H45 7966   4.399   6.981  -2.532 -0.2000 -0.2797  0.0233
   19CHTO   H46 7967   4.488   6.838  -2.469  2.8266  0.2715  2.4825
   19CHTO   C33 7968   4.309   6.864  -2.281  0.1498  0.1453  0.5187
   19CHTO   H61 7969   4.218   6.884  -2.340 -0.0594 -2.6714 -0.1520
   19CHTO   O18 7970   4.272   6.888  -2.142  0.0721  0.1465 -0.6205
   19CHTO   C28 7971   4.213   7.016  -2.111  0.0059  0.3621  0.3400
   19CHTO   H56 7972   4.118   7.032  -2.162 -0.7677  0.6168  1.8157
   19CHTO   C35 7973   4.200   7.018  -1.957 -0.1441  0.4900  0.2189
   19CHTO   O24 7974   4.123   6.910  -1.913  0.5455 -0.1025 -0.1120
   19CHTO   H39 7975   4.131   6.903  -1.820  2.0086  0.3627 -0.1901
   19CHTO    O9 7976   4.346   6.730  -2.304  0.0861  0.0724 -0.4562
   19CHTO   C13 7977   4.233   6.629  -2.327  0.1317 -0.5763  0.4667
   19CHTO   H26 7978   4.181   6.668  -2.417  0.0655  1.1805  1.2499
   19CHTO   C11 7979   4.138   6.625  -2.202 -0.1356  0.2633  0.4749
   19CHTO   H24 7980   4.088   6.722  -2.190  0.6326  0.5387  1.5133
   19CHTO    O8 7981   4.206   6.602  -2.077  0.5448 -0.0341 -0.1821
   19CHTO    H3 7982   4.175   6.522  -2.039  0.9102  0.8537  2.0153
   19CHTO    C9 7983   4.023   6.526  -2.246 -0.7026 -0.6392  0.5288
   19CHTO   H22 7984   3.984   6.562  -2.342 -0.1698 -0.5587  0.3390
   19CHTO    N2 7985   3.914   6.521  -2.149  0.5348  0.4145 -0.5357
   19CHTO   H10 7986   3.910   6.611  -2.089 -0.9612 -0.2192  0.3408
   19CHTO   H11 7987   3.828   6.519  -2.215  0.5346  0.0963 -0.5263
   19CHTO    C7 7988   4.085   6.383  -2.275  0.2217 -0.7813 -0.0189
   19CHTO   H20 7989   4.001   6.326  -2.320 -0.4705  1.6932 -1.9518
   19CHTO    O4 7990   4.188   6.382  -2.375  0.0599 -0.2131  0.2221
   19CHTO   C14 7991   4.288   6.489  -2.373 -0.1450 -0.6140  0.6060
   19CHTO   H27 7992   4.321   6.504  -2.478 -0.6009 -0.5752  0.4690
   19CHTO   C18 7993   4.410   6.438  -2.293 -0.5731 -0.3079 -0.4170
   19CHTO   O13 7994   4.527   6.504  -2.340  0.1600  0.0636  0.6010
   19CHTO    H7 7995   4.514   6.596  -2.327 -1.3937  0.0980 -0.9312
   19CHTO    O2 7996   4.149   6.305  -2.137  0.5781  0.4023  0.1853
   19CHTO    C1 7997   4.117   6.164  -2.151 -0.3217 -0.1387  0.2707
   19CHTO   H14 7998   4.104   6.132  -2.256  0.9955 -2.5181  0.8016
   19CHTO    C2 7999   3.981   6.125  -2.080 -0.5255 -0.4869  0.2124
   19CHTO   H15 8000   3.981   6.175  -1.982 -1.9299  0.2804 -0.1661
   19CHTO    O6 8001   3.867   6.180  -2.149  0.2706  0.0451  0.5762
   19CHTO    H1 8002   3.831   6.255  -2.106  1.3248  0.6557  0.4084
   19CHTO    C3 8003   3.967   5.964  -2.059  0.2588 -0.5630  0.1870
   19CHTO   H16 8004   3.939   5.922  -2.157 -0.6953  0.1172  0.1624
   19CHTO    N1 8005   3.847   5.932  -1.968  0.0497  0.8942  0.2444
   19CHTO    H8 8006   3.796   6.027  -1.958 -1.4876 -0.0440  1.4601
   19CHTO    H9 8007   3.872   5.896  -1.870 -0.6753  0.3667  0.2417
   19CHTO    C4 8008   4.096   5.896  -2.018  0.3453 -0.3939 -0.1998
   19CHTO   H17 8009   4.112   5.913  -1.911  0.7148  0.7795 -0.4242
   19CHTO    O1 8010   4.198   5.937  -2.098  0.1786  0.2989  0.3416
   19CHTO    C5 8011   4.231   6.080  -2.090  0.0551  0.1760  0.7830
   19CHTO   H18 8012   4.242   6.113  -1.986  1.1631  1.4345  0.2856
   19CHTO   C16 8013   4.366   6.093  -2.164 -0.1467  0.3556  0.1882
   19CHTO   O11 8014   4.473   6.023  -2.099  0.3619 -0.0716 -0.1191
   19CHTO    H5 8015   4.514   6.083  -2.040 -0.1330  0.3758 -0.2327
   19CHTO    O3 8016   4.089   5.751  -2.036  0.1544 -0.0467 -0.1311
   19CHTO    C6 8017   4.159   5.664  -1.932  0.0702  0.5159 -0.0600
   19CHTO   H19 8018   4.216   5.724  -1.862  0.6205  0.0585 -0.1113
   19CHTO    C8 8019   4.049   5.580  -1.866 -0.1782  0.2484  0.4889
   19CHTO   H21 8020   3.987   5.537  -1.944 -0.5337 -0.0639  0.9440
   19CHTO    O7 8021   3.979   5.672  -1.790  0.1118 -0.0206 -0.1921
   19CHTO    H2 8022   3.916   5.624  -1.740 -0.3951  1.1437  0.3081
   19CHTO   C12 8023   4.097   5.446  -1.786 -0.0011 -0.0214  0.1753
   19CHTO   H25 8024   4.143   5.493  -1.696  0.2568  0.2798 -0.1127
   19CHTO    N3 8025   3.992   5.346  -1.747 -0.4126  0.1169 -0.2406
   19CHTO   H12 8026   3.976   5.347  -1.640  2.2594  4.7433  0.2216
   19CHTO   H13 8027   3.899   5.362  -1.799  0.9470  1.0191 -2.4647
   19CHTO   C15 8028   4.209   5.378  -1.868 -0.4459  0.2237 -0.1013
   19CHTO   H28 8029   4.163   5.327  -1.952 -1.8877  0.8655  0.2822
   19CHTO   O10 8030   4.287   5.280  -1.774 -0.1735 -0.1736  0.6253
   19CHTO    H4 8031   4.333   5.204  -1.805 -3.9550 -2.6740  0.8346
   19CHTO    O5 8032   4.314   5.464  -1.916  0.1890  0.1049 -0.4764
   19CHTO   C10 8033   4.263   5.569  -1.999 -0.3426 -0.2194 -0.3596
   19CHTO   H23 8034   4.219   5.517  -2.084  0.7850 -0.7846 -0.6034
   19CHTO   C17 8035   4.376   5.656  -2.055 -0.6590  0.7462  0.2370
   19CHTO   O12 8036   4.460   5.577  -2.139  0.0169 -0.1812 -0.1731
   19CHTO    H6 8037   4.443   5.594  -2.229  1.4807 -1.5368 -0.7227
   20CHTO  H203 8038   4.844   0.898   2.512 -0.7474  0.9497  0.4458
   20CHTO   O82 8039   4.926   0.923   2.474 -0.6063 -0.0764  0.0406
   20CHTO  C123 8040   4.896   1.010   2.363 -0.4732 -0.3977  0.0721
   20CHTO  H227 8041   4.800   1.060   2.383 -0.8514 -1.1045  0.0149
   20CHTO   O77 8042   5.013   1.106   2.369 -0.2616 -0.4222 -0.9506
   20CHTO  C118 8043   5.004   1.213   2.270 -0.4741 -0.0510 -0.2408
   20CHTO  H222 8044   4.902   1.251   2.280 -1.6429 -2.1377 -3.4618
   20CHTO  C125 8045   5.097   1.316   2.321  0.1397  0.4587  0.6103
   20CHTO   O84 8046   5.044   1.401   2.428  0.1054 -0.7515 -0.2494
   20CHTO  H205 8047   5.120   1.431   2.474 -1.8018  1.6173  1.4719
   20CHTO  C114 8048   5.034   1.154   2.129 -0.4148 -0.6745  0.6758
   20CHTO  H218 8049   5.134   1.110   2.124 -0.7738 -1.4053 -0.1727
   20CHTO  C116 8050   4.927   1.040   2.097  0.0874 -0.1380 -0.5173
   20CHTO  H220 8051   4.828   1.085   2.078 -0.4183 -0.4255  1.3625
   20CHTO   O79 8052   4.981   0.974   1.976  0.3266  0.2648 -0.1847
   20CHTO  H201 8053   4.918   0.932   1.920  2.5680  1.0990 -3.5037
   20CHTO  C120 8054   4.912   0.938   2.219 -0.6154  0.3430 -0.1764
   20CHTO  H224 8055   5.004   0.877   2.230 -1.0286 -0.4742 -1.2265
   20CHTO   N21 8056   4.808   0.835   2.200  0.1400 -0.1590  0.5307
   20CHTO  H211 8057   4.718   0.883   2.165 -0.0002 -1.4082 -0.8837
   20CHTO  H212 8058   4.801   0.794   2.299 -0.7886 -0.8603  0.1817
   20CHTO   O75 8059   5.036   1.265   2.043 -0.2171  0.6648  0.3807
   20CHTO  C112 8060   5.171   1.254   1.940 -0.3557 -0.2486  0.0792
   20CHTO  H216 8061   5.203   1.151   1.920  2.2675  0.7536 -1.0496
   20CHTO   O73 8062   5.276   1.331   2.004  0.1223 -0.0822  0.6646
   20CHTO  C113 8063   5.394   1.340   1.922  0.9842 -0.7600 -0.7918
   20CHTO  H217 8064   5.411   1.243   1.871 -1.2269 -1.0018 -1.1367
   20CHTO  C124 8065   5.517   1.372   2.010 -0.4029  0.5395 -0.1992
   20CHTO   O83 8066   5.547   1.269   2.110 -0.4689  0.1349 -0.0805
   20CHTO  H204 8067   5.631   1.240   2.081  0.9495  1.8674  2.1138
   20CHTO  C109 8068   5.368   1.449   1.812  0.1348 -0.4072 -0.1068
   20CHTO  H213 8069   5.331   1.538   1.865 -0.5121 -1.2031  0.7975
   20CHTO  C110 8070   5.258   1.388   1.719 -0.0251  0.1887 -0.7209
   20CHTO  H214 8071   5.303   1.309   1.660  2.2762 -0.3590  1.6595
   20CHTO   O78 8072   5.219   1.487   1.626  0.7902  0.1394  0.4588
   20CHTO  H200 8073   5.176   1.448   1.553  1.0458  1.4175 -0.3786
   20CHTO  C111 8074   5.136   1.327   1.800  1.2303  0.1755 -0.1124
   20CHTO  H215 8075   5.073   1.411   1.832 -1.7270 -1.9455 -0.2227
   20CHTO   N19 8076   5.053   1.239   1.722  0.1834 -0.0547 -0.0206
   20CHTO  H207 8077   5.021   1.298   1.637 -2.4404 -0.4559  0.6738
   20CHTO  H208 8078   5.106   1.145   1.710 -0.7451 -0.8315  1.8107
   20CHTO   O74 8079   5.490   1.476   1.744 -0.0628 -0.4852  0.2373
   20CHTO  C115 8080   5.571   1.628   1.764  0.6012  0.1291  0.7732
   20CHTO  H219 8081   5.523   1.684   1.844 -0.0604 -0.4696  0.7970
   20CHTO   O76 8082   5.713   1.607   1.806 -0.1305  0.0171  0.2979
   20CHTO  C122 8083   5.785   1.722   1.844 -0.4049 -0.3753 -0.0150
   20CHTO  H226 8084   5.889   1.696   1.865 -0.6181 -2.5466 -1.3988
   20CHTO  C126 8085   5.731   1.786   1.977  0.2760 -0.1057  0.0004
   20CHTO   O85 8086   5.751   1.703   2.088  0.0324  0.1363 -1.2356
   20CHTO  H206 8087   5.733   1.744   2.170  1.0413 -0.5839 -0.6354
   20CHTO  C121 8088   5.793   1.825   1.729  0.1245 -0.3839 -0.0997
   20CHTO  H225 8089   5.829   1.922   1.768 -1.8222 -0.0270  0.8720
   20CHTO   O81 8090   5.892   1.779   1.634  0.8145 -0.2591  0.0844
   20CHTO  H202 8091   5.925   1.860   1.600  1.2868 -0.1559  0.7792
   20CHTO  C119 8092   5.651   1.852   1.662  0.1703  0.2531 -0.4670
   20CHTO  H223 8093   5.599   1.911   1.737  2.5510  1.0550  0.6040
   20CHTO  C117 8094   5.561   1.720   1.642 -0.8007  0.1005 -0.6696
   20CHTO  H221 8095   5.592   1.651   1.563 -0.0584 -0.7762  0.3713
   20CHTO   N20 8096   5.414   1.755   1.612 -0.1026  0.3337  0.3407
   20CHTO  H209 8097   5.374   1.675   1.552 -1.1964  0.9801  0.1866
   20CHTO  H210 8098   5.399   1.852   1.568 -2.8617 -0.3171 -0.2431
   20CHTO   O80 8099   5.665   1.963   1.543  0.2509  0.1507 -0.2463
   20CHTO  C103 8100   5.708   1.927   1.388 -0.0149  0.1721 -0.9323
   20CHTO  H190 8101   5.815   1.942   1.369 -0.2075 -0.4395 -2.6792
   20CHTO  C101 8102   5.674   1.784   1.330  0.1016  0.7547  0.2750
   20CHTO  H188 8103   5.581   1.758   1.381  0.9586  1.0588  2.0269
   20CHTO   O68 8104   5.788   1.692   1.381  0.3575 -0.6030 -0.6710
   20CHTO  H168 8105   5.754   1.612   1.417 -0.4056  0.5050  1.1836
   20CHTO   C99 8106   5.668   1.774   1.180  0.2885 -0.0962 -0.1761
   20CHTO  H186 8107   5.768   1.793   1.136  0.9792 -0.1344  1.3457
   20CHTO   N17 8108   5.621   1.639   1.132  0.4424  0.1849  0.0043
   20CHTO  H174 8109   5.628   1.553   1.198 -2.2228  1.2058  1.6993
   20CHTO  H175 8110   5.639   1.615   1.028 -0.8480 -1.9699  0.2438
   20CHTO   C97 8111   5.575   1.889   1.127 -0.2765 -0.6618  0.8735
   20CHTO  H184 8112   5.474   1.881   1.171  0.5407  0.3614  2.9826
   20CHTO   O64 8113   5.639   2.015   1.158 -0.0045 -0.3895 -0.8201
   20CHTO  C104 8114   5.631   2.030   1.295  0.3366 -0.0658 -0.1527
   20CHTO  H191 8115   5.526   2.025   1.322  0.7190 -1.9815  1.0875
   20CHTO  C108 8116   5.687   2.173   1.318  0.5793 -0.0973  0.0650
   20CHTO   O71 8117   5.671   2.226   1.451 -0.2114  0.1334  0.2443
   20CHTO  H171 8118   5.586   2.211   1.488 -0.7921  3.2203  0.2854
   20CHTO   O62 8119   5.567   1.889   0.984  0.1989  0.0592  0.3053
   20CHTO   C91 8120   5.457   1.976   0.928  0.0486  0.0851 -0.3175
   20CHTO  H178 8121   5.413   2.034   1.009 -0.6432 -0.7371 -0.0942
   20CHTO   C92 8122   5.334   1.886   0.890 -0.0169  0.2196  0.3455
   20CHTO  H179 8123   5.364   1.816   0.811 -0.2639 -1.5002  1.7454
   20CHTO   O66 8124   5.295   1.804   1.004 -0.5358 -0.6073  0.0363
   20CHTO  H166 8125   5.226   1.749   0.972  0.1465  0.4213 -3.4626
   20CHTO   C93 8126   5.216   1.979   0.828  0.2889 -0.2479 -0.6389
   20CHTO  H180 8127   5.188   2.044   0.912 -0.6130 -2.9075  1.1795
   20CHTO   N16 8128   5.099   1.903   0.776  0.4355 -0.6662  0.6324
   20CHTO  H172 8129   5.061   1.825   0.841  0.4498 -0.6755  0.6296
   20CHTO  H173 8130   5.030   1.948   0.707  0.3922 -0.0089  1.1085
   20CHTO   C94 8131   5.280   2.070   0.707 -0.1105 -0.1072 -0.2511
   20CHTO  H181 8132   5.331   2.011   0.631  0.5817 -1.2533  1.0777
   20CHTO   O61 8133   5.387   2.147   0.767 -0.2967 -0.0463  0.0240
   20CHTO   C95 8134   5.494   2.063   0.808 -0.4835 -0.2116  0.5611
   20CHTO  H182 8135   5.531   2.013   0.719 -0.2696  1.9535 -0.5867
   20CHTO  C106 8136   5.620   2.150   0.836  0.1147 -0.5595  0.3503
   20CHTO   O69 8137   5.589   2.238   0.943  0.2573  0.3059 -0.2450
   20CHTO  H169 8138   5.600   2.190   1.023 -1.4224  1.3419  0.6393
   20CHTO   O63 8139   5.173   2.173   0.638  0.0908  0.0454  0.0503
   20CHTO   C96 8140   5.235   2.267   0.496 -0.1685  0.0712  0.0989
   20CHTO  H183 8141   5.263   2.203   0.412  1.5199 -0.1321  0.7915
   20CHTO   C98 8142   5.359   2.353   0.534  0.5761  0.1412  0.2966
   20CHTO  H185 8143   5.334   2.400   0.631  3.6736 -0.5057  1.4689
   20CHTO   O67 8144   5.472   2.266   0.552 -0.7235  0.2686  0.2275
   20CHTO  H167 8145   5.452   2.176   0.567 -0.0116 -0.0406 -0.6189
   20CHTO  C102 8146   5.383   2.468   0.422 -0.4937  0.1740  0.3616
   20CHTO  H189 8147   5.426   2.417   0.335 -0.4016 -0.1221  0.5766
   20CHTO   N18 8148   5.481   2.569   0.465 -0.5781 -0.1671 -0.4456
   20CHTO  H176 8149   5.454   2.667   0.428  1.1743  0.4586 -0.1382
   20CHTO  H177 8150   5.581   2.543   0.434 -0.1383  1.5694 -0.5807
   20CHTO  C105 8151   5.246   2.534   0.376 -0.2864 -0.3771 -0.0249
   20CHTO  H192 8152   5.224   2.609   0.452 -3.5924  0.0492 -1.3622
   20CHTO   O65 8153   5.144   2.442   0.342  0.0962 -0.2392 -0.0207
   20CHTO  C100 8154   5.110   2.348   0.447 -0.6131 -0.4257  0.6677
   20CHTO  H187 8155   5.069   2.410   0.528 -0.2048  0.0872  0.4857
   20CHTO  C107 8156   4.996   2.260   0.389 -0.3317  0.1883  0.4106
   20CHTO   O70 8157   4.871   2.330   0.395 -0.3082  0.4276 -0.0225
   20CHTO  H170 8158   4.875   2.392   0.325  0.4043 -1.3138 -1.5487
   20CHTO   O57 8159   5.289   2.617   0.233 -0.2040 -0.5661 -0.0079
   20CHTO   C85 8160   5.198   2.717   0.177 -0.0889 -0.1624 -0.2544
   20CHTO  H157 8161   5.115   2.748   0.244 -1.9301 -1.9174 -1.6811
   20CHTO   C83 8162   5.128   2.646   0.065  0.0830  0.3770  0.6550
   20CHTO  H155 8163   5.079   2.560   0.111  1.4717 -1.2168 -0.7407
   20CHTO   O56 8164   5.211   2.591  -0.042 -0.1334 -0.2319 -0.1519
   20CHTO  H135 8165   5.282   2.541  -0.007 -1.8145 -2.3384  0.3544
   20CHTO   C81 8166   5.029   2.745   0.003 -0.5045  0.4447 -0.2275
   20CHTO  H153 8167   4.972   2.787   0.086 -0.4190  0.7570 -0.3280
   20CHTO   N14 8168   4.921   2.677  -0.074  0.6135  0.2534  0.1698
   20CHTO  H141 8169   4.859   2.613  -0.015  0.6019  0.3041  0.2116
   20CHTO  H142 8170   4.950   2.620  -0.160 -0.3125 -0.1170  0.1001
   20CHTO   C79 8171   5.109   2.853  -0.081 -0.7956 -0.1648 -0.0102
   20CHTO  H151 8172   5.036   2.924  -0.120  1.3098  0.7554 -2.3834
   20CHTO   O52 8173   5.193   2.927   0.017 -0.5962 -0.3550  0.6851
   20CHTO   C86 8174   5.279   2.843   0.111  0.1443  0.2755 -0.6603
   20CHTO  H158 8175   5.364   2.815   0.046  0.8843  1.7867 -0.3493
   20CHTO   C90 8176   5.337   2.925   0.222 -0.4650 -0.0620 -0.0117
   20CHTO   O60 8177   5.250   3.009   0.289 -0.2383 -0.2492  0.2025
   20CHTO  H138 8178   5.306   3.073   0.329 -0.1021  0.0683 -0.4884
   20CHTO   O50 8179   5.185   2.802  -0.185  0.5976  0.0431 -0.0634
   20CHTO   C73 8180   5.281   2.841  -0.281  0.3628 -0.4725 -0.1187
   20CHTO  H145 8181   5.377   2.846  -0.227  0.0299  0.9232  0.3538
   20CHTO   C74 8182   5.226   2.979  -0.338 -0.1267  0.0947 -0.1033
   20CHTO  H146 8183   5.205   3.051  -0.258 -2.7470  1.0845 -1.6145
   20CHTO   O54 8184   5.332   3.039  -0.418  0.3179 -0.2106  0.7540
   20CHTO  H133 8185   5.360   2.984  -0.488 -1.0171 -0.5764  0.4812
   20CHTO   C75 8186   5.103   2.956  -0.425  0.7289 -0.0754  0.3186
   20CHTO  H147 8187   5.024   2.913  -0.363 -0.1930 -0.2117 -0.9232
   20CHTO   N13 8188   5.048   3.072  -0.495  0.2833  0.7316 -0.0529
   20CHTO  H139 8189   5.052   3.164  -0.440  1.2410 -0.4172  1.8354
   20CHTO  H140 8190   4.941   3.055  -0.502  0.1318  0.3003  2.8328
   20CHTO   C76 8191   5.116   2.833  -0.525  1.5961 -0.5268  0.0002
   20CHTO  H148 8192   5.186   2.874  -0.598  1.2660  1.6973  0.8913
   20CHTO   O49 8193   5.168   2.715  -0.457 -0.0951  0.4446  0.5901
   20CHTO   C77 8194   5.294   2.730  -0.391 -0.3711  0.5826 -0.0460
   20CHTO  H149 8195   5.361   2.763  -0.470  0.3595 -2.3876 -0.7388
   20CHTO   C88 8196   5.339   2.590  -0.333 -0.2614 -0.2840  0.3363
   20CHTO   O58 8197   5.348   2.498  -0.434 -0.2996 -0.5919 -0.4603
   20CHTO  H136 8198   5.341   2.412  -0.399 -1.2344 -1.0022 -1.6338
   20CHTO   O51 8199   4.978   2.784  -0.600 -0.3347  0.7472  0.0689
   20CHTO   C78 8200   4.861   2.731  -0.497 -0.7334  0.4425  0.6887
   20CHTO  H150 8201   4.881   2.773  -0.397  1.5863  1.4923 -0.1890
   20CHTO   C80 8202   4.862   2.578  -0.492 -0.5060 -0.3719  0.5370
   20CHTO  H152 8203   4.841   2.536  -0.593 -2.2434  0.1033  0.6798
   20CHTO   O55 8204   4.993   2.542  -0.442 -0.7968 -0.4675 -0.2318
   20CHTO  H134 8205   4.997   2.571  -0.353 -0.8441 -3.1134  0.6868
   20CHTO   C84 8206   4.754   2.512  -0.400 -0.1867 -0.1079 -0.0800
   20CHTO  H156 8207   4.789   2.526  -0.298  1.5031 -1.0982 -0.5042
   20CHTO   N15 8208   4.740   2.370  -0.410  0.0399 -0.0217 -0.6482
   20CHTO  H143 8209   4.735   2.351  -0.515 -0.3380  3.0855 -1.2508
   20CHTO  H144 8210   4.819   2.313  -0.365 -0.1310 -1.0858 -1.6838
   20CHTO   C87 8211   4.619   2.578  -0.417 -0.0160  0.3345  0.8067
   20CHTO  H159 8212   4.573   2.542  -0.509 -0.5709 -2.0215  1.9636
   20CHTO   O53 8213   4.620   2.744  -0.442 -0.3247  0.2969 -0.0453
   20CHTO   C82 8214   4.718   2.778  -0.540  0.0786  0.2417 -0.2240
   20CHTO  H154 8215   4.686   2.743  -0.638  0.2913 -1.7593  0.3856
   20CHTO   C89 8216   4.708   2.938  -0.547 -0.5324 -0.2903 -0.8360
   20CHTO   O59 8217   4.730   2.998  -0.416 -0.5521 -0.5668  0.3785
   20CHTO  H137 8218   4.822   3.012  -0.411 -0.9422  1.4890  2.4546
   20CHTO   O45 8219   4.517   2.545  -0.285  0.1296  0.4445 -0.3392
   20CHTO   C67 8220   4.550   2.604  -0.159  0.1204 -0.4341 -0.1532
   20CHTO  H124 8221   4.657   2.610  -0.144  0.0553  2.1761 -0.6265
   20CHTO   C65 8222   4.495   2.750  -0.146 -0.0300 -0.4952 -0.5623
   20CHTO  H122 8223   4.450   2.774  -0.243 -1.8303  3.4299  1.0999
   20CHTO   O44 8224   4.612   2.830  -0.136 -0.5353 -0.1644 -0.0188
   20CHTO  H102 8225   4.608   2.914  -0.176 -1.1747 -0.6106 -0.9165
   20CHTO   C63 8226   4.385   2.763  -0.034  0.0088 -0.2690 -0.2080
   20CHTO  H120 8227   4.303   2.694  -0.052  1.0982 -2.0383  1.4899
   20CHTO   N11 8228   4.323   2.904  -0.025 -0.5754 -0.4434 -0.2877
   20CHTO  H108 8229   4.314   2.954   0.069 -1.7628 -0.3729 -0.4286
   20CHTO  H109 8230   4.239   2.911  -0.090 -0.8318 -1.5464 -0.0933
   20CHTO   C61 8231   4.440   2.705   0.099  0.4261 -0.7581  0.1013
   20CHTO  H118 8232   4.354   2.687   0.165  0.6695  1.2450  1.0049
   20CHTO   O40 8233   4.503   2.580   0.082 -1.0194  0.1350  0.3238
   20CHTO   C68 8234   4.504   2.510  -0.047 -0.4405 -0.7586 -0.4405
   20CHTO  H125 8235   4.404   2.465  -0.062 -1.0500 -0.8106  3.2887
   20CHTO   C72 8236   4.602   2.395  -0.023 -0.1962 -0.8859  0.2114
   20CHTO   O48 8237   4.561   2.313   0.085  0.0882 -0.0978  0.8775
   20CHTO  H105 8238   4.581   2.224   0.063 -2.6269 -0.6954  0.7579
   20CHTO   O38 8239   4.533   2.793   0.170 -0.4463  0.3748 -0.2029
   20CHTO   C55 8240   4.542   2.774   0.311  0.0530 -0.3321  0.0227
   20CHTO  H112 8241   4.500   2.680   0.348  0.3391 -0.4071  0.1616
   20CHTO   C56 8242   4.477   2.901   0.375  0.5649 -0.3170 -0.1933
   20CHTO  H113 8243   4.532   2.989   0.338 -0.5792  0.3371 -0.3582
   20CHTO   O42 8244   4.342   2.912   0.324  0.5778  0.3940  0.2215
   20CHTO  H100 8245   4.293   2.974   0.373  0.2008  1.6552 -1.7343
   20CHTO   C57 8246   4.485   2.884   0.538 -0.5967  0.5243 -0.4238
   20CHTO  H114 8247   4.426   2.799   0.572  0.5372  0.7082  2.0849
   20CHTO   N10 8248   4.421   2.992   0.609  0.1077 -0.3074 -0.8403
   20CHTO  H106 8249   4.454   2.991   0.712 -0.4178  0.0163 -0.6714
   20CHTO  H107 8250   4.441   3.082   0.552 -0.8136 -1.9618 -3.8720
   20CHTO   C58 8251   4.629   2.839   0.581  0.1131 -0.3116  0.1363
   20CHTO  H115 8252   4.698   2.925   0.564  0.9427 -0.7190  1.3913
   20CHTO   O37 8253   4.685   2.734   0.500  0.1831  0.1672  0.0306
   20CHTO   C59 8254   4.681   2.751   0.357 -0.0074  0.4322 -0.0856
   20CHTO  H116 8255   4.745   2.835   0.330 -0.4492  0.3190 -1.5416
   20CHTO   C70 8256   4.744   2.625   0.293  0.4395 -0.3263 -0.3151
   20CHTO   O46 8257   4.886   2.623   0.302 -0.4292 -0.0789  1.2089
   20CHTO  H103 8258   4.919   2.547   0.257 -1.0031  1.0304 -1.1594
   20CHTO   O39 8259   4.643   2.787   0.727  0.9056  0.2409 -0.3757
   20CHTO   C60 8260   4.776   2.766   0.786 -0.9424  0.0474  1.0545
   20CHTO  H117 8261   4.839   2.776   0.698 -1.3856  4.1277  1.0910
   20CHTO   C62 8262   4.812   2.873   0.900  0.6405 -0.2959 -0.6548
   20CHTO  H119 8263   4.808   2.975   0.858 -2.7405  0.4629  1.3139
   20CHTO   O43 8264   4.706   2.882   0.992  0.2432 -0.0698 -0.0735
   20CHTO  H101 8265   4.735   2.917   1.074  0.7528 -0.1864 -0.2009
   20CHTO   C66 8266   4.952   2.847   0.968 -0.4510  0.7820  0.6214
   20CHTO  H123 8267   5.033   2.862   0.896  0.2997 -1.9149  0.8558
   20CHTO   N12 8268   4.983   2.947   1.078 -0.4454  0.2420  0.1238
   20CHTO  H110 8269   5.067   3.011   1.052 -0.2646 -0.9578 -2.3940
   20CHTO  H111 8270   5.000   2.900   1.173 -0.4978  0.0607  0.0436
   20CHTO   C69 8271   4.953   2.695   1.007  0.1523 -0.9154  0.2295
   20CHTO  H126 8272   4.874   2.691   1.085 -0.3774 -0.0049 -0.2439
   20CHTO   O41 8273   4.923   2.614   0.917  0.5197  0.2590 -0.1364
   20CHTO   C64 8274   4.795   2.620   0.839  0.3600  0.0251  0.4971
   20CHTO  H121 8275   4.706   2.594   0.900  0.5149 -1.5980  0.0450
   20CHTO   C71 8276   4.810   2.525   0.714 -0.1451 -0.1725 -0.2995
   20CHTO   O47 8277   4.867   2.398   0.742 -0.3776 -0.2582  0.7068
   20CHTO  H104 8278   4.869   2.341   0.668 -0.7904  0.4222  0.1668
   20CHTO   O34 8279   5.089   2.659   1.064  1.0804  0.3382 -0.1254
   20CHTO   C49 8280   5.136   2.546   1.131 -0.5795 -0.1874 -0.4861
   20CHTO   H91 8281   5.070   2.474   1.081 -2.1196  0.3615  0.7349
   20CHTO   C47 8282   5.107   2.553   1.287  0.4232  0.1180  0.5853
   20CHTO   H89 8283   5.002   2.523   1.307  1.1961 -1.9399  1.6808
   20CHTO   O33 8284   5.125   2.688   1.330  0.0897 -1.2721  0.0060
   20CHTO   H70 8285   5.212   2.718   1.351 -0.6957  3.4691 -2.8093
   20CHTO   C45 8286   5.207   2.456   1.372  0.1994 -0.2213  0.2453
   20CHTO   H87 8287   5.303   2.499   1.406  0.6838 -1.6003  0.6650
   20CHTO    N8 8288   5.137   2.394   1.487 -0.2517  0.0168 -0.0806
   20CHTO   H75 8289   5.183   2.425   1.579 -2.1242  0.6376  0.6588
   20CHTO   H76 8290   5.032   2.419   1.480 -0.0825  0.4791 -1.1205
   20CHTO   C43 8291   5.264   2.335   1.268  0.1610 -0.1447  0.2066
   20CHTO   H85 8292   5.323   2.268   1.331 -0.6504  0.1262  1.2592
   20CHTO   O29 8293   5.343   2.403   1.172 -0.1232  0.5114  0.1665
   20CHTO   C50 8294   5.286   2.505   1.096  0.0957  0.0604 -0.5986
   20CHTO   H92 8295   5.342   2.599   1.106  0.2380  0.0710 -1.4492
   20CHTO   C54 8296   5.305   2.488   0.934 -0.4278  0.1745  0.6973
   20CHTO   O36 8297   5.262   2.359   0.885 -0.7728  0.4480  0.3281
   20CHTO   H72 8298   5.292   2.298   0.950 -1.0241  0.8366  0.8184
   20CHTO   O27 8299   5.166   2.260   1.193 -0.2288 -0.1056 -0.3024
   20CHTO   C37 8300   5.056   2.168   1.211  0.2865  0.1563  0.1011
   20CHTO   H79 8301   4.997   2.193   1.301 -0.0180  0.2272 -0.1180
   20CHTO   C38 8302   4.959   2.171   1.090 -0.6550  0.6641 -0.5476
   20CHTO   H80 8303   5.020   2.144   1.003 -0.4072  1.7396 -0.7097
   20CHTO   O31 8304   4.899   2.304   1.079 -0.2112  0.1561 -0.2229
   20CHTO   H68 8305   4.942   2.358   1.015 -0.1822  1.0672  0.5546
   20CHTO   C39 8306   4.849   2.060   1.108  1.1559  0.8953 -0.9385
   20CHTO   H81 8307   4.791   2.085   1.196 -1.5850 -0.1814 -2.3637
   20CHTO    N7 8308   4.752   2.053   0.994  0.4881  0.5095  0.1175
   20CHTO   H73 8309   4.650   2.072   1.025 -0.4683  0.9380 -3.0632
   20CHTO   H74 8310   4.768   1.968   0.929 -0.1665  1.8739 -1.8876
   20CHTO   C40 8311   4.923   1.926   1.135  0.1490 -0.1178  0.0447
   20CHTO   H82 8312   4.977   1.898   1.045 -1.5863  1.6396 -1.5713
   20CHTO   O26 8313   5.007   1.929   1.249  0.3928  0.4293 -0.0914
   20CHTO   C41 8314   5.113   2.025   1.234  0.7091  0.0010  0.0775
   20CHTO   H83 8315   5.180   1.989   1.154 -0.9206  1.0670 -1.8115
   20CHTO   C52 8316   5.189   2.010   1.365 -0.1084 -0.0699 -0.5345
   20CHTO   O35 8317   5.284   1.926   1.343  0.1418 -0.3097  0.0347
   20CHTO   H71 8318   5.361   1.975   1.365 -1.0437  1.7544 -0.2188
   20CHTO   O28 8319   4.837   1.811   1.159  0.0423 -0.2702 -1.0841
   20CHTO   C42 8320   4.870   1.667   1.125 -0.4952 -1.1761  0.2716
   20CHTO   H84 8321   4.784   1.612   1.162 -0.3552 -0.4402  1.7220
   20CHTO   C44 8322   4.995   1.608   1.194  0.1850  0.0714  0.3128
   20CHTO   H86 8323   5.076   1.680   1.182  0.2879  0.0802  1.0299
   20CHTO   O32 8324   4.974   1.599   1.338  0.4228  0.0683 -0.2790
   20CHTO   H69 8325   5.054   1.578   1.382  3.2612  3.1936 -3.5959
   20CHTO   C48 8326   5.047   1.466   1.143 -0.2249  0.3862 -0.3332
   20CHTO   H90 8327   4.985   1.385   1.181  0.0241 -0.2009 -1.1636
   20CHTO    N9 8328   5.187   1.433   1.182 -0.0592 -0.2926 -0.1202
   20CHTO   H77 8329   5.206   1.332   1.149 -0.0295 -0.3711  0.1302
   20CHTO   H78 8330   5.250   1.501   1.128 -1.5140  1.3052  0.1387
   20CHTO   C51 8331   5.043   1.467   0.987  0.0284  1.0581 -0.1913
   20CHTO   H93 8332   5.110   1.546   0.952 -0.5063  0.6478 -2.2403
   20CHTO   O30 8333   4.906   1.497   0.949 -0.0592  0.0720 -0.1084
   20CHTO   C46 8334   4.882   1.644   0.972  0.9203  0.8200 -0.4194
   20CHTO   H88 8335   4.968   1.704   0.941 -0.1447  2.7582  0.2455
   20CHTO   C53 8336   4.750   1.684   0.897 -0.1780  1.0035  0.3075
   20CHTO   O72 8337   4.758   1.681   0.753  0.1818 -0.3780 -0.3320
   20CHTO  H199 8338   4.813   1.606   0.742  0.3951 -0.6843  2.3691
   20CHTO   O22 8339   5.074   1.340   0.930 -0.0506  0.3184 -0.0601
   20CHTO   C31 8340   5.133   1.330   0.795 -0.3642  0.3613 -0.2956
   20CHTO   H59 8341   5.125   1.223   0.766  1.9043  0.3316 -0.9503
   20CHTO   C29 8342   5.060   1.410   0.684 -0.3436 -0.7007  0.3364
   20CHTO   H57 8343   5.051   1.515   0.716  1.1635 -0.7868  1.0441
   20CHTO   O21 8344   4.926   1.359   0.669 -0.0948 -0.8154 -0.9862
   20CHTO   H37 8345   4.877   1.408   0.606 -1.7877 -1.4948 -0.2306
   20CHTO   C27 8346   5.138   1.401   0.547 -0.2272 -0.0401 -0.2788
   20CHTO   H55 8347   5.146   1.296   0.514  0.4527  0.1671 -0.8046
   20CHTO    N5 8348   5.080   1.484   0.442 -0.1550  0.4741  0.3129
   20CHTO   H43 8349   5.093   1.589   0.460 -0.4802  0.5439  0.1509
   20CHTO   H44 8350   5.130   1.461   0.349  0.4262  1.0826  0.4767
   20CHTO   C25 8351   5.279   1.458   0.573 -0.2001 -0.2355 -0.6891
   20CHTO   H53 8352   5.272   1.559   0.616 -0.0107 -1.2693  1.8238
   20CHTO   O17 8353   5.342   1.368   0.662 -0.5747  0.4922  0.2142
   20CHTO   C32 8354   5.288   1.357   0.791 -0.0157  0.0754 -0.2563
   20CHTO   H60 8355   5.313   1.456   0.829  1.8146 -0.8591  1.0283
   20CHTO   C36 8356   5.368   1.255   0.874  0.5082  0.3952 -0.1011
   20CHTO   O25 8357   5.366   1.118   0.823 -0.0970 -0.1333 -0.0476
   20CHTO   H40 8358   5.453   1.084   0.810  0.7113  0.7839  2.7214
   20CHTO   O15 8359   5.377   1.470   0.443  0.2052  0.3822 -0.4547
   20CHTO   C19 8360   5.524   1.492   0.433  1.1696 -0.4869  0.5372
   20CHTO   H47 8361   5.533   1.527   0.329  0.2189  1.9761  1.2586
   20CHTO   C20 8362   5.583   1.607   0.520  0.4663  0.1654  0.1620
   20CHTO   H48 8363   5.563   1.587   0.626  0.6484 -0.7971  0.0184
   20CHTO   O19 8364   5.502   1.718   0.496 -0.5277 -0.2526  0.5631
   20CHTO   H35 8365   5.441   1.735   0.565 -1.3833 -0.0409 -0.2362
   20CHTO   C21 8366   5.737   1.623   0.495 -0.1437 -0.0935 -0.4771
   20CHTO   H49 8367   5.746   1.643   0.388  0.2089 -0.9498 -0.6125
   20CHTO    N4 8368   5.792   1.731   0.582 -1.1085  0.3951 -0.1811
   20CHTO   H41 8369   5.751   1.728   0.682 -0.2702  2.8543  0.2762
   20CHTO   H42 8370   5.768   1.829   0.543  0.5522  0.5570 -0.8358
   20CHTO   C22 8371   5.807   1.485   0.516  0.6983  0.3830  0.5328
   20CHTO   H50 8372   5.797   1.455   0.620 -2.7416  1.2526  0.5036
   20CHTO   O14 8373   5.744   1.385   0.438 -0.5244  0.1613  0.9347
   20CHTO   C23 8374   5.601   1.361   0.454  0.0385 -0.0855 -0.7966
   20CHTO   H51 8375   5.593   1.323   0.556  0.2736  0.2797 -0.6394
   20CHTO   C34 8376   5.574   1.272   0.338  0.1786 -0.2813  0.5262
   20CHTO   O23 8377   5.610   1.134   0.368  0.8767  0.1441 -0.2170
   20CHTO   H38 8378   5.639   1.087   0.292 -1.5835 -1.3792 -0.2989
   20CHTO   O16 8379   5.941   1.495   0.464  0.1059 -0.1441  0.2819
   20CHTO   C24 8380   6.048   1.416   0.535  0.0950 -0.7017 -0.0738
   20CHTO   H52 8381   6.006   1.351   0.612  0.0391  0.0624  0.5410
   20CHTO   C26 8382   6.150   1.509   0.601 -0.4326 -0.6970  0.8822
   20CHTO   H54 8383   6.180   1.584   0.524  1.1208 -0.4072  1.7320
   20CHTO   O20 8384   6.086   1.577   0.709 -0.0109  0.4817 -0.0566
   20CHTO   H36 8385   6.019   1.632   0.673 -1.1010 -0.2978  0.7789
   20CHTO   C30 8386   6.282   1.434   0.649 -0.2173 -0.3300  0.1099
   20CHTO   H58 8387   6.253   1.363   0.728 -1.6117 -1.7035 -1.6097
   20CHTO    N6 8388   6.383   1.529   0.704  0.6930 -0.3803 -0.3186
   20CHTO   H45 8389   6.429   1.594   0.631 -0.4414  1.2848  0.4171
   20CHTO   H46 8390   6.456   1.474   0.762  1.6035 -1.1285 -2.1469
   20CHTO   C33 8391   6.336   1.356   0.525  0.8297  0.6548  0.0389
   20CHTO   H61 8392   6.350   1.424   0.440 -1.3019 -0.1773 -1.0004
   20CHTO   O18 8393   6.234   1.260   0.488  0.5588 -1.0451 -0.2377
   20CHTO   C28 8394   6.115   1.321   0.431 -0.8662 -0.2593  0.4848
   20CHTO   H56 8395   6.145   1.377   0.342 -3.0093  1.2818  0.7048
   20CHTO   C35 8396   6.022   1.200   0.381  0.0841 -0.3905  0.2955
   20CHTO   O24 8397   6.080   1.110   0.296  0.2318 -0.8932  0.3829
   20CHTO   H39 8398   6.157   1.072   0.333  2.1650  2.5050  0.0514
   20CHTO    O9 8399   6.467   1.291   0.546  0.4365 -0.8591  0.4074
   20CHTO   C13 8400   6.582   1.306   0.410 -0.2428  0.2777  0.3893
   20CHTO   H26 8401   6.631   1.405   0.417  1.5340 -0.5753  0.4437
   20CHTO   C11 8402   6.509   1.285   0.274  0.1657  0.7996 -0.0193
   20CHTO   H24 8403   6.453   1.378   0.253 -1.4215 -0.0476  0.3747
   20CHTO    O8 8404   6.416   1.179   0.291 -0.3649  0.4417  0.3366
   20CHTO    H3 8405   6.455   1.096   0.271  1.1231  0.7045  2.0612
   20CHTO    C9 8406   6.619   1.254   0.167  0.3971 -0.2742 -0.0733
   20CHTO   H22 8407   6.694   1.334   0.175 -0.4748  0.6254 -0.7437
   20CHTO    N2 8408   6.564   1.276   0.032 -0.6232 -0.3351  0.4963
   20CHTO   H10 8409   6.482   1.208   0.009 -0.6827  0.3497 -1.3492
   20CHTO   H11 8410   6.621   1.300  -0.056 -0.5684 -2.2868 -0.0178
   20CHTO    C7 8411   6.681   1.115   0.202  0.1133  0.7124  0.1371
   20CHTO   H20 8412   6.779   1.115   0.150  0.8569 -0.6464  1.4907
   20CHTO    O4 8413   6.706   1.094   0.346  0.5321  0.3267 -0.4231
   20CHTO   C14 8414   6.705   1.204   0.434  0.8694 -0.2043  0.1357
   20CHTO   H27 8415   6.797   1.265   0.427 -0.4432  1.6491 -1.5233
   20CHTO   C18 8416   6.692   1.152   0.578 -0.1533 -0.4852 -0.2534
   20CHTO   O13 8417   6.597   1.048   0.594  0.2503  0.0986  0.2585
   20CHTO    H7 8418   6.515   1.085   0.622 -1.8395 -1.4312 -3.3902
   20CHTO    O2 8419   6.580   0.978   0.131  0.1920 -0.1988  0.1409
   20CHTO    C1 8420   6.531   0.878   0.226 -0.1423  0.1272  0.2412
   20CHTO   H14 8421   6.511   0.929   0.322 -0.0429 -2.9488  1.9551
   20CHTO    C2 8422   6.634   0.760   0.251 -0.8035 -0.8380  0.0087
   20CHTO   H15 8423   6.661   0.721   0.151  0.9001  2.1749 -0.7657
   20CHTO    O6 8424   6.757   0.805   0.311 -0.3618 -0.1244 -0.1033
   20CHTO    H1 8425   6.777   0.733   0.369  0.5494 -0.0745 -0.3387
   20CHTO    C3 8426   6.560   0.658   0.346  0.9436  0.3154  0.7448
   20CHTO   H16 8427   6.548   0.696   0.448  1.2573  0.7599  0.6204
   20CHTO    N1 8428   6.630   0.524   0.353  0.2286 -0.8782 -0.4216
   20CHTO    H8 8429   6.659   0.498   0.454  0.9110 -0.2918 -0.4673
   20CHTO    H9 8430   6.710   0.522   0.281  0.1599  0.4178 -0.5473
   20CHTO    C4 8431   6.413   0.623   0.298  0.0997  0.6473  0.0957
   20CHTO   H17 8432   6.418   0.552   0.215  1.3163  0.2134  0.5261
   20CHTO    O1 8433   6.334   0.733   0.267 -0.5939 -0.1566 -0.0243
   20CHTO    C5 8434   6.392   0.822   0.169  0.4844  0.2918  0.1790
   20CHTO   H18 8435   6.416   0.764   0.080  0.0431 -0.2616  0.4198
   20CHTO   C16 8436   6.301   0.933   0.125 -0.4149 -0.6045 -0.6253
   20CHTO   O11 8437   6.187   0.875   0.067 -0.7853  0.1378 -0.1733
   20CHTO    H5 8438   6.110   0.924   0.090 -0.6989  1.0846 -1.8458
   20CHTO    O3 8439   6.344   0.563   0.407 -0.1454 -0.1424 -0.0552
   20CHTO    C6 8440   6.243   0.458   0.369 -0.0580 -0.2272 -1.1874
   20CHTO   H19 8441   6.218   0.456   0.263 -0.3116  1.5181 -1.1715
   20CHTO    C8 8442   6.292   0.314   0.396 -0.1081  0.5370  0.3674
   20CHTO   H21 8443   6.317   0.305   0.501 -0.6595  0.5648  0.5052
   20CHTO    O7 8444   6.410   0.288   0.318 -0.0544 -0.5811  0.3485
   20CHTO    H2 8445   6.384   0.248   0.237  1.4681  0.4583 -0.6837
   20CHTO   C12 8446   6.171   0.218   0.345 -0.3575 -0.0916  0.1124
   20CHTO   H25 8447   6.155   0.221   0.236  1.7342  1.6309 -0.1848
   20CHTO    N3 8448   6.209   0.066   0.372  0.2253  0.0057 -0.1796
   20CHTO   H12 8449   6.194   0.041   0.476  0.9774 -0.0171 -0.0692
   20CHTO   H13 8450   6.144  -0.001   0.319 -0.0600  0.4551 -0.4000
   20CHTO   C15 8451   6.035   0.254   0.415  0.4299  0.2806  0.6546
   20CHTO   H28 8452   6.045   0.229   0.521  0.0389 -0.8603  0.4328
   20CHTO   O10 8453   5.908   0.209   0.328 -0.8520  0.0947 -0.2274
   20CHTO    H4 8454   5.917   0.120   0.298  0.0133  0.0055  0.2764
   20CHTO    O5 8455   6.007   0.395   0.406 -0.0887 -0.0508  0.2875
   20CHTO   C10 8456   6.107   0.494   0.444 -0.6490  0.7931  0.0079
   20CHTO   H23 8457   6.128   0.482   0.550  2.0255 -0.2988 -0.6010
   20CHTO   C17 8458   6.055   0.636   0.414 -0.1473  0.1389  0.0228
   20CHTO   O12 8459   5.921   0.655   0.465  0.2569  0.2149  0.3921
   20CHTO    H6 8460   5.904   0.631   0.554 -0.1473 -3.7205 -0.6193
   21GLOH   H03 8461   4.185   0.894   0.991  0.6016  0.1196  0.4239
   21GLOH    O1 8462   4.124   0.913   1.064 -0.4268  0.1557 -0.4343
   21GLOH    C1 8463   4.099   1.054   1.058  0.2966 -0.4498  0.0547
   21GLOH   H02 8464   4.178   1.108   1.007  0.9629  0.5729  2.0983
   21GLOH   H08 8465   4.093   1.103   1.155 -2.3296 -2.4628  0.9723
   21GLOH    C2 8466   3.964   1.077   0.992 -0.7054 -0.0999  0.5606
   21GLOH   H04 8467   3.951   1.185   0.979  2.7965  0.6542  2.6668
   21GLOH    O2 8468   3.960   1.031   0.857  0.6374  0.1234  0.4870
   21GLOH   H05 8469   3.928   0.939   0.853 -1.1234  0.6793  1.0637
   21GLOH    C3 8470   3.849   1.016   1.077  0.0878  0.1826  0.0323
   21GLOH   H06 8471   3.866   0.914   1.111 -0.1042  0.4734  1.0394
   21GLOH   H07 8472   3.759   1.015   1.016 -1.3668  0.7933  2.0794
   21GLOH    O3 8473   3.825   1.096   1.189 -0.4776  0.4111 -0.3754
   21GLOH   H01 8474   3.764   1.053   1.252 -0.5937  1.0786 -0.0225
   22GLOH   H03 8475   3.401   1.073   0.162  2.1899  0.8133  0.8345
   22GLOH    O1 8476   3.463   1.019   0.111 -0.0334 -0.1971 -0.8349
   22GLOH    C1 8477   3.547   1.110   0.032 -0.0583 -0.5431 -0.0117
   22GLOH   H02 8478   3.512   1.116  -0.071 -0.0295  2.3164  0.1105
   22GLOH   H08 8479   3.648   1.071   0.022 -0.1761 -0.5765 -1.2333
   22GLOH    C2 8480   3.546   1.252   0.100  0.3008 -0.4844  1.4586
   22GLOH   H04 8481   3.605   1.237   0.191  1.2647 -0.7589  0.7905
   22GLOH    O2 8482   3.614   1.351   0.025 -0.4391 -0.2525 -0.0942
   22GLOH   H05 8483   3.556   1.367  -0.051  1.0683  1.1819 -0.9843
   22GLOH    C3 8484   3.398   1.295   0.145  0.1959 -0.8670 -0.3370
   22GLOH   H06 8485   3.339   1.317   0.056  0.1770 -2.2592 -0.6720
   22GLOH   H07 8486   3.402   1.396   0.185 -1.9934 -0.1563 -1.8399
   22GLOH    O3 8487   3.330   1.218   0.239 -0.4259  0.3630 -0.1980
   22GLOH   H01 8488   3.240   1.257   0.241 -0.3551  0.9406 -3.7335
   23GLOH   H03 8489   3.549   9.191   2.008  0.6870  1.0583  0.0587
   23GLOH    O1 8490   3.637   9.166   1.974  0.3292  0.2192 -0.2640
   23GLOH    C1 8491   3.657   9.032   2.029  0.8224  0.4307  0.1854
   23GLOH   H02 8492   3.559   8.984   2.035  0.8635 -0.1166 -2.5877
   23GLOH   H08 8493   3.698   9.014   2.129 -1.6184  0.7426  1.2728
   23GLOH    C2 8494   3.731   8.945   1.925  0.8090  0.6074 -0.0564
   23GLOH   H04 8495   3.836   8.976   1.916  1.2006 -0.3075  1.1985
   23GLOH    O2 8496   3.742   8.800   1.958  0.7009  0.3731 -0.2102
   23GLOH   H05 8497   3.795   8.763   1.886  0.5133  0.9817 -0.6674
   23GLOH    C3 8498   3.650   8.949   1.795  0.5769  0.4131 -1.2689
   23GLOH   H06 8499   3.644   9.055   1.769 -1.4232  1.5415  3.2981
   23GLOH   H07 8500   3.550   8.912   1.816  1.5289 -1.1530  0.6535
   23GLOH    O3 8501   3.701   8.875   1.687 -0.2089 -0.5198  0.2842
   23GLOH   H01 8502   3.628   8.847   1.629  0.3769  2.1591 -1.8668
   24GLOH   H03 8503   4.542   1.163   0.889  0.0892  0.2841 -0.2572
   24GLOH    O1 8504   4.588   1.245   0.863  0.5123  0.4709  1.0490
   24GLOH    C1 8505   4.668   1.299   0.963  0.9225  0.1032  0.2475
   24GLOH   H02 8506   4.712   1.389   0.920  2.0921 -0.0358  1.1577
   24GLOH   H08 8507   4.742   1.224   0.988  0.8006 -0.4795 -1.1180
   24GLOH    C2 8508   4.597   1.359   1.084  0.0167  0.1021  0.8082
   24GLOH   H04 8509   4.669   1.368   1.166  2.6865  0.1319 -1.4589
   24GLOH    O2 8510   4.548   1.499   1.061  0.3264  0.2295 -0.4216
   24GLOH   H05 8511   4.509   1.534   1.143  0.4658 -2.0757  0.6670
   24GLOH    C3 8512   4.487   1.261   1.135 -0.3085 -0.2814  0.0718
   24GLOH   H06 8513   4.413   1.261   1.055 -0.1457 -1.0741 -0.0837
   24GLOH   H07 8514   4.438   1.306   1.221  0.4615 -0.8805  0.8198
   24GLOH    O3 8515   4.516   1.123   1.159 -0.7312 -0.1126 -0.2818
   24GLOH   H01 8516   4.532   1.106   1.254 -0.7945  0.3984 -0.1774
   25GLOH   H03 8517   4.235   3.635   2.745  1.9598 -1.8341  3.4513
   25GLOH    O1 8518   4.286   3.571   2.692  0.6128 -0.0843 -0.1116
   25GLOH    C1 8519   4.215   3.444   2.696  0.7215  1.0540 -0.0544
   25GLOH   H02 8520   4.237   3.388   2.787  1.1293  0.7673 -0.3266
   25GLOH   H08 8521   4.249   3.379   2.615 -0.1538  0.0244  0.3924
   25GLOH    C2 8522   4.059   3.462   2.693 -0.2868 -0.2339  0.2237
   25GLOH   H04 8523   4.045   3.531   2.609  2.4094 -0.6034 -0.5874
   25GLOH    O2 8524   3.993   3.333   2.689  0.3401  0.3035 -0.2622
   25GLOH   H05 8525   3.922   3.348   2.624 -0.9295  0.0217  1.0464
   25GLOH    C3 8526   4.020   3.543   2.817 -0.3773 -0.0847 -0.1517
   25GLOH   H06 8527   4.050   3.486   2.905 -2.6750  2.6961  2.5694
   25GLOH   H07 8528   3.912   3.540   2.801 -0.1480  0.3395 -1.9256
   25GLOH    O3 8529   4.089   3.673   2.812 -0.3443 -0.0326  0.3512
   25GLOH   H01 8530   4.027   3.747   2.797 -4.2475 -3.5734 -2.3850
   26GLOH   H03 8531   4.275   1.290   1.526 -1.2022  0.6694 -2.0620
   26GLOH    O1 8532   4.362   1.267   1.488 -0.5300  0.0763 -0.2130
   26GLOH    C1 8533   4.457   1.333   1.572  0.4472 -0.1960  0.4953
   26GLOH   H02 8534   4.427   1.307   1.673  3.5959 -1.2940  1.1915
   26GLOH   H08 8535   4.445   1.441   1.564  1.9766 -0.0909 -0.4711
   26GLOH    C2 8536   4.602   1.291   1.549 -0.5429  0.7611  0.2031
   26GLOH   H04 8537   4.620   1.340   1.453  0.4847  1.5981  0.8186
   26GLOH    O2 8538   4.687   1.334   1.660  0.4064  0.5641  0.1203
   26GLOH   H05 8539   4.649   1.297   1.741  1.8736  0.7271  0.8969
   26GLOH    C3 8540   4.623   1.138   1.525  0.2085 -0.7227  0.0385
   26GLOH   H06 8541   4.604   1.079   1.615  0.4487  1.9814  1.9276
   26GLOH   H07 8542   4.725   1.118   1.494  0.7776 -0.7336  1.8503
   26GLOH    O3 8543   4.531   1.087   1.425 -0.2120  0.0641  0.0890
   26GLOH   H01 8544   4.454   1.136   1.459  0.9420 -1.3963  5.1495
   27GLOH   H03 8545   4.164   0.915   1.192 -1.5149  1.6161  0.2392
   27GLOH    O1 8546   4.197   0.919   1.284 -0.3251  0.4007 -0.1275
   27GLOH    C1 8547   4.100   0.834   1.358 -0.8245  0.2979  0.9088
   27GLOH   H02 8548   4.128   0.728   1.352 -2.2999  0.0387 -1.9467
   27GLOH   H08 8549   3.998   0.843   1.322  0.1035  2.4670 -1.2707
   27GLOH    C2 8550   4.088   0.854   1.511  0.0501  0.1636 -0.4877
   27GLOH   H04 8551   4.030   0.946   1.528 -0.9883 -0.5349 -0.2169
   27GLOH    O2 8552   4.006   0.757   1.573 -0.1343 -0.0735 -0.2915
   27GLOH   H05 8553   3.919   0.798   1.584  0.0098  1.0976 -3.0844
   27GLOH    C3 8554   4.223   0.873   1.576  0.1257 -1.2075 -1.1998
   27GLOH   H06 8555   4.276   0.779   1.561  3.7460  0.5167  0.2067
   27GLOH   H07 8556   4.219   0.886   1.684 -0.8444 -0.3886 -1.3346
   27GLOH    O3 8557   4.292   0.986   1.521 -0.3654 -0.1749  0.1772
   27GLOH   H01 8558   4.277   0.977   1.425 -1.0037 -0.5887  0.3142
   28GLOH   H03 8559   4.153   1.689   1.771 -1.5315 -3.6405  0.3096
   28GLOH    O1 8560   4.222   1.660   1.709  0.3915  0.3701  0.3877
   28GLOH    C1 8561   4.182   1.700   1.575 -0.5545 -0.5220  0.7161
   28GLOH   H02 8562   4.237   1.629   1.513  0.1453  0.1302  0.5905
   28GLOH   H08 8563   4.215   1.800   1.549  2.7586 -1.2423  1.8651
   28GLOH    C2 8564   4.034   1.685   1.550  0.0081  0.7670  1.3535
   28GLOH   H04 8565   4.018   1.742   1.457 -0.5666 -2.3912 -0.5645
   28GLOH    O2 8566   3.988   1.552   1.515 -0.0076  0.2362 -0.5212
   28GLOH   H05 8567   3.918   1.529   1.579 -0.1328 -0.0351 -0.7542
   28GLOH    C3 8568   3.956   1.757   1.661 -0.5794  0.0658 -0.0986
   28GLOH   H06 8569   3.850   1.753   1.635 -0.3560  0.7136 -1.1707
   28GLOH   H07 8570   3.983   1.863   1.651  2.1000 -0.4885  0.9636
   28GLOH    O3 8571   3.987   1.711   1.791 -0.2412 -0.2567 -0.7913
   28GLOH   H01 8572   3.932   1.762   1.854  0.2092  0.6614 -1.1442
   29GLOH   H03 8573   3.722   8.996   1.214 -2.5095  1.1583 -0.7184
   29GLOH    O1 8574   3.673   8.969   1.294 -0.1299 -0.3200  0.3189
   29GLOH    C1 8575   3.557   9.055   1.304 -0.4524  0.9335  0.6181
   29GLOH   H02 8576   3.485   9.022   1.230 -0.0908 -0.0955  0.7165
   29GLOH   H08 8577   3.584   9.159   1.284  0.7803  0.6081  0.5734
   29GLOH    C2 8578   3.489   9.043   1.439 -0.1134  0.6942  0.0549
   29GLOH   H04 8579   3.558   9.077   1.518  0.0910 -1.8847  1.0514
   29GLOH    O2 8580   3.376   9.133   1.437 -0.6035 -0.6285  0.2510
   29GLOH   H05 8581   3.369   9.179   1.522  0.7990 -2.2644  1.2972
   29GLOH    C3 8582   3.444   8.893   1.456 -0.0900  0.2591 -0.0796
   29GLOH   H06 8583   3.375   8.862   1.377  1.5744 -2.6257 -0.4774
   29GLOH   H07 8584   3.393   8.888   1.553  1.8505 -0.8607  0.9078
   29GLOH    O3 8585   3.566   8.810   1.467 -0.8545  0.2650  0.3967
   29GLOH   H01 8586   3.621   8.831   1.389 -2.2431 -2.4634 -1.3933
   30GLOH   H03 8587   2.886   3.337   0.648  0.0262  0.2121  2.0578
   30GLOH    O1 8588   2.887   3.240   0.642 -0.1173  0.3033  0.3369
   30GLOH    C1 8589   3.016   3.200   0.686  0.6347  0.5781  0.2186
   30GLOH   H02 8590   3.093   3.220   0.611  1.6434 -5.0687 -0.4317
   30GLOH   H08 8591   3.025   3.092   0.674  1.2762  0.4766  1.5280
   30GLOH    C2 8592   3.044   3.222   0.838 -0.7400 -0.1571  0.8472
   30GLOH   H04 8593   2.970   3.164   0.894 -1.3004 -0.5291 -0.2760
   30GLOH    O2 8594   3.174   3.171   0.883 -0.2744 -0.1297 -0.6137
   30GLOH   H05 8595   3.249   3.217   0.842  0.6825 -1.7096 -0.6585
   30GLOH    C3 8596   3.037   3.367   0.887 -0.2660  0.2321 -0.1697
   30GLOH   H06 8597   3.061   3.370   0.993  2.2678  0.8403 -0.7087
   30GLOH   H07 8598   2.946   3.427   0.893  0.4047  1.1070  2.0056
   30GLOH    O3 8599   3.111   3.440   0.796 -0.0758 -0.8097  0.2131
   30GLOH   H01 8600   3.203   3.438   0.827 -0.8757  0.6312  2.8183
   31GLOH   H03 8601   4.212   1.811   2.513  0.4069 -0.5657  0.1859
   31GLOH    O1 8602   4.153   1.872   2.561  0.5019 -0.1517 -0.2170
   31GLOH    C1 8603   4.089   1.799   2.667 -0.1053  0.6840 -0.3651
   31GLOH   H02 8604   4.168   1.785   2.740 -0.3518 -1.4046 -0.4600
   31GLOH   H08 8605   4.059   1.699   2.635  0.2596  0.5464 -0.2758
   31GLOH    C2 8606   3.968   1.878   2.728  0.4505  0.2576 -0.7001
   31GLOH   H04 8607   3.910   1.900   2.637 -0.8774 -1.8694 -0.3937
   31GLOH    O2 8608   3.882   1.794   2.816 -0.0279 -0.4424 -0.3459
   31GLOH   H05 8609   3.803   1.773   2.764  0.2748 -0.6609 -0.7245
   31GLOH    C3 8610   4.009   2.014   2.791 -0.0264  0.2705 -0.4915
   31GLOH   H06 8611   4.055   2.074   2.713 -1.4469 -2.2785 -3.3910
   31GLOH   H07 8612   4.082   1.989   2.868  0.8457  1.6859 -0.8487
   31GLOH    O3 8613   3.900   2.093   2.850  0.4952  0.5135 -0.2291
   31GLOH   H01 8614   3.838   2.033   2.896  0.6728  0.7682  0.3522
   32GLOH   H03 8615   3.230   3.072   2.469  0.1711  0.2429  0.6797
   32GLOH    O1 8616   3.324   3.089   2.450  0.1992 -0.2756  0.3456
   32GLOH    C1 8617   3.349   3.202   2.532 -1.0453 -0.1771  0.2075
   32GLOH   H02 8618   3.454   3.230   2.540 -0.6185 -1.4747 -0.6678
   32GLOH   H08 8619   3.316   3.167   2.630 -1.8585  0.5266  0.1908
   32GLOH    C2 8620   3.273   3.337   2.501  0.3310 -0.2688  0.2424
   32GLOH   H04 8621   3.165   3.322   2.483  0.1866  1.0116  0.0410
   32GLOH    O2 8622   3.268   3.414   2.625  0.7261  0.4293  0.7399
   32GLOH   H05 8623   3.229   3.502   2.609  1.4634  0.5655 -0.3447
   32GLOH    C3 8624   3.337   3.423   2.389 -0.5552  0.5111 -0.0480
   32GLOH   H06 8625   3.445   3.406   2.392 -0.7881 -1.5049 -1.5320
   32GLOH   H07 8626   3.315   3.526   2.414  0.3926  0.9195 -0.8507
   32GLOH    O3 8627   3.288   3.401   2.258  0.5935  0.0759  0.1644
   32GLOH   H01 8628   3.325   3.315   2.231  0.3639  0.1573 -0.4204
   33GLOH   H03 8629   4.359   1.015   1.656  0.2193 -0.9201  0.4358
   33GLOH    O1 8630   4.406   1.055   1.731  0.3494  0.3809 -0.3272
   33GLOH    C1 8631   4.411   0.953   1.837  0.2657 -0.6784  1.0662
   33GLOH   H02 8632   4.476   0.868   1.816  0.7400  0.2805 -1.4200
   33GLOH   H08 8633   4.311   0.916   1.859  1.3809 -4.4318  0.1953
   33GLOH    C2 8634   4.457   1.021   1.968  0.0086 -0.4058 -0.4732
   33GLOH   H04 8635   4.373   1.075   2.012  1.6065 -0.3478  2.6035
   33GLOH    O2 8636   4.493   0.915   2.051 -0.8938  0.4751 -0.1187
   33GLOH   H05 8637   4.462   0.941   2.139 -0.0028 -3.0009  1.3330
   33GLOH    C3 8638   4.574   1.116   1.955 -0.4843  0.5228  0.0372
   33GLOH   H06 8639   4.652   1.060   1.903 -0.3253  0.9763 -0.2145
   33GLOH   H07 8640   4.615   1.139   2.054  1.1425  2.3891 -1.0371
   33GLOH    O3 8641   4.543   1.229   1.879  0.3239 -0.1483  0.1677
   33GLOH   H01 8642   4.482   1.196   1.810  1.1950 -0.4012 -0.4900
   34GLOH   H03 8643   4.439   3.156   1.437  1.3847 -0.2620  0.1004
   34GLOH    O1 8644   4.451   3.165   1.341  0.1061  0.2805 -0.0132
   34GLOH    C1 8645   4.458   3.033   1.286 -0.1604  0.0462  0.1206
   34GLOH   H02 8646   4.540   2.987   1.341  0.7077  0.9082 -0.4483
   34GLOH   H08 8647   4.486   3.029   1.181  0.9164  2.3621  0.2992
   34GLOH    C2 8648   4.336   2.948   1.319 -1.5887  0.2086  0.3050
   34GLOH   H04 8649   4.249   2.991   1.267 -0.6977 -0.3427 -1.7137
   34GLOH    O2 8650   4.365   2.815   1.269  0.3780  0.3438 -0.0928
   34GLOH   H05 8651   4.409   2.817   1.182  1.1775 -1.8647  0.2254
   34GLOH    C3 8652   4.322   2.937   1.471  0.6042  0.1994 -0.7451
   34GLOH   H06 8653   4.419   2.901   1.507 -0.0695  0.7474  1.6962
   34GLOH   H07 8654   4.244   2.861   1.477  0.2805  0.6662  1.2918
   34GLOH    O3 8655   4.282   3.063   1.518 -0.4646  0.5205 -0.4085
   34GLOH   H01 8656   4.208   3.050   1.581 -1.0030 -1.2809 -1.3908
   35GLOH   H03 8657   4.317   4.016   2.445  0.1853  1.3057 -3.3173
   35GLOH    O1 8658   4.327   3.920   2.428  0.2878  0.4885  0.7452
   35GLOH    C1 8659   4.464   3.883   2.429 -0.1320  0.0549 -0.8925
   35GLOH   H02 8660   4.527   3.972   2.438 -2.5571  1.6572  1.0908
   35GLOH   H08 8661   4.493   3.829   2.339  1.9547 -0.2570 -0.0514
   35GLOH    C2 8662   4.485   3.785   2.551  0.1127 -0.7393  0.1976
   35GLOH   H04 8663   4.449   3.683   2.529 -0.4074 -0.0922 -2.1484
   35GLOH    O2 8664   4.623   3.761   2.581  0.2081 -0.1567  0.3641
   35GLOH   H05 8665   4.665   3.842   2.547 -1.4474  0.2788 -0.6816
   35GLOH    C3 8666   4.407   3.824   2.679  0.4965  0.0561 -0.2983
   35GLOH   H06 8667   4.452   3.758   2.753  2.4418 -0.5563 -1.9621
   35GLOH   H07 8668   4.304   3.788   2.678  0.4565  0.1686 -1.7932
   35GLOH    O3 8669   4.417   3.963   2.724 -0.4589 -0.1701 -0.1238
   35GLOH   H01 8670   4.508   3.979   2.756 -0.6892  0.0306  0.4562
   36GLOH   H03 8671   4.572   3.159   2.495 -0.9145  0.3366  0.8291
   36GLOH    O1 8672   4.499   3.148   2.431  0.1477 -0.8761 -0.2021
   36GLOH    C1 8673   4.412   3.058   2.494  0.3339  0.2989 -0.3072
   36GLOH   H02 8674   4.354   3.099   2.578  0.5663  2.9115 -1.3624
   36GLOH   H08 8675   4.463   2.968   2.527  2.5003  0.8114 -2.1494
   36GLOH    C2 8676   4.310   3.019   2.385 -0.0695 -0.2722 -0.0721
   36GLOH   H04 8677   4.369   2.974   2.303  2.5648  1.4533  0.8032
   36GLOH    O2 8678   4.223   2.917   2.436  0.1666 -0.1137 -0.3139
   36GLOH   H05 8679   4.148   2.964   2.477  0.8223  1.1104 -0.4942
   36GLOH    C3 8680   4.232   3.135   2.328 -1.0251  0.2679 -0.3207
   36GLOH   H06 8681   4.295   3.224   2.318  0.8372 -0.9714  0.0983
   36GLOH   H07 8682   4.156   3.166   2.399 -1.1276  0.0172 -0.3230
   36GLOH    O3 8683   4.174   3.103   2.196 -0.2439  0.4404 -0.6821
   36GLOH   H01 8684   4.132   3.181   2.156  0.7322  0.2860 -2.0411
   37GLOH   H03 8685   3.608   3.629   0.226 -0.9076  0.4064  2.5224
   37GLOH    O1 8686   3.674   3.676   0.280  0.9131  0.5266  0.2477
   37GLOH    C1 8687   3.627   3.652   0.419 -0.4355  0.5093 -0.4041
   37GLOH   H02 8688   3.523   3.621   0.413 -1.6543  4.6247 -2.5513
   37GLOH   H08 8689   3.633   3.738   0.485  2.7769  0.9548 -1.2195
   37GLOH    C2 8690   3.702   3.537   0.495 -0.4172 -0.2689 -0.7248
   37GLOH   H04 8691   3.797   3.570   0.540 -1.4652 -0.3040  1.6216
   37GLOH    O2 8692   3.631   3.521   0.620  0.0279 -0.2817  0.3595
   37GLOH   H05 8693   3.673   3.581   0.683  0.5954 -1.0941  0.7668
   37GLOH    C3 8694   3.707   3.407   0.403 -0.6263  0.1518 -1.1017
   37GLOH   H06 8695   3.752   3.327   0.462 -1.4969  0.5250  0.1017
   37GLOH   H07 8696   3.776   3.419   0.319  1.4683  0.2870  0.5864
   37GLOH    O3 8697   3.580   3.358   0.345 -0.0276  0.4406  0.1518
   37GLOH   H01 8698   3.574   3.261   0.360  0.4532  0.3108 -0.4807
   38GLOH   H03 8699   3.418   2.876   1.650 -1.2777 -1.2025 -0.5966
   38GLOH    O1 8700   3.386   2.940   1.583  0.0293 -0.4996 -0.5505
   38GLOH    C1 8701   3.393   2.860   1.460 -0.7924 -0.5443 -0.0498
   38GLOH   H02 8702   3.484   2.800   1.464  1.1185  2.3071  2.0660
   38GLOH   H08 8703   3.407   2.929   1.377  0.4902 -0.1831  0.4493
   38GLOH    C2 8704   3.274   2.776   1.422  0.4465  0.5875  0.5201
   38GLOH   H04 8705   3.196   2.851   1.403  0.8046  0.8421  0.0277
   38GLOH    O2 8706   3.306   2.709   1.300  0.2880 -0.4179  0.1762
   38GLOH   H05 8707   3.335   2.621   1.329  1.9898  0.1692  0.2528
   38GLOH    C3 8708   3.233   2.678   1.536  0.1840  0.2188  0.0608
   38GLOH   H06 8709   3.208   2.744   1.618  1.1567 -1.5012  1.7742
   38GLOH   H07 8710   3.324   2.622   1.557 -0.3304 -0.3309  0.8680
   38GLOH    O3 8711   3.116   2.587   1.501  0.5621 -0.0970 -0.3005
   38GLOH   H01 8712   3.151   2.527   1.433 -1.0758 -0.1928 -1.0974
   39GLOH   H03 8713   4.017   1.777   0.610  0.6388 -0.7122 -2.7275
   39GLOH    O1 8714   4.113   1.793   0.621  0.2892 -0.1850  0.0372
   39GLOH    C1 8715   4.169   1.711   0.725  0.0925 -0.0188  0.3086
   39GLOH   H02 8716   4.187   1.616   0.675 -0.6851 -0.2837  0.5289
   39GLOH   H08 8717   4.097   1.686   0.803  2.5413 -1.5042  2.1588
   39GLOH    C2 8718   4.299   1.781   0.778 -0.1302  0.6754  0.0337
   39GLOH   H04 8719   4.348   1.809   0.683  0.0829  1.1350  0.2813
   39GLOH    O2 8720   4.268   1.903   0.848  0.6439  0.5466 -0.0467
   39GLOH   H05 8721   4.218   1.963   0.789  0.8643  1.5904  0.8248
   39GLOH    C3 8722   4.395   1.695   0.861 -0.6284 -0.1912 -0.1819
   39GLOH   H06 8723   4.361   1.684   0.964  1.4179 -0.4838  0.4843
   39GLOH   H07 8724   4.491   1.745   0.847  0.0283 -1.4774 -0.3907
   39GLOH    O3 8725   4.419   1.562   0.809  0.3349  0.1222  0.0154
   39GLOH   H01 8726   4.479   1.512   0.868 -1.0940 -1.4620  0.1502
   40GLOH   H03 8727   4.095   1.540   0.989 -1.0100 -0.2555  1.5057
   40GLOH    O1 8728   4.066   1.447   0.977 -0.1155 -0.3411 -0.1551
   40GLOH    C1 8729   4.083   1.390   1.110  0.5081 -0.0293  0.9408
   40GLOH   H02 8730   4.177   1.335   1.107 -0.9818 -2.5978 -1.0575
   40GLOH   H08 8731   4.009   1.312   1.130  0.4721  0.4166  2.6026
   40GLOH    C2 8732   4.088   1.489   1.226 -0.6851 -0.2402  0.3798
   40GLOH   H04 8733   3.991   1.534   1.252 -0.0719  2.6231 -2.0982
   40GLOH    O2 8734   4.144   1.412   1.341  0.2638  0.2912  0.3052
   40GLOH   H05 8735   4.096   1.440   1.420 -0.0193  1.8933 -0.4219
   40GLOH    C3 8736   4.178   1.607   1.181 -0.2093  0.5922  0.4842
   40GLOH   H06 8737   4.276   1.567   1.156 -0.4932 -0.1741  0.5845
   40GLOH   H07 8738   4.199   1.663   1.272  1.5119 -1.5091  1.4040
   40GLOH    O3 8739   4.130   1.693   1.078 -0.0663 -0.4820 -0.0660
   40GLOH   H01 8740   4.176   1.776   1.100  0.1072 -0.1001 -1.8179
   41GLOH   H03 8741   4.578   1.040   0.432  0.5686 -0.2422 -0.1144
   41GLOH    O1 8742   4.589   0.993   0.347 -0.2690 -0.3688 -0.1636
   41GLOH    C1 8743   4.556   1.090   0.241  0.3208 -0.3552  0.3934
   41GLOH   H02 8744   4.543   1.038   0.146 -1.0303  2.1073 -0.8069
   41GLOH   H08 8745   4.638   1.162   0.233  1.2730 -1.6009 -1.3136
   41GLOH    C2 8746   4.425   1.166   0.271  0.1641 -0.3566  1.4081
   41GLOH   H04 8747   4.454   1.240   0.348 -0.1878  0.8534  0.3847
   41GLOH    O2 8748   4.401   1.248   0.152  0.2179  0.6157 -0.5711
   41GLOH   H05 8749   4.311   1.228   0.120 -0.8627 -0.1118  2.7077
   41GLOH    C3 8750   4.315   1.075   0.331  0.7405  0.2477 -0.4925
   41GLOH   H06 8751   4.282   1.001   0.258 -2.4540  1.7610 -0.6437
   41GLOH   H07 8752   4.233   1.143   0.354  0.4168 -0.8474  1.7493
   41GLOH    O3 8753   4.353   1.015   0.458 -0.5803  0.1136  0.0147
   41GLOH   H01 8754   4.335   1.085   0.523 -0.8303 -0.8509  0.9910
   42GLOH   H03 8755   3.181   3.035   0.246 -0.9441 -0.3804  0.3170
   42GLOH    O1 8756   3.263   2.983   0.249 -0.4177  0.3799 -0.5234
   42GLOH    C1 8757   3.345   3.033   0.359 -0.6696  0.8373  0.1006
   42GLOH   H02 8758   3.323   2.975   0.449 -0.0080  1.6660  0.8016
   42GLOH   H08 8759   3.301   3.129   0.386 -3.2576 -0.2331 -0.1343
   42GLOH    C2 8760   3.490   3.038   0.312  0.4126 -0.1429 -0.0455
   42GLOH   H04 8761   3.493   3.104   0.224  0.5409 -1.4968 -1.0750
   42GLOH    O2 8762   3.561   3.106   0.415  0.5743  0.1808 -0.0206
   42GLOH   H05 8763   3.568   3.047   0.492 -0.0940  1.3175  0.9344
   42GLOH    C3 8764   3.554   2.898   0.292  0.0752  0.1515  0.2923
   42GLOH   H06 8765   3.540   2.844   0.385  1.0868  0.5899  0.7075
   42GLOH   H07 8766   3.661   2.894   0.275  0.3040 -0.5717  1.8393
   42GLOH    O3 8767   3.492   2.827   0.183 -0.0626 -0.3609  0.1223
   42GLOH   H01 8768   3.492   2.732   0.208  2.4317 -0.3169  0.4326
   43GLOH   H03 8769   3.410   9.220   0.096  1.1388 -0.1293 -0.0450
   43GLOH    O1 8770   3.427   9.276   0.018  0.1789  0.1005 -0.0953
   43GLOH    C1 8771   3.569   9.321   0.047  0.1879 -0.0731  0.2563
   43GLOH   H02 8772   3.603   9.394  -0.027  0.5149 -1.0502 -0.5795
   43GLOH   H08 8773   3.633   9.234   0.029  1.8326  1.6151 -2.4380
   43GLOH    C2 8774   3.595   9.384   0.183  0.6801  0.2011 -0.8029
   43GLOH   H04 8775   3.566   9.318   0.266 -0.6217 -0.1464 -1.5244
   43GLOH    O2 8776   3.732   9.409   0.204 -0.0296  0.4473 -0.3642
   43GLOH   H05 8777   3.755   9.477   0.139 -1.1022  0.0131 -1.2157
   43GLOH    C3 8778   3.505   9.510   0.212  0.6556  0.5815 -0.0868
   43GLOH   H06 8779   3.528   9.548   0.312  2.1683 -1.0041  0.1870
   43GLOH   H07 8780   3.400   9.481   0.226  1.1441 -0.0774  2.4618
   43GLOH    O3 8781   3.519   9.615   0.120 -0.8578 -0.3375  0.3414
   43GLOH   H01 8782   3.490   9.591   0.030  2.0859  0.6779 -0.9486
   44GLOH   H03 8783   4.165   4.245   2.107 -0.1633 -2.2158  1.6776
   44GLOH    O1 8784   4.201   4.192   2.034  1.3486 -0.0794  0.8400
   44GLOH    C1 8785   4.293   4.083   2.077 -0.1789  0.0635 -0.1995
   44GLOH   H02 8786   4.234   4.021   2.144 -2.8811  1.8770 -0.8460
   44GLOH   H08 8787   4.380   4.123   2.130  1.2106  1.9335 -3.6708
   44GLOH    C2 8788   4.356   3.996   1.959 -0.1899 -0.1094  0.7543
   44GLOH   H04 8789   4.421   4.058   1.896  0.8582  0.2506  2.1745
   44GLOH    O2 8790   4.458   3.911   2.019 -0.1986 -0.1332  0.1129
   44GLOH   H05 8791   4.485   3.833   1.967 -1.6555 -0.6456  0.0811
   44GLOH    C3 8792   4.238   3.921   1.885 -0.6413  0.1343  1.2639
   44GLOH   H06 8793   4.185   3.850   1.948 -0.5140  0.5620  1.8510
   44GLOH   H07 8794   4.274   3.871   1.795 -4.3683 -3.6141  1.7453
   44GLOH    O3 8795   4.142   4.017   1.844  0.3093 -0.2213 -0.1577
   44GLOH   H01 8796   4.163   4.098   1.895 -1.7250  0.8200 -0.9078
   45GLOH   H03 8797   3.550   1.897   2.101  0.3034  1.5778  0.1683
   45GLOH    O1 8798   3.643   1.921   2.086  0.3904  0.8943 -0.3805
   45GLOH    C1 8799   3.660   2.058   2.128  0.4625  0.0298  0.4692
   45GLOH   H02 8800   3.764   2.092   2.127  0.7689 -0.9070 -0.5684
   45GLOH   H08 8801   3.637   2.078   2.232 -0.9687  0.9846 -0.0120
   45GLOH    C2 8802   3.583   2.158   2.039 -0.7105  0.4390 -0.6628
   45GLOH   H04 8803   3.612   2.151   1.933  0.6314 -1.6053 -0.1980
   45GLOH    O2 8804   3.446   2.127   2.055  0.0504  0.1038  0.8368
   45GLOH   H05 8805   3.408   2.095   1.972  0.5669  1.3568  0.1119
   45GLOH    C3 8806   3.600   2.303   2.078 -0.1623 -0.8588 -0.3336
   45GLOH   H06 8807   3.583   2.318   2.185 -3.5870  1.0010 -1.0517
   45GLOH   H07 8808   3.515   2.358   2.038 -0.3938 -0.4276  0.7302
   45GLOH    O3 8809   3.720   2.368   2.052  0.2142 -0.5614  0.0627
   45GLOH   H01 8810   3.753   2.392   2.141  0.2556  1.1809 -0.4022
   46GLOH   H03 8811   3.837   0.405   2.765 -0.0492 -0.8627  2.2405
   46GLOH    O1 8812   3.916   0.358   2.731 -0.4225  0.0910 -0.0053
   46GLOH    C1 8813   3.929   0.227   2.786  0.5641  0.2481  0.0313
   46GLOH   H02 8814   4.012   0.175   2.741 -0.3292 -1.9297  0.8529
   46GLOH   H08 8815   3.835   0.176   2.768  1.0226 -0.9941  1.0996
   46GLOH    C2 8816   3.950   0.221   2.935  0.3986  0.1378 -0.6312
   46GLOH   H04 8817   3.860   0.252   2.991  1.7842  3.4883 -0.1592
   46GLOH    O2 8818   3.957   0.078   2.960  0.0650 -0.1606  0.4296
   46GLOH   H05 8819   3.952   0.020   2.882  0.2611  0.9556 -0.4268
   46GLOH    C3 8820   4.075   0.307   2.976  0.5710  0.7536  0.0222
   46GLOH   H06 8821   4.058   0.408   2.938 -1.0320 -0.0792 -1.5635
   46GLOH   H07 8822   4.157   0.270   2.914 -0.0082 -0.6386  0.0564
   46GLOH    O3 8823   4.103   0.309   3.114 -1.1079 -0.2914  0.0053
   46GLOH   H01 8824   4.113   0.223   3.160 -2.6613 -0.4783  0.0431
   47GLOH   H03 8825   3.351   9.942   0.896 -0.5718 -1.8660  4.0938
   47GLOH    O1 8826   3.339  10.028   0.941 -0.5988  0.2827  0.1993
   47GLOH    C1 8827   3.293  10.136   0.860 -0.1592  0.0217  0.8280
   47GLOH   H02 8828   3.376  10.177   0.803  0.7711 -1.6481  0.9666
   47GLOH   H08 8829   3.236  10.209   0.918 -0.7420  0.3299 -0.1256
   47GLOH    C2 8830   3.194  10.078   0.759  0.9733 -0.0395 -0.5764
   47GLOH   H04 8831   3.121  10.016   0.814  1.0811 -2.0094 -2.5847
   47GLOH    O2 8832   3.120  10.179   0.689  0.6073 -0.5819  0.1093
   47GLOH   H05 8833   3.096  10.148   0.600  2.5805 -1.6691 -0.0753
   47GLOH    C3 8834   3.263   9.991   0.658  0.0942 -0.0326  0.5898
   47GLOH   H06 8835   3.335  10.050   0.602 -1.4620 -0.2658 -1.7067
   47GLOH   H07 8836   3.188   9.955   0.587 -0.5177  1.4258  0.4789
   47GLOH    O3 8837   3.326   9.881   0.724  0.4813  0.8354 -0.2366
   47GLOH   H01 8838   3.366   9.815   0.664  0.9481 -0.8549  1.8652
   48GLOH   H03 8839   3.925   9.948   0.196 -0.3239  2.4679  1.5560
   48GLOH    O1 8840   3.876   9.891   0.257  0.2194  0.1061 -0.1544
   48GLOH    C1 8841   3.801   9.800   0.174 -0.0364  0.5985  0.2995
   48GLOH   H02 8842   3.746   9.871   0.113 -0.1159  1.0744  0.9146
   48GLOH   H08 8843   3.722   9.748   0.228 -0.8218 -0.3595 -1.7418
   48GLOH    C2 8844   3.885   9.696   0.099 -0.3969 -0.5608  0.0307
   48GLOH   H04 8845   3.950   9.648   0.174 -1.6315 -0.5317  1.1263
   48GLOH    O2 8846   3.804   9.599   0.034  0.2165 -0.0477 -0.1632
   48GLOH   H05 8847   3.735   9.635  -0.025 -0.0742  1.2894  0.9545
   48GLOH    C3 8848   3.984   9.769   0.001 -0.2809  0.3672 -0.0751
   48GLOH   H06 8849   4.038   9.697  -0.060  0.0872 -0.0737  0.7528
   48GLOH   H07 8850   4.060   9.818   0.063 -0.7922  1.7433 -0.5270
   48GLOH    O3 8851   3.925   9.870  -0.077 -0.3318 -0.4231 -0.4749
   48GLOH   H01 8852   3.921   9.852  -0.173  0.1708 -0.6450 -0.4555
   49GLOH   H03 8853   3.310   4.114   0.503 -1.0394 -1.5929  0.4928
   49GLOH    O1 8854   3.350   4.087   0.588 -0.6322 -0.7155  0.5796
   49GLOH    C1 8855   3.285   3.967   0.627  0.2456 -0.3234 -0.1667
   49GLOH   H02 8856   3.299   3.901   0.540 -0.7648  1.0584 -1.3994
   49GLOH   H08 8857   3.177   3.976   0.628  0.3810  1.6293 -0.6830
   49GLOH    C2 8858   3.328   3.906   0.762  0.2712 -0.4568  0.2787
   49GLOH   H04 8859   3.301   3.984   0.835  1.8696  0.5349 -0.1611
   49GLOH    O2 8860   3.263   3.779   0.773  0.3039  0.1056  0.0150
   49GLOH   H05 8861   3.167   3.784   0.786  0.1534  2.4501 -1.6370
   49GLOH    C3 8862   3.485   3.898   0.756  0.4382 -0.0571  0.4327
   49GLOH   H06 8863   3.525   3.998   0.738 -1.8749  0.7252 -0.6550
   49GLOH   H07 8864   3.503   3.839   0.666 -0.1224 -0.7104  0.7413
   49GLOH    O3 8865   3.543   3.826   0.858  0.0590  0.2442  0.3088
   49GLOH   H01 8866   3.546   3.889   0.933 -1.6011  1.3906 -0.5747
   50GLOH   H03 8867   3.425   2.589   0.546  1.6891  2.0738  2.2589
   50GLOH    O1 8868   3.508   2.552   0.509 -0.4209 -0.0897 -0.5771
   50GLOH    C1 8869   3.465   2.455   0.408 -0.3787  0.3779  0.2245
   50GLOH   H02 8870   3.363   2.459   0.368 -1.6544 -0.4892  3.2720
   50GLOH   H08 8871   3.468   2.356   0.452  0.3675  1.2681  2.2286
   50GLOH    C2 8872   3.555   2.450   0.280  1.0925  0.2213  0.1607
   50GLOH   H04 8873   3.518   2.360   0.228 -0.5428  0.7490  0.3643
   50GLOH    O2 8874   3.529   2.569   0.201 -0.2558 -0.2284  0.1370
   50GLOH   H05 8875   3.575   2.569   0.115  0.9331  1.6957  0.7537
   50GLOH    C3 8876   3.698   2.444   0.313  0.4370  0.3022  0.0024
   50GLOH   H06 8877   3.727   2.533   0.367  2.7395  0.1870 -0.9741
   50GLOH   H07 8878   3.740   2.459   0.214 -0.4148  2.0120 -0.1152
   50GLOH    O3 8879   3.741   2.323   0.373 -0.0615 -0.5814 -0.5775
   50GLOH   H01 8880   3.805   2.286   0.309 -0.4280 -0.5070 -0.9865
   51GLOH   H03 8881   3.234   1.644   2.442  0.1265  0.6750  1.6798
   51GLOH    O1 8882   3.329   1.627   2.458  0.3946  0.4829 -0.1188
   51GLOH    C1 8883   3.345   1.530   2.565  0.0797  0.3503  0.7163
   51GLOH   H02 8884   3.274   1.446   2.563  0.4814 -0.0920  3.0416
   51GLOH   H08 8885   3.322   1.579   2.660 -0.9239  2.3744 -0.5424
   51GLOH    C2 8886   3.484   1.461   2.568 -0.0950 -0.1086  0.0928
   51GLOH   H04 8887   3.553   1.546   2.580  0.2948 -0.7499  2.7519
   51GLOH    O2 8888   3.498   1.372   2.679 -0.3998 -0.7560 -0.6015
   51GLOH   H05 8889   3.452   1.290   2.655 -1.5340  0.0796 -1.3372
   51GLOH    C3 8890   3.509   1.383   2.440 -0.9874 -0.0337  0.3712
   51GLOH   H06 8891   3.433   1.305   2.429 -1.2003  0.4467 -1.7746
   51GLOH   H07 8892   3.611   1.345   2.439  0.1336  2.8995 -0.6955
   51GLOH    O3 8893   3.484   1.463   2.324  0.2129 -0.3697 -0.6435
   51GLOH   H01 8894   3.421   1.532   2.351  2.2899  0.2797  2.8638
   52GLOH   H03 8895   3.037   2.166   0.588  0.4222  1.4154  0.3035
   52GLOH    O1 8896   3.085   2.173   0.504 -0.0269  0.2942 -0.0528
   52GLOH    C1 8897   3.213   2.112   0.517  0.2043  0.2943  0.4245
   52GLOH   H02 8898   3.275   2.127   0.429 -0.9585  1.7558 -0.1660
   52GLOH   H08 8899   3.193   2.006   0.533  1.4006  0.2026  1.3971
   52GLOH    C2 8900   3.303   2.138   0.644  0.4874 -0.2334 -0.4237
   52GLOH   H04 8901   3.406   2.116   0.610  0.0758 -3.3496  0.2022
   52GLOH    O2 8902   3.291   2.273   0.685 -0.2877 -0.0833  0.5710
   52GLOH   H05 8903   3.377   2.310   0.711  0.0466 -0.6910  0.3432
   52GLOH    C3 8904   3.283   2.027   0.749  0.6537  0.1383  0.3059
   52GLOH   H06 8905   3.279   1.929   0.701 -0.3285 -0.1816  1.0287
   52GLOH   H07 8906   3.185   2.037   0.794  0.8508  1.3263  0.4710
   52GLOH    O3 8907   3.381   2.033   0.851 -0.2137 -0.1087 -0.2488
   52GLOH   H01 8908   3.355   1.978   0.927  3.2959 -1.4853  0.0253
   53GLOH   H03 8909   2.855   3.284   0.114  3.0892 -1.7211  3.8647
   53GLOH    O1 8910   2.883   3.218   0.049  0.1316 -0.0937  0.7310
   53GLOH    C1 8911   2.824   3.087   0.073  0.6592 -0.0480 -1.0144
   53GLOH   H02 8912   2.864   3.013   0.004  1.9330  0.3249 -0.6720
   53GLOH   H08 8913   2.716   3.088   0.056  0.4255 -0.7657  0.3280
   53GLOH    C2 8914   2.833   3.042   0.223 -0.3094  0.5173 -0.3187
   53GLOH   H04 8915   2.803   3.123   0.291 -1.0493  0.8478 -1.0275
   53GLOH    O2 8916   2.765   2.923   0.252  0.2761  0.2548 -0.3131
   53GLOH   H05 8917   2.824   2.846   0.259 -1.0072 -0.8675 -1.5751
   53GLOH    C3 8918   2.983   3.025   0.269  0.5261 -0.3767  0.9723
   53GLOH   H06 8919   3.025   2.932   0.233  0.3063 -0.5453  1.1532
   53GLOH   H07 8920   2.975   3.011   0.377  0.3973 -2.1948  0.7358
   53GLOH    O3 8921   3.075   3.133   0.244 -0.1563 -0.1748 -0.0698
   53GLOH   H01 8922   3.032   3.215   0.275  0.3102 -0.1425  0.5032
   54GLOH   H03 8923   3.854   2.947   2.823 -0.8348 -1.4843  1.3309
   54GLOH    O1 8924   3.795   3.022   2.844  0.0461 -0.1933 -0.6496
   54GLOH    C1 8925   3.669   2.974   2.855  0.5616 -0.5853 -0.4182
   54GLOH   H02 8926   3.616   3.049   2.914 -2.1821 -0.1586 -3.3243
   54GLOH   H08 8927   3.673   2.883   2.915 -0.5789 -0.6666 -0.4505
   54GLOH    C2 8928   3.592   2.951   2.727 -0.0893  0.0124  0.1110
   54GLOH   H04 8929   3.591   3.040   2.662 -2.8756 -1.6069 -2.2028
   54GLOH    O2 8930   3.659   2.842   2.656  0.7799  0.5880 -0.0111
   54GLOH   H05 8931   3.747   2.826   2.693  1.6646  1.2696 -1.7350
   54GLOH    C3 8932   3.454   2.904   2.754 -0.0652  0.0671  0.4859
   54GLOH   H06 8933   3.463   2.800   2.786  0.6508  0.6117  2.0997
   54GLOH   H07 8934   3.392   2.909   2.664 -1.5245  0.9631  1.5250
   54GLOH    O3 8935   3.390   2.959   2.869  0.1636 -0.5731  0.1181
   54GLOH   H01 8936   3.422   2.912   2.947 -2.3990 -0.6885  1.1370
   55GLOH   H03 8937   4.179   2.479   0.529  1.2362  1.3232 -0.6352
   55GLOH    O1 8938   4.135   2.551   0.577 -0.1111  0.2258 -0.1885
   55GLOH    C1 8939   4.225   2.578   0.679 -0.1659 -0.1096  0.3358
   55GLOH   H02 8940   4.167   2.576   0.771 -0.4374  0.5441  0.1835
   55GLOH   H08 8941   4.254   2.682   0.661  0.7657 -0.4172  0.0270
   55GLOH    C2 8942   4.357   2.499   0.691  0.4985 -0.4890 -0.2709
   55GLOH   H04 8943   4.335   2.391   0.693  1.7413 -0.8953 -3.6233
   55GLOH    O2 8944   4.446   2.531   0.582 -0.5296  0.5772  0.3441
   55GLOH   H05 8945   4.401   2.521   0.497 -1.1687 -0.9038  0.8417
   55GLOH    C3 8946   4.426   2.541   0.824 -0.1518 -0.2099  0.4569
   55GLOH   H06 8947   4.453   2.646   0.818 -0.8574  0.1134  2.6225
   55GLOH   H07 8948   4.513   2.479   0.845 -1.6626 -3.2439 -1.8730
   55GLOH    O3 8949   4.336   2.523   0.938 -0.1770 -0.0687  0.0524
   55GLOH   H01 8950   4.340   2.428   0.959 -1.0031 -0.2322 -0.4863
   56GLOH   H03 8951   3.779   2.212   1.732  1.9780  0.3834 -1.2892
   56GLOH    O1 8952   3.717   2.262   1.676  0.4354  0.3178  0.3253
   56GLOH    C1 8953   3.760   2.280   1.536 -0.7695  0.2196  0.5501
   56GLOH   H02 8954   3.832   2.203   1.509 -1.4845 -0.3551  0.2654
   56GLOH   H08 8955   3.811   2.374   1.516  0.5872  0.0944  3.1284
   56GLOH    C2 8956   3.635   2.282   1.442 -0.2504 -0.5020  0.4077
   56GLOH   H04 8957   3.566   2.203   1.473 -1.3725  0.3976  0.2325
   56GLOH    O2 8958   3.575   2.416   1.449  0.2178  0.3709 -0.0887
   56GLOH   H05 8959   3.630   2.479   1.399  0.2720 -0.3421 -0.9592
   56GLOH    C3 8960   3.675   2.227   1.302 -0.3324  0.5422 -0.3175
   56GLOH   H06 8961   3.751   2.296   1.264  0.3180 -0.8492 -1.5650
   56GLOH   H07 8962   3.599   2.222   1.225  0.2879 -0.9486 -0.8408
   56GLOH    O3 8963   3.735   2.094   1.305 -0.5321  0.0983 -0.3823
   56GLOH   H01 8964   3.775   2.062   1.222 -2.9825 -2.2827 -0.7075
   57GLOH   H03 8965   3.785   9.666   2.206 -0.9065 -0.2854 -2.0408
   57GLOH    O1 8966   3.707   9.613   2.232 -0.2358 -0.1141  0.4347
   57GLOH    C1 8967   3.742   9.474   2.214  0.5931 -0.5182 -0.6560
   57GLOH   H02 8968   3.850   9.464   2.201  0.5660 -2.1791  0.2947
   57GLOH   H08 8969   3.697   9.438   2.121 -1.7601 -0.5636  0.4890
   57GLOH    C2 8970   3.687   9.389   2.331 -0.9251  0.4861  0.3887
   57GLOH   H04 8971   3.579   9.400   2.348 -1.0031 -0.5415  0.6302
   57GLOH    O2 8972   3.722   9.247   2.313  0.2859  0.2248  0.2121
   57GLOH   H05 8973   3.638   9.199   2.325 -0.7293  1.1556 -2.8505
   57GLOH    C3 8974   3.748   9.435   2.459 -0.6254  0.2303  0.8392
   57GLOH   H06 8975   3.853   9.407   2.461 -1.2080 -2.1583 -0.0149
   57GLOH   H07 8976   3.700   9.376   2.537 -2.1386  0.7810  0.3354
   57GLOH    O3 8977   3.736   9.573   2.486 -0.0132 -0.0228  0.0071
   57GLOH   H01 8978   3.688   9.613   2.412 -0.9853 -0.3614  0.4416
   58GLOH   H03 8979   4.259   2.662   1.785  1.0527 -0.0614  2.1500
   58GLOH    O1 8980   4.171   2.643   1.821 -0.0542  0.6881 -0.0796
   58GLOH    C1 8981   4.142   2.747   1.916 -0.9166  0.0153  0.1860
   58GLOH   H02 8982   4.037   2.745   1.946 -1.1927 -0.2607 -0.7924
   58GLOH   H08 8983   4.169   2.835   1.857 -0.7031  1.6792  2.7016
   58GLOH    C2 8984   4.224   2.747   2.045  0.2500 -0.4957 -0.6669
   58GLOH   H04 8985   4.321   2.791   2.018  0.0698 -0.7330 -1.7112
   58GLOH    O2 8986   4.149   2.834   2.128  0.1363 -0.3961 -0.2011
   58GLOH   H05 8987   4.199   2.883   2.196 -0.4318 -0.6428  0.4004
   58GLOH    C3 8988   4.255   2.608   2.101 -0.3367  0.2496  0.7413
   58GLOH   H06 8989   4.297   2.545   2.022  2.1657 -0.4402  2.5499
   58GLOH   H07 8990   4.171   2.556   2.147 -0.6147 -4.3761 -4.4065
   58GLOH    O3 8991   4.357   2.624   2.208 -0.2126  0.6542  0.3007
   58GLOH   H01 8992   4.428   2.563   2.180  1.0596  2.6407 -0.9265
   59GLOH   H03 8993   4.344   2.088   2.821 -1.1074 -0.4662  0.0699
   59GLOH    O1 8994   4.310   2.074   2.911 -0.3374  0.0317  0.4484
   59GLOH    C1 8995   4.411   2.008   2.989 -0.1807  0.4298  0.0435
   59GLOH   H02 8996   4.509   2.053   2.970 -0.7855  1.7119 -0.0828
   59GLOH   H08 8997   4.413   1.908   2.944  1.1829  1.4979 -2.3508
   59GLOH    C2 8998   4.387   2.008   3.138  0.2160  0.9425 -0.5155
   59GLOH   H04 8999   4.292   1.952   3.146  1.0121 -0.6158 -1.6699
   59GLOH    O2 9000   4.480   1.920   3.205 -0.6876 -0.0315 -0.2619
   59GLOH   H05 9001   4.494   1.938   3.300 -0.2702  1.1403 -0.5468
   59GLOH    C3 9002   4.374   2.150   3.202 -0.5763 -0.3472  0.0906
   59GLOH   H06 9003   4.478   2.181   3.212  0.5628 -4.1021  0.7099
   59GLOH   H07 9004   4.331   2.145   3.302  0.6306 -2.2220  0.5514
   59GLOH    O3 9005   4.301   2.236   3.109 -0.1891 -1.1087  0.0931
   59GLOH   H01 9006   4.297   2.193   3.021 -1.6697  0.8826 -0.8492
   60GLOH   H03 9007   3.438   3.487   0.182 -0.9927 -0.2411 -1.5615
   60GLOH    O1 9008   3.511   3.537   0.142 -0.4137  0.6936  0.5671
   60GLOH    C1 9009   3.538   3.471   0.018 -0.3024  0.1140  0.1098
   60GLOH   H02 9010   3.551   3.555  -0.051  0.8454  0.1439  0.3646
   60GLOH   H08 9011   3.457   3.408  -0.018  1.2355 -0.7506 -1.8980
   60GLOH    C2 9012   3.657   3.372   0.019 -0.7296 -0.5849  0.4583
   60GLOH   H04 9013   3.746   3.435   0.037 -0.1403 -1.7432  1.6617
   60GLOH    O2 9014   3.656   3.267   0.111  0.3393  0.2844  0.1454
   60GLOH   H05 9015   3.618   3.309   0.190  2.6503  1.3512  0.7244
   60GLOH    C3 9016   3.670   3.309  -0.114  0.8252  0.1974  0.4031
   60GLOH   H06 9017   3.585   3.242  -0.130  1.6513 -0.8279  0.1985
   60GLOH   H07 9018   3.765   3.255  -0.113  1.4987  1.2944 -1.8571
   60GLOH    O3 9019   3.666   3.407  -0.217  0.1074  0.1330  0.0129
   60GLOH   H01 9020   3.717   3.367  -0.289  0.2280  1.1084 -0.4456
   61GLOH   H03 9021   3.416   9.383   0.748 -0.9503 -3.1732 -0.3913
   61GLOH    O1 9022   3.369   9.387   0.662  0.4058 -0.0285 -1.0653
   61GLOH    C1 9023   3.383   9.517   0.608  0.1422 -0.3895  0.4570
   61GLOH   H02 9024   3.295   9.579   0.625 -0.4218 -1.7841  2.8236
   61GLOH   H08 9025   3.393   9.512   0.499 -1.4186  0.5041  0.2620
   61GLOH    C2 9026   3.517   9.584   0.653 -0.4182  0.0762 -0.0017
   61GLOH   H04 9027   3.597   9.519   0.617 -2.6147 -1.1440 -2.8587
   61GLOH    O2 9028   3.523   9.723   0.611 -0.0197  0.7020  0.1079
   61GLOH   H05 9029   3.617   9.747   0.612  0.6874 -1.7215 -2.9107
   61GLOH    C3 9030   3.517   9.586   0.811  0.2346 -0.8065  0.6549
   61GLOH   H06 9031   3.439   9.654   0.846 -0.6244 -1.3294 -0.2419
   61GLOH   H07 9032   3.616   9.628   0.831  0.3940 -0.3887 -0.9312
   61GLOH    O3 9033   3.499   9.454   0.855 -0.5496 -0.4131  0.5217
   61GLOH   H01 9034   3.580   9.425   0.901  0.3556  1.2497  0.0173
   62GLOH   H03 9035   3.748   4.296   2.118 -0.4741 -2.6874  0.9078
   62GLOH    O1 9036   3.804   4.280   2.196  0.3948 -0.3411  0.7918
   62GLOH    C1 9037   3.715   4.279   2.304  0.2786  0.0598 -0.5083
   62GLOH   H02 9038   3.679   4.381   2.318 -0.8272 -0.5640  1.4109
   62GLOH   H08 9039   3.764   4.262   2.400  0.1557  0.3940 -0.3826
   62GLOH    C2 9040   3.585   4.205   2.279 -0.2615  0.0500  0.7088
   62GLOH   H04 9041   3.586   4.111   2.222 -0.1848  1.2277 -1.2654
   62GLOH    O2 9042   3.514   4.170   2.403 -0.6712  0.0148  0.4062
   62GLOH   H05 9043   3.572   4.107   2.449 -0.2035 -0.4875 -0.8284
   62GLOH    C3 9044   3.504   4.313   2.192 -0.4372  0.7038  0.7173
   62GLOH   H06 9045   3.477   4.406   2.241  2.7916  1.2290  1.6257
   62GLOH   H07 9046   3.409   4.260   2.180 -1.1413  2.2669 -0.8634
   62GLOH    O3 9047   3.566   4.314   2.065 -0.3135 -0.8485  0.4421
   62GLOH   H01 9048   3.529   4.255   1.997  2.0625 -3.0765  0.9917
   63GLOH   H03 9049   4.368   0.371   0.814  2.1022 -0.6349 -0.4960
   63GLOH    O1 9050   4.376   0.337   0.905  0.0569  0.0628 -0.0469
   63GLOH    C1 9051   4.315   0.430   0.997 -0.6795  0.0949  0.1783
   63GLOH   H02 9052   4.210   0.457   0.984  0.1487  1.9488 -3.1240
   63GLOH   H08 9053   4.380   0.517   1.003 -0.4238 -0.0632 -0.2262
   63GLOH    C2 9054   4.308   0.369   1.142 -0.0519 -0.5219  0.3075
   63GLOH   H04 9055   4.411   0.376   1.180  0.1986  2.4680 -0.8203
   63GLOH    O2 9056   4.231   0.447   1.224 -0.1180  0.4605 -0.0626
   63GLOH   H05 9057   4.292   0.491   1.285  2.0393 -0.1595 -1.7028
   63GLOH    C3 9058   4.253   0.225   1.140 -0.6245 -0.2166  0.4671
   63GLOH   H06 9059   4.150   0.242   1.109 -0.8797 -0.8993  0.9501
   63GLOH   H07 9060   4.256   0.176   1.237 -0.3528  0.3433  0.7407
   63GLOH    O3 9061   4.322   0.136   1.049 -0.2743 -0.0567  0.4107
   63GLOH   H01 9062   4.362   0.199   0.986 -0.6561  0.1566  0.3858
   64GLOH   H03 9063   3.997   2.607   0.477 -0.6651  0.6337  3.0512
   64GLOH    O1 9064   3.945   2.682   0.443 -0.0082 -0.3476 -0.2717
   64GLOH    C1 9065   4.019   2.805   0.437 -0.5782 -0.1512  0.1941
   64GLOH   H02 9066   4.122   2.770   0.431 -0.3818  0.6112 -1.0692
   64GLOH   H08 9067   4.021   2.859   0.532  0.5522 -1.3055  0.8399
   64GLOH    C2 9068   3.981   2.900   0.324 -0.5713 -0.2509 -0.3727
   64GLOH   H04 9069   3.871   2.909   0.329 -0.6581 -1.5385  0.0327
   64GLOH    O2 9070   4.038   3.029   0.339  0.3365 -0.2412 -0.3190
   64GLOH   H05 9071   3.981   3.098   0.301  1.4574  1.4069  0.9089
   64GLOH    C3 9072   4.012   2.845   0.191 -0.3013 -0.0995  0.0677
   64GLOH   H06 9073   4.118   2.843   0.169 -0.0710 -1.4735  1.2173
   64GLOH   H07 9074   3.965   2.913   0.120 -2.9949  0.1696  2.0282
   64GLOH    O3 9075   3.942   2.721   0.174  0.2984  0.4511 -0.2089
   64GLOH   H01 9076   3.933   2.671   0.258 -2.7507  0.3659 -0.5135
   65GLOH   H03 9077   3.343   9.206   0.699 -2.9148 -0.3611 -0.9385
   65GLOH    O1 9078   3.344   9.116   0.735 -0.4214  0.1429  0.4173
   65GLOH    C1 9079   3.483   9.086   0.778 -0.6150  0.3932 -0.5570
   65GLOH   H02 9080   3.509   8.983   0.755 -0.0399  0.7053 -1.3626
   65GLOH   H08 9081   3.511   9.094   0.883  0.1688  1.3103 -0.8272
   65GLOH    C2 9082   3.587   9.147   0.680 -0.0625 -0.2894 -0.9414
   65GLOH   H04 9083   3.590   9.256   0.694  0.5577 -0.7287  3.0815
   65GLOH    O2 9084   3.708   9.084   0.720 -0.5298  0.2490 -0.0160
   65GLOH   H05 9085   3.755   9.065   0.637  0.0940  0.4393  0.2844
   65GLOH    C3 9086   3.544   9.108   0.543 -0.3844  0.3494 -0.5150
   65GLOH   H06 9087   3.457   9.170   0.524 -0.1541  0.3770 -1.4861
   65GLOH   H07 9088   3.519   9.002   0.541 -1.8032  0.6317  1.3550
   65GLOH    O3 9089   3.652   9.121   0.455  0.4726  0.0423  0.2551
   65GLOH   H01 9090   3.682   9.214   0.461  1.4475 -0.2532 -0.0674
   66GLOH   H03 9091   3.445   0.306   1.446 -0.8139 -0.2435 -0.1138
   66GLOH    O1 9092   3.483   0.383   1.400 -0.0210 -0.5753 -0.0285
   66GLOH    C1 9093   3.603   0.345   1.337  0.9312  0.8097  0.4986
   66GLOH   H02 9094   3.685   0.386   1.395  2.7559 -0.9078 -0.8142
   66GLOH   H08 9095   3.609   0.373   1.232 -1.1669  0.2235  0.1991
   66GLOH    C2 9096   3.614   0.192   1.321 -0.1565 -1.2182  0.1727
   66GLOH   H04 9097   3.719   0.168   1.295  0.0245 -0.5807  0.3078
   66GLOH    O2 9098   3.577   0.117   1.435 -0.1037  0.6979  0.0826
   66GLOH   H05 9099   3.602   0.024   1.425  0.6196  0.8807  0.1554
   66GLOH    C3 9100   3.523   0.145   1.206  0.0499  0.5016 -0.5273
   66GLOH   H06 9101   3.555   0.197   1.117  0.3055 -0.2416 -0.8785
   66GLOH   H07 9102   3.418   0.171   1.214  0.3692  1.4641  0.7809
   66GLOH    O3 9103   3.526   0.003   1.185  0.7065 -0.6765 -0.4188
   66GLOH   H01 9104   3.529  -0.011   1.089  0.4528 -1.6083 -0.2984
   67GLOH   H03 9105   4.312   1.664   1.837  0.2568  4.4488  1.3908
   67GLOH    O1 9106   4.356   1.634   1.919 -0.4116 -0.3420  0.1717
   67GLOH    C1 9107   4.412   1.750   1.983 -0.4538  0.5400 -0.2695
   67GLOH   H02 9108   4.461   1.727   2.077 -1.8913 -4.6620 -0.6661
   67GLOH   H08 9109   4.334   1.826   1.997 -3.1909 -1.7385 -2.5022
   67GLOH    C2 9110   4.515   1.812   1.885  0.5860  0.3210 -0.3478
   67GLOH   H04 9111   4.603   1.747   1.894 -0.3465 -1.3086 -2.3931
   67GLOH    O2 9112   4.478   1.820   1.745 -0.0708 -0.5173  0.4515
   67GLOH   H05 9113   4.523   1.758   1.685  0.7410 -1.3019  1.8380
   67GLOH    C3 9114   4.564   1.949   1.929  0.5266 -0.2857  0.1530
   67GLOH   H06 9115   4.483   2.022   1.933 -0.3996 -1.2631 -0.4155
   67GLOH   H07 9116   4.634   1.985   1.853  1.9894  0.8138  1.9848
   67GLOH    O3 9117   4.620   1.947   2.062  0.0971 -0.4890 -0.6334
   67GLOH   H01 9118   4.583   2.026   2.105 -1.3547 -0.8325 -1.2108
   68GLOH   H03 9119   4.312   3.107   2.068  0.5724  0.3562  0.3346
   68GLOH    O1 9120   4.385   3.123   2.005 -0.1137 -0.4632 -0.6775
   68GLOH    C1 9121   4.432   3.010   1.929 -0.6413  0.4765  0.3634
   68GLOH   H02 9122   4.351   2.984   1.862  0.8204 -0.2675 -1.1504
   68GLOH   H08 9123   4.465   2.933   1.999 -0.1975 -0.8052 -1.2403
   68GLOH    C2 9124   4.539   3.024   1.823  0.6468  0.3269 -0.1944
   68GLOH   H04 9125   4.626   3.059   1.880 -0.5339  2.9560  0.0965
   68GLOH    O2 9126   4.579   2.896   1.777  0.3486 -0.8109 -0.2190
   68GLOH   H05 9127   4.669   2.906   1.742  0.5018 -1.2756  0.0413
   68GLOH    C3 9128   4.504   3.137   1.723  0.4615  0.2295  0.6005
   68GLOH   H06 9129   4.488   3.228   1.781  0.9215  0.5244  0.2657
   68GLOH   H07 9130   4.409   3.112   1.677  1.4083 -1.3420 -0.5649
   68GLOH    O3 9131   4.593   3.168   1.613  0.4568  0.1312 -0.4992
   68GLOH   H01 9132   4.581   3.256   1.573  0.0474  0.4843  0.3870
   69GLOH   H03 9133   4.547   2.184   2.275 -0.7964 -0.0448 -0.2811
   69GLOH    O1 9134   4.550   2.149   2.184 -0.4123  0.3112 -0.4078
   69GLOH    C1 9135   4.459   2.235   2.112  0.0014 -0.3119 -0.7927
   69GLOH   H02 9136   4.443   2.319   2.180  1.1632 -1.1125  0.4853
   69GLOH   H08 9137   4.369   2.176   2.096  0.0591 -0.0808 -2.0099
   69GLOH    C2 9138   4.531   2.298   1.993 -0.4573 -0.3216 -0.0189
   69GLOH   H04 9139   4.600   2.224   1.950  0.2780  1.1696 -1.4658
   69GLOH    O2 9140   4.457   2.342   1.874  0.0308 -0.4245  0.0349
   69GLOH   H05 9141   4.375   2.385   1.904  1.0301  1.2953  0.3364
   69GLOH    C3 9142   4.626   2.415   2.038  0.3676 -0.1978  0.5569
   69GLOH   H06 9143   4.680   2.455   1.953 -0.9709 -0.5736 -0.4843
   69GLOH   H07 9144   4.707   2.363   2.089 -0.2216 -1.5602  0.1263
   69GLOH    O3 9145   4.554   2.518   2.117  0.2728  0.4177 -0.0246
   69GLOH   H01 9146   4.580   2.600   2.070  3.0535 -1.0908 -1.2582
   70GLOH   H03 9147   3.007   2.329   0.067  2.6698  0.8169 -3.1200
   70GLOH    O1 9148   2.955   2.273   0.007 -0.7360  0.0329  0.3087
   70GLOH    C1 9149   3.034   2.210  -0.093 -0.0056 -0.7379 -0.4861
   70GLOH   H02 9150   3.054   2.272  -0.181  2.5272 -0.7649  0.0129
   70GLOH   H08 9151   2.993   2.116  -0.131 -1.4104 -0.2517 -0.1912
   70GLOH    C2 9152   3.170   2.181  -0.026  0.1920  0.1443 -0.4300
   70GLOH   H04 9153   3.215   2.276   0.006 -0.4735  0.1317  0.5431
   70GLOH    O2 9154   3.147   2.109   0.105  0.3286  0.1599 -0.5916
   70GLOH   H05 9155   3.215   2.047   0.135 -1.4758 -2.2399 -1.3513
   70GLOH    C3 9156   3.267   2.116  -0.125 -0.2309 -0.0270  0.1523
   70GLOH   H06 9157   3.350   2.091  -0.060 -0.4345 -0.2208  0.3363
   70GLOH   H07 9158   3.298   2.188  -0.201 -1.2346 -1.0333 -1.2306
   70GLOH    O3 9159   3.210   2.002  -0.191  0.7901 -0.3043  0.3528
   70GLOH   H01 9160   3.168   1.942  -0.127  0.5382 -1.1462 -0.5985
   71GLOH   H03 9161   4.276   3.481   2.136 -1.1784  0.4447 -0.9631
   71GLOH    O1 9162   4.221   3.510   2.211  0.2719  0.0617  0.2561
   71GLOH    C1 9163   4.219   3.654   2.219  0.5478  0.0494  0.5837
   71GLOH   H02 9164   4.195   3.688   2.118  0.5461  3.2155  1.5738
   71GLOH   H08 9165   4.315   3.699   2.244 -0.9980  3.1838  1.1287
   71GLOH    C2 9166   4.111   3.699   2.317  0.0633 -0.5546 -0.7429
   71GLOH   H04 9167   4.153   3.666   2.413  1.8923 -1.5707 -1.8669
   71GLOH    O2 9168   4.096   3.841   2.335 -0.2741  0.1968  0.2355
   71GLOH   H05 9169   4.176   3.872   2.382  0.2301 -3.6037  2.1085
   71GLOH    C3 9170   3.974   3.623   2.307 -0.1356  0.2219  0.0848
   71GLOH   H06 9171   3.920   3.665   2.221  1.4593  0.2329 -0.9324
   71GLOH   H07 9172   3.909   3.658   2.387 -0.8358 -1.6425  0.3412
   71GLOH    O3 9173   3.975   3.481   2.312  0.3871 -0.0335 -0.2870
   71GLOH   H01 9174   4.062   3.449   2.280 -0.7291 -0.6276 -2.9088
   72GLOH   H03 9175   3.688   4.653   2.824  1.7250  1.2658 -1.1969
   72GLOH    O1 9176   3.759   4.587   2.840 -0.0841 -0.3805  0.3593
   72GLOH    C1 9177   3.718   4.493   2.944 -0.3292 -0.5119 -0.0594
   72GLOH   H02 9178   3.619   4.456   2.918 -0.7395 -0.1961  0.9992
   72GLOH   H08 9179   3.695   4.539   3.040 -0.9007  1.1934 -0.9869
   72GLOH    C2 9180   3.832   4.385   2.955 -0.2608 -0.0558 -0.3527
   72GLOH   H04 9181   3.930   4.433   2.969 -1.4656  2.2667  0.3832
   72GLOH    O2 9182   3.800   4.295   3.063 -0.2656 -0.2680  0.0497
   72GLOH   H05 9183   3.709   4.261   3.055 -0.4817  0.3053  0.1043
   72GLOH    C3 9184   3.835   4.303   2.816  0.1594  0.0040 -0.8289
   72GLOH   H06 9185   3.735   4.262   2.804 -0.0095  0.5782 -1.4160
   72GLOH   H07 9186   3.908   4.222   2.822  1.2101  1.0578  0.7483
   72GLOH    O3 9187   3.862   4.387   2.706  0.8007  0.1125  0.2797
   72GLOH   H01 9188   3.852   4.480   2.732 -1.3056 -0.9113  3.4014
   73GLOH   H03 9189   3.906   2.234   2.758 -0.1175  1.0689  0.3814
   73GLOH    O1 9190   3.913   2.273   2.669 -0.5873  0.0388 -0.1234
   73GLOH    C1 9191   3.927   2.412   2.694  0.0775 -0.4988  0.1853
   73GLOH   H02 9192   3.972   2.431   2.792  4.2785 -0.0643 -1.7062
   73GLOH   H08 9193   3.842   2.480   2.687  0.7090  0.2904  0.1159
   73GLOH    C2 9194   4.035   2.461   2.597 -0.3319 -0.0197 -0.5837
   73GLOH   H04 9195   4.005   2.479   2.493  2.0107 -1.5758 -1.5585
   73GLOH    O2 9196   4.078   2.595   2.646  0.3769 -0.8840 -0.9508
   73GLOH   H05 9197   4.155   2.619   2.590  0.2190 -1.2624 -1.3384
   73GLOH    C3 9198   4.154   2.372   2.598  0.1317 -0.2089 -0.0571
   73GLOH   H06 9199   4.133   2.265   2.587 -1.2003  0.1364 -1.0744
   73GLOH   H07 9200   4.190   2.383   2.700 -1.4523  2.7306  0.2604
   73GLOH    O3 9201   4.260   2.416   2.510  0.0143  0.2108 -0.6370
   73GLOH   H01 9202   4.231   2.503   2.479 -3.1828 -1.0067 -1.2774
   74GLOH   H03 9203   3.792   1.518   2.170 -0.0897  2.1024  0.7112
   74GLOH    O1 9204   3.855   1.520   2.244  0.6775 -0.5590  0.1818
   74GLOH    C1 9205   3.796   1.577   2.361 -0.3039  0.3307  0.2250
   74GLOH   H02 9206   3.794   1.497   2.436 -1.6427 -1.0662 -1.2825
   74GLOH   H08 9207   3.691   1.603   2.350 -0.3562 -0.5061 -1.2859
   74GLOH    C2 9208   3.887   1.690   2.416 -0.4385  0.1571 -0.6313
   74GLOH   H04 9209   3.853   1.719   2.517  0.1048 -0.0156 -0.3947
   74GLOH    O2 9210   4.018   1.633   2.420  0.1543 -0.3694  0.4272
   74GLOH   H05 9211   4.029   1.576   2.342 -0.7607  0.9095 -0.6499
   74GLOH    C3 9212   3.883   1.820   2.328  0.5579 -0.2482  0.5492
   74GLOH   H06 9213   3.782   1.858   2.345  1.1781  1.6913  0.0643
   74GLOH   H07 9214   3.883   1.794   2.222 -0.0189  1.6639  0.0508
   74GLOH    O3 9215   3.970   1.926   2.359 -0.8455 -0.3259 -0.1687
   74GLOH   H01 9216   4.050   1.896   2.407 -0.7331 -2.2684 -1.5358
   75GLOH   H03 9217   2.877   1.535   2.678  0.0115 -0.6907  0.6187
   75GLOH    O1 9218   2.862   1.458   2.619 -0.6802 -0.1038  0.0271
   75GLOH    C1 9219   2.924   1.496   2.491  0.4358 -0.3064  0.4842
   75GLOH   H02 9220   2.844   1.520   2.421 -1.1686 -2.3568  1.5320
   75GLOH   H08 9221   2.981   1.410   2.457 -0.6847 -0.2286 -1.6725
   75GLOH    C2 9222   3.018   1.618   2.514  0.5581 -0.0658 -1.4802
   75GLOH   H04 9223   3.093   1.582   2.585 -0.7594  1.2412  0.6115
   75GLOH    O2 9224   3.083   1.646   2.393 -0.9223 -0.2538  0.2621
   75GLOH   H05 9225   3.026   1.624   2.317  0.1426 -0.3123 -0.5452
   75GLOH    C3 9226   2.937   1.740   2.574 -1.1440 -0.0913  0.8703
   75GLOH   H06 9227   2.858   1.777   2.509  1.4042  3.4913 -0.3365
   75GLOH   H07 9228   3.004   1.825   2.591 -3.3365  1.7649  0.5145
   75GLOH    O3 9229   2.886   1.709   2.707  0.2283  0.1697 -1.0013
   75GLOH   H01 9230   2.820   1.779   2.721  1.4670  0.9612  1.0635
   76GLOH   H03 9231   4.027   3.243   1.187 -0.1363  1.7034 -0.2474
   76GLOH    O1 9232   3.929   3.238   1.191 -0.0366 -0.1038  0.4440
   76GLOH    C1 9233   3.884   3.367   1.238 -0.1082 -0.0685 -0.0159
   76GLOH   H02 9234   3.831   3.423   1.161 -0.3234 -0.4624 -0.1612
   76GLOH   H08 9235   3.968   3.427   1.273 -1.7581  0.9961  2.2625
   76GLOH    C2 9236   3.791   3.353   1.363  0.2088 -0.6463  0.6808
   76GLOH   H04 9237   3.827   3.261   1.413  3.1632 -0.4058 -0.8736
   76GLOH    O2 9238   3.812   3.469   1.448 -0.3306  0.3326 -0.3423
   76GLOH   H05 9239   3.753   3.460   1.524  1.7928  0.5305  1.3703
   76GLOH    C3 9240   3.647   3.319   1.318  0.0054  0.0882 -0.4729
   76GLOH   H06 9241   3.618   3.399   1.250  2.0739  0.0891 -1.4169
   76GLOH   H07 9242   3.588   3.305   1.408  1.8587  1.0966  0.9342
   76GLOH    O3 9243   3.635   3.199   1.243  0.7825  0.5701 -0.5144
   76GLOH   H01 9244   3.717   3.176   1.196  1.0936 -0.7228  0.6298
   77GLOH   H03 9245   3.388   0.518   1.400  2.4956  0.8630 -0.1845
   77GLOH    O1 9246   3.387   0.614   1.379  0.2321  0.9731  0.2945
   77GLOH    C1 9247   3.258   0.655   1.427 -0.3135 -0.5397 -0.2259
   77GLOH   H02 9248   3.223   0.579   1.497 -1.0951 -0.8504 -0.9453
   77GLOH   H08 9249   3.187   0.674   1.347 -1.0760  1.4753  0.8922
   77GLOH    C2 9250   3.279   0.785   1.506  0.2166 -0.1276 -0.0838
   77GLOH   H04 9251   3.177   0.811   1.537  0.4977 -0.5037  1.1703
   77GLOH    O2 9252   3.362   0.746   1.625 -0.0587 -0.0042 -0.9513
   77GLOH   H05 9253   3.449   0.726   1.586 -0.0996 -1.7754 -0.2124
   77GLOH    C3 9254   3.350   0.902   1.437  0.0293  0.1058  0.7957
   77GLOH   H06 9255   3.449   0.867   1.409 -0.4628  0.4789 -1.4718
   77GLOH   H07 9256   3.354   0.989   1.503 -3.2325  0.7820  0.1838
   77GLOH    O3 9257   3.282   0.949   1.321 -0.1417 -0.1863  0.0618
   77GLOH   H01 9258   3.351   0.963   1.253 -0.3391  1.0861  0.1140
   78GLOH   H03 9259   3.260   3.687   2.195  1.5555 -2.5763  0.4347
   78GLOH    O1 9260   3.320   3.752   2.235 -0.4447 -0.1453 -0.3867
   78GLOH    C1 9261   3.341   3.876   2.165 -0.0185 -0.3582  0.7314
   78GLOH   H02 9262   3.433   3.911   2.213  0.6067 -1.6608  0.5092
   78GLOH   H08 9263   3.252   3.937   2.176 -0.8407 -1.4123 -0.0286
   78GLOH    C2 9264   3.352   3.851   2.013  0.7256 -0.0836  0.3818
   78GLOH   H04 9265   3.437   3.786   1.989 -0.0112 -1.6694  1.9565
   78GLOH    O2 9266   3.233   3.788   1.963  0.0820 -0.0492 -0.2855
   78GLOH   H05 9267   3.221   3.703   2.008 -1.9751 -0.1085 -0.9089
   78GLOH    C3 9268   3.384   3.979   1.935  0.1009 -0.1667 -0.6173
   78GLOH   H06 9269   3.288   4.026   1.917  0.3586 -0.0034 -1.6222
   78GLOH   H07 9270   3.405   3.959   1.829  2.4642  2.4547 -0.6930
   78GLOH    O3 9271   3.486   4.058   1.989 -0.2297 -0.3779 -0.1952
   78GLOH   H01 9272   3.572   4.019   1.965 -0.7733 -2.1114  0.6149
   79GLOH   H03 9273   4.290   1.457   2.859  0.9464  2.1768  2.0581
   79GLOH    O1 9274   4.198   1.485   2.877 -0.2636 -0.0490 -0.3416
   79GLOH    C1 9275   4.173   1.524   3.013  0.2311 -0.8375 -0.5873
   79GLOH   H02 9276   4.162   1.632   3.026  0.5859 -0.9636  0.8103
   79GLOH   H08 9277   4.244   1.488   3.086  1.0387 -0.4528 -1.1803
   79GLOH    C2 9278   4.040   1.467   3.060  1.0608 -0.3101  0.2782
   79GLOH   H04 9279   4.043   1.369   3.010  4.0521 -0.4399  0.6067
   79GLOH    O2 9280   4.030   1.468   3.205 -0.2284 -0.1957  0.6601
   79GLOH   H05 9281   4.049   1.561   3.226  1.5266  0.2555 -2.6083
   79GLOH    C3 9282   3.930   1.546   2.995 -0.8489 -0.6854 -0.1498
   79GLOH   H06 9283   3.843   1.494   3.034  0.2599  0.1152  3.5934
   79GLOH   H07 9284   3.951   1.542   2.888  2.7956 -0.1038  0.4617
   79GLOH    O3 9285   3.931   1.685   3.040  0.1538 -0.4718 -0.0944
   79GLOH   H01 9286   3.915   1.732   2.956  2.2680  0.1163 -0.1921
   80GLOH   H03 9287   4.058   0.504   1.935  0.5943 -3.0925  3.1912
   80GLOH    O1 9288   3.970   0.468   1.916  0.2164 -0.3977 -0.7567
   80GLOH    C1 9289   3.999   0.327   1.890  0.4571  0.0658 -0.2874
   80GLOH   H02 9290   4.097   0.317   1.843  0.3996  1.5338 -0.7558
   80GLOH   H08 9291   3.920   0.288   1.828 -1.8814  0.4952  2.3251
   80GLOH    C2 9292   3.989   0.244   2.017  0.1886 -0.3280  0.5997
   80GLOH   H04 9293   3.896   0.262   2.072  1.4549 -0.0981  2.7416
   80GLOH    O2 9294   3.994   0.102   1.994  0.1257 -0.2628  0.3453
   80GLOH   H05 9295   4.056   0.085   1.922  1.9196  0.8683  1.5613
   80GLOH    C3 9296   4.109   0.284   2.103 -0.7591 -0.2267  0.0827
   80GLOH   H06 9297   4.205   0.271   2.053 -1.2561 -0.2513 -0.8701
   80GLOH   H07 9298   4.103   0.219   2.191 -1.3944 -2.7194 -1.7307
   80GLOH    O3 9299   4.110   0.422   2.151  0.3359 -0.2926  0.1897
   80GLOH   H01 9300   4.160   0.481   2.091  2.9353 -0.9147  1.6727
   81GLOH   H03 9301   4.417   3.482   2.716  0.1009 -0.2176 -3.2104
   81GLOH    O1 9302   4.489   3.419   2.737 -1.0527 -0.6970 -0.4763
   81GLOH    C1 9303   4.621   3.483   2.745  0.1260 -0.0810  0.3692
   81GLOH   H02 9304   4.657   3.460   2.845 -1.1456 -1.9808  0.4111
   81GLOH   H08 9305   4.626   3.591   2.733  1.5654 -0.1257  0.4993
   81GLOH    C2 9306   4.728   3.444   2.639 -0.7978  0.3774 -0.0477
   81GLOH   H04 9307   4.692   3.469   2.539  0.4341 -0.6362 -0.7510
   81GLOH    O2 9308   4.849   3.513   2.662 -0.7388 -0.4251  0.5415
   81GLOH   H05 9309   4.829   3.608   2.650 -0.0015 -0.1338  1.5352
   81GLOH    C3 9310   4.740   3.293   2.647  0.1764 -0.1579 -0.0440
   81GLOH   H06 9311   4.789   3.261   2.739 -0.8149  0.7369  0.8093
   81GLOH   H07 9312   4.808   3.260   2.569 -0.8166  2.3996 -2.0474
   81GLOH    O3 9313   4.615   3.219   2.647 -0.3998  0.2443  0.5353
   81GLOH   H01 9314   4.551   3.281   2.686 -1.7995 -1.7557  1.5303
   82GLOH   H03 9315   3.993   0.107   0.621 -0.1270 -0.4387  1.0696
   82GLOH    O1 9316   4.081   0.083   0.655  0.1278 -0.4234  0.4187
   82GLOH    C1 9317   4.158   0.195   0.707  0.4504 -0.2352 -0.5672
   82GLOH   H02 9318   4.246   0.181   0.769 -0.4262 -0.4685  0.6602
   82GLOH   H08 9319   4.086   0.253   0.766 -0.1472 -1.9502  0.4336
   82GLOH    C2 9320   4.199   0.289   0.598 -0.8186 -1.0857  0.0173
   82GLOH   H04 9321   4.105   0.333   0.561 -0.9220 -1.4970 -0.2130
   82GLOH    O2 9322   4.288   0.390   0.652  0.1619  0.7216 -0.7105
   82GLOH   H05 9323   4.301   0.463   0.590  1.4411  0.1469 -1.1285
   82GLOH    C3 9324   4.282   0.213   0.496  0.6604  0.0863 -0.1821
   82GLOH   H06 9325   4.331   0.134   0.553  0.4104  0.5529  0.6899
   82GLOH   H07 9326   4.351   0.283   0.448  1.4586  0.2553  1.1798
   82GLOH    O3 9327   4.178   0.143   0.421 -0.1703 -0.5516  0.2773
   82GLOH   H01 9328   4.127   0.098   0.491 -0.1722  0.7189  1.0942
   83GLOH   H03 9329   4.948   2.278   1.875  1.3940 -2.0993 -0.8253
   83GLOH    O1 9330   4.997   2.281   1.960 -0.0891 -0.2927  0.0080
   83GLOH    C1 9331   5.045   2.148   1.989 -0.1290 -0.2960  0.3257
   83GLOH   H02 9332   5.014   2.123   2.091  1.3487  0.2588  0.9333
   83GLOH   H08 9333   5.154   2.149   1.993 -0.1642  2.1053  1.2222
   83GLOH    C2 9334   5.012   2.035   1.890 -0.8467  0.0066  0.1380
   83GLOH   H04 9335   5.039   1.936   1.932 -1.6642 -0.2541  0.0628
   83GLOH    O2 9336   4.875   2.016   1.864 -0.5767 -0.3447  0.2912
   83GLOH   H05 9337   4.836   1.967   1.939  0.6657 -0.0117  1.1706
   83GLOH    C3 9338   5.087   2.044   1.754 -0.2302 -0.4645 -0.4311
   83GLOH   H06 9339   5.066   1.950   1.702  1.7372 -1.1432 -0.0556
   83GLOH   H07 9340   5.195   2.042   1.770 -0.3211  0.2611  0.3008
   83GLOH    O3 9341   5.066   2.163   1.683 -0.1454 -0.7650 -0.3773
   83GLOH   H01 9342   4.969   2.170   1.690 -0.0096  0.2149  0.5092
   84GLOH   H03 9343   3.012   2.049   0.181 -0.8967  1.9587 -1.6713
   84GLOH    O1 9344   2.936   1.999   0.216  0.5837  0.7794 -0.0680
   84GLOH    C1 9345   2.987   1.907   0.315  0.0716 -0.3542 -0.1278
   84GLOH   H02 9346   2.994   1.945   0.417 -0.9479  2.2471 -0.9647
   84GLOH   H08 9347   3.090   1.882   0.294  0.5220  2.7984 -2.0288
   84GLOH    C2 9348   2.901   1.773   0.326 -0.4730 -0.1954  0.0514
   84GLOH   H04 9349   2.923   1.722   0.420  0.4896 -1.6642 -0.9530
   84GLOH    O2 9350   2.758   1.790   0.321 -0.6633  0.8400 -0.4519
   84GLOH   H05 9351   2.734   1.833   0.237  0.4272 -0.1563 -1.2859
   84GLOH    C3 9352   2.944   1.681   0.218 -0.1126 -0.3348 -0.3548
   84GLOH   H06 9353   2.915   1.729   0.124 -0.4728 -1.7175 -0.9625
   84GLOH   H07 9354   2.879   1.594   0.223  1.0325 -1.2206 -0.6011
   84GLOH    O3 9355   3.082   1.635   0.220 -0.1082  0.3720 -0.3193
   84GLOH   H01 9356   3.130   1.658   0.301  0.7603 -1.6346 -0.2265
   85GLOH   H03 9357   4.228   3.533   1.703  1.1971  0.8146  0.8356
   85GLOH    O1 9358   4.213   3.496   1.792  0.4605  0.4840  0.5804
   85GLOH    C1 9359   4.064   3.494   1.813  0.0748  0.6852 -0.8135
   85GLOH   H02 9360   4.015   3.556   1.738 -2.0910  0.7498  0.6298
   85GLOH   H08 9361   4.046   3.536   1.912 -2.2660  0.5222 -1.1443
   85GLOH    C2 9362   4.015   3.350   1.815 -0.0174 -0.7727 -0.0745
   85GLOH   H04 9363   3.913   3.341   1.855  0.1790 -1.7537  0.2445
   85GLOH    O2 9364   4.033   3.290   1.683 -0.9140  0.1280  0.7192
   85GLOH   H05 9365   4.095   3.348   1.636 -0.3881  0.0856  1.3556
   85GLOH    C3 9366   4.090   3.274   1.920 -0.1851  0.6114 -0.2288
   85GLOH   H06 9367   4.197   3.291   1.910 -0.4600  1.7931 -1.3810
   85GLOH   H07 9368   4.093   3.167   1.897  0.4393  0.8884 -1.4517
   85GLOH    O3 9369   4.046   3.291   2.053  0.1444 -0.2401 -0.6292
   85GLOH   H01 9370   3.954   3.259   2.058 -1.2938  3.1662 -2.8367
   86GLOH   H03 9371   3.995   3.906   0.923 -0.9965  0.9598  0.2717
   86GLOH    O1 9372   3.927   3.884   0.857 -0.0740 -0.3109 -0.2802
   86GLOH    C1 9373   3.944   3.748   0.804 -0.5867 -0.6723  0.4182
   86GLOH   H02 9374   4.048   3.714   0.811 -0.5647 -0.5466  0.6991
   86GLOH   H08 9375   3.924   3.752   0.697  0.3828 -0.0917  0.2520
   86GLOH    C2 9376   3.858   3.645   0.882  0.8432  0.0319 -0.8710
   86GLOH   H04 9377   3.851   3.675   0.988 -3.2231  0.0541 -1.0606
   86GLOH    O2 9378   3.720   3.644   0.833 -0.0729 -0.4639 -0.3391
   86GLOH   H05 9379   3.673   3.728   0.846 -0.5724 -0.2877 -3.0142
   86GLOH    C3 9380   3.917   3.502   0.877 -0.0578  0.2517 -0.7552
   86GLOH   H06 9381   3.925   3.457   0.778  1.0775 -1.3719  0.0626
   86GLOH   H07 9382   3.851   3.439   0.937 -1.9759  2.8801  0.0273
   86GLOH    O3 9383   4.048   3.523   0.926  0.5583 -0.4705 -0.0107
   86GLOH   H01 9384   4.051   3.563   1.015  0.4622  1.4677 -0.8638
   87GLOH   H03 9385   3.725   1.625   1.124  0.4070  0.5473  2.0388
   87GLOH    O1 9386   3.771   1.539   1.131  0.6308  0.3625 -0.9773
   87GLOH    C1 9387   3.725   1.439   1.037 -0.2564  0.1427 -0.1387
   87GLOH   H02 9388   3.632   1.391   1.065  0.6456 -2.7661 -1.9004
   87GLOH   H08 9389   3.799   1.359   1.035  1.3821  1.6048  0.0217
   87GLOH    C2 9390   3.713   1.480   0.891  0.3927 -0.1751 -0.0424
   87GLOH   H04 9391   3.647   1.568   0.899  0.0470 -0.3571 -0.8154
   87GLOH    O2 9392   3.841   1.511   0.830 -0.8740 -0.9091 -0.2810
   87GLOH   H05 9393   3.916   1.486   0.886  0.8689  0.3044 -1.9953
   87GLOH    C3 9394   3.653   1.369   0.803 -0.1735  0.5857 -0.2247
   87GLOH   H06 9395   3.725   1.293   0.774 -0.0304  0.1989  1.1124
   87GLOH   H07 9396   3.616   1.413   0.711  1.5786  1.8344 -0.3525
   87GLOH    O3 9397   3.551   1.297   0.877 -0.2098  0.0673 -0.1242
   87GLOH   H01 9398   3.474   1.356   0.890 -0.2998  0.2139 -1.2424
   88GLOH   H03 9399   4.336   4.037   0.072 -0.7954 -2.2959 -1.2517
   88GLOH    O1 9400   4.377   3.979   0.139  0.6990  0.0424 -0.0265
   88GLOH    C1 9401   4.295   3.953   0.251  0.0960 -0.7448 -0.4410
   88GLOH   H02 9402   4.188   3.958   0.231  0.2133  2.9048 -0.3777
   88GLOH   H08 9403   4.316   4.028   0.328 -1.4187 -1.5017  0.7493
   88GLOH    C2 9404   4.313   3.816   0.314  0.0984  0.2465  0.1509
   88GLOH   H04 9405   4.407   3.825   0.370 -0.1286  2.2814  0.2333
   88GLOH    O2 9406   4.204   3.791   0.407  0.5493  0.3761  0.6584
   88GLOH   H05 9407   4.116   3.808   0.371 -0.1084 -1.3325  1.4005
   88GLOH    C3 9408   4.325   3.700   0.208 -0.2761  0.2496  0.2112
   88GLOH   H06 9409   4.230   3.698   0.155  0.0060 -0.5168 -0.2757
   88GLOH   H07 9410   4.338   3.601   0.252  2.1755  1.0422  1.3752
   88GLOH    O3 9411   4.433   3.726   0.123  0.0516 -0.1961  0.1592
   88GLOH   H01 9412   4.417   3.812   0.081  0.0972 -1.1060 -1.7890
   89GLOH   H03 9413   4.067   1.181   2.053 -0.9950  0.6357  0.2793
   89GLOH    O1 9414   4.035   1.141   1.970  0.2886 -0.1482  0.1434
   89GLOH    C1 9415   4.107   1.194   1.859 -0.5253  0.6039  0.5091
   89GLOH   H02 9416   4.093   1.134   1.769 -0.6142  0.0982  0.8630
   89GLOH   H08 9417   4.212   1.208   1.886 -0.4842 -1.3672  1.3801
   89GLOH    C2 9418   4.052   1.326   1.809  0.0146 -0.6547  0.2897
   89GLOH   H04 9419   4.051   1.398   1.892  3.1919 -1.2634  0.9255
   89GLOH    O2 9420   4.140   1.371   1.698  0.5721 -0.0235 -0.0129
   89GLOH   H05 9421   4.150   1.468   1.696  2.6673 -0.1869  1.2945
   89GLOH    C3 9422   3.907   1.318   1.772  0.0315  0.2482  0.2231
   89GLOH   H06 9423   3.845   1.269   1.848 -0.4425 -0.4464 -0.6139
   89GLOH   H07 9424   3.902   1.244   1.693  0.6540  1.3970 -0.9090
   89GLOH    O3 9425   3.854   1.449   1.730  0.4494  0.5435  0.0497
   89GLOH   H01 9426   3.812   1.507   1.796  0.1313 -2.1992  2.3552
   90GLOH   H03 9427   4.291   0.863   0.428 -0.4869 -0.9447  0.1727
   90GLOH    O1 9428   4.244   0.778   0.434 -0.1738 -1.0886  0.6138
   90GLOH    C1 9429   4.107   0.797   0.482  0.1454 -0.4138 -0.9583
   90GLOH   H02 9430   4.053   0.856   0.408  0.3430  0.6751 -0.2449
   90GLOH   H08 9431   4.110   0.853   0.575  3.1495  0.3423 -1.4593
   90GLOH    C2 9432   4.024   0.669   0.487 -0.5318 -0.1532 -0.6928
   90GLOH   H04 9433   4.094   0.598   0.534 -0.6859  0.2431  0.1452
   90GLOH    O2 9434   3.906   0.684   0.576  0.0936  0.3611 -0.8909
   90GLOH   H05 9435   3.854   0.761   0.549  0.2816  1.4286  1.6560
   90GLOH    C3 9436   3.997   0.606   0.346  0.1704 -0.3889  0.3185
   90GLOH   H06 9437   4.087   0.600   0.285  0.1241  2.1886 -0.0851
   90GLOH   H07 9438   3.925   0.675   0.301  1.0498  1.8169  2.1530
   90GLOH    O3 9439   3.936   0.471   0.355  0.6919 -0.0247  0.7767
   90GLOH   H01 9440   3.996   0.404   0.317 -1.2671 -2.3878  1.7228
   91GLOH   H03 9441   3.627   3.838   0.221 -0.1209 -0.4044 -1.2723
   91GLOH    O1 9442   3.577   3.918   0.196 -0.3369 -0.2358 -0.3419
   91GLOH    C1 9443   3.453   3.934   0.274  0.0406 -0.6922 -0.4297
   91GLOH   H02 9444   3.480   3.937   0.380 -1.9942  1.5747  0.0579
   91GLOH   H08 9445   3.382   3.852   0.262  0.0627 -1.1582  2.2151
   91GLOH    C2 9446   3.376   4.057   0.230  0.9093 -0.0410  1.0877
   91GLOH   H04 9447   3.320   4.040   0.137 -1.2120  0.3512  2.2533
   91GLOH    O2 9448   3.286   4.093   0.333  0.3786 -0.6252  0.4985
   91GLOH   H05 9449   3.204   4.043   0.317 -0.2852  1.2207 -2.2247
   91GLOH    C3 9450   3.465   4.180   0.208  0.5230 -0.5144  0.0594
   91GLOH   H06 9451   3.518   4.218   0.295 -0.8786  0.0132  0.6975
   91GLOH   H07 9452   3.404   4.254   0.156  1.5734  0.7560  0.6220
   91GLOH    O3 9453   3.575   4.146   0.121 -0.2315 -0.6790  0.3926
   91GLOH   H01 9454   3.601   4.057   0.151  1.5210 -0.5358 -0.6585
   92GLOH   H03 9455   3.871   1.774   1.178 -0.4559  0.3102 -0.3839
   92GLOH    O1 9456   3.839   1.838   1.244  0.1676 -0.0453  0.2796
   92GLOH    C1 9457   3.773   1.781   1.359  0.4235 -0.1083 -0.0775
   92GLOH   H02 9458   3.818   1.824   1.448  1.4956  2.7626 -1.9468
   92GLOH   H08 9459   3.791   1.674   1.366 -0.8401 -0.3156  0.2057
   92GLOH    C2 9460   3.619   1.812   1.357 -0.3158 -0.1353 -0.3027
   92GLOH   H04 9461   3.568   1.736   1.418 -0.8256  0.7829  0.4402
   92GLOH    O2 9462   3.596   1.933   1.426 -0.0501  0.0489 -1.0747
   92GLOH   H05 9463   3.649   1.993   1.372  1.1237 -0.4018 -0.4403
   92GLOH    C3 9464   3.572   1.838   1.211 -0.0056 -0.5913 -0.4247
   92GLOH   H06 9465   3.603   1.933   1.166  1.2313 -1.9360 -2.4734
   92GLOH   H07 9466   3.463   1.838   1.215 -0.0900 -0.8916 -2.2582
   92GLOH    O3 9467   3.599   1.743   1.109 -0.2155 -0.0443  0.0202
   92GLOH   H01 9468   3.595   1.788   1.022  2.0349 -0.3499 -0.2695
   93GLOH   H03 9469   3.439   0.766   1.776  1.1085  0.6905 -1.5121
   93GLOH    O1 9470   3.518   0.778   1.833  0.0161  0.5307  0.0727
   93GLOH    C1 9471   3.576   0.661   1.884 -0.3595 -0.1892  0.3277
   93GLOH   H02 9472   3.499   0.588   1.910  0.3407  0.2510  3.7925
   93GLOH   H08 9473   3.623   0.685   1.979 -0.9972  0.0280  0.5902
   93GLOH    C2 9474   3.669   0.581   1.786  0.1178 -0.5082  0.4193
   93GLOH   H04 9475   3.755   0.648   1.772 -1.3139  1.3297  0.1305
   93GLOH    O2 9476   3.722   0.462   1.851 -0.0685  0.2341  0.3060
   93GLOH   H05 9477   3.819   0.462   1.842  0.2698 -2.2239  3.2076
   93GLOH    C3 9478   3.600   0.560   1.649 -0.1426  0.4271  0.6687
   93GLOH   H06 9479   3.500   0.529   1.677 -0.0999 -1.6413 -1.2771
   93GLOH   H07 9480   3.656   0.478   1.604  0.7432  0.2799  2.0210
   93GLOH    O3 9481   3.599   0.681   1.564 -0.3645  0.1516  0.0466
   93GLOH   H01 9482   3.629   0.651   1.476 -0.6789  0.5087 -0.1802
   94GLOH   H03 9483   3.276   3.547   1.107 -0.5764 -0.5151 -0.4713
   94GLOH    O1 9484   3.226   3.521   1.186  0.1201 -0.7827 -0.1193
   94GLOH    C1 9485   3.298   3.415   1.259  0.3515 -0.3284  0.1176
   94GLOH   H02 9486   3.272   3.422   1.365  2.5015 -1.2282  0.7292
   94GLOH   H08 9487   3.401   3.450   1.254  0.3511 -0.2400  0.6936
   94GLOH    C2 9488   3.275   3.272   1.205  0.0948 -0.7750 -0.6068
   94GLOH   H04 9489   3.277   3.275   1.095  0.7451  4.1267 -0.5853
   94GLOH    O2 9490   3.366   3.180   1.267 -0.3656  0.8938 -0.0676
   94GLOH   H05 9491   3.458   3.199   1.239 -0.4237  2.5788  0.8005
   94GLOH    C3 9492   3.128   3.220   1.226 -0.5551 -0.5026 -0.2803
   94GLOH   H06 9493   3.061   3.305   1.210 -0.5340 -0.2236  1.0948
   94GLOH   H07 9494   3.117   3.201   1.332 -0.1697 -0.8658 -0.3056
   94GLOH    O3 9495   3.082   3.117   1.129  0.1412 -0.0633  0.8593
   94GLOH   H01 9496   3.132   3.128   1.046  2.9439  0.1569  2.4776
   95GLOH   H03 9497   3.709   2.960   2.338  0.0424 -2.2007  0.6355
   95GLOH    O1 9498   3.799   2.938   2.307  0.4531  0.4560 -0.1161
   95GLOH    C1 9499   3.899   2.945   2.415  0.2679  0.3527 -0.0845
   95GLOH   H02 9500   3.992   2.943   2.359  0.0807  0.6050 -0.4066
   95GLOH   H08 9501   3.911   2.854   2.474  0.1941 -2.1612 -3.8066
   95GLOH    C2 9502   3.901   3.071   2.500  0.4333  0.0856  0.8813
   95GLOH   H04 9503   3.823   3.064   2.577  1.3037 -0.9745  1.6929
   95GLOH    O2 9504   4.023   3.082   2.578 -0.5830  0.1055  0.2307
   95GLOH   H05 9505   4.009   3.154   2.643  1.5795  0.6237  0.1633
   95GLOH    C3 9506   3.871   3.193   2.404 -0.3496  0.3497 -0.8903
   95GLOH   H06 9507   3.778   3.171   2.350 -0.9905 -1.5053  0.9102
   95GLOH   H07 9508   3.937   3.199   2.318  0.0704  0.6822 -0.5420
   95GLOH    O3 9509   3.847   3.316   2.475 -0.2137 -0.4625  0.1973
   95GLOH   H01 9510   3.889   3.387   2.423 -0.8595  0.6127  1.1227
   96GLOH   H03 9511   3.547   0.721   0.918  1.1685  1.3045 -1.2757
   96GLOH    O1 9512   3.625   0.680   0.960 -0.1654  0.2265  0.2565
   96GLOH    C1 9513   3.638   0.540   0.920 -0.1131 -0.5237  0.3737
   96GLOH   H02 9514   3.544   0.483   0.919  1.1950 -2.7952  1.9517
   96GLOH   H08 9515   3.705   0.499   0.995 -0.4640  0.8095  1.4277
   96GLOH    C2 9516   3.697   0.537   0.775 -0.4807 -0.1081 -0.6606
   96GLOH   H04 9517   3.669   0.631   0.725 -1.1097 -0.7622 -1.5570
   96GLOH    O2 9518   3.842   0.517   0.766 -0.8352  0.4350 -0.1568
   96GLOH   H05 9519   3.871   0.573   0.693  3.0778  0.0036  0.9648
   96GLOH    C3 9520   3.623   0.435   0.696 -0.0905  0.6650 -0.1723
   96GLOH   H06 9521   3.627   0.333   0.733  0.8196  1.1997  1.2585
   96GLOH   H07 9522   3.677   0.429   0.602  0.9113  1.8097  0.3080
   96GLOH    O3 9523   3.495   0.485   0.675  0.0693  0.1453 -0.0359
   96GLOH   H01 9524   3.503   0.554   0.607  0.4919  0.1492  0.0181
   97GLOH   H03 9525   3.659   3.116   1.593 -0.8323 -0.0358 -0.9246
   97GLOH    O1 9526   3.665   3.179   1.667 -0.0617 -1.1520 -0.0140
   97GLOH    C1 9527   3.551   3.182   1.752 -0.0612  0.2523  0.4539
   97GLOH   H02 9528   3.578   3.200   1.856 -0.3752 -0.8101  0.7320
   97GLOH   H08 9529   3.513   3.080   1.744  0.2459  0.0593  1.3766
   97GLOH    C2 9530   3.456   3.293   1.706 -0.4270  0.0141  0.1657
   97GLOH   H04 9531   3.441   3.273   1.599  2.2364 -0.1748 -0.2135
   97GLOH    O2 9532   3.335   3.269   1.782 -0.4597  0.3482  0.6442
   97GLOH   H05 9533   3.287   3.196   1.741  0.4396  2.0781 -3.7217
   97GLOH    C3 9534   3.515   3.433   1.719  0.4077 -0.0785 -0.4841
   97GLOH   H06 9535   3.536   3.448   1.825  2.1473 -1.7114 -0.5755
   97GLOH   H07 9536   3.448   3.515   1.694  1.8677  1.4298  0.4378
   97GLOH    O3 9537   3.631   3.437   1.635  0.1382  0.1710  0.4214
   97GLOH   H01 9538   3.675   3.351   1.645 -1.1746 -0.5924 -0.2467
   98GLOH   H03 9539   3.753   3.900   1.908 -2.0271  0.5543 -2.5941
   98GLOH    O1 9540   3.672   3.881   1.960 -0.3731 -0.4440 -0.2565
   98GLOH    C1 9541   3.709   3.855   2.099 -0.2309 -0.2194  0.1864
   98GLOH   H02 9542   3.733   3.748   2.102  2.3151  0.2883 -0.7568
   98GLOH   H08 9543   3.623   3.873   2.163  0.5579 -0.1214  1.2458
   98GLOH    C2 9544   3.824   3.947   2.148 -0.0976 -0.3948  0.1801
   98GLOH   H04 9545   3.792   4.050   2.127 -0.7663 -0.1479  2.2746
   98GLOH    O2 9546   3.841   3.925   2.294  0.4035 -0.1091 -0.1839
   98GLOH   H05 9547   3.935   3.911   2.313  0.8135  2.8025  0.1674
   98GLOH    C3 9548   3.950   3.920   2.066  0.7392  0.1878 -0.1515
   98GLOH   H06 9549   3.997   3.829   2.104  0.5573  0.5166  0.8667
   98GLOH   H07 9550   4.013   4.002   2.098 -0.5688  0.5869  1.4545
   98GLOH    O3 9551   3.924   3.910   1.922 -0.4534 -0.3232 -0.1226
   98GLOH   H01 9552   4.003   3.939   1.874 -0.1708  0.9117  1.0471
   99GLOH   H03 9553   4.265   0.514   1.939  0.4860  0.7643  0.8944
   99GLOH    O1 9554   4.201   0.570   1.985 -0.8107  0.0869 -0.0595
   99GLOH    C1 9555   4.220   0.715   1.987 -0.1753 -0.2879  0.4133
   99GLOH   H02 9556   4.199   0.761   1.891  2.2054 -0.5320 -0.2524
   99GLOH   H08 9557   4.327   0.726   2.005  0.1004  0.1638 -1.4306
   99GLOH    C2 9558   4.116   0.779   2.086  0.0016 -0.2762 -0.3473
   99GLOH   H04 9559   4.135   0.736   2.185  2.1706 -0.6472 -0.8916
   99GLOH    O2 9560   4.153   0.919   2.080  0.0893  0.3495  0.9410
   99GLOH   H05 9561   4.092   0.973   2.027  1.5168  0.2682 -0.8369
   99GLOH    C3 9562   3.973   0.753   2.028 -0.0146  0.8959 -0.1686
   99GLOH   H06 9563   3.934   0.660   2.070  1.6649  0.4683  0.4678
   99GLOH   H07 9564   3.975   0.732   1.921  1.0321  2.9580 -0.5761
   99GLOH    O3 9565   3.874   0.854   2.060  0.2176 -0.5503 -0.1607
   99GLOH   H01 9566   3.881   0.857   2.157  0.3978 -0.0175 -0.1884
  100GLOH   H03 9567   3.789   9.188   1.842 -0.0084 -1.2581 -2.2623
  100GLOH    O1 9568   3.871   9.231   1.810  0.4285 -0.2058  0.1430
  100GLOH    C1 9569   3.871   9.367   1.799  0.4101  0.1199  0.9037
  100GLOH   H02 9570   3.965   9.403   1.840  0.9398 -2.9513  2.5030
  100GLOH   H08 9571   3.789   9.417   1.851  1.0172  1.1031  0.9389
  100GLOH    C2 9572   3.873   9.420   1.656  0.2338 -0.3484 -0.0068
  100GLOH   H04 9573   3.974   9.410   1.615  0.6127  2.0234  0.3161
  100GLOH    O2 9574   3.776   9.348   1.571  0.0246  0.0091 -0.0294
  100GLOH   H05 9575   3.808   9.257   1.556  1.6419  0.6636 -0.7142
  100GLOH    C3 9576   3.836   9.566   1.647 -0.2193  0.0669  0.2427
  100GLOH   H06 9577   3.732   9.585   1.674  0.1589  0.3209  1.5332
  100GLOH   H07 9578   3.837   9.587   1.540  1.1804  0.8364  0.3954
  100GLOH    O3 9579   3.920   9.660   1.717  0.4385  0.4999 -0.0056
  100GLOH   H01 9580   3.857   9.727   1.750  0.4494 -0.0001  1.0490
  101GLOH   H03 9581   4.086   2.702   0.940 -2.0648 -0.2595  1.2776
  101GLOH    O1 9582   4.088   2.786   0.989  0.5532  0.4205  0.0887
  101GLOH    C1 9583   4.189   2.869   0.927  0.3163 -0.2878 -0.4531
  101GLOH   H02 9584   4.206   2.837   0.824 -3.0624 -2.4037 -0.4179
  101GLOH   H08 9585   4.283   2.847   0.976 -0.9773 -3.6363  0.6724
  101GLOH    C2 9586   4.156   3.021   0.940 -0.0176 -0.6483 -0.5969
  101GLOH   H04 9587   4.127   3.044   1.043  1.5735  2.2728 -0.7255
  101GLOH    O2 9588   4.275   3.096   0.898 -0.1302 -0.5904  0.2656
  101GLOH   H05 9589   4.254   3.191   0.888 -0.1518 -0.7330 -1.1652
  101GLOH    C3 9590   4.045   3.062   0.841  0.4050 -0.5676  0.4762
  101GLOH   H06 9591   4.065   3.015   0.745 -1.7840  0.1209 -0.3389
  101GLOH   H07 9592   4.028   3.169   0.825 -0.2157 -1.1561 -3.4074
  101GLOH    O3 9593   3.932   3.004   0.891  0.2214  0.0006 -0.2818
  101GLOH   H01 9594   3.945   2.917   0.933  0.3482  0.8939  1.5824
  102GLOH   H03 9595   4.035   3.500   0.453 -0.4490  0.8300 -0.7559
  102GLOH    O1 9596   4.021   3.459   0.366 -0.2361  0.3631 -0.5697
  102GLOH    C1 9597   4.110   3.341   0.345 -0.0340  0.0227 -0.6696
  102GLOH   H02 9598   4.082   3.259   0.410 -0.1392  0.6786  0.1265
  102GLOH   H08 9599   4.210   3.364   0.382 -0.0138  0.6799 -1.1158
  102GLOH    C2 9600   4.121   3.294   0.201 -0.7851 -0.4229 -0.6115
  102GLOH   H04 9601   4.173   3.370   0.141  0.6165 -0.2954  0.7368
  102GLOH    O2 9602   4.200   3.173   0.196 -0.1179  0.3149  0.4780
  102GLOH   H05 9603   4.154   3.108   0.253  2.2725 -0.3249  1.7404
  102GLOH    C3 9604   3.978   3.266   0.140  0.3854 -0.3552 -0.6403
  102GLOH   H06 9605   3.987   3.236   0.035 -0.4866 -4.0088  0.2710
  102GLOH   H07 9606   3.913   3.353   0.148 -0.7423 -1.4683  3.0945
  102GLOH    O3 9607   3.892   3.171   0.201  0.4199  0.5970  0.1538
  102GLOH   H01 9608   3.801   3.191   0.173  0.1999 -0.5918  0.0056
  103GLOH   H03 9609   4.054   0.460   1.267  0.4025 -0.4916  0.8819
  103GLOH    O1 9610   3.973   0.456   1.322 -0.2008  0.6321  0.0956
  103GLOH    C1 9611   3.986   0.328   1.387  0.0856 -0.3551  0.5308
  103GLOH   H02 9612   4.063   0.267   1.340  0.1464  0.9825 -1.1450
  103GLOH   H08 9613   3.894   0.270   1.387  1.3273 -2.3671 -0.1775
  103GLOH    C2 9614   4.023   0.354   1.539  0.2644 -0.2757 -0.2721
  103GLOH   H04 9615   3.935   0.406   1.580 -1.1380 -1.7197 -1.3920
  103GLOH    O2 9616   4.046   0.235   1.615  0.2851 -0.5109 -0.6893
  103GLOH   H05 9617   4.005   0.157   1.573  0.7780 -1.0694 -0.1358
  103GLOH    C3 9618   4.139   0.454   1.544 -0.3515 -1.1395 -0.5851
  103GLOH   H06 9619   4.139   0.493   1.646 -0.4640  1.2093 -1.4530
  103GLOH   H07 9620   4.101   0.543   1.493 -2.6722  0.1156  3.1455
  103GLOH    O3 9621   4.276   0.407   1.504 -0.0697 -0.1489  0.1462
  103GLOH   H01 9622   4.271   0.310   1.494  0.9655 -0.2967  0.9709
  104GLOH   H03 9623   3.749   3.981   2.396 -1.9245 -1.1809  0.1436
  104GLOH    O1 9624   3.732   4.015   2.485 -0.2574 -0.1930  0.1134
  104GLOH    C1 9625   3.838   3.991   2.576  0.1229 -0.4029 -0.1387
  104GLOH   H02 9626   3.841   4.086   2.630  0.0402 -0.3148 -0.2885
  104GLOH   H08 9627   3.931   3.984   2.519 -1.2849 -1.2317 -2.4069
  104GLOH    C2 9628   3.828   3.876   2.675  0.6962  0.5284  0.2695
  104GLOH   H04 9629   3.821   3.796   2.599  0.6747  0.3442  0.4649
  104GLOH    O2 9630   3.943   3.864   2.750  0.0945  0.0608  0.4308
  104GLOH   H05 9631   4.010   3.914   2.700  0.8766 -1.3394  0.0334
  104GLOH    C3 9632   3.705   3.871   2.769 -0.8330  0.4979  0.2335
  104GLOH   H06 9633   3.718   3.952   2.840 -1.8394 -0.3542  1.4048
  104GLOH   H07 9634   3.714   3.774   2.817  0.9427  0.0343 -1.0141
  104GLOH    O3 9635   3.586   3.880   2.687 -0.5696  0.2031 -0.3564
  104GLOH   H01 9636   3.596   3.968   2.647  1.8839  1.1198  2.0941
  105GLOH   H03 9637   3.984   4.278   2.228  1.0455 -0.2150 -1.8520
  105GLOH    O1 9638   4.074   4.256   2.259  0.3783 -0.1193  0.2330
  105GLOH    C1 9639   4.063   4.208   2.393  0.4692 -0.4418  0.0981
  105GLOH   H02 9640   4.103   4.107   2.398 -1.4031 -1.2190 -0.3402
  105GLOH   H08 9641   3.957   4.202   2.418 -0.1024 -0.4910 -2.2030
  105GLOH    C2 9642   4.126   4.291   2.504 -0.5573 -0.7906  0.6884
  105GLOH   H04 9643   4.088   4.391   2.483  0.2997 -0.0214  2.6357
  105GLOH    O2 9644   4.084   4.241   2.633 -0.0667 -0.2046 -0.0345
  105GLOH   H05 9645   4.005   4.290   2.660 -0.0528 -0.9251  1.3429
  105GLOH    C3 9646   4.280   4.298   2.485  0.5677  0.7479  0.3129
  105GLOH   H06 9647   4.332   4.374   2.543  1.0953  1.3120 -0.8946
  105GLOH   H07 9648   4.297   4.322   2.380  0.9895 -0.5621  0.0752
  105GLOH    O3 9649   4.338   4.169   2.509  0.1080  0.0861 -0.4680
  105GLOH   H01 9650   4.358   4.160   2.604 -1.6445 -2.9901 -0.3275
  106GLOH   H03 9651   3.796   2.901   1.770 -1.6161  1.8123 -3.4597
  106GLOH    O1 9652   3.748   2.816   1.764  0.4497  0.3556 -0.4568
  106GLOH    C1 9653   3.735   2.764   1.902  0.1857  0.6626  0.1014
  106GLOH   H02 9654   3.713   2.844   1.972  1.4764  0.1183  1.1554
  106GLOH   H08 9655   3.830   2.729   1.943 -0.1516  1.9976  2.0797
  106GLOH    C2 9656   3.626   2.655   1.909 -1.1865  0.9632 -0.3547
  106GLOH   H04 9657   3.658   2.558   1.867  1.3338  0.6834  2.1203
  106GLOH    O2 9658   3.598   2.628   2.045  0.1808  1.1437 -0.3874
  106GLOH   H05 9659   3.628   2.538   2.064  0.6098  0.9706 -1.8310
  106GLOH    C3 9660   3.496   2.719   1.851  0.4118  0.2770 -0.7377
  106GLOH   H06 9661   3.459   2.809   1.901 -1.7818 -1.8505  1.6006
  106GLOH   H07 9662   3.424   2.641   1.875  3.8993 -3.0984 -0.8417
  106GLOH    O3 9663   3.500   2.755   1.708  0.0326  0.6586  0.7364
  106GLOH   H01 9664   3.597   2.753   1.706  0.0985  1.5793  2.2334
  107GLOH   H03 9665   3.762   3.748   1.608  1.4597  0.4298  1.6269
  107GLOH    O1 9666   3.799   3.815   1.547 -0.1584 -0.2798 -0.1830
  107GLOH    C1 9667   3.945   3.800   1.565 -0.2408 -0.1922  0.0192
  107GLOH   H02 9668   3.991   3.716   1.514  0.8331 -1.0726  2.3684
  107GLOH   H08 9669   3.965   3.784   1.671 -1.7080 -1.1815  0.1531
  107GLOH    C2 9670   4.015   3.935   1.538  0.5573  0.2479 -0.1572
  107GLOH   H04 9671   3.959   4.014   1.591  1.8113  0.5684  0.7220
  107GLOH    O2 9672   4.147   3.925   1.591 -0.2596 -0.6756  0.0501
  107GLOH   H05 9673   4.141   3.981   1.670  2.4168 -0.1840 -0.0710
  107GLOH    C3 9674   4.009   3.960   1.393  0.6481  0.5387 -0.3356
  107GLOH   H06 9675   4.059   4.054   1.370  0.0945  0.1648 -3.2584
  107GLOH   H07 9676   3.907   3.961   1.356  0.9360  2.1898 -1.1219
  107GLOH    O3 9677   4.078   3.856   1.320  0.2030 -0.1762 -0.0706
  107GLOH   H01 9678   4.162   3.846   1.369  0.2193 -0.1035 -0.0827
  108GLOH   H03 9679   3.557   0.709   0.424  2.9734 -2.0512  0.5542
  108GLOH    O1 9680   3.510   0.640   0.474 -0.4621 -0.2425 -0.0640
  108GLOH    C1 9681   3.373   0.640   0.419  0.5983  0.1819 -0.1488
  108GLOH   H02 9682   3.360   0.704   0.332 -0.4314  1.6261  1.0368
  108GLOH   H08 9683   3.310   0.677   0.500 -1.5986  1.2986 -2.3437
  108GLOH    C2 9684   3.309   0.503   0.383 -1.0214  0.2231 -0.4078
  108GLOH   H04 9685   3.339   0.471   0.282 -0.5964 -2.3222  0.4721
  108GLOH    O2 9686   3.352   0.395   0.471  0.2519 -0.3111  0.3276
  108GLOH   H05 9687   3.390   0.436   0.550 -1.9763  1.9819  0.2600
  108GLOH    C3 9688   3.161   0.527   0.385  0.1368  0.1473  0.6144
  108GLOH   H06 9689   3.155   0.589   0.474 -1.2288 -0.6847  1.1178
  108GLOH   H07 9690   3.114   0.431   0.404 -1.5692  0.9715  0.5781
  108GLOH    O3 9691   3.117   0.602   0.271  0.1109 -0.3719 -0.3537
  108GLOH   H01 9692   3.168   0.577   0.191 -0.0961 -0.0106 -0.5961
  109GLOH   H03 9693   3.983   2.470   0.869  0.1007  0.0074  0.3023
  109GLOH    O1 9694   4.008   2.422   0.950  0.3772 -0.5574 -0.1111
  109GLOH    C1 9695   3.940   2.448   1.074  0.2344  0.7503 -1.1362
  109GLOH   H02 9696   3.868   2.369   1.097  2.9570 -0.9531  1.7840
  109GLOH   H08 9697   3.888   2.544   1.075 -1.3228 -0.0802  0.6485
  109GLOH    C2 9698   4.036   2.458   1.195 -0.0627  1.1744  0.6024
  109GLOH   H04 9699   4.120   2.527   1.181  0.4462  0.2016 -1.4308
  109GLOH    O2 9700   3.964   2.513   1.306  0.4727  0.0693  0.6513
  109GLOH   H05 9701   4.017   2.568   1.367  0.1238 -1.2092  2.1330
  109GLOH    C3 9702   4.093   2.317   1.218  0.2528  0.6017  0.4269
  109GLOH   H06 9703   4.135   2.290   1.121 -2.6352 -3.3298  0.1482
  109GLOH   H07 9704   4.008   2.253   1.240  1.4656 -0.9199  0.7886
  109GLOH    O3 9705   4.189   2.312   1.321  0.4461 -0.5475  0.3307
  109GLOH   H01 9706   4.145   2.336   1.405 -1.7495  0.2312 -0.9959
  110GLOH   H03 9707   3.490   2.143   0.903  0.4630  0.9491 -1.8369
  110GLOH    O1 9708   3.556   2.195   0.952 -0.3142  0.3282 -0.0556
  110GLOH    C1 9709   3.514   2.328   0.955 -0.0699  0.0943 -0.3018
  110GLOH   H02 9710   3.542   2.370   1.052 -4.1606 -0.8696  1.3820
  110GLOH   H08 9711   3.406   2.328   0.950 -0.0555 -0.0138 -0.6171
  110GLOH    C2 9712   3.576   2.420   0.848 -0.1543 -0.3743 -0.1711
  110GLOH   H04 9713   3.683   2.403   0.828  0.3760  1.8632  0.5851
  110GLOH    O2 9714   3.524   2.381   0.726  0.3276 -0.3678  0.0870
  110GLOH   H05 9715   3.552   2.439   0.653  0.4095 -1.0461 -0.4244
  110GLOH    C3 9716   3.568   2.572   0.870  0.2010 -0.1753 -0.5059
  110GLOH   H06 9717   3.466   2.593   0.903  0.7660 -1.3159  2.1283
  110GLOH   H07 9718   3.590   2.637   0.785 -1.9777 -0.2203 -1.1518
  110GLOH    O3 9719   3.651   2.601   0.990 -0.4894 -0.3317  0.2746
  110GLOH   H01 9720   3.640   2.693   1.018 -1.7197  1.1726 -4.5867
  111GLOH   H03 9721   4.660   2.380   1.310  2.8781  1.1010 -3.7171
  111GLOH    O1 9722   4.608   2.323   1.250 -0.7376  0.3385 -0.0934
  111GLOH    C1 9723   4.523   2.425   1.195  0.3105 -0.5790  0.3391
  111GLOH   H02 9724   4.449   2.465   1.265  0.0107 -1.9632  0.8271
  111GLOH   H08 9725   4.462   2.391   1.112 -0.5238  0.1370  0.6567
  111GLOH    C2 9726   4.596   2.560   1.152  0.4165 -0.1563 -0.4116
  111GLOH   H04 9727   4.670   2.535   1.075  1.2324  0.1175  0.2766
  111GLOH    O2 9728   4.497   2.648   1.096 -0.6251 -0.4550  0.6920
  111GLOH   H05 9729   4.451   2.614   1.018 -0.3586  2.5727 -0.8661
  111GLOH    C3 9730   4.656   2.623   1.271 -0.2360 -0.6323  0.1016
  111GLOH   H06 9731   4.572   2.668   1.324 -0.2660  0.3865 -0.7884
  111GLOH   H07 9732   4.725   2.703   1.244  0.0554 -1.8598 -3.0254
  111GLOH    O3 9733   4.727   2.534   1.356  0.2382  0.6796 -0.0863
  111GLOH   H01 9734   4.764   2.590   1.427  1.2641  0.1991 -0.2306
  112GLOH   H03 9735   4.884   3.911   1.850 -4.0921  0.8332  0.6670
  112GLOH    O1 9736   4.871   3.873   1.761  1.1306 -0.2413  0.2217
  112GLOH    C1 9737   4.765   3.771   1.766 -0.0525 -0.1510  0.1656
  112GLOH   H02 9738   4.768   3.720   1.862  1.8976  0.9892  0.7251
  112GLOH   H08 9739   4.795   3.690   1.699 -1.5165  0.2440 -1.0117
  112GLOH    C2 9740   4.623   3.808   1.715  0.1618 -0.5668 -0.5177
  112GLOH   H04 9741   4.595   3.904   1.760  0.0989  0.0726 -1.9338
  112GLOH    O2 9742   4.615   3.819   1.568  0.1147 -0.6232  0.0526
  112GLOH   H05 9743   4.675   3.874   1.515 -0.1351 -0.2281  0.1761
  112GLOH    C3 9744   4.528   3.697   1.760  0.3857  0.3201 -0.1649
  112GLOH   H06 9745   4.575   3.602   1.734  0.6047  0.4009 -0.0637
  112GLOH   H07 9746   4.445   3.716   1.692  0.2688 -0.2209 -0.1805
  112GLOH    O3 9747   4.505   3.693   1.898 -0.3836 -0.2135  0.1246
  112GLOH   H01 9748   4.459   3.611   1.925 -1.2798 -0.6479 -2.5963
  113GLOH   H03 9749   4.641   2.718   1.870  1.6722 -2.9377 -0.2031
  113GLOH    O1 9750   4.663   2.717   1.965  0.4707 -0.2415  0.1561
  113GLOH    C1 9751   4.804   2.727   1.976 -0.8513 -0.4488  0.3340
  113GLOH   H02 9752   4.854   2.639   1.935 -1.6739  0.2723 -2.2472
  113GLOH   H08 9753   4.830   2.727   2.082 -0.7520  2.0093  0.3403
  113GLOH    C2 9754   4.868   2.839   1.898  0.7421 -0.7286  0.5166
  113GLOH   H04 9755   4.976   2.820   1.898  0.6853 -1.4899 -3.8316
  113GLOH    O2 9756   4.830   2.850   1.756 -0.5020 -0.1829  0.2113
  113GLOH   H05 9757   4.854   2.940   1.731  0.0054 -0.6062 -0.8553
  113GLOH    C3 9758   4.867   2.965   1.983 -0.5866 -0.8485 -0.4007
  113GLOH   H06 9759   4.932   2.937   2.065 -1.3616  0.6557  0.7581
  113GLOH   H07 9760   4.762   2.967   2.014 -0.5360 -0.5379 -0.2576
  113GLOH    O3 9761   4.910   3.082   1.911  0.0657  0.8122 -0.3605
  113GLOH   H01 9762   4.882   3.082   1.817 -2.5562  0.0229  0.3906
  114GLOH   H03 9763   4.548   3.229   0.344 -1.9883  2.1308  1.0014
  114GLOH    O1 9764   4.613   3.270   0.404  0.2080  0.3445 -0.0599
  114GLOH    C1 9765   4.675   3.377   0.331 -0.3212 -0.8443  0.4093
  114GLOH   H02 9766   4.740   3.332   0.256  0.3604  1.1406 -0.2335
  114GLOH   H08 9767   4.735   3.445   0.391 -1.2917 -1.9174  2.6379
  114GLOH    C2 9768   4.563   3.444   0.255  0.2343 -0.8046  0.0284
  114GLOH   H04 9769   4.496   3.486   0.331 -0.3739  0.0150 -0.9350
  114GLOH    O2 9770   4.621   3.568   0.199  0.8276  0.5432  0.3754
  114GLOH   H05 9771   4.548   3.622   0.163  0.2867 -1.3029 -1.3749
  114GLOH    C3 9772   4.490   3.350   0.159 -0.4359 -0.7621  0.4863
  114GLOH   H06 9773   4.568   3.323   0.087 -2.3072 -2.6543 -0.8810
  114GLOH   H07 9774   4.401   3.399   0.120 -0.9856 -3.0830 -1.2790
  114GLOH    O3 9775   4.438   3.234   0.229  0.2429  0.6932 -0.3625
  114GLOH   H01 9776   4.347   3.214   0.199  0.1363  1.8398 -0.8207
  115GLOH   H03 9777   3.145   2.685   2.626  2.3126  0.4698 -0.4227
  115GLOH    O1 9778   3.158   2.588   2.620 -0.1373  0.0550  0.2539
  115GLOH    C1 9779   3.158   2.544   2.484  0.3407 -0.1044 -0.6199
  115GLOH   H02 9780   3.186   2.439   2.485  1.8717  0.2649 -1.5302
  115GLOH   H08 9781   3.225   2.599   2.418  0.3484 -0.1026 -0.6110
  115GLOH    C2 9782   3.008   2.560   2.435  1.1114  0.5377 -0.4598
  115GLOH   H04 9783   2.972   2.660   2.462 -0.8800 -0.9010  2.4487
  115GLOH    O2 9784   2.999   2.534   2.292 -0.1469  0.2229  0.4525
  115GLOH   H05 9785   3.066   2.473   2.257  0.8612  1.1596  0.7033
  115GLOH    C3 9786   2.917   2.460   2.514 -0.2090 -0.8370  0.1378
  115GLOH   H06 9787   2.891   2.508   2.609  0.4737  0.7773 -0.4793
  115GLOH   H07 9788   2.985   2.376   2.527  2.0753  1.1498  1.3831
  115GLOH    O3 9789   2.794   2.420   2.446 -0.6873 -0.3827  0.4470
  115GLOH   H01 9790   2.813   2.424   2.351  2.2477 -1.9157  0.9042
  116GLOH   H03 9791   3.636   9.035   0.294 -2.1241  1.0925  0.7353
  116GLOH    O1 9792   3.607   8.993   0.212  0.0100  0.5086  0.2500
  116GLOH    C1 9793   3.529   8.877   0.257 -0.0364  0.3185 -0.0805
  116GLOH   H02 9794   3.431   8.901   0.298  0.5313 -1.0492  2.1615
  116GLOH   H08 9795   3.577   8.815   0.333  0.9660  0.9121 -0.2310
  116GLOH    C2 9796   3.503   8.769   0.147  0.1260  0.6400  0.0825
  116GLOH   H04 9797   3.601   8.729   0.119 -1.0143 -2.6907  0.5935
  116GLOH    O2 9798   3.436   8.656   0.214  0.8385  0.1952  0.0050
  116GLOH   H05 9799   3.439   8.576   0.160 -1.2518 -0.0690  0.2398
  116GLOH    C3 9800   3.432   8.822   0.021  0.4672 -0.9108 -0.0579
  116GLOH   H06 9801   3.332   8.857   0.048  0.4858 -1.0379  0.1742
  116GLOH   H07 9802   3.427   8.745  -0.057 -0.8478  0.3300 -1.2285
  116GLOH    O3 9803   3.508   8.928  -0.034 -0.2032 -0.7457 -0.4179
  116GLOH   H01 9804   3.563   8.970   0.035 -3.1044 -2.4454  3.0758
  117GLOH   H03 9805   3.747   2.147   0.447 -2.5946  0.7740  1.8220
  117GLOH    O1 9806   3.739   2.052   0.468  0.1678  0.0291 -0.1479
  117GLOH    C1 9807   3.824   1.971   0.387  0.9495  0.4532 -0.3764
  117GLOH   H02 9808   3.790   1.978   0.284  1.6916 -1.6054 -0.7633
  117GLOH   H08 9809   3.834   1.869   0.425  1.0740  1.0608  1.2994
  117GLOH    C2 9810   3.968   2.026   0.379 -0.6815  0.0431 -0.0412
  117GLOH   H04 9811   4.021   2.003   0.472 -1.9652  0.3432  0.7804
  117GLOH    O2 9812   4.027   1.966   0.260 -0.4622 -0.1060  0.4138
  117GLOH   H05 9813   4.023   1.869   0.260 -2.9974 -0.0257 -0.8065
  117GLOH    C3 9814   3.980   2.180   0.375 -0.1603  0.7214 -0.6397
  117GLOH   H06 9815   4.087   2.197   0.373 -0.0107 -0.2742 -1.5428
  117GLOH   H07 9816   3.933   2.216   0.467  1.2271 -1.1433  0.8374
  117GLOH    O3 9817   3.928   2.248   0.256 -0.0844  0.2007  0.1138
  117GLOH   H01 9818   3.938   2.201   0.171  0.7229  2.3491 -1.0153
  118GLOH   H03 9819   3.339   2.360   1.871 -1.2302  2.4490 -1.2586
  118GLOH    O1 9820   3.279   2.375   1.946 -0.0232 -0.0632  0.2685
  118GLOH    C1 9821   3.168   2.399   1.862 -0.2018 -0.3677  0.1968
  118GLOH   H02 9822   3.084   2.372   1.926  1.2517  0.3180  2.4758
  118GLOH   H08 9823   3.159   2.331   1.777 -4.6491 -0.4555  0.6347
  118GLOH    C2 9824   3.127   2.534   1.827  0.7145 -0.1713 -0.3023
  118GLOH   H04 9825   3.201   2.590   1.769 -0.5133 -2.4439 -4.2015
  118GLOH    O2 9826   3.015   2.524   1.721 -1.0059  0.4183 -0.3008
  118GLOH   H05 9827   3.058   2.556   1.640  2.0192  5.2030  2.8582
  118GLOH    C3 9828   3.082   2.628   1.945  0.8332  0.1253  0.8214
  118GLOH   H06 9829   3.163   2.634   2.018  1.0311 -1.3066  0.7179
  118GLOH   H07 9830   2.997   2.583   1.997  0.1197 -0.7013 -0.9894
  118GLOH    O3 9831   3.043   2.757   1.899  0.3303  0.4986 -0.0813
  118GLOH   H01 9832   3.029   2.765   1.803  0.1854  3.1633  0.1420
  119GLOH   H03 9833   4.049   2.714   1.470 -0.2385 -0.4461  3.0612
  119GLOH    O1 9834   3.962   2.757   1.474 -0.1147  0.2454 -0.1033
  119GLOH    C1 9835   3.939   2.827   1.351 -0.1050  0.1186  0.1895
  119GLOH   H02 9836   3.888   2.759   1.283  2.2963 -2.1058  0.5152
  119GLOH   H08 9837   4.040   2.843   1.314 -0.3258 -0.3623 -0.6495
  119GLOH    C2 9838   3.856   2.952   1.348 -0.1329  1.0628  0.5738
  119GLOH   H04 9839   3.914   3.014   1.418 -1.3152  2.7576  0.0626
  119GLOH    O2 9840   3.852   3.004   1.209  0.1394  0.6809  0.0524
  119GLOH   H05 9841   3.897   3.090   1.204 -1.5839  1.5086 -2.3437
  119GLOH    C3 9842   3.721   2.924   1.419  0.1923  0.6533  0.0056
  119GLOH   H06 9843   3.736   2.890   1.521  1.2468  1.7207  0.2136
  119GLOH   H07 9844   3.667   2.844   1.368  0.2563 -1.3911  2.9979
  119GLOH    O3 9845   3.642   3.047   1.438 -0.3946 -0.2137  0.1646
  119GLOH   H01 9846   3.627   3.096   1.355 -0.6016 -0.6963 -0.0853
  120GLOH   H03 9847   5.018   3.598   2.178 -1.0652 -1.1253  0.1496
  120GLOH    O1 9848   5.017   3.641   2.091  0.0278 -0.6308  0.3722
  120GLOH    C1 9849   5.055   3.535   2.002 -0.3718  0.8285  0.3672
  120GLOH   H02 9850   5.163   3.518   1.999 -0.3628  1.0434 -0.5766
  120GLOH   H08 9851   5.029   3.569   1.902 -0.0973 -1.3136 -0.4685
  120GLOH    C2 9852   4.989   3.400   2.020 -0.3075 -0.4330 -0.0380
  120GLOH   H04 9853   4.879   3.407   2.021 -0.3060 -0.2740 -0.7262
  120GLOH    O2 9854   5.025   3.312   1.910  0.2267  0.7388  0.1494
  120GLOH   H05 9855   4.997   3.222   1.933 -0.6870  1.4772  2.0576
  120GLOH    C3 9856   5.042   3.341   2.154  0.1698 -0.3489 -0.2727
  120GLOH   H06 9857   5.149   3.350   2.171 -0.0889 -1.8364  2.4875
  120GLOH   H07 9858   5.020   3.234   2.150  1.2720 -0.5478 -1.3678
  120GLOH    O3 9859   4.968   3.405   2.255 -0.3872 -0.0209  0.0236
  120GLOH   H01 9860   4.875   3.377   2.248 -0.4441  0.6084 -1.8945
  121ACOH    H4 9861   4.978   3.878   1.622 -1.5219  1.2927 -1.7388
  121ACOH    O2 9862   5.035   3.880   1.543  0.6543  0.6675 -0.2058
  121ACOH    C2 9863   4.953   3.887   1.439 -0.0748  0.3166  0.3291
  121ACOH    O1 9864   4.835   3.918   1.442 -0.0713  0.2157 -0.7568
  121ACOH    C1 9865   5.017   3.843   1.317 -0.0941 -0.4114  0.3093
  121ACOH    H1 9866   5.017   3.921   1.241 -0.9178 -2.0864 -1.4660
  121ACOH    H2 9867   4.962   3.759   1.276 -0.1286  0.1713 -0.8625
  121ACOH    H3 9868   5.121   3.810   1.325  0.5957  0.5865 -3.4723
  122ACOH    H4 9869   5.075   3.829   2.442  0.5652  0.4092  0.1950
  122ACOH    O2 9870   5.046   3.830   2.535 -0.4570  0.1363 -0.1172
  122ACOH    C2 9871   4.944   3.912   2.542  1.4128  0.0922 -0.4464
  122ACOH    O1 9872   4.865   3.933   2.456 -0.0478 -0.3729 -0.5236
  122ACOH    C1 9873   4.902   3.948   2.682 -0.8902 -0.5606  0.2414
  122ACOH    H1 9874   4.989   3.971   2.744 -1.0577  1.6558 -0.3098
  122ACOH    H2 9875   4.838   3.875   2.731 -0.9726 -0.8336 -0.2749
  122ACOH    H3 9876   4.839   4.036   2.670 -0.4891 -0.0864  1.5724
  123ACOH    H4 9877   3.117   6.068   0.469  0.7803 -2.2044 -0.8768
  123ACOH    O2 9878   3.196   6.105   0.425  0.5980 -0.1711  0.4641
  123ACOH    C2 9879   3.173   6.231   0.385  0.2395 -0.3737  0.3496
  123ACOH    O1 9880   3.058   6.266   0.363 -0.0176 -0.0815 -0.4073
  123ACOH    C1 9881   3.290   6.299   0.320  0.0524  0.1933  0.3888
  123ACOH    H1 9882   3.263   6.400   0.291  0.8280  0.5080  0.7529
  123ACOH    H2 9883   3.327   6.246   0.232 -0.6993 -0.1564  0.2771
  123ACOH    H3 9884   3.376   6.307   0.386  0.2344 -1.4321  0.3717
  124ACOH    H4 9885   3.264   9.084   0.868  2.5070  1.2816  2.2695
  124ACOH    O2 9886   3.209   9.048   0.940  0.6142  0.4672  0.4650
  124ACOH    C2 9887   3.256   9.096   1.052 -1.3243  0.0739 -0.8383
  124ACOH    O1 9888   3.327   9.194   1.070  0.1540 -0.3677 -0.1083
  124ACOH    C1 9889   3.198   9.025   1.169 -0.3039 -0.6390  0.5883
  124ACOH    H1 9890   3.231   9.072   1.261 -0.4400 -1.9779  1.3318
  124ACOH    H2 9891   3.239   8.925   1.158  0.0653 -0.3305 -0.9741
  124ACOH    H3 9892   3.089   9.034   1.170 -0.1093  2.4475  0.8287
  125ACOH    H4 9893   4.539   2.258   1.770  1.0694  1.4360 -0.2018
  125ACOH    O2 9894   4.566   2.232   1.680 -0.0274  0.1567 -0.1825
  125ACOH    C2 9895   4.702   2.222   1.669  0.5218  0.6261 -0.3295
  125ACOH    O1 9896   4.781   2.280   1.744 -0.0930 -0.1767  0.2470
  125ACOH    C1 9897   4.748   2.143   1.552 -0.2725  0.6573 -0.3902
  125ACOH    H1 9898   4.794   2.053   1.592 -0.5461  0.2015 -1.0850
  125ACOH    H2 9899   4.820   2.191   1.485 -0.6179  1.2541 -0.3376
  125ACOH    H3 9900   4.663   2.107   1.495  0.2955  0.7681 -1.3186
  126ACOH    H4 9901   3.828   3.970   0.755 -0.7814 -0.2724 -0.1305
  126ACOH    O2 9902   3.774   4.031   0.701 -0.2122 -0.6679 -1.1622
  126ACOH    C2 9903   3.829   4.064   0.585  0.0342 -0.0763  0.4940
  126ACOH    O1 9904   3.893   3.982   0.527 -0.0773 -0.4496  0.1097
  126ACOH    C1 9905   3.751   4.165   0.517  0.2830 -0.5439 -0.6281
  126ACOH    H1 9906   3.688   4.215   0.590 -1.3124  0.4774 -2.6531
  126ACOH    H2 9907   3.695   4.104   0.447 -0.5574  2.0548 -2.2956
  126ACOH    H3 9908   3.810   4.234   0.457 -2.4051  2.7215  0.3156
  127ACOH    H4 9909   4.366   0.524   1.485 -1.4734  0.1330 -2.1251
  127ACOH    O2 9910   4.422   0.591   1.442 -0.1285 -0.5890 -1.5296
  127ACOH    C2 9911   4.521   0.629   1.519 -0.3198 -0.1179 -0.1557
  127ACOH    O1 9912   4.559   0.595   1.630 -0.2836 -0.0694  0.1699
  127ACOH    C1 9913   4.605   0.738   1.458 -0.2285 -0.3606  0.0684
  127ACOH    H1 9914   4.576   0.826   1.514 -0.9023 -0.2330 -0.4727
  127ACOH    H2 9915   4.584   0.764   1.354 -3.8909  2.0007  1.2889
  127ACOH    H3 9916   4.712   0.733   1.475  0.2508  0.2481 -2.5857
  128ACOH    H4 9917   4.647   3.268   0.576 -1.8461 -2.1520  0.1848
  128ACOH    O2 9918   4.677   3.247   0.666 -0.0516 -0.5291 -0.0020
  128ACOH    C2 9919   4.587   3.289   0.759 -0.3810  0.9715  0.0493
  128ACOH    O1 9920   4.496   3.367   0.746 -0.0117 -0.5882  0.0868
  128ACOH    C1 9921   4.619   3.221   0.888 -0.1978  1.0004 -0.4811
  128ACOH    H1 9922   4.695   3.144   0.879 -0.7470  0.3341  0.4453
  128ACOH    H2 9923   4.531   3.165   0.918  0.3352 -0.3647 -1.4323
  128ACOH    H3 9924   4.628   3.290   0.972 -0.2641  1.4368 -0.8322
  129ACOH    H4 9925   4.732   1.903   0.515 -0.0463 -0.4217  0.6706
  129ACOH    O2 9926   4.762   1.990   0.545 -0.1380 -0.0001 -0.4611
  129ACOH    C2 9927   4.649   2.051   0.591 -0.2596  0.8863  0.1420
  129ACOH    O1 9928   4.535   2.001   0.574 -0.2053 -0.0342  0.8239
  129ACOH    C1 9929   4.683   2.182   0.659 -0.1841  0.3968 -0.3675
  129ACOH    H1 9930   4.699   2.261   0.585  0.2605  0.1580 -0.5300
  129ACOH    H2 9931   4.777   2.169   0.713  0.4505 -2.7224 -2.0983
  129ACOH    H3 9932   4.610   2.223   0.729 -0.7974 -2.6994  0.8841
  130ACOH    H4 9933   4.210   9.073   1.757  1.9600 -2.4744 -1.7149
  130ACOH    O2 9934   4.298   9.064   1.797  1.1428 -0.4858  0.6981
  130ACOH    C2 9935   4.328   9.172   1.866  0.4597 -0.0425 -0.3667
  130ACOH    O1 9936   4.264   9.276   1.890  0.3742 -0.3083  0.2194
  130ACOH    C1 9937   4.457   9.140   1.927 -0.3938 -0.6735 -0.0075
  130ACOH    H1 9938   4.485   9.035   1.923 -0.7428 -0.8239  1.2291
  130ACOH    H2 9939   4.458   9.169   2.032  1.3469  0.5475 -0.3460
  130ACOH    H3 9940   4.535   9.201   1.882 -0.6851 -0.1684  0.1686
  131ACOH    H4 9941   4.544   0.839   0.285 -0.9006  0.0122 -1.5141
  131ACOH    O2 9942   4.521   0.745   0.277 -0.2102 -0.2976 -0.0123
  131ACOH    C2 9943   4.441   0.737   0.171  0.0126 -0.4333  0.0761
  131ACOH    O1 9944   4.439   0.821   0.086 -0.1848  0.2120 -0.1881
  131ACOH    C1 9945   4.359   0.614   0.165  0.8158 -0.0013  0.3318
  131ACOH    H1 9946   4.289   0.603   0.248 -0.0839 -4.3669 -0.8448
  131ACOH    H2 9947   4.431   0.532   0.167  1.9162  0.7816 -3.3889
  131ACOH    H3 9948   4.304   0.599   0.071 -0.7954 -1.3720  1.4529
  132ACOH    H4 9949   4.499   3.344   2.377  2.4420 -0.0048 -0.2958
  132ACOH    O2 9950   4.490   3.435   2.344 -0.4921 -0.0296  0.3214
  132ACOH    C2 9951   4.602   3.447   2.262  0.1959 -0.5383 -0.8341
  132ACOH    O1 9952   4.695   3.368   2.265  0.3235  0.0191 -0.4272
  132ACOH    C1 9953   4.618   3.589   2.235 -0.2863  0.3423  0.7061
  132ACOH    H1 9954   4.629   3.613   2.130 -0.3353  1.3186  0.9107
  132ACOH    H2 9955   4.712   3.624   2.278  0.0691  2.3107 -1.6022
  132ACOH    H3 9956   4.533   3.650   2.267  1.4279  2.1026  2.0922
  133ACOH    H4 9957   4.281   0.002   0.986  0.8947 -1.4885  3.3544
  133ACOH    O2 9958   4.274  -0.092   0.963  0.1908 -0.6910  0.0853
  133ACOH    C2 9959   4.169  -0.146   1.013 -0.5300 -0.1372  0.0421
  133ACOH    O1 9960   4.065  -0.087   1.040  0.2644 -0.1115 -0.2075
  133ACOH    C1 9961   4.172  -0.294   0.986  0.4634 -0.0788  1.1230
  133ACOH    H1 9962   4.069  -0.328   0.994  0.1006  0.9823  1.0309
  133ACOH    H2 9963   4.240  -0.341   1.056 -0.1679 -0.8806  1.2035
  133ACOH    H3 9964   4.199  -0.300   0.880  0.1025 -0.7810  1.0689
  134ACOH    H4 9965   3.741   9.404   0.356  0.4781  2.8026  0.1999
  134ACOH    O2 9966   3.740   9.375   0.449  0.7105 -0.4186 -0.7125
  134ACOH    C2 9967   3.850   9.413   0.514  1.1822  0.6390 -0.3318
  134ACOH    O1 9968   3.861   9.427   0.630 -0.7956 -0.2314  0.1256
  134ACOH    C1 9969   3.949   9.481   0.431 -0.2817  0.6650  0.3978
  134ACOH    H1 9970   4.046   9.489   0.479 -0.0319 -0.6504  0.1230
  134ACOH    H2 9971   3.919   9.584   0.413  1.4236  1.2338  0.7258
  134ACOH    H3 9972   3.948   9.432   0.334  1.7484 -0.4542  0.9274
  135ACOH    H4 9973   3.946   9.281   1.043 -0.1115  0.0629 -0.5029
  135ACOH    O2 9974   3.996   9.232   1.111 -0.2550  0.1323 -0.3476
  135ACOH    C2 9975   3.930   9.124   1.145 -0.1758  0.2164  0.0625
  135ACOH    O1 9976   3.823   9.087   1.106  0.2294 -0.3922  0.1542
  135ACOH    C1 9977   3.995   9.044   1.253  0.0584  0.5745  0.0386
  135ACOH    H1 9978   3.929   8.961   1.278 -1.0507  0.8789 -1.7542
  135ACOH    H2 9979   3.997   9.108   1.341 -3.2671  0.5457  0.1774
  135ACOH    H3 9980   4.095   9.007   1.228 -0.7875 -1.2780 -0.7149
  136ACOH    H4 9981   3.739   4.182   1.553  1.4989 -0.2229 -1.0150
  136ACOH    O2 9982   3.752   4.275   1.578  0.4241 -0.3625  0.0858
  136ACOH    C2 9983   3.752   4.285   1.713  0.6430 -0.0798 -0.3684
  136ACOH    O1 9984   3.732   4.190   1.790  0.5981 -0.2107  0.2997
  136ACOH    C1 9985   3.747   4.428   1.752 -0.3577 -0.0685  0.0628
  136ACOH    H1 9986   3.823   4.443   1.829 -0.2551  0.7448 -0.1932
  136ACOH    H2 9987   3.645   4.455   1.779 -0.9423 -0.7008 -1.4972
  136ACOH    H3 9988   3.787   4.478   1.664  1.4844 -0.5766  0.5797
  137ACOH    H4 9989   2.786   3.158   0.560  2.3953 -1.3033 -4.2048
  137ACOH    O2 9990   2.709   3.109   0.527 -0.2565  0.0852 -0.3972
  137ACOH    C2 9991   2.710   2.972   0.552  0.0320  0.5129  0.3087
  137ACOH    O1 9992   2.813   2.917   0.586  0.4859 -0.0225 -0.0814
  137ACOH    C1 9993   2.581   2.899   0.546  0.6618 -0.5526 -0.7198
  137ACOH    H1 9994   2.584   2.819   0.472  0.3461  0.1909 -1.5391
  137ACOH    H2 9995   2.495   2.964   0.530  1.1047  0.1054 -0.4204
  137ACOH    H3 9996   2.553   2.850   0.640  0.3476  0.3453 -0.3385
  138ACOH    H4 9997   3.875   9.181   2.241  0.5967  5.4241 -0.1490
  138ACOH    O2 9998   3.924   9.164   2.159 -0.1464  0.4959  0.2715
  138ACOH    C2 9999   3.984   9.044   2.160 -0.3634  0.1671  0.0359
  138ACOH    O110000   3.980   8.952   2.241 -0.7941  0.0289  0.4082
  138ACOH    C110001   4.082   9.032   2.048  0.2010 -0.4150 -0.3092
  138ACOH    H110002   4.051   8.942   1.994 -0.4854 -0.1497 -0.3669
  138ACOH    H210003   4.183   9.021   2.085 -0.1013  0.5223  0.8046
  138ACOH    H310004   4.073   9.114   1.976 -1.7310 -0.6369 -0.3671
  139ACOH    H410005   4.764   1.463   1.653  0.5030  0.6441  0.8725
  139ACOH    O210006   4.817   1.544   1.651  0.6651  0.5258  0.0816
  139ACOH    C210007   4.725   1.636   1.623  0.2809  0.7832 -0.1431
  139ACOH    O110008   4.610   1.620   1.607 -0.1957  0.1343 -0.2702
  139ACOH    C110009   4.797   1.767   1.611 -0.4718 -0.5255 -0.3371
  139ACOH    H110010   4.813   1.802   1.713 -4.8968  2.8813 -0.6515
  139ACOH    H210011   4.737   1.844   1.563 -0.2529 -0.4556 -0.4997
  139ACOH    H310012   4.890   1.759   1.555  0.1910  4.2407 -0.1686
  140ACOH    H410013   3.612   4.225   0.892  0.8398 -0.6546 -1.0053
  140ACOH    O210014   3.689   4.235   0.952  0.2793 -0.3858 -0.3238
  140ACOH    C210015   3.682   4.128   1.035  0.2011 -0.2143 -0.0343
  140ACOH    O110016   3.593   4.044   1.034  0.1698 -0.2229 -0.0762
  140ACOH    C110017   3.792   4.100   1.126 -0.4333  0.6311  0.1785
  140ACOH    H110018   3.831   4.000   1.106 -2.7989 -0.3395  0.1990
  140ACOH    H210019   3.771   4.111   1.232  1.7548  2.2013  0.4771
  140ACOH    H310020   3.879   4.162   1.102 -1.5703  1.5762 -1.6334
  141ACOH    H410021   3.924   9.986   0.978 -0.1971 -0.7079 -0.0872
  141ACOH    O210022   3.859  10.042   0.932  0.0281 -0.1863  0.2258
  141ACOH    C210023   3.768   9.953   0.882  0.5815 -0.0934 -0.0182
  141ACOH    O110024   3.727   9.856   0.941  0.4080  0.1225 -0.3042
  141ACOH    C110025   3.709  10.011   0.761  0.7822 -0.1792  0.0943
  141ACOH    H110026   3.786  10.015   0.684 -3.2778  2.0478 -4.0925
  141ACOH    H210027   3.670  10.111   0.776 -0.9853 -0.6370 -1.1941
  141ACOH    H310028   3.630   9.940   0.734  1.1630 -0.7932  0.5999
  142ACOH    H410029   4.500   1.742   0.325 -2.1688  0.1882 -2.3432
  142ACOH    O210030   4.506   1.648   0.349 -0.2952  0.7254 -0.5590
  142ACOH    C210031   4.617   1.629   0.415  0.2305  0.1130 -0.8342
  142ACOH    O110032   4.703   1.716   0.445 -0.0813  0.3044 -0.2582
  142ACOH    C110033   4.639   1.482   0.445  0.1501 -0.3173  0.1199
  142ACOH    H110034   4.709   1.433   0.377 -0.3707  0.3376 -0.8939
  142ACOH    H210035   4.550   1.419   0.452  1.0997 -1.7893 -0.8857
  142ACOH    H310036   4.686   1.487   0.543 -1.9746  0.0414  1.1529
  143ACOH    H410037   2.539   1.887   2.138  1.3754 -2.2591  0.2809
  143ACOH    O210038   2.480   1.877   2.214 -0.0142  0.4572 -0.3797
  143ACOH    C210039   2.549   1.810   2.312 -0.2260  0.7111  0.5033
  143ACOH    O110040   2.668   1.790   2.309  0.3608 -0.0821  0.3419
  143ACOH    C110041   2.464   1.776   2.428  1.0692  0.0490  0.4495
  143ACOH    H110042   2.466   1.668   2.439  2.3933  0.2585  2.7170
  143ACOH    H210043   2.361   1.809   2.418  0.9262 -0.8599 -1.2184
  143ACOH    H310044   2.513   1.819   2.516  1.6664 -0.5958  0.4355
  144ACOH    H410045   4.004   0.489   2.230 -1.3617 -1.9687  1.2794
  144ACOH    O210046   3.930   0.544   2.260  0.0779  0.6580  0.2459
  144ACOH    C210047   3.811   0.474   2.263  0.3358  0.3913 -0.2288
  144ACOH    O110048   3.802   0.358   2.294 -0.1238  0.1652  0.1620
  144ACOH    C110049   3.694   0.556   2.281 -0.2568 -0.1355  0.6052
  144ACOH    H110050   3.695   0.585   2.386 -1.4815  1.1886  0.2784
  144ACOH    H210051   3.601   0.507   2.250 -0.8933  0.5506  1.4096
  144ACOH    H310052   3.698   0.645   2.218 -1.0514 -0.1420  0.5302
  145ACOH    H410053   4.964   3.373   1.540  0.5538 -0.5167  0.5742
  145ACOH    O210054   4.967   3.301   1.474  0.3195  0.1681 -0.1905
  145ACOH    C210055   4.947   3.373   1.362 -0.6576 -0.5517  0.5867
  145ACOH    O110056   4.933   3.491   1.356 -0.3513 -0.1787 -0.4631
  145ACOH    C110057   4.959   3.290   1.241 -0.4787  0.3853  0.6659
  145ACOH    H110058   5.044   3.222   1.252  0.0085  0.7183 -0.8997
  145ACOH    H210059   4.988   3.366   1.169 -0.1299 -0.6256 -0.2712
  145ACOH    H310060   4.868   3.240   1.209  0.2309 -1.6316  1.6489
  146ACOH    H410061   3.922   9.830   0.415  1.0227  1.3590  1.3214
  146ACOH    O210062   3.978   9.790   0.483  0.4801 -0.0362  0.9667
  146ACOH    C210063   3.911   9.760   0.592 -0.0230 -0.0307  0.2024
  146ACOH    O110064   3.792   9.754   0.606 -0.0609 -0.5249 -0.0986
  146ACOH    C110065   4.005   9.736   0.709 -0.3822  0.5743 -0.1064
  146ACOH    H110066   3.953   9.682   0.788  1.5177  1.2409  1.6525
  146ACOH    H210067   4.044   9.830   0.747 -1.3647  0.1688  1.9873
  146ACOH    H310068   4.087   9.673   0.673 -1.2742 -0.2691 -0.7016
  147SOL     OW10069   3.952   9.989   1.509 -0.4603 -0.4207  0.0116
  147SOL    HW110070   3.925   9.904   1.463 -1.5639  0.0957 -0.2913
  147SOL    HW210071   3.871  10.037   1.542  0.2185  0.0412  1.0456
  148SOL     OW10072   3.200   1.185   1.037 -0.4195 -0.3888 -0.1357
  148SOL    HW110073   3.133   1.193   1.111  0.9020 -0.7694  1.1106
  148SOL    HW210074   3.288   1.156   1.074  0.3724 -0.1772 -1.8078
  149SOL     OW10075   3.360   3.584   0.607 -0.0425 -0.5922  0.7403
  149SOL    HW110076   3.438   3.529   0.636  1.2405  0.3850 -0.8051
  149SOL    HW210077   3.345   3.659   0.672  1.0530 -0.0677  0.3837
  150SOL     OW10078   7.047   0.570   2.397  0.0245  0.2343  0.0491
  150SOL    HW110079   7.005   0.596   2.310 -3.8701 -0.9816  1.4794
  150SOL    HW210080   7.051   0.650   2.458 -0.8100  0.2066  0.1389
  151SOL     OW10081   3.923   2.574   0.770 -0.2617 -1.1611 -0.0722
  151SOL    HW110082   3.831   2.612   0.769 -0.3646 -1.4173 -0.3036
  151SOL    HW210083   3.967   2.592   0.682 -0.1903 -1.2800 -0.0609
  152SOL     OW10084   3.507   9.088   2.402 -0.1770 -0.5184  0.1597
  152SOL    HW110085   3.575   9.017   2.418 -0.5816 -1.0294 -0.4011
  152SOL    HW210086   3.467   9.117   2.490 -0.8694 -1.8279  0.2828
  153SOL     OW10087   3.571   1.162   0.496  0.3942 -0.2019 -0.6984
  153SOL    HW110088   3.538   1.094   0.562 -0.1758  0.0632 -0.7183
  153SOL    HW210089   3.494   1.208   0.454  0.7530 -0.4776 -1.6693
  154SOL     OW10090   3.682   0.353   0.326  0.1724 -0.7134  0.5688
  154SOL    HW110091   3.754   0.422   0.334  1.7054 -2.0133 -1.3430
  154SOL    HW210092   3.608   0.387   0.269 -1.1457  0.9274  3.1797
  155SOL     OW10093   3.544   1.147   1.526  0.1860 -0.0269  0.1835
  155SOL    HW110094   3.605   1.090   1.471  2.6590  2.7246 -0.0991
  155SOL    HW210095   3.588   1.168   1.613 -0.2203  2.1536 -0.1015
  156SOL     OW10096   4.060   9.102   1.672 -0.2703 -0.4572  0.1670
  156SOL    HW110097   3.996   9.063   1.606 -0.4893 -0.6986  0.5190
  156SOL    HW210098   4.012   9.165   1.733 -0.0249 -0.0646 -0.0489
  157SOL     OW10099   3.073   3.082   2.541  0.1423  0.1898  0.1133
  157SOL    HW110100   3.075   2.986   2.566 -1.0731 -0.2625 -1.4175
  157SOL    HW210101   3.034   3.136   2.616 -0.2600 -0.6665  0.5181
  158SOL     OW10102   3.772   3.678   1.303 -0.8327  0.0825  1.0698
  158SOL    HW110103   3.755   3.591   1.348 -1.2373 -1.6105 -2.2707
  158SOL    HW210104   3.811   3.742   1.370 -0.3782 -2.6583  3.5379
  159SOL     OW10105   3.156   0.515   1.140  0.0406 -0.3785 -0.2301
  159SOL    HW110106   3.080   0.564   1.183 -0.4314  0.1909 -1.6733
  159SOL    HW210107   3.180   0.560   1.054 -0.5506 -2.8308 -1.7018
  160SOL     OW10108   3.403   9.254   2.047 -0.0431 -0.1765 -0.7691
  160SOL    HW110109   3.312   9.239   2.086  1.0042 -1.1071  1.4150
  160SOL    HW210110   3.424   9.352   2.046 -0.1708 -0.1142  0.9119
  161SOL     OW10111   3.256   0.523   2.643  0.3488  0.1568  0.2320
  161SOL    HW110112   3.173   0.505   2.590 -0.1716  0.3440  0.9739
  161SOL    HW210113   3.336   0.508   2.585 -0.2353  1.6342 -1.0090
  162SOL     OW10114   3.559   2.998   2.382  0.1661 -0.1695 -0.2241
  162SOL    HW110115   3.477   3.042   2.420  1.0101  0.2820  1.1206
  162SOL    HW210116   3.534   2.910   2.341 -0.8629 -0.4203  0.9016
  163SOL     OW10117   3.014   0.859   0.782  0.1173  0.1078  0.5853
  163SOL    HW110118   3.097   0.911   0.801 -0.6640  1.5209  0.1654
  163SOL    HW210119   2.953   0.912   0.723 -1.4823 -0.5353  1.6171
  164SOL     OW10120   4.677   3.582   1.425 -0.1065  0.1974  0.3146
  164SOL    HW110121   4.674   3.672   1.468 -0.1633 -1.0648  3.0550
  164SOL    HW210122   4.771   3.560   1.398  0.3401  0.0268  1.9872
  165SOL     OW10123   3.208   9.330   0.357 -0.8025  0.2922 -0.2417
  165SOL    HW110124   3.191   9.428   0.345  1.7284  0.7359 -0.5568
  165SOL    HW210125   3.174   9.301   0.446  1.1018  2.1457  1.1262
  166SOL     OW10126   3.026   2.065   1.941  0.1648 -0.2840  0.7181
  166SOL    HW110127   3.095   2.075   1.870 -0.4837 -0.3551  0.0769
  166SOL    HW210128   3.071   2.049   2.029  1.0262  1.4322  0.6178
  167SOL     OW10129   3.293   0.857   2.572 -0.1440  0.3385  0.1901
  167SOL    HW110130   3.367   0.913   2.535  0.3003 -0.6605 -0.4482
  167SOL    HW210131   3.293   0.768   2.527 -0.0738 -0.6255  2.0827
  168SOL     OW10132   3.596   1.833   0.855  0.4043 -1.0268  0.4378
  168SOL    HW110133   3.695   1.836   0.864  0.2695  0.2392  1.5206
  168SOL    HW210134   3.561   1.925   0.839 -0.6097 -1.4533  0.1765
  169SOL     OW10135   3.170   2.364   2.180 -0.4255 -0.2776 -0.1443
  169SOL    HW110136   3.203   2.297   2.246  0.4322  1.7737  1.5576
  169SOL    HW210137   3.226   2.359   2.097  2.1398  0.9640  1.4746
  170SOL     OW10138   3.498   0.169   0.437  0.6880  0.5651  0.0420
  170SOL    HW110139   3.562   0.202   0.367  3.3548  1.2875  2.7426
  170SOL    HW210140   3.444   0.246   0.472 -1.4305  0.0305 -1.9044
  171SOL     OW10141   4.709   0.819   0.705  0.5453  0.3906 -0.0532
  171SOL    HW110142   4.731   0.797   0.609 -1.0557  0.7242 -0.4996
  171SOL    HW210143   4.698   0.917   0.715  0.5033  0.3353  0.4337
  172SOL     OW10144   3.788   0.888   1.642  0.6406 -0.3727  0.0736
  172SOL    HW110145   3.771   0.971   1.695 -1.4903  0.1533 -1.3976
  172SOL    HW210146   3.707   0.829   1.645 -0.5486  0.8717 -4.7514
  173SOL     OW10147   2.880   1.656   0.845 -0.6987  0.5722  0.0196
  173SOL    HW110148   2.931   1.596   0.907  0.1027  0.9542 -0.2562
  173SOL    HW210149   2.787   1.668   0.879 -0.7144 -0.4226  0.3473
  174SOL     OW10150   3.417   3.279   0.784 -0.1734  0.2754 -0.0780
  174SOL    HW110151   3.473   3.255   0.705 -1.7601 -1.8953 -0.5989
  174SOL    HW210152   3.473   3.323   0.854  1.7306 -0.0034 -1.4115
  175SOL     OW10153   3.931   3.762   0.251  0.2656 -0.0902  0.2846
  175SOL    HW110154   3.974   3.675   0.225  1.8418  0.5705  0.6315
  175SOL    HW210155   3.835   3.746   0.272  0.7240 -1.9009  1.1218
  176SOL     OW10156   3.305   2.509   2.800 -0.5419 -0.3769  0.9978
  176SOL    HW110157   3.236   2.527   2.729 -0.7555  0.4454  1.4184
  176SOL    HW210158   3.267   2.531   2.890  0.7180  1.2907  1.1228
  177SOL     OW10159   3.377   2.006   1.559 -0.2279  0.3557  0.0337
  177SOL    HW110160   3.328   1.919   1.549  0.1964 -0.2178  2.7833
  177SOL    HW210161   3.472   1.994   1.531  0.1355 -0.3992  1.5483
  178SOL     OW10162   4.077   2.977   1.656  0.1394  0.4627  0.2440
  178SOL    HW110163   4.020   3.031   1.719 -0.3567 -0.1459  0.3251
  178SOL    HW210164   4.018   2.919   1.600  0.6519  0.2109 -0.0344
  179SOL     OW10165   3.417   1.795   2.782 -0.2633  0.2031  0.3753
  179SOL    HW110166   3.323   1.829   2.782 -0.2425  0.2959 -1.8857
  179SOL    HW210167   3.466   1.831   2.702  1.4226 -0.6131  1.0162
  180SOL     OW10168   3.478   1.711   0.618 -0.6556  0.3585 -1.0056
  180SOL    HW110169   3.528   1.735   0.701  0.5478 -2.8170 -0.7264
  180SOL    HW210170   3.494   1.781   0.548  1.5220  1.0849  0.1687
  181SOL     OW10171   2.946   2.785   1.456  0.2765  0.4357 -0.0871
  181SOL    HW110172   2.969   2.796   1.359 -1.2240  0.4304 -0.4599
  181SOL    HW210173   2.946   2.688   1.479 -2.1141  0.2420 -0.8002
  182SOL     OW10174   4.835   2.675   1.535 -0.1103  0.0135 -0.2292
  182SOL    HW110175   4.815   2.750   1.598 -0.6381 -1.6102  1.5883
  182SOL    HW210176   4.929   2.645   1.547 -0.1613 -0.1914 -0.3310
  183SOL     OW10177   3.434   0.444   2.485 -0.5861 -0.3455  0.1507
  183SOL    HW110178   3.524   0.413   2.515 -0.4447 -0.3758 -0.3105
  183SOL    HW210179   3.382   0.365   2.452 -1.2841 -0.5568  1.7014
  184SOL     OW10180   3.816   2.136   2.415  0.3727  0.8370  0.1855
  184SOL    HW110181   3.824   2.185   2.502 -0.9525  0.2857  0.6336
  184SOL    HW210182   3.886   2.065   2.410 -0.9501 -0.6232  1.8157
  185SOL     OW10183   4.293   1.745   2.395 -0.2615  0.4223  0.0952
  185SOL    HW110184   4.370   1.696   2.353 -0.3833 -1.9204  2.4570
  185SOL    HW210185   4.208   1.717   2.350 -0.0873  0.1426 -0.0643
  186SOL     OW10186   3.927   9.734   2.111 -0.0651  0.1708  0.3673
  186SOL    HW110187   4.015   9.702   2.075  0.2042  1.0753  0.1983
  186SOL    HW210188   3.898   9.816   2.060 -1.5629 -0.7656 -0.3359
  187SOL     OW10189   3.118   3.434   1.775 -0.4292  0.1866  0.3007
  187SOL    HW110190   3.191   3.366   1.781 -1.9654 -1.6615 -1.3369
  187SOL    HW210191   3.057   3.424   1.853 -0.3632  0.0387  0.3341
  188SOL     OW10192   2.724   1.896   2.781  0.3093 -0.8363 -0.1316
  188SOL    HW110193   2.748   1.966   2.715  1.2394 -1.5851 -0.6013
  188SOL    HW210194   2.701   1.939   2.869  0.9476  0.0431 -0.3897
  189SOL     OW10195   4.153   0.889   2.801 -0.3525 -0.7394  0.0600
  189SOL    HW110196   4.234   0.864   2.853 -1.6150 -0.1966  2.3315
  189SOL    HW210197   4.082   0.819   2.813 -1.1955  0.1422  0.3508
  190SOL     OW10198   3.830   9.593   1.049  0.0421  0.3014 -0.4060
  190SOL    HW110199   3.817   9.670   0.987  1.8639  1.2062  0.3125
  190SOL    HW210200   3.796   9.509   1.005  2.1497  0.7645 -3.0349
  191SOL     OW10201   2.865   1.261   1.191  0.4993 -0.2793 -0.4622
  191SOL    HW110202   2.842   1.186   1.129  1.4429 -0.2388 -0.8716
  191SOL    HW210203   2.920   1.226   1.267  1.1569  0.0258 -0.7858
  192SOL     OW10204   3.396   9.802   1.317  0.2654 -0.2957 -0.3997
  192SOL    HW110205   3.415   9.897   1.295  2.0063 -0.3478  0.8242
  192SOL    HW210206   3.422   9.743   1.241 -1.7844  0.2651 -1.5779
  193SOL     OW10207   3.346   3.739   1.715 -0.4399 -0.2695 -0.2131
  193SOL    HW110208   3.321   3.732   1.811  4.7391 -1.8184  1.2055
  193SOL    HW210209   3.285   3.682   1.660 -3.0462  0.1083  2.2131
  194SOL     OW10210   3.014   3.698   0.823 -0.2253  0.0600  0.6724
  194SOL    HW110211   3.083   3.628   0.843 -0.7423 -0.1467  1.7684
  194SOL    HW210212   2.992   3.748   0.906  0.7559  2.1190 -0.2761
  195SOL     OW10213   2.841   8.368   0.568  0.2475  0.4886 -0.4442
  195SOL    HW110214   2.933   8.357   0.607  0.8016  1.0149 -1.5792
  195SOL    HW210215   2.848   8.416   0.480 -1.3001  2.2833  0.3790
  196SOL     OW10216   4.284   3.582   1.558  0.2195  0.1501  0.3352
  196SOL    HW110217   4.206   3.526   1.532 -0.2025  1.0682 -0.3963
  196SOL    HW210218   4.310   3.640   1.481  1.5133 -0.0210  0.6329
  197SOL     OW10219   4.121   0.899   2.528  0.1591 -0.1607 -0.2217
  197SOL    HW110220   4.183   0.828   2.496  0.7377  0.3347 -0.2141
  197SOL    HW210221   4.133   0.913   2.626 -0.0680 -0.1694 -0.1929
  198SOL     OW10222   4.089   1.895   2.006 -0.3487  0.6673  1.0962
  198SOL    HW110223   4.135   1.909   1.918  0.0761 -2.1939  0.8448
  198SOL    HW210224   3.992   1.918   1.997 -0.3968 -0.0093 -0.2350
  199SOL     OW10225   7.270   0.381   2.471 -0.4432  0.0410  0.1094
  199SOL    HW110226   7.218   0.297   2.456  0.2912 -0.2564 -0.8371
  199SOL    HW210227   7.212   0.460   2.449 -0.9593 -0.2347  0.4717
  200SOL     OW10228   3.345   2.209   2.306 -0.0371 -0.4609  0.1137
  200SOL    HW110229   3.399   2.180   2.227  1.1449 -2.9773  1.7628
  200SOL    HW210230   3.401   2.206   2.388 -1.7712  0.1841  1.3574
  201SOL     OW10231   3.176   3.602   1.572  0.2259 -0.5134  0.2915
  201SOL    HW110232   3.140   3.550   1.650 -1.1852 -2.2834 -1.5024
  201SOL    HW210233   3.114   3.593   1.494  1.4264  1.5516 -0.9556
  202SOL     OW10234   3.570   0.952   2.497 -0.4658 -0.2683 -0.2564
  202SOL    HW110235   3.568   1.034   2.440  1.2307 -1.0171 -1.4143
  202SOL    HW210236   3.654   0.952   2.552 -0.1981 -1.4862 -0.6531
  203SOL     OW10237   2.708   2.171   2.613 -0.7152  0.1153 -0.6745
  203SOL    HW110238   2.759   2.128   2.539  1.2263  1.6766 -0.2920
  203SOL    HW210239   2.714   2.271   2.604 -2.3478  0.3210  0.3128
  204SOL     OW10240   3.163   2.443   0.839 -0.5936  0.1454  0.1717
  204SOL    HW110241   3.077   2.486   0.812 -0.9072 -0.1767  0.6311
  204SOL    HW210242   3.179   2.361   0.784  0.4327  1.3142 -1.2862
  205SOL     OW10243   3.940   0.734   2.754  0.7284 -0.6650  0.7172
  205SOL    HW110244   3.913   0.667   2.823  1.1782 -1.7935 -0.1820
  205SOL    HW210245   3.959   0.687   2.668  2.9164  0.3784  0.5916
  206SOL     OW10246   3.472   9.724   2.273 -0.0888  0.7645 -0.1033
  206SOL    HW110247   3.437   9.777   2.195 -0.6172  1.2462  0.4559
  206SOL    HW210248   3.553   9.673   2.245 -0.9852 -0.0364 -1.3064
  207SOL     OW10249   2.710   1.606   0.555 -0.0843 -0.4890 -0.4487
  207SOL    HW110250   2.665   1.625   0.467  1.3000  1.1840 -0.8219
  207SOL    HW210251   2.643   1.611   0.628 -0.8947 -0.0302 -1.2111
  208SOL     OW10252   3.723   1.476   0.494 -0.3929  0.0627  0.1280
  208SOL    HW110253   3.645   1.529   0.460 -0.8553  1.3203  2.9903
  208SOL    HW210254   3.698   1.380   0.501 -1.6226  0.4180  0.7729
  209SOL     OW10255   3.303   1.897   1.048  0.6546 -0.3735 -0.5489
  209SOL    HW110256   3.334   1.822   1.107  0.2207 -0.6055 -0.6188
  209SOL    HW210257   3.237   1.953   1.097  1.1180  0.0801 -0.4295
  210SOL     OW10258   2.797   2.434   1.803 -0.0890 -0.3680  0.4562
  210SOL    HW110259   2.871   2.478   1.751 -0.8792 -0.0734 -0.4195
  210SOL    HW210260   2.764   2.498   1.873 -0.5971  0.1040 -0.2029
  211SOL     OW10261   4.843   3.105   1.678  0.1644  0.1156  0.1928
  211SOL    HW110262   4.904   3.148   1.613  0.0885  0.5402  0.4030
  211SOL    HW210263   4.748   3.114   1.647  0.3369 -2.2095 -1.1097
  212SOL     OW10264   3.966   1.369   0.554  0.3669  0.4098 -0.5286
  212SOL    HW110265   3.884   1.409   0.596  0.1105  0.4046 -1.0180
  212SOL    HW210266   3.980   1.410   0.464  0.4895 -0.1144 -0.7499
  213SOL     OW10267   3.898   0.224   1.113 -0.0064 -0.2998 -0.1120
  213SOL    HW110268   3.959   0.291   1.070  1.4505 -1.1512  0.5996
  213SOL    HW210269   3.851   0.172   1.042 -0.9077  1.2570 -0.6738
  214SOL     OW10270   3.192   1.268   0.625 -0.6279  0.1509 -0.4311
  214SOL    HW110271   3.279   1.317   0.637 -0.8728  1.0251 -1.9962
  214SOL    HW210272   3.117   1.333   0.626 -1.0232 -0.2641 -1.7686
  215SOL     OW10273   3.449   0.201   1.634 -0.3229  0.3125 -0.0027
  215SOL    HW110274   3.353   0.184   1.611 -0.7915  1.6879  0.9001
  215SOL    HW210275   3.507   0.179   1.555 -1.3843 -0.3544 -0.6056
  216SOL     OW10276   3.662   2.397   2.510 -0.3067 -0.7021  0.4397
  216SOL    HW110277   3.738   2.408   2.447 -1.0259  0.0189 -0.3072
  216SOL    HW210278   3.611   2.483   2.518 -1.9843 -1.6016 -0.2886
  217SOL     OW10279   3.777   3.395   2.129  0.0313 -0.1918  0.0694
  217SOL    HW110280   3.861   3.440   2.158 -0.2128 -0.7171  1.6868
  217SOL    HW210281   3.699   3.438   2.175 -0.3311 -1.3277  0.5469
  218SOL     OW10282   3.155   0.296   1.290  0.2350 -0.3691  0.0412
  218SOL    HW110283   3.155   0.210   1.239  0.2494 -0.2953 -0.0841
  218SOL    HW210284   3.154   0.373   1.226 -0.5382 -0.2785  0.1520
  219SOL     OW10285   4.361   1.403   2.039  0.1339 -0.1362  0.0175
  219SOL    HW110286   4.373   1.494   1.999 -1.3481 -0.2802 -0.7792
  219SOL    HW210287   4.428   1.340   1.999  0.4240  0.3382 -0.2476
  220SOL     OW10288   4.438   2.497   1.564  0.0684  0.4405 -0.5613
  220SOL    HW110289   4.385   2.412   1.569 -0.8397  1.1661  3.0160
  220SOL    HW210290   4.535   2.474   1.555 -0.2782 -0.9601 -0.9399
  221SOL     OW10291   3.486   9.827   0.290  0.4205  0.5793  1.0054
  221SOL    HW110292   3.520   9.759   0.225 -3.1604  0.3652 -0.7585
  221SOL    HW210293   3.480   9.786   0.381 -0.7631 -1.1831  0.1548
  222SOL     OW10294   3.652   0.111   0.182  0.6923  0.9055  0.3626
  222SOL    HW110295   3.706   0.183   0.225  0.8512  2.0266 -1.6427
  222SOL    HW210296   3.676   0.022   0.222  0.1823  1.9635  3.1709
  223SOL     OW10297   3.222   9.748   0.428 -0.3251  0.0273  0.2704
  223SOL    HW110298   3.143   9.808   0.412 -0.1764 -0.4624 -2.4548
  223SOL    HW210299   3.291   9.763   0.358  0.1206 -2.6583  0.0633
  224SOL     OW10300   4.139   1.132   0.084  0.3405 -0.1797 -0.4694
  224SOL    HW110301   4.047   1.164   0.107  0.8359  1.1268 -0.2692
  224SOL    HW210302   4.132   1.048   0.030 -0.9586 -0.2223 -0.2688
  225SOL     OW10303   7.665   1.922   1.365  0.0770 -0.4636 -0.0806
  225SOL    HW110304   7.568   1.935   1.384 -0.0485 -0.2028 -0.8838
  225SOL    HW210305   7.700   1.847   1.421 -0.8735 -1.3779 -0.6790
  226SOL     OW10306   3.374   1.310   1.375  0.8516  0.9490 -0.0492
  226SOL    HW110307   3.377   1.243   1.449  1.9868  1.9279  0.8253
  226SOL    HW210308   3.420   1.274   1.294 -2.5726 -1.1158 -1.1556
  227SOL     OW10309   3.611   2.970   0.639  0.2336  0.0452 -0.3475
  227SOL    HW110310   3.570   2.974   0.730  2.6188  0.1632  0.7354
  227SOL    HW210311   3.673   2.892   0.633  1.9870  1.4481 -1.0460
  228SOL     OW10312   4.013   4.121   0.209  0.9029  0.9964 -0.0059
  228SOL    HW110313   3.962   4.203   0.183  2.3459  1.9503  0.1128
  228SOL    HW210314   3.987   4.093   0.301 -0.2227  0.8037 -0.3699
  229SOL     OW10315   3.263   1.713   1.492  0.2293 -0.3024 -0.2018
  229SOL    HW110316   3.270   1.659   1.575 -3.0427 -2.1341 -0.9958
  229SOL    HW210317   3.318   1.671   1.420 -0.3501 -1.1788 -0.1377
  230SOL     OW10318   3.729   2.702   0.588  0.1397  0.1345  0.1982
  230SOL    HW110319   3.645   2.651   0.567  0.0411  0.7758 -1.0489
  230SOL    HW210320   3.796   2.687   0.515  1.0253 -0.1952  1.0810
  231SOL     OW10321   3.886   2.770   2.794 -0.3645 -0.1324 -0.4582
  231SOL    HW110322   3.952   2.731   2.731  1.2681 -1.1085  1.7999
  231SOL    HW210323   3.901   2.733   2.886 -2.0473  1.9787  0.7223
  232SOL     OW10324   3.200   3.553   2.079 -0.1279 -0.2366 -0.7689
  232SOL    HW110325   3.128   3.505   2.028  0.3064 -1.2303 -0.4432
  232SOL    HW210326   3.235   3.494   2.152  1.1065  0.2026 -0.9986
  233SOL     OW10327   3.074   3.507   0.041 -0.4927 -0.6158 -0.5902
  233SOL    HW110328   3.063   3.467  -0.050  1.0630  0.6357 -1.3437
  233SOL    HW210329   2.991   3.491   0.094 -1.3417 -1.5424 -2.1577
  234SOL     OW10330   7.293   6.078   0.440  0.3547  0.2645  0.2801
  234SOL    HW110331   7.233   6.045   0.513 -0.7749  0.5151 -0.5290
  234SOL    HW210332   7.381   6.031   0.446 -0.0161 -0.3121  1.3040
  235SOL     OW10333   3.975   2.249   2.015  0.1707  0.0825 -0.1406
  235SOL    HW110334   3.886   2.291   2.027  0.0077 -0.9841  2.5895
  235SOL    HW210335   4.041   2.292   2.076  0.9326 -0.9150 -0.2488
  236SOL     OW10336   4.161   1.672   2.154  0.1851 -0.2556  0.4870
  236SOL    HW110337   4.103   1.743   2.115 -0.1332 -0.6801  0.1786
  236SOL    HW210338   4.199   1.615   2.081 -0.8955 -1.4242  0.8097
  237SOL     OW10339   3.230   2.347   1.113 -0.1278 -0.2355  0.6021
  237SOL    HW110340   3.190   2.399   1.037  0.8672 -0.5898 -0.1779
  237SOL    HW210341   3.188   2.256   1.116 -0.4604 -0.0771  0.7284
  238SOL     OW10342   3.310   9.418   1.352  0.3023 -0.1660 -0.5817
  238SOL    HW110343   3.237   9.438   1.287 -0.6707 -0.5293  0.3608
  238SOL    HW210344   3.292   9.328   1.394  1.1737 -0.1555 -0.1839
  239SOL     OW10345   3.111   1.314   2.779  0.4708  0.1011 -0.7114
  239SOL    HW110346   3.132   1.372   2.858 -0.7894  0.4749 -0.6398
  239SOL    HW210347   3.012   1.304   2.771  0.6292 -0.7314 -1.6783
  240SOL     OW10348   3.409   9.174   1.711 -0.2514 -0.8146 -0.3134
  240SOL    HW110349   3.390   9.153   1.807 -2.4032  0.8276 -0.3358
  240SOL    HW210350   3.466   9.255   1.705  0.8190 -1.5673 -0.4130
  241SOL     OW10351   4.383   0.574   0.500 -0.5169  1.2647  0.1467
  241SOL    HW110352   4.469   0.600   0.456  0.3796  2.1464  2.4000
  241SOL    HW210353   4.313   0.643   0.480 -0.4724  1.0296 -0.8891
  242SOL     OW10354   3.850   0.788   0.823  0.3454 -0.2001 -0.3231
  242SOL    HW110355   3.891   0.736   0.748 -1.3416 -0.9260 -0.7621
  242SOL    HW210356   3.794   0.728   0.879 -0.3478  0.8253  0.0997
  243SOL     OW10357   3.907   2.108   1.790  0.1011 -0.4310 -0.5840
  243SOL    HW110358   3.950   2.163   1.862 -1.7769 -0.3171  0.4792
  243SOL    HW210359   3.976   2.081   1.724  1.7237  0.1507  0.8270
  244SOL     OW10360   3.598   1.723   0.230  0.2404 -0.0918  0.3513
  244SOL    HW110361   3.550   1.645   0.191 -0.6887 -0.5208  2.2527
  244SOL    HW210362   3.695   1.720   0.206 -0.5200  0.3887 -2.9527
  245SOL     OW10363   3.165   3.095   2.842  0.2270  0.4432 -0.1635
  245SOL    HW110364   3.247   3.039   2.857 -0.9301 -0.7831  1.7760
  245SOL    HW210365   3.133   3.131   2.930 -2.3076 -0.4790 -0.6726
  246SOL     OW10366   2.226   5.127   0.950  0.1183  0.1529 -0.0044
  246SOL    HW110367   2.247   5.202   1.013 -0.6492  1.5511 -1.3789
  246SOL    HW210368   2.308   5.104   0.898  0.7508 -0.9974  1.4807
  247SOL     OW10369   3.211   3.078   1.697  0.0152  0.5327 -0.3262
  247SOL    HW110370   3.127   3.025   1.688  0.6906 -0.5524 -0.2747
  247SOL    HW210371   3.285   3.033   1.647  1.0600  0.3973  1.2976
  248SOL     OW10372   3.193   2.753   0.061 -0.9990  0.7030  0.2115
  248SOL    HW110373   3.248   2.836   0.054  0.3882 -0.1866  0.3018
  248SOL    HW210374   3.184   2.726   0.157 -0.1239 -0.1029  0.0747
  249SOL     OW10375   3.852   1.215   2.769 -0.3542 -0.3913  0.2068
  249SOL    HW110376   3.915   1.239   2.843  0.7310  0.9383 -1.1064
  249SOL    HW210377   3.758   1.216   2.803  0.1944 -0.6688  1.7665
  250SOL     OW10378   3.648   1.994   0.038  0.3795 -0.2707 -0.3912
  250SOL    HW110379   3.619   1.923  -0.026  1.9032 -1.6208  0.3717
  250SOL    HW210380   3.629   2.084  -0.001 -2.2444 -1.0698 -1.0672
  251SOL     OW10381   3.776   0.896   0.520  0.9898 -0.3660  0.4196
  251SOL    HW110382   3.837   0.972   0.540  0.1514 -0.2793  2.8196
  251SOL    HW210383   3.686   0.931   0.495  0.2937 -0.5811  2.6102
  252SOL     OW10384   3.517   0.769   1.199  0.5852  0.4198  1.0964
  252SOL    HW110385   3.503   0.737   1.105 -1.5758  2.0178  0.8346
  252SOL    HW210386   3.477   0.703   1.262  1.5722 -0.3957  0.8867
  253SOL     OW10387   3.096   1.342   0.214  0.6457 -0.3278  0.4443
  253SOL    HW110388   3.036   1.284   0.270 -0.9114 -1.3947 -2.2369
  253SOL    HW210389   3.060   1.435   0.213 -0.1889 -0.6489 -0.0244
  254SOL     OW10390   3.653   4.028   1.464 -0.0124  0.6714 -0.2009
  254SOL    HW110391   3.693   3.948   1.509 -0.5725  0.6251  0.2183
  254SOL    HW210392   3.554   4.027   1.475 -0.2397  0.2866 -2.0505
  255SOL     OW10393   4.269   1.317   0.871 -0.1574  0.0144 -0.4281
  255SOL    HW110394   4.182   1.353   0.904 -0.2085  0.0940 -0.6454
  255SOL    HW210395   4.329   1.392   0.845 -0.6015 -0.0629 -1.7325
  256SOL     OW10396   2.917   2.034   2.494  0.2943 -0.2472  1.0187
  256SOL    HW110397   3.017   2.041   2.489  0.0985  1.0382 -1.6765
  256SOL    HW210398   2.884   1.971   2.424 -0.7418 -1.4548  2.5559
  257SOL     OW10399   4.290   2.462   0.388 -0.3448  0.3166  0.4044
  257SOL    HW110400   4.275   2.544   0.334 -1.6068  0.4732  0.9917
  257SOL    HW210401   4.272   2.381   0.332  1.8647  0.3920 -0.4752
  258SOL     OW10402   4.332   0.740   2.400 -0.4509 -0.2786 -0.0374
  258SOL    HW110403   4.381   0.820   2.368  0.4063 -0.6584  0.3104
  258SOL    HW210404   4.397   0.670   2.431 -1.2134 -0.1607  1.9485
  259SOL     OW10405   2.678   2.268   0.055  0.0121 -0.0486 -0.0122
  259SOL    HW110406   2.773   2.277   0.025 -0.3827  0.6854 -1.0681
  259SOL    HW210407   2.618   2.319  -0.007 -1.0653 -0.4341  0.6925
  260SOL     OW10408   4.354   2.060   2.654 -0.0513 -0.0479  0.3264
  260SOL    HW110409   4.280   2.001   2.623 -0.0275 -0.0641  0.2997
  260SOL    HW210410   4.419   2.075   2.579 -0.4561  0.6315  0.1171
  261SOL     OW10411   3.924   2.544   1.666 -0.2243  0.2756 -0.5348
  261SOL    HW110412   3.827   2.564   1.652  0.1253  0.9024 -2.2038
  261SOL    HW210413   3.971   2.626   1.698 -0.2251 -0.0026  0.1864
  262SOL     OW10414   3.321   0.811   2.842 -0.0487 -0.4267 -0.3432
  262SOL    HW110415   3.298   0.830   2.747 -0.2909 -0.5555 -0.3123
  262SOL    HW210416   3.403   0.862   2.868 -0.7301  0.6423 -0.2394
  263SOL     OW10417   4.139   3.980   2.658  0.5441 -0.1220  0.0422
  263SOL    HW110418   4.226   3.933   2.676  0.5915  0.9715  2.8208
  263SOL    HW210419   4.155   4.078   2.653 -0.4930  0.0550  0.1560
  264SOL     OW10420   2.896   2.694   0.259 -0.1325  0.5559  0.1108
  264SOL    HW110421   2.842   2.614   0.283 -0.3316  0.6438 -0.0432
  264SOL    HW210422   2.989   2.665   0.235  0.9985  0.7627  3.9082
  265SOL     OW10423   3.877   1.166   0.179  0.3975  0.0708  0.2401
  265SOL    HW110424   3.887   1.067   0.178  1.5653  0.1882 -0.2047
  265SOL    HW210425   3.850   1.195   0.271 -0.6998 -0.7230  0.1729
  266SOL     OW10426   4.620   3.967   0.019 -0.3387 -0.2497 -0.2056
  266SOL    HW110427   4.591   4.005   0.106  1.3937  0.6435 -0.0079
  266SOL    HW210428   4.642   3.870   0.031 -3.7406 -1.1419 -0.4935
  267SOL     OW10429   3.580   1.126   2.298  0.1802  0.1870  0.2077
  267SOL    HW110430   3.652   1.195   2.283  0.8729 -0.8707 -1.4649
  267SOL    HW210431   3.582   1.060   2.223 -1.5829 -0.7031  0.9364
  268SOL     OW10432   1.912   8.628   0.607 -0.1554  0.8672 -0.2453
  268SOL    HW110433   1.832   8.579   0.642  0.6810 -1.3468 -1.3406
  268SOL    HW210434   1.949   8.578   0.528  0.5183  3.4787 -1.6248
  269SOL     OW10435   4.445   1.419   2.849  0.2121 -1.1403  0.5326
  269SOL    HW110436   4.447   1.360   2.930  2.6628 -1.4090  0.3068
  269SOL    HW210437   4.538   1.445   2.824 -0.7849  2.9593  0.7076
  270SOL     OW10438   4.126   1.324   2.672  0.5227  0.0411 -0.2385
  270SOL    HW110439   4.026   1.332   2.670  0.2166 -3.0953 -2.5565
  270SOL    HW210440   4.162   1.376   2.749 -2.9778  0.3826  1.2909
  271SOL     OW10441   3.153   2.817   0.849 -0.4162  0.3251 -0.8832
  271SOL    HW110442   3.128   2.864   0.933  0.1860  0.7247 -0.9226
  271SOL    HW210443   3.198   2.731   0.870  1.3291  1.2487 -0.7648
  272SOL     OW10444   3.670   0.194   2.499  0.1097  0.2975 -0.9943
  272SOL    HW110445   3.619   0.184   2.414 -0.5604  1.5038 -0.7400
  272SOL    HW210446   3.753   0.247   2.483 -0.0270  0.5427 -0.8942
  273SOL     OW10447   3.522   3.619   1.432 -0.3317 -0.6449  0.0825
  273SOL    HW110448   3.455   3.686   1.466 -1.4787 -1.7648  0.0438
  273SOL    HW210449   3.571   3.579   1.509 -0.0036 -0.1445  0.1384
  274SOL     OW10450   3.180   2.743   0.327  1.0442 -0.5477  0.7803
  274SOL    HW110451   3.211   2.836   0.311  1.2434 -0.9130 -1.0095
  274SOL    HW210452   3.146   2.735   0.421  1.0404  1.3115  0.9540
  275SOL     OW10453   3.544   9.418   1.660  0.2535  0.3131  1.1185
  275SOL    HW110454   3.630   9.389   1.617 -0.3986 -1.7592  1.1479
  275SOL    HW210455   3.504   9.492   1.606  1.9340  1.1486  0.9784
  276SOL     OW10456   3.668   9.853   1.413  0.0633  0.1193  0.6579
  276SOL    HW110457   3.747   9.817   1.364  0.6103  1.1026  0.8164
  276SOL    HW210458   3.584   9.826   1.366  0.3323 -3.2683  1.9899
  277SOL     OW10459   4.215   2.648   2.414 -0.5321  0.2107  0.1318
  277SOL    HW110460   4.268   2.645   2.330  0.3018 -0.0046  0.6594
  277SOL    HW210461   4.182   2.741   2.429  0.0468  0.4382  0.0167
  278SOL     OW10462   4.782   0.829   0.422 -0.1205  0.5429 -0.5176
  278SOL    HW110463   4.722   0.866   0.352 -1.0093  1.4187  0.6921
  278SOL    HW210464   4.877   0.837   0.393 -0.3968  2.3067 -0.9506
  279SOL     OW10465   2.808   2.722   2.283  0.1117 -0.2626 -0.2103
  279SOL    HW110466   2.873   2.648   2.265  1.7326  0.8196  1.1374
  279SOL    HW210467   2.767   2.709   2.374  0.2685  0.4018 -0.0428
  280SOL     OW10468   3.868   0.199   0.537  0.0617 -0.1505 -0.2730
  280SOL    HW110469   3.911   0.288   0.529 -0.9598  0.6493  2.4141
  280SOL    HW210470   3.777   0.202   0.497  0.9834 -0.7603 -2.5010
  281SOL     OW10471   2.764   1.942   0.572  0.0115  0.1639 -0.1649
  281SOL    HW110472   2.734   2.029   0.534 -1.5763 -0.2716  0.0572
  281SOL    HW210473   2.764   1.872   0.500 -1.0134 -0.1839  0.1545
  282SOL     OW10474   2.605   1.950   2.003  0.3204  0.1192  0.0302
  282SOL    HW110475   2.628   1.899   1.920  2.4125 -0.4289  0.9163
  282SOL    HW210476   2.655   2.037   2.003 -3.1010  2.1875 -1.3983
  283SOL     OW10477   7.814   2.057   1.165  0.4967 -0.4137 -0.2809
  283SOL    HW110478   7.757   2.000   1.223  1.3923  0.6093  1.6613
  283SOL    HW210479   7.884   2.000   1.121 -0.8130 -1.3552 -1.1590
  284SOL     OW10480   3.416   1.348   1.898 -0.3739 -0.4367  0.8019
  284SOL    HW110481   3.413   1.445   1.922 -0.6695 -0.5090  1.0588
  284SOL    HW210482   3.441   1.294   1.978 -0.3427 -0.5833  0.6933
  285SOL     OW10483   2.992   3.396   2.033  0.1262  0.3874 -0.0460
  285SOL    HW110484   2.966   3.429   2.124 -0.7197 -1.7717  0.5347
  285SOL    HW210485   2.980   3.297   2.029  0.6874  0.3802 -2.3553
  286SOL     OW10486   4.399   2.198   2.405 -0.2425 -0.1024  0.7086
  286SOL    HW110487   4.324   2.135   2.385  0.6171 -1.2820  1.1624
  286SOL    HW210488   4.367   2.267   2.470 -1.3627  0.3122 -0.2524
  287SOL     OW10489   2.959   2.595   0.693 -0.3088  0.6648 -0.1854
  287SOL    HW110490   2.922   2.672   0.745 -0.6025  1.7203 -1.9096
  287SOL    HW210491   2.920   2.595   0.601  2.0021  0.2672 -1.2099
  288SOL     OW10492   3.166   0.154   0.405 -0.4871  0.2743 -0.4273
  288SOL    HW110493   3.203   0.086   0.341  0.4950  0.6405 -0.2562
  288SOL    HW210494   3.234   0.226   0.419 -0.6899  0.1795  1.0428
  289SOL     OW10495   3.742   1.612   1.903  0.5692  0.2139 -0.5702
  289SOL    HW110496   3.652   1.596   1.943  0.6563 -1.6334 -1.0579
  289SOL    HW210497   3.761   1.710   1.901 -1.2874  0.5972 -0.1696
  290SOL     OW10498   3.861   3.049   1.820 -0.6111  0.3327 -0.0958
  290SOL    HW110499   3.867   3.067   1.919  1.8703  0.8150 -0.2907
  290SOL    HW210500   3.854   3.136   1.771  1.8121  0.3603 -0.4978
  291SOL     OW10501   4.243   2.034   0.592  0.3910  0.5200 -0.9008
  291SOL    HW110502   4.340   2.007   0.590  0.8248  2.0818 -1.9185
  291SOL    HW210503   4.187   1.953   0.609  1.7761 -0.7128 -2.0060
  292SOL     OW10504   3.834   3.108   2.083  0.2232 -0.4113  0.3414
  292SOL    HW110505   3.807   3.039   2.150 -1.9224  1.2120  1.2223
  292SOL    HW210506   3.784   3.193   2.102 -0.2216  0.1533 -3.1555
  293SOL     OW10507   3.100   2.840   0.589 -0.6968  0.3593 -0.4773
  293SOL    HW110508   3.003   2.865   0.589 -0.4743  1.2633  0.5034
  293SOL    HW210509   3.136   2.847   0.682 -0.0726 -1.5179 -0.5598
  294SOL     OW10510   3.586   3.554   2.241 -0.0377 -0.1541 -0.0267
  294SOL    HW110511   3.487   3.552   2.226  0.0487  1.3564 -0.9031
  294SOL    HW210512   3.605   3.588   2.333 -0.3152  0.3717 -0.1626
  295SOL     OW10513   3.814   9.051   1.499 -0.5719 -0.1192 -0.1840
  295SOL    HW110514   3.780   8.978   1.558 -2.0580  0.4419 -0.3173
  295SOL    HW210515   3.779   9.037   1.406 -1.1410  0.9372 -0.1331
  296SOL     OW10516   3.779   0.113   1.682 -0.2183 -0.7147  0.3033
  296SOL    HW110517   3.688   0.151   1.665  1.3836  2.5077 -1.6259
  296SOL    HW210518   3.784   0.076   1.775 -2.9099  0.7872  1.0734
  297SOL     OW10519   2.871   1.050   1.015  0.2094 -0.5605 -0.0239
  297SOL    HW110520   2.886   1.125   0.951 -0.9511  0.1170  0.4738
  297SOL    HW210521   2.827   0.974   0.968 -0.1524 -0.2689 -0.1633
  298SOL     OW10522   4.307   3.804   1.391  0.4230  0.0090  0.5124
  298SOL    HW110523   4.335   3.826   1.485 -0.3840 -0.5894  0.8918
  298SOL    HW210524   4.388   3.801   1.333  0.9875 -0.1535  1.2938
  299SOL     OW10525   4.520   1.007   0.935 -0.4713  0.1877  0.3052
  299SOL    HW110526   4.583   0.930   0.931  0.0187  0.5985  0.0130
  299SOL    HW210527   4.511   1.038   1.030 -1.3883 -0.8079  0.5550
  300SOL     OW10528   4.206   1.178   2.443 -0.3259  0.1171  0.6018
  300SOL    HW110529   4.138   1.105   2.450 -1.1722  0.7747 -0.6201
  300SOL    HW210530   4.200   1.237   2.523  0.0194 -0.8538  1.3551
  301SOL     OW10531   4.157   2.320   2.243 -0.2840  0.0012  0.6299
  301SOL    HW110532   4.185   2.224   2.240  1.1844  0.4474 -0.9733
  301SOL    HW210533   4.214   2.370   2.308 -1.5064 -0.3212  1.9887
  302SOL     OW10534   3.397   9.627   1.534  0.2666  0.2173  0.4377
  302SOL    HW110535   3.421   9.708   1.480 -1.3849  0.3158 -0.1809
  302SOL    HW210536   3.343   9.565   1.478  2.0303 -1.6312  0.7112
  303SOL     OW10537   3.315   1.440   0.998 -0.6097  0.9303  0.2188
  303SOL    HW110538   3.255   1.371   0.959 -0.0039  0.2138  0.5511
  303SOL    HW210539   3.281   1.466   1.088  1.1288 -1.5442  1.6383
  304SOL     OW10540   2.970   2.190   0.759  0.0229  0.6612 -0.3093
  304SOL    HW110541   2.873   2.204   0.778 -0.4783 -0.7660 -1.7584
  304SOL    HW210542   2.992   2.092   0.767  1.0970  0.8307 -1.0580
  305SOL     OW10543   3.577   0.679   2.678 -0.0203 -0.1890 -0.2279
  305SOL    HW110544   3.557   0.759   2.622 -0.2980 -1.3820 -1.8563
  305SOL    HW210545   3.493   0.630   2.698 -0.0183  0.6435  1.8951
  306SOL     OW10546   3.512   9.531   1.931  0.1950 -0.2345 -0.2174
  306SOL    HW110547   3.562   9.618   1.928  0.2576 -0.2348  0.7223
  306SOL    HW210548   3.553   9.468   1.865  0.4751  0.2711 -0.5401
  307SOL     OW10549   4.113   3.588   0.573  0.4875 -0.2810 -0.0652
  307SOL    HW110550   4.150   3.663   0.519  0.3539 -0.1609  0.0083
  307SOL    HW210551   4.137   3.600   0.669  1.5971 -1.0360 -0.2424
  308SOL     OW10552   3.195   0.067   1.149 -0.8225 -0.2567 -1.0959
  308SOL    HW110553   3.245   0.047   1.065 -2.6252 -1.5299 -1.9150
  308SOL    HW210554   3.130  -0.006   1.167 -0.1108 -0.2584  1.7217
  309SOL     OW10555   3.626   9.918   2.565  0.0349  0.2413 -0.4851
  309SOL    HW110556   3.537   9.919   2.521  0.4333 -0.5319 -1.3187
  309SOL    HW210557   3.669  10.009   2.556 -0.6364  0.5967 -0.1232
  310SOL     OW10558   3.336   0.274   2.124 -0.9908 -0.2735 -0.0068
  310SOL    HW110559   3.268   0.291   2.052 -0.7203  0.0064 -0.1966
  310SOL    HW210560   3.425   0.255   2.082 -0.8032  0.0329  0.2565
  311SOL     OW10561   4.021   2.218   0.682 -0.2113  0.1796 -0.3726
  311SOL    HW110562   4.018   2.307   0.728 -0.8689  1.1138 -2.1495
  311SOL    HW210563   4.116   2.186   0.676  0.0496  0.8560  0.1209
  312SOL     OW10564   3.311   1.184   2.660 -0.5668  0.6487  0.2952
  312SOL    HW110565   3.275   1.091   2.662  0.1951  0.3081 -1.4141
  312SOL    HW210566   3.237   1.248   2.680 -1.7470 -0.1619 -1.3240
  313SOL     OW10567   3.507   1.861   2.530  0.4913 -0.7687  0.2542
  313SOL    HW110568   3.498   1.957   2.505  1.3128 -0.7931 -0.1373
  313SOL    HW210569   3.494   1.804   2.449 -0.4987 -1.0185  0.5764
  314SOL     OW10570   2.988   2.213   1.721 -0.3190 -0.2078  0.5126
  314SOL    HW110571   2.967   2.175   1.811  0.2690  0.0982  0.7746
  314SOL    HW210572   2.955   2.307   1.716  0.4720  0.0788  0.7212
  315SOL     OW10573   3.833   2.007   0.744 -0.1743  0.1528 -0.3674
  315SOL    HW110574   3.887   2.091   0.739 -2.2567  1.6021  0.8472
  315SOL    HW210575   3.799   1.983   0.654 -2.5445  2.6313 -0.1735
  316SOL     OW10576   3.507   0.449   0.094 -0.3420 -0.4301  0.2481
  316SOL    HW110577   3.413   0.481   0.093 -0.7160 -1.4716  0.8433
  316SOL    HW210578   3.516   0.373   0.029  0.3142  0.2723 -0.4946
  317SOL     OW10579   3.385   1.834   2.089 -0.9062 -0.7293 -0.1411
  317SOL    HW110580   3.370   1.823   1.990 -0.6518 -0.8997 -0.1608
  317SOL    HW210581   3.300   1.865   2.132 -1.1615 -1.1508 -0.3379
  318SOL     OW10582   3.046   1.442   1.392  0.6574 -0.5969  0.2328
  318SOL    HW110583   3.097   1.357   1.392 -0.2804 -1.1640  0.2718
  318SOL    HW210584   2.948   1.423   1.396  0.4860  0.5221  2.2503
  319SOL     OW10585   3.716   9.831   1.800  0.5345  0.1268  0.6391
  319SOL    HW110586   3.698   9.901   1.868 -3.6382 -1.4360  1.2957
  319SOL    HW210587   3.684   9.861   1.710 -0.4737 -0.5429  0.7596
  320SOL     OW10588   3.308   3.905   1.189  0.0464  1.0865  1.1932
  320SOL    HW110589   3.346   3.971   1.125  0.7310 -1.8112 -1.5147
  320SOL    HW210590   3.370   3.827   1.198 -2.3087 -0.8080  1.6328
  321SOL     OW10591   3.332   2.951   1.137 -0.8519  0.0399 -0.7791
  321SOL    HW110592   3.323   3.027   1.200 -1.4144 -0.3792 -0.3537
  321SOL    HW210593   3.372   2.872   1.184 -2.6127 -0.7383 -0.5643
  322SOL     OW10594   0.664   6.600   0.727 -0.6056  0.6688 -0.2349
  322SOL    HW110595   0.572   6.566   0.707 -1.5400  3.5121 -1.0302
  322SOL    HW210596   0.696   6.655   0.650  1.1255  0.9753  0.6854
  323SOL     OW10597   3.002   1.473   1.043  0.2253  0.2935 -0.2231
  323SOL    HW110598   3.017   1.542   1.113  1.0767 -1.1794  1.0920
  323SOL    HW210599   2.987   1.384   1.087  1.8085 -0.8622 -1.9326
  324SOL     OW10600   7.805   2.415   1.131 -0.3861  0.3041 -0.0056
  324SOL    HW110601   7.833   2.488   1.194 -2.0774  0.1748  0.9383
  324SOL    HW210602   7.825   2.326   1.173 -0.9769  0.2199  0.0964
  325SOL     OW10603   3.297   2.614   0.670 -0.0712  0.1992 -0.5098
  325SOL    HW110604   3.230   2.687   0.662 -0.8021 -0.4028 -0.0309
  325SOL    HW210605   3.278   2.560   0.752  0.1449 -0.8319 -1.1176
  326SOL     OW10606   3.281   9.142   0.201  0.1534  0.1985 -0.0077
  326SOL    HW110607   3.248   9.217   0.258  0.8909  0.3164  0.2767
  326SOL    HW210608   3.242   9.055   0.233  0.3357  0.3008  0.5047
  327SOL     OW10609   4.185   1.223   2.178  0.1829 -0.1319 -0.1406
  327SOL    HW110610   4.247   1.293   2.143  1.4958 -0.4822  1.3785
  327SOL    HW210611   4.178   1.232   2.278  1.3255 -2.8591  0.2318
  328SOL     OW10612   7.672   5.185   2.216  0.1343 -0.1423  0.0627
  328SOL    HW110613   7.580   5.146   2.210 -0.5187  0.9324  2.5429
  328SOL    HW210614   7.739   5.112   2.205 -1.0038 -1.0781 -0.9047
  329SOL     OW10615   3.193   3.751   0.132 -0.5442  0.3076  0.0208
  329SOL    HW110616   3.257   3.780   0.061 -0.8268  1.9484  0.4215
  329SOL    HW210617   3.147   3.667   0.103  0.0931  0.4028 -1.2909
  330SOL     OW10618   3.069   1.034   0.557 -0.7837 -0.3453 -0.0048
  330SOL    HW110619   3.134   0.981   0.504 -0.4116 -0.4365  0.5340
  330SOL    HW210620   3.115   1.113   0.598 -1.1493 -0.0635 -0.1272
  331SOL     OW10621   3.469   9.537   2.517  0.2113  0.5573  0.1428
  331SOL    HW110622   3.566   9.556   2.534  0.0126  1.1994  0.6049
  331SOL    HW210623   3.442   9.575   2.429  1.0172 -1.9438 -1.2288
  332SOL     OW10624   3.873   9.749   1.283  0.4524  0.0961  0.3841
  332SOL    HW110625   3.857   9.670   1.224 -1.4020  1.8419 -1.5736
  332SOL    HW210626   3.944   9.807   1.243  1.8042 -0.5571  1.8079
  333SOL     OW10627   3.356   2.014   1.829 -1.1928  0.8757  0.2520
  333SOL    HW110628   3.371   2.049   1.737  0.7898 -0.3730  0.0713
  333SOL    HW210629   3.336   1.916   1.825  0.5824  0.4510  1.2497
  334SOL     OW10630   3.009   3.569   2.584  0.3270  0.0146 -0.4778
  334SOL    HW110631   2.922   3.618   2.590  1.5714  2.4046 -0.9325
  334SOL    HW210632   3.003   3.483   2.634 -2.3455  0.0292 -0.6864
  335SOL     OW10633   3.093   1.945   1.243  0.2448  0.2668  0.8162
  335SOL    HW110634   3.060   1.852   1.227  0.1669  0.3285  0.6145
  335SOL    HW210635   3.062   1.976   1.333 -0.4784  0.4216  0.5219
  336SOL     OW10636   3.706   0.929   1.347  0.0885 -0.2437  0.7722
  336SOL    HW110637   3.741   0.864   1.414  0.2407 -0.3254  0.6145
  336SOL    HW210638   3.636   0.884   1.291  0.6060 -0.4429  0.2841
  337SOL     OW10639   3.623   1.000   2.015 -0.1174 -0.2714 -0.2439
  337SOL    HW110640   3.711   0.957   2.038  0.4999  0.4272 -1.2744
  337SOL    HW210641   3.568   0.935   1.962 -0.8809 -1.2876  1.7447
  338SOL     OW10642   4.470   1.540   1.316  0.6081 -0.0573 -0.4782
  338SOL    HW110643   4.478   1.639   1.324  2.0484 -0.1348 -0.7129
  338SOL    HW210644   4.412   1.504   1.389 -3.0142  1.3366 -2.5613
  339SOL     OW10645   4.100   3.403   1.458 -0.6590  0.3061  0.2921
  339SOL    HW110646   4.122   3.349   1.377  0.2890 -0.4736  1.0555
  339SOL    HW210647   4.002   3.422   1.461 -0.9172 -0.9342 -0.2462
  340SOL     OW10648   3.157   2.440   0.472 -0.2043 -0.2271  0.9353
  340SOL    HW110649   3.198   2.374   0.534  3.4677  1.7687  0.7780
  340SOL    HW210650   3.123   2.518   0.524  0.4235  0.2249  0.6701
  341SOL     OW10651   3.002   1.570   0.602 -0.3178 -0.2034  0.4565
  341SOL    HW110652   2.915   1.585   0.556 -1.0139 -3.9924  0.4352
  341SOL    HW210653   2.994   1.599   0.697 -0.9495  1.2898 -0.0231
  342SOL     OW10654   3.137   1.793   2.826 -0.0304 -0.8953 -0.2299
  342SOL    HW110655   3.177   1.781   2.916 -0.9754  1.1697  0.5112
  342SOL    HW210656   3.040   1.769   2.829 -0.4855  0.8720 -0.2319
  343SOL     OW10657   3.806   1.248   2.252  0.1044  0.2404  0.4276
  343SOL    HW110658   3.856   1.335   2.257 -2.0442  1.5512 -0.1396
  343SOL    HW210659   3.869   1.172   2.266  2.8726  1.6462 -3.5589
  344SOL     OW10660   4.239   1.957   1.770  0.4013  0.3276 -0.4264
  344SOL    HW110661   4.335   1.931   1.759  0.5551  0.4718  0.4880
  344SOL    HW210662   4.213   2.021   1.697  1.1691  0.7488 -0.3435
  345SOL     OW10663   4.876   3.868   2.039 -0.8536 -0.4693  0.1987
  345SOL    HW110664   4.943   3.795   2.056 -0.0546 -0.0391 -1.0299
  345SOL    HW210665   4.861   3.920   2.123 -0.9468 -1.6492  0.9212
  346SOL     OW10666   2.884   2.884   2.082 -0.1435 -0.4424  0.2835
  346SOL    HW110667   2.927   2.821   2.017  0.9821  0.6700 -0.0598
  346SOL    HW210668   2.869   2.837   2.169  2.8599 -0.5280  0.8094
  347SOL     OW10669   3.777   2.064   1.024  0.1553  0.3482  0.1234
  347SOL    HW110670   3.716   2.139   0.997 -2.3931 -1.7913 -0.3317
  347SOL    HW210671   3.793   2.005   0.944  0.5353 -0.6419  0.9272
  348SOL     OW10672   3.188   3.060   2.037  0.0780  0.0351 -0.6683
  348SOL    HW110673   3.227   3.014   1.956  0.3240  0.7038 -0.9292
  348SOL    HW210674   3.105   3.109   2.010 -1.8532 -2.6517  0.1811
  349SOL     OW10675   3.184   1.975   2.416  0.3555  0.2662 -0.0129
  349SOL    HW110676   3.242   2.055   2.402 -0.2016  0.9125  1.2545
  349SOL    HW210677   3.192   1.945   2.512 -1.3350  0.3088  0.1469
  350SOL     OW10678   3.688   3.208   0.899  0.0404 -1.4827 -0.2420
  350SOL    HW110679   3.767   3.147   0.893 -0.0422 -1.5152 -1.1105
  350SOL    HW210680   3.707   3.281   0.964  1.4235 -0.5945 -1.5906
  351SOL     OW10681   7.216   5.831   0.595 -0.1586 -0.0730 -0.2957
  351SOL    HW110682   7.178   5.815   0.686  0.8077  0.0361  0.1297
  351SOL    HW210683   7.187   5.758   0.533 -2.4856  0.9073 -0.4303
  352SOL     OW10684   3.476   1.184   1.121 -0.4871  0.6283  0.9978
  352SOL    HW110685   3.519   1.205   1.033 -1.6579  1.0721  0.5227
  352SOL    HW210686   3.547   1.177   1.191  0.6886 -1.9134 -0.3762
  353SOL     OW10687   3.875   1.681   0.608  0.2072 -0.3428 -0.6688
  353SOL    HW110688   3.844   1.656   0.700  2.8792 -0.6353  0.2191
  353SOL    HW210689   3.839   1.616   0.541  1.3512 -2.4632  0.7087
  354SOL     OW10690   3.261   9.122   2.267 -0.0748  0.2430 -0.3821
  354SOL    HW110691   3.214   9.124   2.355 -1.6771 -0.4969 -1.2059
  354SOL    HW210692   3.352   9.081   2.279  0.5170  1.9801  1.2755
  355SOL     OW10693   4.376   3.434   1.998  0.0070  0.1146  0.0620
  355SOL    HW110694   4.317   3.433   1.918 -0.1625 -2.0725  0.1856
  355SOL    HW210695   4.438   3.355   1.995  1.3958  1.1289  1.0693
  356SOL     OW10696   4.514   3.404   1.566 -1.0638  0.8214 -0.3993
  356SOL    HW110697   4.428   3.428   1.612 -0.8852  0.5255  0.0984
  356SOL    HW210698   4.564   3.488   1.544 -0.5039  0.9359  1.2189
  357SOL     OW10699   7.765   5.214   1.953 -0.2874 -0.3197  0.6894
  357SOL    HW110700   7.742   5.234   2.049 -3.6215  2.7383 -0.6086
  357SOL    HW210701   7.833   5.279   1.920  1.5235 -1.9205  1.1511
  358SOL     OW10702   3.611   1.142   1.786 -0.2628 -0.4536 -0.2018
  358SOL    HW110703   3.608   1.080   1.864 -0.1950  0.8551  0.8408
  358SOL    HW210704   3.554   1.222   1.803  0.6695  0.4082 -0.9911
  359SOL     OW10705   2.736   2.554   2.038 -0.2381  0.0316 -0.3849
  359SOL    HW110706   2.707   2.467   2.079  0.2955  0.1781  0.3271
  359SOL    HW210707   2.741   2.623   2.110 -0.8724  0.7042 -0.9905
  360SOL     OW10708   3.132   1.180   1.308 -0.1867 -0.2562  0.2636
  360SOL    HW110709   3.206   1.245   1.325  0.3009 -1.4494  2.9212
  360SOL    HW210710   3.161   1.089   1.335 -3.3736 -0.4122  3.5347
  361SOL     OW10711   4.184   9.696   1.737  0.4210 -0.0548  0.3624
  361SOL    HW110712   4.086   9.678   1.726  0.4665  0.1102 -0.2995
  361SOL    HW210713   4.235   9.613   1.716  0.4123 -0.2020  0.9139
  362SOL     OW10714   3.586   2.525   2.813  0.7526  0.1455 -0.0059
  362SOL    HW110715   3.487   2.515   2.828  0.8421 -1.6574 -0.4657
  362SOL    HW210716   3.605   2.522   2.715  1.5832 -3.0156  0.2139
  363SOL     OW10717   3.389   0.776   0.891 -0.1575  0.0616  0.0474
  363SOL    HW110718   3.315   0.712   0.869 -0.0010 -0.7579  1.8137
  363SOL    HW210719   3.356   0.870   0.882 -1.4185 -0.2975  0.8074
  364SOL     OW10720   3.374   3.583   0.996 -0.7277  0.0617 -0.5061
  364SOL    HW110721   3.355   3.613   0.902  0.6672 -0.4018 -0.9397
  364SOL    HW210722   3.433   3.650   1.041  0.8864 -1.1075 -0.8766
  365SOL     OW10723   2.926   3.505   0.628 -0.0777 -0.0659  0.3730
  365SOL    HW110724   2.899   3.601   0.618  0.2069 -0.2020 -1.8732
  365SOL    HW210725   3.009   3.499   0.683 -0.5266  0.9050  1.1753
  366SOL     OW10726   3.706   2.576   1.251  0.2228  0.3981  0.2502
  366SOL    HW110727   3.801   2.589   1.281 -0.0408  0.4317  1.0994
  366SOL    HW210728   3.700   2.591   1.152  0.9985  0.9758  0.2783
  367SOL     OW10729   3.753   9.362   1.286  0.3072  0.1323 -0.6348
  367SOL    HW110730   3.823   9.399   1.225  1.6889  0.1787  0.9360
  367SOL    HW210731   3.749   9.417   1.369 -1.6614  0.1598 -0.7367
  368SOL     OW10732   3.797   8.752   2.221  0.8565  0.3556  0.5463
  368SOL    HW110733   3.750   8.751   2.133  1.7294 -1.2890  0.0769
  368SOL    HW210734   3.865   8.825   2.223  0.4434  0.7524  0.0687
  369SOL     OW10735   3.839   1.779   0.939  0.3158 -0.1506 -0.3334
  369SOL    HW110736   3.926   1.806   0.899  0.7606  1.2292  1.5062
  369SOL    HW210737   3.831   1.679   0.936  0.4782 -0.1173 -3.4464
  370SOL     OW10738   4.427   0.664   0.762 -0.6346  0.3466  0.1228
  370SOL    HW110739   4.525   0.677   0.771 -0.7770  2.4341 -0.9936
  370SOL    HW210740   4.406   0.622   0.674 -0.9012  2.4481 -0.8487
  371SOL     OW10741   2.978   1.917   0.766  0.3088 -0.5689  0.0236
  371SOL    HW110742   2.904   1.920   0.698  0.0111  0.9198  0.3857
  371SOL    HW210743   2.993   1.823   0.795 -2.0323 -0.8046  0.5657
  372SOL     OW10744   4.421   2.114   1.263  0.2968 -0.2764  0.0665
  372SOL    HW110745   4.355   2.143   1.333 -0.3930 -1.5143 -0.0463
  372SOL    HW210746   4.490   2.185   1.250  0.3583  0.0234  1.9165
  373SOL     OW10747   2.971   3.317   2.684  0.1535 -0.0953  0.0748
  373SOL    HW110748   3.068   3.306   2.705  0.0546 -3.0948 -0.8158
  373SOL    HW210749   2.916   3.281   2.759 -0.2620 -0.4398 -0.3922
  374SOL     OW10750   3.512   1.563   2.059  1.1072  0.1835  0.6610
  374SOL    HW110751   3.527   1.521   2.149 -0.5474  0.3638  1.0237
  374SOL    HW210752   3.461   1.648   2.070 -0.1248 -0.3865 -0.5631
  375SOL     OW10753   3.771   0.550   2.865  0.0987  0.1149 -0.0696
  375SOL    HW110754   3.699   0.504   2.917 -0.3857  1.6991  0.6940
  375SOL    HW210755   3.731   0.611   2.798  0.7348 -0.3363 -0.8665
  376SOL     OW10756   3.273   0.557   0.055  0.5927  0.3458  0.1700
  376SOL    HW110757   3.285   0.654   0.034 -2.1460  1.2246  2.3639
  376SOL    HW210758   3.269   0.505  -0.030 -1.2640  2.6198 -1.2006
  377SOL     OW10759   3.902   9.844   2.554 -0.2660  0.3696 -0.4835
  377SOL    HW110760   3.805   9.847   2.530 -0.3036  1.4825 -0.2465
  377SOL    HW210761   3.954   9.893   2.484 -0.0266  0.9298  0.0857
  378SOL     OW10762   4.305   3.542   1.129  0.4248  0.1467 -0.3881
  378SOL    HW110763   4.396   3.508   1.153  0.2344 -0.1578 -0.1091
  378SOL    HW210764   4.314   3.611   1.056  0.7443 -0.9907 -1.4335
  379SOL     OW10765   3.656   2.836   1.049 -0.0294 -1.3095  0.1616
  379SOL    HW110766   3.710   2.900   1.103  0.7815 -0.6583 -1.3826
  379SOL    HW210767   3.601   2.886   0.983 -1.2197 -2.0793  0.5492
  380SOL     OW10768   2.828   3.454   0.187 -0.1920 -0.1436 -0.3009
  380SOL    HW110769   2.898   3.430   0.255 -0.5513 -1.8436 -0.5072
  380SOL    HW210770   2.740   3.465   0.233 -0.2422 -0.2975 -0.3618
  381SOL     OW10771   3.090   3.895   0.319 -0.4698 -0.4444 -0.4499
  381SOL    HW110772   3.000   3.865   0.350 -0.9898  1.9623  0.4539
  381SOL    HW210773   3.116   3.843   0.238 -2.0273 -2.1677  0.1116
  382SOL     OW10774   2.964   1.617   2.150  0.7022 -0.2246  0.0746
  382SOL    HW110775   2.873   1.588   2.178  0.2821  0.5833 -0.4127
  382SOL    HW210776   2.962   1.644   2.053  0.9816  1.7553  0.5996
  383SOL     OW10777   2.933   1.779   1.937 -0.1811  0.1967  0.0753
  383SOL    HW110778   2.969   1.785   1.844  2.2789 -1.9389  0.8180
  383SOL    HW210779   2.954   1.864   1.986  0.1919  0.6033 -0.7706
  384SOL     OW10780   3.390   3.156   2.175 -0.6563  0.1765 -0.1762
  384SOL    HW110781   3.390   3.105   2.261 -2.0518  1.9345  0.8826
  384SOL    HW210782   3.327   3.112   2.111 -0.8364 -0.1903  0.2502
  385SOL     OW10783   4.371   0.998   2.274  0.3291  0.3731 -0.6753
  385SOL    HW110784   4.281   0.996   2.231 -0.0010  0.1055  0.0232
  385SOL    HW210785   4.376   1.074   2.338  0.8511  0.8207 -1.2292
  386SOL     OW10786   3.410   3.972   1.521  0.1514  0.5910  0.3431
  386SOL    HW110787   3.408   3.889   1.577  1.5848 -0.7083 -1.4548
  386SOL    HW210788   3.320   3.986   1.479 -0.7149  1.1675  2.3311
  387SOL     OW10789   3.553   0.200   2.812 -0.0734  0.3252  0.6278
  387SOL    HW110790   3.533   0.129   2.743 -0.9239  0.5920  0.5956
  387SOL    HW210791   3.583   0.156   2.896  1.0804 -0.0041  0.0652
  388SOL     OW10792   3.237   1.528   0.041 -0.1479 -0.2718  0.4048
  388SOL    HW110793   3.214   1.583   0.121 -0.6413  1.0789 -0.6344
  388SOL    HW210794   3.239   1.587  -0.040  0.2317 -1.6324 -0.5943
  389SOL     OW10795   4.035   3.608   1.165  0.7660  0.4301 -0.6727
  389SOL    HW110796   4.010   3.686   1.223  0.7415  0.1560 -0.3121
  389SOL    HW210797   4.131   3.586   1.180  0.4575 -0.4104  0.1845
  390SOL     OW10798   4.169   2.372   1.876 -0.1430 -0.1949  0.1021
  390SOL    HW110799   4.088   2.318   1.898 -0.2089 -0.3975 -0.6216
  390SOL    HW210800   4.141   2.461   1.841 -0.0293  0.6428  2.0904
  391SOL     OW10801   3.333   1.933   0.183  0.3251 -0.5251 -0.2951
  391SOL    HW110802   3.399   1.877   0.134  1.3746 -1.7348  2.3753
  391SOL    HW210803   3.359   1.939   0.280 -1.4520  2.0544  0.0902
  392SOL     OW10804   7.218   6.283   0.250  0.4067  0.1593 -0.1100
  392SOL    HW110805   7.121   6.275   0.273 -0.1020  2.5209 -1.3051
  392SOL    HW210806   7.273   6.267   0.332 -1.0995  1.6363  1.2228
  393SOL     OW10807   3.361   3.812   2.809 -0.6766  0.1717  0.1599
  393SOL    HW110808   3.459   3.834   2.802 -0.7718  0.8514  0.8631
  393SOL    HW210809   3.325   3.792   2.718 -0.3125  1.7933 -0.3606
  394SOL     OW10810   3.425   9.584   1.146 -0.2588 -0.5179  0.4541
  394SOL    HW110811   3.462   9.507   1.094 -1.1579 -1.5483  1.3103
  394SOL    HW210812   3.397   9.553   1.237 -0.6053  0.8302  0.8308
  395SOL     OW10813   4.093   3.957   1.055  0.4746 -0.1210  0.1511
  395SOL    HW110814   4.091   3.929   1.151 -1.1365  0.9518  0.4624
  395SOL    HW210815   4.168   4.020   1.040  0.3079  0.2563  0.8719
  396SOL     OW10816   3.600   2.228   2.804 -1.0887  0.1015 -0.8418
  396SOL    HW110817   3.644   2.298   2.748 -1.4151  0.7472 -0.3079
  396SOL    HW210818   3.534   2.272   2.865 -0.1268 -0.4751  0.6501
  397SOL     OW10819   3.287   3.413   0.388 -0.2873 -0.2008  0.0338
  397SOL    HW110820   3.381   3.429   0.358 -0.3139  0.8956  0.5042
  397SOL    HW210821   3.266   3.472   0.466 -1.1417 -0.9395  0.3720
  398SOL     OW10822   3.830   1.871   1.906  0.4728 -0.3626  0.0728
  398SOL    HW110823   3.855   1.951   1.852 -1.2918 -1.3586 -2.3627
  398SOL    HW210824   3.774   1.899   1.984  1.3577  0.9269  0.2584
  399SOL     OW10825   4.179   2.619   1.441 -0.1303  0.0142  0.3094
  399SOL    HW110826   4.219   2.543   1.492  0.9776  0.3627 -0.0262
  399SOL    HW210827   4.252   2.672   1.397 -1.0098  0.2186 -0.9358
  400SOL     OW10828   3.493   2.767   2.239 -0.0016  0.3417  0.5569
  400SOL    HW110829   3.393   2.771   2.236 -0.0327 -0.3366  0.5481
  400SOL    HW210830   3.527   2.720   2.158  0.2549 -0.4490  1.1153
  401SOL     OW10831   3.961   1.082   0.574 -0.2192 -0.1725  0.6633
  401SOL    HW110832   3.973   1.058   0.671 -0.6836  1.5554  1.1747
  401SOL    HW210833   3.983   1.178   0.561 -4.3026  0.7254 -0.1131
  402SOL     OW10834   4.083   2.095   1.586 -0.4102 -0.5098 -0.4099
  402SOL    HW110835   4.089   2.195   1.579 -0.6368 -0.5773 -1.7200
  402SOL    HW210836   4.056   2.057   1.497 -1.1203 -1.6779  0.2925
  403SOL     OW10837   7.709   5.425   2.370  0.0293 -0.6112 -0.0166
  403SOL    HW110838   7.732   5.363   2.295  1.8253 -0.4042  0.3459
  403SOL    HW210839   7.654   5.377   2.437  0.7406 -1.5946 -0.1245
  404SOL     OW10840   2.761   2.182   1.953  0.3235  0.1804 -0.5839
  404SOL    HW110841   2.772   2.268   1.903  0.4357 -1.1237 -2.8319
  404SOL    HW210842   2.849   2.134   1.956  0.4991  0.5981  1.5426
  405SOL     OW10843   3.392   1.524   1.689  0.3934  0.0818 -0.7441
  405SOL    HW110844   3.452   1.531   1.610  2.6277  2.5920  1.0942
  405SOL    HW210845   3.417   1.445   1.744  1.6523  0.7662 -0.3170
  406SOL     OW10846   3.762   0.619   1.338 -0.0790 -0.7564  0.4465
  406SOL    HW110847   3.770   0.659   1.247  2.8809  3.4149  2.4009
  406SOL    HW210848   3.841   0.561   1.356 -0.8206 -1.8342  0.2901
  407SOL     OW10849   4.037   2.164   0.957 -0.1873 -0.4762 -0.6324
  407SOL    HW110850   3.971   2.097   0.990 -1.7260  1.0984 -0.3773
  407SOL    HW210851   3.996   2.256   0.964  2.2511  0.5869  0.0679
  408SOL     OW10852   3.266   1.721   1.853 -0.0220 -0.0475  0.5987
  408SOL    HW110853   3.174   1.741   1.821 -0.4524 -1.0887  1.1524
  408SOL    HW210854   3.305   1.648   1.798  0.6059  0.6083  0.1595
  409SOL     OW10855   3.189   0.195   1.562  0.1931 -0.0420  0.3277
  409SOL    HW110856   3.098   0.203   1.603  0.3484  0.7287  0.5432
  409SOL    HW210857   3.183   0.206   1.463 -0.0108 -0.4905  0.2916
  410SOL     OW10858   3.634   9.697   2.729  0.7754  0.2477  0.1225
  410SOL    HW110859   3.613   9.795   2.731  2.3850  0.6069  3.1524
  410SOL    HW210860   3.699   9.679   2.656  0.6221  1.4761 -0.3397
  411SOL     OW10861   3.407   1.572   1.304 -0.7604 -0.4859 -0.2682
  411SOL    HW110862   3.409   1.482   1.347  2.3171 -0.6264 -0.6239
  411SOL    HW210863   3.497   1.593   1.266 -1.3730  2.8354 -0.0146
  412SOL     OW10864   2.892   1.174   0.394 -0.6891 -0.0057 -1.1157
  412SOL    HW110865   2.921   1.100   0.454 -0.2909  1.3607  0.4329
  412SOL    HW210866   2.822   1.141   0.331  1.0774 -2.2313 -1.9477
  413SOL     OW10867   4.202   2.036   2.230 -0.0880 -0.4351  0.0991
  413SOL    HW110868   4.201   1.998   2.138  2.2112  1.0398 -0.5601
  413SOL    HW210869   4.122   2.002   2.281 -1.9169 -0.5045 -2.7239
  414SOL     OW10870   3.684   8.882   2.464 -0.0032  0.1485  0.1117
  414SOL    HW110871   3.722   8.842   2.381 -0.3290 -0.7955  0.4125
  414SOL    HW210872   3.755   8.888   2.534  0.0005 -0.0878  0.1287
  415SOL     OW10873   3.409   9.121   2.675  0.3616 -0.3647  0.3292
  415SOL    HW110874   3.462   9.039   2.698 -1.1541 -1.1701  0.9983
  415SOL    HW210875   3.424   9.191   2.745  0.3921 -0.6568  0.6164
  416SOL     OW10876   3.815   0.985   2.629  0.2462 -0.2621 -0.4345
  416SOL    HW110877   3.895   0.926   2.636  0.3777  0.0876  1.3600
  416SOL    HW210878   3.826   1.063   2.690  0.4241  2.0791 -3.3598
  417SOL     OW10879   3.065   2.340   0.240 -0.2119  0.1636  0.5393
  417SOL    HW110880   3.076   2.377   0.332  0.6555  0.5921  0.2727
  417SOL    HW210881   3.102   2.247   0.236  1.3195  0.7699  0.2097
  418SOL     OW10882   3.488   2.972   0.893  0.2775  0.6149  0.1373
  418SOL    HW110883   3.406   2.955   0.947 -0.0224 -0.0736 -0.5341
  418SOL    HW210884   3.491   3.069   0.866 -0.2827  0.6505  0.2060
  419SOL     OW10885   3.308   9.856   1.679  0.2092 -0.0964  0.1676
  419SOL    HW110886   3.217   9.815   1.678  0.2579 -0.1875 -0.8139
  419SOL    HW210887   3.377   9.783   1.681  0.2855 -0.0734 -1.0238
  420SOL     OW10888   3.511   1.915   0.408  0.0219  0.3543  0.5454
  420SOL    HW110889   3.534   1.834   0.355  1.1963  0.1838  1.2953
  420SOL    HW210890   3.595   1.964   0.433 -0.6984  2.0609 -0.2884
  421SOL     OW10891   3.632   1.524   1.524 -0.1191  0.5221 -0.0766
  421SOL    HW110892   3.668   1.481   1.607 -1.9954 -1.0292 -0.0421
  421SOL    HW210893   3.671   1.478   1.444 -0.4135  0.2265 -0.0490
  422SOL     OW10894   3.889   2.435   2.245 -0.2343  0.3346  0.0047
  422SOL    HW110895   3.955   2.373   2.288 -0.2772  0.2793 -0.0097
  422SOL    HW210896   3.915   2.530   2.265 -1.4888  0.2709  2.0086
  423SOL     OW10897   3.981   0.674   1.062  0.0066 -0.0197 -0.0222
  423SOL    HW110898   4.014   0.767   1.045 -2.8117  0.9756 -0.2212
  423SOL    HW210899   3.949   0.634   0.976 -0.0722 -0.6679  0.3034
  424SOL     OW10900   3.494   4.260   0.781 -0.0416  0.1409  0.1207
  424SOL    HW110901   3.459   4.183   0.728  1.4869  1.0071 -2.2346
  424SOL    HW210902   3.465   4.346   0.738  1.9999  0.8581  0.1021
  425SOL     OW10903   4.352   0.428   1.840  0.2173  0.1659  0.1424
  425SOL    HW110904   4.319   0.413   1.746  1.7769  0.3748 -0.4588
  425SOL    HW210905   4.450   0.448   1.837  0.6097 -1.3839  1.9558
  426SOL     OW10906   3.367   9.783   2.003  0.0038 -0.1245 -0.0703
  426SOL    HW110907   3.384   9.688   1.975  1.7756  0.0191  0.4668
  426SOL    HW210908   3.341   9.836   1.922 -0.2281 -0.8853 -0.5116
  427SOL     OW10909   3.855   0.848   2.339 -0.2336 -0.4725  0.2160
  427SOL    HW110910   3.945   0.833   2.379  0.1970  2.0611  0.3062
  427SOL    HW210911   3.800   0.905   2.401 -1.7134 -1.5637 -0.0724
  428SOL     OW10912   2.886   3.147   2.041 -0.1350 -0.3676 -0.2126
  428SOL    HW110913   2.878   3.048   2.045 -1.1905 -0.3758 -1.9145
  428SOL    HW210914   2.795   3.188   2.046  0.2163  0.4591 -0.5545
  429SOL     OW10915   3.662   3.626   2.495 -0.7900  0.0258  0.5895
  429SOL    HW110916   3.638   3.560   2.567  1.5137 -1.3777  0.1052
  429SOL    HW210917   3.678   3.715   2.536 -0.5259 -0.5208  1.7101
  430SOL     OW10918   4.119   2.361   1.597 -0.6156  0.0036 -0.0347
  430SOL    HW110919   4.148   2.328   1.687  0.7056 -0.1679 -0.5223
  430SOL    HW210920   4.041   2.423   1.609  0.9321  1.7163  1.4252
  431SOL     OW10921   2.693   2.004   0.149 -0.0196  0.0977  0.3731
  431SOL    HW110922   2.783   2.019   0.189 -0.4201  2.6981  0.3414
  431SOL    HW210923   2.653   2.091   0.122 -3.4070 -0.7992  2.2010
  432SOL     OW10924   3.757   1.372   1.353 -0.7636 -0.6442 -0.8953
  432SOL    HW110925   3.769   1.418   1.265  0.0512  1.6374  0.3657
  432SOL    HW210926   3.841   1.325   1.378 -0.6778 -0.4601 -0.8460
  433SOL     OW10927   3.977   0.562   2.547 -0.0711  0.1133 -0.3155
  433SOL    HW110928   3.981   0.473   2.592 -1.3318 -0.4297 -1.2670
  433SOL    HW210929   3.977   0.550   2.448 -0.0476  1.1919 -0.4554
  434SOL     OW10930   4.144   0.008   1.799  0.2981  0.2161 -0.2389
  434SOL    HW110931   4.180  -0.082   1.777 -2.3680 -1.4186  1.8779
  434SOL    HW210932   4.087   0.041   1.724 -1.2901 -1.2678  0.3036
  435SOL     OW10933   4.524   1.789   1.270 -0.7327 -0.0420  0.1771
  435SOL    HW110934   4.483   1.876   1.242  0.6051  0.4218 -0.3582
  435SOL    HW210935   4.584   1.755   1.197 -0.5877 -0.9906  0.7294
  436SOL     OW10936   4.231   1.968   1.116  0.2589  0.0343  0.2881
  436SOL    HW110937   4.243   1.987   1.018 -0.7542 -0.8808 -0.0266
  436SOL    HW210938   4.295   2.024   1.169 -1.9427  3.5787 -0.6458
  437SOL     OW10939   3.819   0.894   0.139 -0.4244 -0.8352 -1.0481
  437SOL    HW110940   3.761   0.856   0.211  1.1630 -0.3458  0.5238
  437SOL    HW210941   3.827   0.827   0.065  1.3876 -3.1609  1.1450
  438SOL     OW10942   2.675   2.333   2.170 -0.6015  0.0790 -0.3275
  438SOL    HW110943   2.615   2.284   2.233  0.7874 -1.3151 -0.0828
  438SOL    HW210944   2.710   2.271   2.101  0.8475  0.8046 -0.2684
  439SOL     OW10945   4.175   3.288   1.221  0.1638 -0.1830  0.4556
  439SOL    HW110946   4.242   3.219   1.248  1.1962  1.0048  0.9466
  439SOL    HW210947   4.213   3.344   1.148 -1.6544 -1.7636 -1.8094
  440SOL     OW10948   3.015   3.390   0.388  0.4126 -0.2842  0.1123
  440SOL    HW110949   2.984   3.428   0.476  0.8653  1.0630 -0.2987
  440SOL    HW210950   3.115   3.397   0.383  0.5181 -1.7635  0.1296
  441SOL     OW10951   2.880   1.290   0.859 -0.5416 -0.1799  0.8536
  441SOL    HW110952   2.886   1.300   0.759 -3.2161  0.1367  0.6912
  441SOL    HW210953   2.926   1.367   0.903  1.2123 -0.6452 -0.1043
  442SOL     OW10954   3.729   0.043   1.958  0.1681  0.0544 -0.2587
  442SOL    HW110955   3.808   0.088   2.000  0.6828 -1.0406 -0.0197
  442SOL    HW210956   3.655   0.109   1.946  0.8250  0.9004  0.2853
  443SOL     OW10957   3.376   1.443   0.533  0.0253  0.3847  0.1592
  443SOL    HW110958   3.378   1.525   0.590  1.3668  1.3527 -1.2543
  443SOL    HW210959   3.346   1.467   0.441 -0.4280 -0.8715 -0.0320
  444SOL     OW10960   3.166   0.631   0.862 -0.2234  0.1510 -0.1631
  444SOL    HW110961   3.097   0.704   0.858 -1.3212 -0.8232  0.6838
  444SOL    HW210962   3.138   0.555   0.803  0.9422  0.4208 -1.0831
  445SOL     OW10963   3.362   9.833   2.508  0.3734  0.0325  0.1873
  445SOL    HW110964   3.389   9.747   2.551  2.8913  0.9193  0.4819
  445SOL    HW210965   3.345   9.817   2.410 -1.7063 -1.2610  0.7352
  446SOL     OW10966   4.526   3.417   1.228  0.2797 -0.5519 -0.2201
  446SOL    HW110967   4.585   3.465   1.293 -1.3337  0.8036  0.2714
  446SOL    HW210968   4.492   3.333   1.270  0.3703 -0.3966  0.1652
  447SOL     OW10969   4.136   9.592   1.995  0.7070  0.2863 -0.3781
  447SOL    HW110970   4.184   9.611   1.909  0.9735 -0.3483 -0.3711
  447SOL    HW210971   4.156   9.498   2.024  0.6564  0.5176  0.4004
  448SOL     OW10972   3.522   0.228   1.908  0.3553  0.2170 -0.2655
  448SOL    HW110973   3.465   0.203   1.829  0.5819  2.4350 -1.1567
  448SOL    HW210974   3.582   0.303   1.883  0.1414  1.2309  2.1636
  449SOL     OW10975   3.363   0.204   2.390  0.3972 -0.4767 -0.4521
  449SOL    HW110976   3.362   0.220   2.291 -2.0090 -0.3747 -0.4320
  449SOL    HW210977   3.307   0.125   2.412  1.6356 -1.0284  0.7643
  450SOL     OW10978   3.324   2.462   1.326 -0.0786 -0.4561 -0.1365
  450SOL    HW110979   3.293   2.405   1.250 -2.9291 -1.0185  1.4013
  450SOL    HW210980   3.391   2.412   1.380 -0.1573 -1.1216 -0.6500
  451SOL     OW10981   3.663   1.623   2.822  0.1028  0.5203 -0.0343
  451SOL    HW110982   3.581   1.672   2.792  0.3942  0.1776 -1.4522
  451SOL    HW210983   3.640   1.529   2.845  0.0795  0.4282 -0.4189
  452SOL     OW10984   3.061   1.823   1.663  0.6062 -0.0871  0.1740
  452SOL    HW110985   3.027   1.910   1.626  3.2770  0.7526 -0.4538
  452SOL    HW210986   3.121   1.779   1.595 -0.5832 -2.3679  0.5511
  453SOL     OW10987   3.649   3.726   1.719 -0.9049  0.4608  0.1748
  453SOL    HW110988   3.658   3.779   1.803 -0.4587  0.0370  0.3958
  453SOL    HW210989   3.554   3.699   1.706 -0.7564 -0.6296  1.2551
  454SOL     OW10990   3.416   4.363   2.758  0.1945 -0.1822 -0.0728
  454SOL    HW110991   3.421   4.352   2.659  1.4008 -1.4749  0.1256
  454SOL    HW210992   3.420   4.274   2.802  1.4220  0.4846  1.2063
  455SOL     OW10993   4.417   2.681   1.776 -0.7222 -0.5101 -0.1421
  455SOL    HW110994   4.488   2.751   1.776 -0.3060 -0.8626  2.4199
  455SOL    HW210995   4.429   2.620   1.698  3.6689 -2.3735  1.7885
  456SOL     OW10996   4.582   1.078   0.644  0.0723  0.0924  0.0084
  456SOL    HW110997   4.500   1.020   0.642 -0.6489  1.1201 -0.4364
  456SOL    HW210998   4.564   1.160   0.697  1.2247 -0.2659  0.9620
  457SOL     OW10999   3.263   1.004   0.846 -0.2821  0.2943 -0.1438
  457SOL    HW111000   3.198   1.070   0.884 -1.1525 -0.9894  0.6282
  457SOL    HW211001   3.298   1.039   0.759 -1.9212  1.0694 -0.5127
  458SOL     OW11002   4.315   2.260   0.945 -0.0725  0.1879 -0.6053
  458SOL    HW111003   4.220   2.229   0.945  0.1223 -0.4632  0.8103
  458SOL    HW211004   4.376   2.183   0.927  0.2479  0.3800 -0.3533
  459SOL     OW11005   3.861   9.338   0.904 -0.1657 -0.1356  0.0005
  459SOL    HW111006   3.871   9.353   0.806 -1.4307  0.3418 -0.0581
  459SOL    HW211007   3.798   9.262   0.920  1.2935 -1.2946  0.4234
  460SOL     OW11008   3.055   0.447   0.707  0.5758 -0.3651  0.0639
  460SOL    HW111009   3.065   0.348   0.692  1.3095 -0.0657 -1.6240
  460SOL    HW211010   2.981   0.482   0.650 -2.5056 -0.5722  3.7334
  461SOL     OW11011   4.250   3.353   0.898  0.5670 -1.0828  0.0625
  461SOL    HW111012   4.334   3.382   0.852  0.0173 -2.2124 -1.7004
  461SOL    HW211013   4.184   3.428   0.897  0.2381 -1.3705 -1.8055
  462SOL     OW11014   5.041   3.455   1.674  0.7361  0.3211  0.8029
  462SOL    HW111015   5.127   3.503   1.658  0.4285  0.8753  0.8321
  462SOL    HW211016   5.048   3.401   1.758  0.6747  1.2232  1.3839
  463SOL     OW11017   7.669   2.507   0.917 -0.4786  0.2828  0.3948
  463SOL    HW111018   7.725   2.493   0.998 -1.5629 -0.6594  0.9888
  463SOL    HW211019   7.639   2.419   0.881 -1.7676  0.7788  0.2153
  464SOL     OW11020   3.140   2.852   2.693  0.3116 -0.5459 -0.0539
  464SOL    HW111021   3.168   2.792   2.768 -2.5322 -0.6950  0.9511
  464SOL    HW211022   3.137   2.947   2.726  0.7972 -0.3851 -0.4776
  465SOL     OW11023   3.549   2.650   2.511  0.4018 -0.9589 -0.1420
  465SOL    HW111024   3.582   2.719   2.576 -1.0803 -0.9263  0.5972
  465SOL    HW211025   3.523   2.696   2.426 -0.7084 -0.5518  0.3948
  466SOL     OW11026   4.286   1.120   0.701 -0.2874  0.7919 -0.6283
  466SOL    HW111027   4.206   1.063   0.720  2.0449 -1.5775  2.6767
  466SOL    HW211028   4.285   1.200   0.762  1.3011 -0.7822  1.5257
  467SOL     OW11029   3.177   0.847   0.209  0.3816  1.3696  0.3706
  467SOL    HW111030   3.239   0.822   0.135 -0.7289  1.8763 -0.7696
  467SOL    HW211031   3.119   0.769   0.231 -0.0637  1.5584 -0.1055
  468SOL     OW11032   3.015   2.841   1.187  0.5078 -0.4046 -0.1467
  468SOL    HW111033   3.014   2.939   1.166  0.4517 -0.1303  1.0892
  468SOL    HW211034   3.102   2.802   1.158 -0.0365 -0.2923 -1.9569
  469SOL     OW11035   4.022   1.995   1.344  0.7172 -0.0154 -0.0736
  469SOL    HW111036   4.078   1.978   1.263 -0.6780  0.3118 -1.1299
  469SOL    HW211037   3.939   1.941   1.338 -0.2611  1.4200  0.2166
  470SOL     OW11038   4.231   4.150   0.019 -0.1086  0.1036 -0.6942
  470SOL    HW111039   4.219   4.235  -0.033 -0.1969  1.0899  0.8847
  470SOL    HW211040   4.155   4.138   0.082  0.6965 -0.3082  0.2258
  471SOL     OW11041   5.184   3.845   2.268  0.5565  0.1524 -0.2032
  471SOL    HW111042   5.224   3.867   2.179 -0.0587 -1.1853 -0.8341
  471SOL    HW211043   5.178   3.745   2.278 -0.7238  0.3111  0.7343
  472SOL     OW11044   3.519   1.040   0.715 -0.0578  0.0396  0.3145
  472SOL    HW111045   3.528   1.131   0.754  1.0780  0.8252 -1.7036
  472SOL    HW211046   3.560   0.973   0.777  0.8194  1.1391  0.9317
  473SOL     OW11047   3.549   0.858   0.313  0.6758 -0.6434  1.2886
  473SOL    HW111048   3.476   0.885   0.377  1.2624  0.4123  1.5242
  473SOL    HW211049   3.536   0.906   0.226 -0.1589 -2.1300  0.5682
  474SOL     OW11050   2.788   2.553   0.487  0.0555 -0.1178  0.5160
  474SOL    HW111051   2.769   2.486   0.416 -2.9247  1.2784 -0.0865
  474SOL    HW211052   2.747   2.524   0.573  1.3465 -0.4965  1.0186
  475SOL     OW11053   3.227   2.857   2.222  0.0695 -0.1360 -0.3094
  475SOL    HW111054   3.141   2.807   2.232  0.1081 -0.3324 -0.9076
  475SOL    HW211055   3.213   2.934   2.160  0.2675 -0.0250 -0.2155
  476SOL     OW11056   3.270   9.992   0.213  0.7955  0.7717  0.2713
  476SOL    HW111057   3.274  10.006   0.114  0.8878 -2.7043 -0.2806
  476SOL    HW211058   3.355   9.950   0.244 -0.8658 -2.1424  1.0781
  477SOL     OW11059   3.477   4.644   2.863  0.5485 -0.0111  0.4175
  477SOL    HW111060   3.496   4.556   2.818 -1.3035 -0.2494  0.0434
  477SOL    HW211061   3.396   4.634   2.921  1.1222  1.1128  1.4026
  478SOL     OW11062   3.932   2.714   2.213 -0.3156 -0.1942 -0.8371
  478SOL    HW111063   4.006   2.761   2.163 -0.8581  0.1229 -1.3503
  478SOL    HW211064   3.878   2.782   2.263 -0.4048 -0.3993 -0.6571
  479SOL     OW11065   3.043   2.075   1.513  0.6951 -0.1168 -0.2411
  479SOL    HW111066   3.143   2.070   1.513  0.7279  0.5406 -0.3345
  479SOL    HW211067   3.012   2.126   1.594  0.4971  0.9208 -0.9621
  480SOL     OW11068   5.103   3.598   2.378  0.0094  0.6719 -0.1744
  480SOL    HW111069   5.040   3.525   2.349  0.6578 -0.9234  2.2622
  480SOL    HW211070   5.122   3.587   2.475 -0.0543  4.2747  0.2889
  481SOL     OW11071   3.303   0.998   0.374 -0.0583  0.4570  0.1888
  481SOL    HW111072   3.245   0.943   0.313 -0.4223  1.0586 -0.0146
  481SOL    HW211073   3.297   1.094   0.347 -0.0847  0.7042  1.0783
  482SOL     OW11074   2.952   2.939   1.687  0.3484  0.0383  0.1411
  482SOL    HW111075   2.921   2.901   1.600 -1.7552 -0.5604  1.1258
  482SOL    HW211076   2.879   2.996   1.727  0.9968 -0.3040  1.8730
  483SOL     OW11077   3.206   1.694   0.446  0.0290  0.3053 -0.1816
  483SOL    HW111078   3.136   1.652   0.504 -0.9547  0.8466 -0.9645
  483SOL    HW211079   3.285   1.718   0.502 -0.0515 -1.0900  0.5630
  484SOL     OW11080   2.794   2.377   0.282  0.2921  0.0302  0.2621
  484SOL    HW111081   2.737   2.349   0.205 -2.0299 -0.8518  2.2388
  484SOL    HW211082   2.890   2.356   0.263 -0.1967  0.2145 -2.5271
  485SOL     OW11083   3.402   9.524   2.763  0.4491 -0.3833  0.1080
  485SOL    HW111084   3.440   9.534   2.671  0.1088  1.3494  0.1498
  485SOL    HW211085   3.382   9.427   2.779  0.8114 -0.7574 -1.5129
  486SOL     OW11086   3.089   1.899   2.168  0.2358 -0.0799  0.1855
  486SOL    HW111087   3.133   1.932   2.252 -0.2388 -1.3839  0.9507
  486SOL    HW211088   3.047   1.810   2.184 -1.6397  0.5767 -0.8861
  487SOL     OW11089   3.240   3.741   2.553 -0.4901 -0.1063  0.4128
  487SOL    HW111090   3.147   3.704   2.555 -0.3630 -0.4984 -0.5485
  487SOL    HW211091   3.273   3.742   2.459  0.1549  0.8551  0.6382
  488SOL     OW11092   4.297   0.865   0.883 -0.7652 -0.2049  0.0315
  488SOL    HW111093   4.340   0.787   0.838 -0.5420  0.0100 -0.1315
  488SOL    HW211094   4.363   0.940   0.889 -1.3967  0.4521 -1.0588
  489SOL     OW11095   0.872   7.998   2.774 -0.7459  0.5483 -0.1567
  489SOL    HW111096   0.913   7.949   2.851  1.1648 -0.2270 -1.6264
  489SOL    HW211097   0.824   7.933   2.715  0.9891  0.5222 -1.5988
  490SOL     OW11098   3.546   2.132   2.482  0.5564  0.4260  0.3366
  490SOL    HW111099   3.636   2.128   2.438 -0.7660  2.2277 -2.7521
  490SOL    HW211100   3.544   2.205   2.550  1.8945 -0.7251  1.6342
  491SOL     OW11101   3.469   2.383   1.713 -0.4039  0.1310  0.0995
  491SOL    HW111102   3.534   2.311   1.736  0.1382  0.5371 -0.1266
  491SOL    HW211103   3.479   2.406   1.616  0.0605  1.1289  0.3773
  492SOL     OW11104   3.516   3.725   1.185  0.6627  0.2753  0.1032
  492SOL    HW111105   3.608   3.748   1.155  0.5960 -1.2670 -1.4282
  492SOL    HW211106   3.520   3.676   1.272  1.0859  2.3419  1.2702
  493SOL     OW11107   3.071   3.761   1.087 -0.3400 -0.3567  0.3285
  493SOL    HW111108   3.093   3.693   1.157 -2.1851 -1.1073  0.2030
  493SOL    HW211109   3.131   3.841   1.098  1.2477 -1.6230  1.0123
  494SOL     OW11110   3.085   1.657   1.229 -0.2480 -0.2527  0.1184
  494SOL    HW111111   3.182   1.681   1.226  0.1759 -2.0196 -3.0167
  494SOL    HW211112   3.073   1.571   1.279  0.4065 -2.2639 -3.0517
  495SOL     OW11113   2.979   6.073   0.577  0.2705  0.2288  0.1997
  495SOL    HW111114   2.944   6.156   0.535  0.8203  0.3268 -0.0784
  495SOL    HW211115   2.921   6.047   0.654  0.1188  0.8901  0.3098
  496SOL     OW11116   3.604   9.324   1.058  0.1175  0.2092 -0.1897
  496SOL    HW111117   3.672   9.317   1.131 -1.8972 -0.7863  1.6257
  496SOL    HW211118   3.520   9.277   1.086  0.2825 -2.8675 -4.3002
  10.00000  10.00000   2.87600
