chitosan Film  in water:acetic acid 2%
11450
    1CHTO  H203    1   4.592   7.154   0.106 -1.7407 -1.1377 -0.9742
    1CHTO   O82    2   4.575   7.074   0.151 -0.0867 -0.8861  0.1131
    1CHTO  C123    3   4.694   7.014   0.195  0.6156  0.3075 -0.4098
    1CHTO  H227    4   4.712   7.054   0.296 -4.5069  0.1860  0.6952
    1CHTO   O77    5   4.643   6.876   0.208  0.0632 -0.1561 -0.1196
    1CHTO  C118    6   4.728   6.785   0.283  0.6307 -0.2607  0.2797
    1CHTO  H222    7   4.743   6.830   0.382 -0.6556  0.1737  0.2791
    1CHTO  C125    8   4.642   6.656   0.296 -0.5917  0.6581 -0.0514
    1CHTO   O84    9   4.528   6.685   0.373  0.4359 -0.3092  0.5092
    1CHTO  H205   10   4.512   6.608   0.423  2.7843 -1.1028  0.0697
    1CHTO  C114   11   4.867   6.773   0.211 -0.2395 -0.4457 -0.0178
    1CHTO  H218   12   4.855   6.726   0.113 -1.3856 -0.9553  0.3612
    1CHTO  C116   13   4.929   6.912   0.177 -0.2452  0.0618  0.4188
    1CHTO  H220   14   4.962   6.961   0.271 -3.6816  2.0166  0.6753
    1CHTO   O79   15   5.044   6.895   0.098 -0.0326  0.1540  0.3015
    1CHTO  H201   16   5.008   6.874   0.013 -3.1328 -1.8668  2.0149
    1CHTO  C120   17   4.819   7.004   0.104  0.2483  0.2915 -0.7153
    1CHTO  H224   18   4.799   6.962   0.003  0.1563  1.9024 -1.3969
    1CHTO   N21   19   4.876   7.134   0.085 -0.5218 -0.1690  0.1976
    1CHTO  H211   20   4.935   7.152  -0.003  0.6466 -0.6780  0.8564
    1CHTO  H212   21   4.810   7.215   0.114 -1.2083 -0.7646  0.3097
    1CHTO   O75   22   4.942   6.692   0.308 -0.0672  0.6802  0.3476
    1CHTO  C112   23   4.988   6.547   0.250 -0.5837  0.3573 -0.3155
    1CHTO  H216   24   4.975   6.548   0.140  0.6862  0.8336 -0.4608
    1CHTO   O73   25   4.901   6.454   0.316  0.1204  0.0352  0.0151
    1CHTO  C113   26   4.927   6.318   0.293  0.4255 -0.2619  0.5970
    1CHTO  H217   27   4.913   6.297   0.185  0.1945 -0.2927  0.6331
    1CHTO  C124   28   4.822   6.244   0.370  0.0764  0.6991 -0.0500
    1CHTO   O83   29   4.788   6.128   0.301  0.1424  0.3732  0.6177
    1CHTO  H204   30   4.694   6.124   0.301  0.1506 -1.2556 -1.5668
    1CHTO  C109   31   5.069   6.282   0.340  0.3940 -0.3255 -0.3266
    1CHTO  H213   32   5.079   6.300   0.448  1.1995  0.7755 -0.5736
    1CHTO  C110   33   5.167   6.371   0.257  0.1488  0.1690 -0.2755
    1CHTO  H214   34   5.164   6.341   0.152 -1.3433 -0.0808 -0.1787
    1CHTO   O78   35   5.302   6.338   0.295 -0.5508  0.6240 -0.0197
    1CHTO  H200   36   5.326   6.255   0.258 -0.0540  0.0777  1.5039
    1CHTO  C111   37   5.137   6.524   0.279  0.4539  0.0380 -0.0097
    1CHTO  H215   38   5.161   6.549   0.383  1.1877 -2.3015  0.4110
    1CHTO   N19   39   5.215   6.620   0.194  0.5611  0.2912 -0.4798
    1CHTO  H207   40   5.184   6.723   0.193  0.9780  0.4117 -1.0597
    1CHTO  H208   41   5.218   6.588   0.091 -0.2255 -0.8255 -0.1678
    1CHTO   O74   42   5.100   6.148   0.312 -0.2983  0.3913  0.2924
    1CHTO  C115   43   5.166   6.066   0.434 -0.4946 -0.3438 -0.8028
    1CHTO  H219   44   5.182   6.126   0.523 -0.7454 -1.3741 -0.0514
    1CHTO   O76   45   5.084   5.949   0.477  0.3111  0.4359 -0.3713
    1CHTO  C122   46   5.059   5.848   0.377 -0.1876  0.2517  0.0501
    1CHTO  H226   47   4.962   5.879   0.337 -0.6417  0.3938  1.2293
    1CHTO  C126   48   5.025   5.722   0.469 -0.0193 -0.6354 -0.1215
    1CHTO   O85   49   5.017   5.604   0.395 -0.1322  0.0102  0.1974
    1CHTO  H206   50   5.021   5.626   0.304 -0.1664 -0.8861 -0.0294
    1CHTO  C121   51   5.171   5.830   0.270  0.0942  0.1253 -0.1169
    1CHTO  H225   52   5.181   5.720   0.257 -0.6581  0.1004 -0.4535
    1CHTO   O81   53   5.132   5.905   0.152  0.0544 -0.1619  0.9103
    1CHTO  H202   54   5.204   5.916   0.094  0.3131 -0.8033  1.1023
    1CHTO  C119   55   5.307   5.880   0.322  0.5583  0.0204  0.3660
    1CHTO  H223   56   5.328   5.799   0.392  0.4453 -2.2492 -2.1494
    1CHTO  C117   57   5.311   6.021   0.392 -0.1299  0.7096 -0.3000
    1CHTO  H221   58   5.343   6.098   0.322  1.2888  0.2123 -0.2200
    1CHTO   N20   59   5.409   6.029   0.507  0.1167 -0.5592 -0.0213
    1CHTO  H209   60   5.514   6.015   0.483 -0.1871 -0.8347 -1.1982
    1CHTO  H210   61   5.377   5.985   0.600 -0.4309  0.9663  0.5325
    1CHTO   O80   62   5.415   5.856   0.216 -1.0574  0.1257  0.5380
    1CHTO  C103   63   5.511   5.734   0.237 -0.0058  0.5737 -0.3964
    1CHTO  H190   64   5.548   5.718   0.338  2.6068 -0.5317 -1.4765
    1CHTO  C101   65   5.458   5.597   0.181  0.3481 -0.1589 -0.4779
    1CHTO  H188   66   5.429   5.611   0.077  0.8555  0.6087 -0.5217
    1CHTO   O68   67   5.333   5.557   0.258 -0.2160 -0.4280 -0.0099
    1CHTO  H168   68   5.301   5.473   0.229 -0.0184 -0.8902  1.1203
    1CHTO   C99   69   5.579   5.483   0.182 -0.0059  0.7592  0.1351
    1CHTO  H186   70   5.608   5.456   0.285  1.7407  1.2996 -0.2038
    1CHTO   N17   71   5.542   5.346   0.127  0.6233  0.5119 -0.0921
    1CHTO  H174   72   5.633   5.296   0.095 -0.5048 -2.3587  1.0329
    1CHTO  H175   73   5.474   5.285   0.184  0.0936  1.2701  0.0816
    1CHTO   C97   74   5.707   5.540   0.119  0.3851 -0.2299 -0.3006
    1CHTO  H184   75   5.700   5.537   0.009 -0.3527  1.0342 -0.2952
    1CHTO   O64   76   5.745   5.671   0.169 -0.0683  0.2000  0.1710
    1CHTO  C104   77   5.639   5.765   0.144  0.2747  0.3286  0.0813
    1CHTO  H191   78   5.610   5.770   0.039 -0.5138  1.0891  0.3244
    1CHTO  C108   79   5.706   5.898   0.170  0.2139 -0.8372  0.0186
    1CHTO   O71   80   5.808   5.927   0.076 -0.5891 -0.0710  0.4366
    1CHTO  H171   81   5.806   6.021   0.070  0.5814  0.0314  1.4552
    1CHTO   O62   82   5.828   5.467   0.158 -0.6454  0.7814  0.1016
    1CHTO   C91   83   5.896   5.405   0.047  0.5692 -0.3569 -0.8533
    1CHTO  H178   84   5.831   5.391  -0.039 -1.5427  1.6756  0.3615
    1CHTO   C92   85   5.949   5.266   0.107  0.0730  0.4051 -0.0247
    1CHTO  H179   86   6.001   5.283   0.202 -0.4006  0.1253  0.2886
    1CHTO   O66   87   5.834   5.180   0.138 -0.8073 -0.1032  0.6343
    1CHTO  H166   88   5.787   5.225   0.206 -0.4312  1.0162  0.1724
    1CHTO   C93   89   6.048   5.194   0.005  1.2825 -0.0919  0.2369
    1CHTO  H180   90   5.988   5.159  -0.080  1.6361  3.2008 -1.4603
    1CHTO   N16   91   6.113   5.073   0.062  0.2147  0.6387  0.3783
    1CHTO  H172   92   6.187   5.026  -0.001 -0.4489  2.5907 -1.9735
    1CHTO  H173   93   6.145   5.097   0.162 -1.2202  0.5405  0.8744
    1CHTO   C94   94   6.158   5.290  -0.050  0.3886 -0.0038 -0.2072
    1CHTO  H181   95   6.227   5.322   0.028 -0.3217 -0.8533  0.7777
    1CHTO   O61   96   6.113   5.419  -0.086 -0.2096 -0.8623 -0.1968
    1CHTO   C95   97   6.022   5.494  -0.000 -0.9442  0.5840  0.0507
    1CHTO  H182   98   6.072   5.521   0.093  0.8439 -0.7161 -0.4859
    1CHTO  C106   99   5.995   5.622  -0.074  0.5167 -0.1790 -0.2907
    1CHTO   O69  100   6.108   5.709  -0.088  0.1617  0.2959  0.2486
    1CHTO  H169  101   6.170   5.686  -0.155  0.2534  0.7659  0.1687
    1CHTO   O63  102   6.223   5.235  -0.181  0.0779 -0.0840 -0.1602
    1CHTO   C96  103   6.381   5.280  -0.195 -0.4144 -0.0200  0.1548
    1CHTO  H183  104   6.393   5.361  -0.123  1.2597 -0.6447  0.6057
    1CHTO   C98  105   6.429   5.344  -0.330 -0.1111 -0.5346  0.1054
    1CHTO  H185  106   6.361   5.426  -0.355  1.2262  1.0171  1.4129
    1CHTO   O67  107   6.558   5.412  -0.309  0.2590 -0.1070  0.2876
    1CHTO  H167  108   6.555   5.482  -0.247  0.0447  0.6351 -0.5430
    1CHTO  C102  109   6.447   5.242  -0.446  0.4988 -0.6115  0.3854
    1CHTO  H189  110   6.499   5.301  -0.523 -0.5646  0.7510  0.6828
    1CHTO   N18  111   6.316   5.198  -0.498  0.3731  0.2134  0.0458
    1CHTO  H176  112   6.258   5.271  -0.554 -1.4493 -1.5249 -0.3806
    1CHTO  H177  113   6.318   5.104  -0.551  0.7610 -0.4989  1.3290
    1CHTO  C105  114   6.534   5.123  -0.396 -0.0249  0.4683  0.0902
    1CHTO  H192  115   6.522   5.042  -0.467 -0.1231  1.1236 -0.6489
    1CHTO   O65  116   6.502   5.064  -0.270 -0.2715 -0.3152  0.4256
    1CHTO  C100  117   6.473   5.152  -0.155 -0.0965 -0.2163  0.1326
    1CHTO  H187  118   6.415   5.086  -0.089 -0.5852  1.2149  1.1507
    1CHTO  C107  119   6.588   5.207  -0.069 -0.0644 -0.9888 -0.3419
    1CHTO   O70  120   6.533   5.265   0.049  0.1556  0.3685  0.0985
    1CHTO  H170  121   6.610   5.300   0.090  0.4862 -0.1140 -0.1003
    1CHTO   O57  122   6.679   5.179  -0.409 -0.1382  0.9921 -0.0149
    1CHTO   C85  123   6.779   5.088  -0.466 -0.0746  0.5758 -0.4071
    1CHTO  H157  124   6.734   5.020  -0.541  1.2937 -0.6910 -0.0956
    1CHTO   C83  125   6.825   4.992  -0.353  0.1256  0.5706 -0.4859
    1CHTO  H155  126   6.745   4.918  -0.343  2.4353 -1.9389  0.1706
    1CHTO   O56  127   6.835   5.065  -0.232  0.7494  0.1680 -0.2350
    1CHTO  H135  128   6.903   5.128  -0.219  3.7285 -2.7627 -1.0619
    1CHTO   C81  129   6.954   4.914  -0.394  0.7195 -0.4186 -0.2410
    1CHTO  H153  130   6.939   4.864  -0.489  0.4226  0.1102 -0.4744
    1CHTO   N14  131   6.990   4.807  -0.295 -0.1040  0.2619 -0.4050
    1CHTO  H141  132   7.034   4.724  -0.346  1.2586  0.2562  0.7410
    1CHTO  H142  133   6.902   4.774  -0.243  0.0685 -0.0391 -0.3058
    1CHTO   C79  134   7.070   5.019  -0.418 -0.3576  0.0917  0.8270
    1CHTO  H151  135   7.157   4.965  -0.455 -1.0514 -0.7358  0.3644
    1CHTO   O52  136   7.036   5.103  -0.531  0.3805 -0.0034  0.4828
    1CHTO   C86  137   6.904   5.161  -0.522 -0.0153 -0.3491  0.3173
    1CHTO  H158  138   6.929   5.251  -0.461  1.5561 -0.1723 -0.5644
    1CHTO   C90  139   6.853   5.217  -0.662 -0.4150  0.5227  0.0694
    1CHTO   O60  140   6.845   5.107  -0.760 -0.1644 -0.2629 -0.2927
    1CHTO  H138  141   6.928   5.095  -0.803  0.1272  2.0701 -0.4661
    1CHTO   O50  142   7.104   5.096  -0.302  0.0551  0.5680  0.4538
    1CHTO   C73  143   7.229   5.165  -0.277  0.1943  0.5199 -0.5496
    1CHTO  H145  144   7.280   5.195  -0.370 -0.3675  0.5818 -0.8410
    1CHTO   C74  145   7.316   5.072  -0.195 -0.1224  0.0361 -0.4054
    1CHTO  H146  146   7.336   4.978  -0.249  0.1129 -0.4312  0.4968
    1CHTO   O54  147   7.451   5.142  -0.190  0.1211 -0.2379  0.2046
    1CHTO  H133  148   7.440   5.209  -0.124 -2.2376  0.2301 -0.5969
    1CHTO   C75  149   7.258   5.047  -0.056 -0.5669  0.1181 -0.5882
    1CHTO  H147  150   7.166   4.987  -0.066  0.2116 -0.9084 -1.7243
    1CHTO   N13  151   7.345   4.960   0.032 -0.2696  0.0470  0.0472
    1CHTO  H139  152   7.442   5.003   0.053 -0.2031  0.0835 -0.3407
    1CHTO  H140  153   7.290   4.934   0.122  0.1988  0.1854  0.3753
    1CHTO   C76  154   7.222   5.177   0.027 -0.2013 -0.3921 -0.0474
    1CHTO  H148  155   7.315   5.231   0.048 -0.9415  1.1401 -0.5924
    1CHTO   O49  156   7.133   5.260  -0.061  0.0938  0.6346  0.0770
    1CHTO   C77  157   7.198   5.291  -0.191 -0.0397  0.4192 -0.5731
    1CHTO  H149  158   7.288   5.352  -0.178 -0.5726  1.1540 -0.3040
    1CHTO   C88  159   7.114   5.390  -0.265  0.1737  0.1253 -0.4812
    1CHTO   O58  160   7.118   5.517  -0.205  0.3695 -0.4733 -0.0934
    1CHTO  H136  161   7.031   5.550  -0.193  0.3736 -0.4248 -0.2028
    1CHTO   O51  162   7.138   5.145   0.161  0.0029 -0.1713  0.1202
    1CHTO   C78  163   7.095   5.271   0.260 -0.1474 -0.4085 -0.0066
    1CHTO  H150  164   7.077   5.364   0.202  2.5216  0.7392  0.9634
    1CHTO   C80  165   7.215   5.293   0.351 -0.3821 -0.2760 -0.5218
    1CHTO  H152  166   7.227   5.197   0.404  0.5893  0.1381  0.0098
    1CHTO   O55  167   7.329   5.338   0.280  0.2401 -0.2460  0.1070
    1CHTO  H134  168   7.402   5.282   0.299  0.1718  0.0379  1.2592
    1CHTO   C84  169   7.174   5.398   0.467  0.7113 -0.0881  0.8936
    1CHTO  H156  170   7.178   5.498   0.422 -2.2866 -0.9418 -1.4146
    1CHTO   N15  171   7.270   5.399   0.585  0.3010 -0.7973  0.0182
    1CHTO  H143  172   7.365   5.411   0.538 -0.6205 -0.5120 -1.8321
    1CHTO  H144  173   7.270   5.307   0.640 -0.5873  0.2601  1.8196
    1CHTO   C87  174   7.027   5.383   0.523  0.3512  0.6100  0.1612
    1CHTO  H159  175   7.024   5.300   0.595 -0.8939  0.9654  0.5401
    1CHTO   O53  176   6.931   5.355   0.410  0.1706 -0.1470 -0.6009
    1CHTO   C82  177   6.960   5.237   0.331  0.4686  0.9355 -0.1530
    1CHTO  H154  178   6.958   5.150   0.397  0.5788  0.3123 -0.9549
    1CHTO   C89  179   6.857   5.213   0.228  0.5676  0.1778 -0.2151
    1CHTO   O59  180   6.852   5.073   0.182 -0.1466  0.0241 -0.6649
    1CHTO  H137  181   6.887   5.007   0.239  0.8301  0.5459 -0.6528
    1CHTO   O45  182   6.978   5.539   0.617 -0.2133 -0.4533 -0.1350
    1CHTO   C67  183   6.939   5.637   0.522 -0.1999  0.3813  0.2559
    1CHTO  H124  184   6.999   5.629   0.431  1.6743  0.8748  1.4261
    1CHTO   C65  185   6.784   5.621   0.496  0.8739  1.2853 -0.0001
    1CHTO  H122  186   6.767   5.514   0.482 -1.3103  1.4125  1.5574
    1CHTO   O44  187   6.738   5.702   0.380  0.4370 -0.1602 -0.7580
    1CHTO  H102  188   6.645   5.716   0.381  0.4189 -0.2515 -1.0633
    1CHTO   C63  189   6.704   5.650   0.627  0.1654 -0.2876  0.0267
    1CHTO  H120  190   6.746   5.587   0.705  1.0612 -0.5643 -0.6700
    1CHTO   N11  191   6.559   5.616   0.631  0.2096 -0.5186  0.3629
    1CHTO  H108  192   6.537   5.512   0.614  2.5399 -0.9751  0.0524
    1CHTO  H109  193   6.508   5.674   0.557  0.3988 -0.3098  0.3950
    1CHTO   C61  194   6.732   5.798   0.671 -0.0430  0.3642  0.0747
    1CHTO  H118  195   6.694   5.812   0.773  3.0669  0.0032  1.3298
    1CHTO   O40  196   6.871   5.824   0.681 -0.4565  0.1393  0.7982
    1CHTO   C68  197   6.970   5.779   0.584  0.0139  0.5995 -0.4031
    1CHTO  H125  198   7.062   5.760   0.642 -0.6280 -0.6650  0.2232
    1CHTO   C72  199   7.005   5.890   0.477  0.1200  0.0178  0.3813
    1CHTO   O48  200   7.091   6.001   0.523  0.0837 -0.4063 -0.4196
    1CHTO  H105  201   7.059   6.033   0.605  2.6174 -1.5481  1.0529
    1CHTO   O38  202   6.673   5.897   0.582 -0.0694  0.3614  0.3063
    1CHTO   C55  203   6.607   6.015   0.634  0.0104  0.8343 -0.0680
    1CHTO  H112  204   6.619   6.035   0.742 -4.4725 -1.1008  0.8791
    1CHTO   C56  205   6.453   6.000   0.601  0.4600  0.2328 -0.2414
    1CHTO  H113  206   6.451   5.929   0.517  2.7333 -1.8051  1.3634
    1CHTO   O42  207   6.380   5.933   0.707  0.4757 -0.1223  0.2943
    1CHTO  H100  208   6.415   5.847   0.722  0.4046  0.1631  2.3124
    1CHTO   C57  209   6.382   6.140   0.569 -0.0411 -0.2694 -0.1607
    1CHTO  H114  210   6.366   6.182   0.668  0.7334  2.1964 -1.0401
    1CHTO   N10  211   6.243   6.121   0.514 -0.1037 -0.4695 -0.0234
    1CHTO  H106  212   6.173   6.135   0.596  0.1855  0.9951 -0.0184
    1CHTO  H107  213   6.226   6.194   0.437  0.4655 -1.1637 -0.8146
    1CHTO   C58  214   6.476   6.231   0.486  0.4443  0.2721  0.4919
    1CHTO  H115  215   6.492   6.180   0.388  0.1895 -1.2137  1.2069
    1CHTO   O37  216   6.598   6.249   0.552 -0.5406  0.8284  0.1666
    1CHTO   C59  217   6.677   6.131   0.553  0.1459  0.7019 -0.6050
    1CHTO  H116  218   6.706   6.103   0.452  1.2861 -0.4936  0.0273
    1CHTO   C70  219   6.804   6.170   0.631 -0.0706  0.0104  0.1258
    1CHTO   O46  220   6.890   6.256   0.554  0.1867  0.0627  0.3183
    1CHTO  H103  221   6.955   6.298   0.607  0.2923 -0.1413  0.3546
    1CHTO   O39  222   6.409   6.370   0.458  0.0685  0.5451 -0.2311
    1CHTO   C60  223   6.417   6.474   0.560 -0.5188 -0.9610  0.4695
    1CHTO  H117  224   6.448   6.432   0.655  0.9282  0.2212  0.5361
    1CHTO   C62  225   6.529   6.571   0.513  0.1076  0.4398 -0.2685
    1CHTO  H119  226   6.622   6.513   0.535 -1.4146 -1.6661  0.8707
    1CHTO   O43  227   6.512   6.602   0.374 -0.2977 -0.6157 -0.1659
    1CHTO  H101  228   6.511   6.520   0.328  0.0303  0.4957 -2.2021
    1CHTO   C66  229   6.538   6.697   0.612  0.1546  0.0712  0.0131
    1CHTO  H123  230   6.545   6.659   0.714 -0.6923 -1.7213 -0.5817
    1CHTO   N12  231   6.652   6.793   0.585 -0.1501  0.1700  0.2673
    1CHTO  H110  232   6.736   6.731   0.558 -1.1875 -0.9779 -0.3576
    1CHTO  H111  233   6.669   6.844   0.679  0.9398 -1.5878  1.0600
    1CHTO   C69  234   6.403   6.774   0.604 -0.4014 -0.3132 -0.3326
    1CHTO  H126  235   6.382   6.796   0.497  0.3357 -0.7913 -0.5821
    1CHTO   O41  236   6.294   6.665   0.666  0.6676  0.1406 -0.2905
    1CHTO   C64  237   6.278   6.538   0.579  0.0068  0.1642 -0.3831
    1CHTO  H121  238   6.244   6.565   0.477  0.1683 -1.1836 -0.7934
    1CHTO   C71  239   6.175   6.449   0.649 -0.3059 -0.0688 -0.4422
    1CHTO   O47  240   6.041   6.498   0.630 -0.4831 -0.0145  0.4918
    1CHTO  H104  241   6.025   6.582   0.669  0.6000  0.6629 -0.4832
    1CHTO   O34  242   6.379   6.898   0.693 -0.2924 -0.3554  0.6242
    1CHTO   C49  243   6.296   7.023   0.699 -0.1646 -0.5778 -0.2522
    1CHTO   H91  244   6.206   7.002   0.757 -0.1095 -1.3722 -0.4347
    1CHTO   C47  245   6.267   7.075   0.558  0.8262  0.1632  0.2645
    1CHTO   H89  246   6.195   7.158   0.571 -0.0116 -0.4109 -0.6851
    1CHTO   O33  247   6.208   6.967   0.482 -0.1919 -0.0109 -0.5447
    1CHTO   H70  248   6.137   6.926   0.528 -1.5757  0.4852 -2.1712
    1CHTO   C45  249   6.403   7.123   0.491 -0.0245  0.3707  0.0708
    1CHTO   H87  250   6.472   7.038   0.500  0.1015  0.2679 -1.6622
    1CHTO    N8  251   6.391   7.162   0.345  0.3176 -0.0389  0.0422
    1CHTO   H75  252   6.404   7.268   0.332  1.4721  0.2549  3.1774
    1CHTO   H76  253   6.287   7.149   0.319  0.2742 -3.1831  1.5113
    1CHTO   C43  254   6.475   7.231   0.585 -0.3566  0.4139  0.2597
    1CHTO   H85  255   6.573   7.234   0.539  1.3715 -0.7431  3.7087
    1CHTO   O29  256   6.486   7.192   0.721  0.3541  0.8071  0.0345
    1CHTO   C50  257   6.371   7.127   0.784  0.0707 -0.3307  0.3915
    1CHTO   H92  258   6.411   7.067   0.867  2.1223 -1.0241 -1.0514
    1CHTO   C54  259   6.276   7.227   0.845  0.1693  0.2180 -0.3287
    1CHTO   O36  260   6.342   7.312   0.943 -1.0726  0.2919  0.2915
    1CHTO   H72  261   6.284   7.367   0.992 -0.1948  0.7217  0.8681
    1CHTO   O27  262   6.425   7.361   0.569 -0.0651 -0.1315  0.1183
    1CHTO   C37  263   6.436   7.507   0.571  0.4222  0.0463 -0.5429
    1CHTO   H79  264   6.430   7.535   0.677 -0.8279  0.4389 -0.7084
    1CHTO   C38  265   6.578   7.562   0.524 -0.3172  0.8218 -0.1272
    1CHTO   H80  266   6.584   7.545   0.416 -0.5389 -2.1902  0.2923
    1CHTO   O31  267   6.672   7.483   0.607 -0.0036  0.2609  0.2026
    1CHTO   H68  268   6.735   7.448   0.547  0.5937  0.1822  0.8572
    1CHTO   C39  269   6.589   7.717   0.549 -0.5932  0.0469  0.4079
    1CHTO   H81  270   6.570   7.736   0.655 -2.8641 -0.6406  0.1599
    1CHTO    N7  271   6.713   7.781   0.504 -0.1953  0.4319 -0.8231
    1CHTO   H73  272   6.717   7.881   0.545 -0.2354 -0.6320  1.8740
    1CHTO   H74  273   6.797   7.724   0.540  0.5057  1.8368 -0.1945
    1CHTO   C40  274   6.461   7.784   0.483 -0.4174 -0.5196 -0.6389
    1CHTO   H82  275   6.474   7.790   0.375 -0.9816 -1.6370 -0.7711
    1CHTO   O26  276   6.340   7.727   0.517 -0.3699  0.2020  0.3782
    1CHTO   C41  277   6.329   7.584   0.487  0.0653 -0.0488 -0.4683
    1CHTO   H83  278   6.332   7.564   0.379 -0.0641  1.8813 -0.8517
    1CHTO   C52  279   6.188   7.543   0.543 -0.4120  0.0053 -0.3084
    1CHTO   O35  280   6.132   7.429   0.503 -0.3099  0.2740  0.0445
    1CHTO   H71  281   6.171   7.392   0.426  1.1684  0.5045  0.6798
    1CHTO   O28  282   6.433   7.909   0.536  0.3429 -0.1623  0.1669
    1CHTO   C42  283   6.442   8.029   0.449 -0.2654 -0.0093 -0.1842
    1CHTO   H84  284   6.511   8.010   0.366 -0.0292 -0.5693  0.1432
    1CHTO   C44  285   6.498   8.154   0.531  0.1797  0.5805  0.0507
    1CHTO   H86  286   6.433   8.172   0.617  2.5386 -2.6864  2.6242
    1CHTO   O32  287   6.626   8.113   0.579 -0.2543 -0.2235  0.4324
    1CHTO   H69  288   6.620   8.033   0.627 -1.3146 -0.4804 -0.1102
    1CHTO   C48  289   6.498   8.292   0.446  0.7507 -0.0809 -0.4253
    1CHTO   H90  290   6.564   8.278   0.360  4.0347 -0.4526  2.0844
    1CHTO    N9  291   6.554   8.414   0.526 -0.1721 -0.1533  0.2477
    1CHTO   H77  292   6.655   8.441   0.499  0.7792 -0.8728  2.8959
    1CHTO   H78  293   6.540   8.411   0.633  0.9048  1.8796  0.4793
    1CHTO   C51  294   6.355   8.309   0.385  0.3493 -0.1993 -0.0831
    1CHTO   H93  295   6.295   8.331   0.473  0.3915  3.1572 -0.8221
    1CHTO   O30  296   6.320   8.196   0.312 -0.1226 -0.0536  0.2698
    1CHTO   C46  297   6.308   8.066   0.381  1.0848 -0.0304  0.2558
    1CHTO   H88  298   6.231   8.080   0.458 -0.0429 -2.6725 -0.3350
    1CHTO   C53  299   6.260   7.970   0.272 -0.2878 -0.0960 -0.0287
    1CHTO   O72  300   6.120   7.980   0.261 -0.0633  0.1075 -0.1758
    1CHTO  H199  301   6.084   7.899   0.229 -0.2914 -0.0475  0.4512
    1CHTO   O22  302   6.348   8.419   0.291  0.0565 -0.1226  0.2243
    1CHTO   C31  303   6.323   8.427   0.144  0.6007  0.0146 -0.7047
    1CHTO   H59  304   6.318   8.537   0.125  1.0562  0.4875  1.6562
    1CHTO   C29  305   6.441   8.379   0.058  0.0038  0.7033 -0.3420
    1CHTO   H57  306   6.464   8.278   0.095  0.1711 -0.3458 -3.1563
    1CHTO   O21  307   6.555   8.462   0.089 -0.4882  0.0724  0.3348
    1CHTO   H37  308   6.628   8.416   0.125  0.6048 -0.3322 -2.3521
    1CHTO   C27  309   6.403   8.374  -0.093 -0.2097  0.5741 -0.1731
    1CHTO   H55  310   6.390   8.476  -0.131  0.4522  0.8717  0.3790
    1CHTO    N5  311   6.516   8.306  -0.164  0.2391  0.3064 -0.4070
    1CHTO   H43  312   6.525   8.204  -0.131 -0.1542  0.1404 -0.8113
    1CHTO   H44  313   6.603   8.369  -0.153  0.8025 -0.9258  2.4436
    1CHTO   C25  314   6.275   8.298  -0.109 -0.3780  0.3903 -1.0707
    1CHTO   H53  315   6.287   8.200  -0.059 -1.7963  0.2660 -0.9564
    1CHTO   O17  316   6.168   8.367  -0.032 -0.0424  0.7709 -0.4707
    1CHTO   C32  317   6.189   8.368   0.110  0.1680 -0.5034 -0.9082
    1CHTO   H60  318   6.183   8.264   0.141 -2.2068 -0.2858 -0.5345
    1CHTO   C36  319   6.080   8.456   0.176  0.1060  0.4309 -0.2822
    1CHTO   O25  320   5.943   8.406   0.145  0.1608  0.4934  0.1631
    1CHTO   H40  321   5.909   8.463   0.079  2.0870 -0.0050 -1.2876
    1CHTO   O15  322   6.236   8.276  -0.245  0.1348  0.6051  0.0671
    1CHTO   C19  323   6.168   8.164  -0.310  0.3480  0.1191 -0.1237
    1CHTO   H47  324   6.194   8.083  -0.240 -0.0106  0.1539  0.0496
    1CHTO   C20  325   6.011   8.178  -0.311 -0.1798 -0.2332 -0.4317
    1CHTO   H48  326   5.984   8.272  -0.361  0.9074 -0.7466 -2.0350
    1CHTO   O19  327   5.967   8.190  -0.176  0.5786  0.2979 -0.0733
    1CHTO   H35  328   5.986   8.274  -0.137 -2.0463  1.0588 -0.3598
    1CHTO   C21  329   5.935   8.060  -0.384  0.0717 -0.1677  0.2859
    1CHTO   H49  330   5.932   7.976  -0.316 -0.3167  0.2208  0.7536
    1CHTO    N4  331   5.791   8.093  -0.405  0.4682 -0.0735  0.2243
    1CHTO   H41  332   5.751   7.996  -0.430  0.4693 -0.2006  0.7012
    1CHTO   H42  333   5.783   8.157  -0.491 -0.3820 -0.0170  0.3377
    1CHTO   C22  334   6.009   8.013  -0.513  0.1538  0.2074  0.1668
    1CHTO   H50  335   5.989   8.094  -0.584 -0.2982 -1.2571 -1.4302
    1CHTO   O14  336   6.147   7.996  -0.476  0.5226  0.2468 -0.0439
    1CHTO   C23  337   6.218   8.123  -0.450  0.1229  0.2206  0.2283
    1CHTO   H51  338   6.200   8.199  -0.528  0.8255 -0.2569 -0.4071
    1CHTO   C34  339   6.370   8.100  -0.452 -0.8211 -0.0001  0.0034
    1CHTO   O23  340   6.423   8.039  -0.570 -0.1156  0.0668 -0.1297
    1CHTO   H38  341   6.361   8.024  -0.638 -0.6586  1.1084  0.1304
    1CHTO   O16  342   5.951   7.891  -0.569 -0.6617 -0.2611  0.3070
    1CHTO   C24  343   6.008   7.751  -0.550 -0.7150 -1.2048  0.6384
    1CHTO   H52  344   6.074   7.746  -0.463 -0.1492 -0.9117  0.2290
    1CHTO   C26  345   6.094   7.723  -0.680  0.3539 -0.1020 -0.2525
    1CHTO   H54  346   6.023   7.729  -0.765 -0.4312 -1.4167  0.2981
    1CHTO   O20  347   6.196   7.820  -0.699 -0.8857  0.2123  0.1321
    1CHTO   H36  348   6.215   7.832  -0.790  3.4631  0.9996  1.0354
    1CHTO   C30  349   6.146   7.576  -0.688 -0.0605 -0.3994  0.2784
    1CHTO   H58  350   6.221   7.559  -0.608  0.1138  1.2821  0.4838
    1CHTO    N6  351   6.219   7.542  -0.814  0.4741  0.2475  0.1474
    1CHTO   H45  352   6.160   7.542  -0.905  1.8055  0.4503 -0.7199
    1CHTO   H46  353   6.303   7.609  -0.826 -1.0452  1.7611 -2.6963
    1CHTO   C33  354   6.037   7.481  -0.645  0.8144 -0.1819 -0.1337
    1CHTO   H61  355   5.964   7.468  -0.727  0.4922  2.4132 -0.2844
    1CHTO   O18  356   5.963   7.520  -0.520 -0.1287  0.1114  0.0732
    1CHTO   C28  357   5.897   7.642  -0.535  0.3105 -0.2044  0.0632
    1CHTO   H56  358   5.844   7.642  -0.630  0.6518  2.9014 -0.1718
    1CHTO   C35  359   5.793   7.650  -0.417 -0.0982 -0.2717 -0.1234
    1CHTO   O24  360   5.721   7.767  -0.395  0.8973 -0.1606  0.6227
    1CHTO   H39  361   5.779   7.838  -0.373 -1.7501  1.6390  2.1566
    1CHTO    O9  362   6.092   7.350  -0.629 -0.0597 -0.0688  0.2738
    1CHTO   C13  363   5.992   7.230  -0.653  0.1704 -0.4813  0.2933
    1CHTO   H26  364   5.894   7.279  -0.634  0.1801 -0.3461 -0.0017
    1CHTO   C11  365   6.029   7.123  -0.545 -0.0173 -0.6358 -0.6286
    1CHTO   H24  366   6.007   7.162  -0.445 -0.1498 -1.9972 -0.1210
    1CHTO    O8  367   6.172   7.113  -0.544  0.0703 -0.4249  0.0444
    1CHTO    H3  368   6.201   7.046  -0.604  1.4423  1.1379 -1.0956
    1CHTO    C9  369   5.947   6.993  -0.570  0.4934 -0.1666 -0.7268
    1CHTO   H22  370   5.843   7.025  -0.561  0.2284 -0.6574 -1.9000
    1CHTO    N2  371   5.970   6.886  -0.468  0.2161  0.3884  0.8417
    1CHTO   H10  372   5.973   6.786  -0.509  0.9385  0.1993  1.3499
    1CHTO   H11  373   5.910   6.886  -0.378  0.5248 -2.0707  1.0716
    1CHTO    C7  374   5.965   6.943  -0.720 -0.0024  0.0464 -0.0739
    1CHTO   H20  375   5.892   6.859  -0.718  0.1252 -0.1615 -2.1940
    1CHTO    O4  376   5.938   7.041  -0.820 -0.3947 -1.2331  0.2244
    1CHTO   C14  377   5.997   7.172  -0.801 -0.3218  0.2716  1.0568
    1CHTO   H27  378   5.933   7.239  -0.862  1.0216  0.2414 -0.4507
    1CHTO   C18  379   6.146   7.188  -0.862  0.2004 -0.1620  0.3655
    1CHTO   O13  380   6.157   7.126  -0.993 -0.7309  0.3932  0.1398
    1CHTO    H7  381   6.244   7.092  -0.999 -0.8036  0.3054 -0.4681
    1CHTO    O2  382   6.134   6.878  -0.751 -0.5753  0.4004  0.1462
    1CHTO    C1  383   6.135   6.731  -0.762  0.0522  0.1307 -0.3431
    1CHTO   H14  384   6.040   6.691  -0.721  0.1997 -1.4929 -1.5337
    1CHTO    C2  385   6.256   6.664  -0.684 -0.3117  0.0295  0.3911
    1CHTO   H15  386   6.341   6.727  -0.714 -1.1916  1.1484  0.2048
    1CHTO    O6  387   6.221   6.686  -0.547 -0.1552  0.1642 -0.1666
    1CHTO    H1  388   6.221   6.776  -0.522  1.3297  0.0527  0.2972
    1CHTO    C3  389   6.275   6.508  -0.725  0.0111 -0.2591 -0.2144
    1CHTO   H16  390   6.191   6.449  -0.685  0.9443 -0.8592  0.8807
    1CHTO    N1  391   6.399   6.452  -0.667 -0.6508 -0.3359 -0.3623
    1CHTO    H8  392   6.421   6.348  -0.688  1.8071 -0.3286  1.9229
    1CHTO    H9  393   6.478   6.512  -0.709 -1.0272  0.0401 -0.5421
    1CHTO    C4  394   6.268   6.490  -0.883  0.1567 -0.0380 -0.2378
    1CHTO   H17  395   6.356   6.537  -0.926 -0.0563  1.2104  0.6620
    1CHTO    O1  396   6.150   6.550  -0.929 -0.0518 -0.3197 -0.5767
    1CHTO    C5  397   6.153   6.692  -0.918 -0.3606  0.5157 -0.2502
    1CHTO   H18  398   6.242   6.742  -0.956 -0.1237 -1.0594 -1.7921
    1CHTO   C16  399   6.034   6.735  -1.003 -0.0054  0.6325 -0.5874
    1CHTO   O11  400   6.019   6.875  -1.021 -0.0145  0.0133 -0.4419
    1CHTO    H5  401   6.103   6.915  -1.030  0.4394 -0.8185  0.1150
    1CHTO    O3  402   6.260   6.352  -0.931 -0.1038  0.0164 -0.5401
    1CHTO    C6  403   6.339   6.324  -1.048  0.4461  0.7112 -0.6964
    1CHTO   H19  404   6.369   6.414  -1.102 -0.7461  2.2975  1.1987
    1CHTO    C8  405   6.460   6.238  -1.004  0.4542  0.5089 -0.2185
    1CHTO   H21  406   6.422   6.156  -0.943 -0.7647  1.1291 -0.1474
    1CHTO    O7  407   6.543   6.322  -0.923 -0.5616 -0.1286 -0.1438
    1CHTO    H2  408   6.496   6.348  -0.846  1.1774  2.4997  0.1111
    1CHTO   C12  409   6.534   6.178  -1.131  0.4672 -0.6721 -0.2053
    1CHTO   H25  410   6.578   6.270  -1.174 -1.0121  0.4760  0.6480
    1CHTO    N3  411   6.646   6.085  -1.092 -0.2154 -0.2441  0.2049
    1CHTO   H12  412   6.723   6.144  -1.045  0.5856 -1.2127  0.1097
    1CHTO   H13  413   6.599   6.023  -1.017 -2.8100  0.6588 -0.5864
    1CHTO   C15  414   6.427   6.114  -1.228  0.3984 -0.1619 -0.2199
    1CHTO   H28  415   6.385   6.027  -1.178 -0.0188  0.1057 -0.0982
    1CHTO   O10  416   6.486   6.072  -1.366  0.1392  0.3466  0.3555
    1CHTO    H4  417   6.541   6.146  -1.388 -1.9684  2.2521  1.2711
    1CHTO    O5  418   6.321   6.207  -1.263 -0.5560  0.4622  0.2724
    1CHTO   C10  419   6.249   6.245  -1.148 -0.8848 -0.9149  0.1337
    1CHTO   H23  420   6.213   6.165  -1.083  0.1387 -0.3170  1.4704
    1CHTO   C17  421   6.133   6.340  -1.192  0.5826  0.2734  0.7057
    1CHTO   O12  422   6.026   6.255  -1.228 -0.4100 -0.3409  0.2395
    1CHTO    H6  423   5.958   6.312  -1.256  0.1182 -0.1752 -0.7453
    2CHTO  H203  424   4.919   3.884   2.779 -0.5692 -0.1176  1.3295
    2CHTO   O82  425   4.948   3.959   2.828  0.1158  0.2968  0.3115
    2CHTO  C123  426   4.837   4.053   2.816 -0.1630 -0.0175  0.0896
    2CHTO  H227  427   4.778   4.032   2.725  1.0340  1.1333 -0.9617
    2CHTO   O77  428   4.759   4.015   2.933 -0.2300  0.2739  0.1410
    2CHTO  C118  429   4.636   4.086   2.951 -0.3654  0.3388 -0.1178
    2CHTO  H222  430   4.573   4.054   2.867 -0.3770  2.6656 -1.0185
    2CHTO  C125  431   4.574   4.026   3.080 -0.5191  0.1450  1.0853
    2CHTO   O84  432   4.662   4.039   3.199  0.6900  0.1876  0.0848
    2CHTO  H205  433   4.605   4.011   3.269  0.6272 -0.7977 -0.3449
    2CHTO  C114  434   4.668   4.235   2.955  0.0029 -0.4269 -0.1672
    2CHTO  H218  435   4.715   4.256   3.052 -0.1524 -0.9433  0.0215
    2CHTO  C116  436   4.753   4.289   2.840 -0.2584  0.0113  1.0893
    2CHTO  H220  437   4.688   4.291   2.750 -0.1420  1.5438  1.0386
    2CHTO   O79  438   4.777   4.439   2.853  0.7036 -0.2201  0.4675
    2CHTO  H201  439   4.854   4.466   2.899  1.0835 -0.9931  0.2718
    2CHTO  C120  440   4.880   4.204   2.816  0.0451  0.6383  0.5002
    2CHTO  H224  441   4.952   4.215   2.901 -0.9702  1.2037  1.3003
    2CHTO   N21  442   4.948   4.251   2.688 -0.4739 -0.3747 -0.2058
    2CHTO  H211  443   4.989   4.165   2.638 -0.2105 -0.9934  1.0446
    2CHTO  H212  444   4.881   4.306   2.623 -1.6062 -0.3329  0.9614
    2CHTO   O75  445   4.531   4.277   2.940 -0.1880  0.2696 -0.0074
    2CHTO  C112  446   4.481   4.400   3.032 -0.1075 -0.0149 -0.3991
    2CHTO  H216  447   4.571   4.448   3.073  0.4125 -1.3717  0.0842
    2CHTO   O73  448   4.396   4.348   3.139 -0.0400 -0.3194  0.3417
    2CHTO  C113  449   4.355   4.454   3.232 -0.8601 -0.3935 -0.4974
    2CHTO  H217  450   4.446   4.500   3.276 -0.7694 -2.0680  1.1589
    2CHTO  C124  451   4.263   4.386   3.339  0.1088  0.2522  0.1058
    2CHTO   O83  452   4.139   4.333   3.293 -0.2682  0.2788  0.2261
    2CHTO  H204  453   4.103   4.400   3.239 -0.2671  0.4905  0.4854
    2CHTO  C109  454   4.288   4.575   3.161  0.1805  0.0989  0.7740
    2CHTO  H213  455   4.194   4.537   3.118 -1.3670  3.9799  0.5309
    2CHTO  C110  456   4.369   4.627   3.041  0.3289  0.0348  1.1390
    2CHTO  H214  457   4.457   4.678   3.079 -0.1553  2.6393 -1.0793
    2CHTO   O78  458   4.293   4.725   2.968 -0.3077 -0.3983 -0.4014
    2CHTO  H200  459   4.338   4.807   2.960  0.0413 -0.4381  0.9975
    2CHTO  C111  460   4.401   4.508   2.948  0.1359  0.3162  0.2577
    2CHTO  H215  461   4.307   4.460   2.916  0.8989 -0.9125 -0.2111
    2CHTO   N19  462   4.469   4.552   2.826  0.1984  0.0651 -0.2706
    2CHTO  H207  463   4.410   4.517   2.742 -2.4135 -0.4205  1.7131
    2CHTO  H208  464   4.485   4.659   2.829  0.7127 -0.0334  0.6633
    2CHTO   O74  465   4.261   4.684   3.256 -0.2263 -0.1198  0.4762
    2CHTO  C115  466   4.118   4.761   3.238 -0.3396  0.0088  0.8015
    2CHTO  H219  467   4.083   4.760   3.134  2.2603 -0.0941 -0.1078
    2CHTO   O76  468   3.988   4.682   3.323 -0.2890  0.1104 -0.2849
    2CHTO  C122  469   3.979   4.726   3.455 -0.4052 -0.3450 -0.6932
    2CHTO  H226  470   4.079   4.726   3.497  0.2561  1.4644 -2.1846
    2CHTO  C126  471   3.889   4.622   3.544 -0.0431 -0.8018 -0.5014
    2CHTO   O85  472   3.928   4.654   3.682 -0.1761 -0.6540  0.0198
    2CHTO  H206  473   3.998   4.715   3.694 -0.9089 -0.0774  1.3531
    2CHTO  C121  474   3.925   4.871   3.456  0.4462 -0.1787  0.4613
    2CHTO  H225  475   3.815   4.862   3.450  0.4240  0.0296  0.5379
    2CHTO   O81  476   3.969   4.931   3.581 -0.4619 -0.6127  0.0321
    2CHTO  H202  477   4.012   5.012   3.559  0.7261 -1.3357 -0.3366
    2CHTO  C119  478   3.978   4.953   3.335 -0.1375 -0.3830  0.2474
    2CHTO  H223  479   3.912   4.917   3.256  1.1992  2.5301 -2.3351
    2CHTO  C117  480   4.128   4.904   3.288  0.0709 -0.2576 -0.4037
    2CHTO  H221  481   4.205   4.906   3.365 -0.7981  0.8896  0.4592
    2CHTO   N20  482   4.183   4.992   3.180  0.0290 -0.4324  0.7261
    2CHTO  H209  483   4.117   4.993   3.095  0.7089  3.7249  0.1267
    2CHTO  H210  484   4.278   4.951   3.148 -0.0488  0.8366 -1.2148
    2CHTO   O80  485   3.943   5.104   3.340 -0.0968 -0.0008  0.1601
    2CHTO  C103  486   3.790   5.146   3.317 -0.4214  0.0727  0.1282
    2CHTO  H190  487   3.737   5.061   3.274 -0.1430 -0.5786  1.0626
    2CHTO  C101  488   3.717   5.190   3.446  0.2132 -0.4733  0.8754
    2CHTO  H188  489   3.777   5.253   3.511 -3.2437  2.2809  1.5200
    2CHTO   O68  490   3.684   5.048   3.534 -0.3094 -0.4311 -0.3667
    2CHTO  H168  491   3.767   5.005   3.531  0.0210  0.1898 -0.2366
    2CHTO   C99  492   3.573   5.266   3.425  0.5888  0.4061  0.8520
    2CHTO  H186  493   3.490   5.197   3.396  1.6137 -0.1556 -0.8132
    2CHTO   N17  494   3.524   5.313   3.562 -0.0378 -0.4781 -0.0684
    2CHTO  H174  495   3.522   5.243   3.644  0.9787 -0.7709 -0.2874
    2CHTO  H175  496   3.471   5.406   3.576 -1.9343 -1.4622 -0.5131
    2CHTO   C97  497   3.588   5.379   3.320 -0.0848  0.4557  0.6822
    2CHTO  H184  498   3.653   5.455   3.367  0.0739  0.9626 -0.3491
    2CHTO   O64  499   3.650   5.322   3.200 -0.0335  0.0294  0.0310
    2CHTO  C104  500   3.783   5.268   3.218  0.1800  0.6216  0.0929
    2CHTO  H191  501   3.842   5.351   3.255 -1.3461  1.9072 -0.3016
    2CHTO  C108  502   3.841   5.224   3.084 -0.0758 -0.0065 -0.0650
    2CHTO   O71  503   3.836   5.321   2.983 -1.1018  0.0751 -0.6125
    2CHTO  H171  504   3.835   5.276   2.900 -0.1189 -0.7348 -0.1992
    2CHTO   O62  505   3.457   5.424   3.272  0.0019 -0.4572  0.5317
    2CHTO   C91  506   3.461   5.559   3.218 -0.0783  0.0913 -0.0805
    2CHTO  H178  507   3.566   5.587   3.210 -0.3977  1.1634 -0.6624
    2CHTO   C92  508   3.392   5.661   3.320 -0.2113 -0.7165 -0.2974
    2CHTO  H179  509   3.424   5.633   3.421 -2.5649  0.9586  0.9793
    2CHTO   O66  510   3.435   5.799   3.300  0.1770 -0.1383 -0.5357
    2CHTO  H166  511   3.526   5.812   3.319 -0.5757  2.5808  1.4728
    2CHTO   C93  512   3.233   5.658   3.302 -0.3342 -0.4442 -0.6886
    2CHTO  H180  513   3.199   5.737   3.370  1.5556 -0.3132  0.1216
    2CHTO   N16  514   3.169   5.541   3.367  0.2145 -0.4427 -0.2324
    2CHTO  H172  515   3.246   5.481   3.413  0.0106 -0.0128  0.6789
    2CHTO  H173  516   3.093   5.571   3.437 -1.3000  2.4875 -3.0096
    2CHTO   C94  517   3.180   5.686   3.155  0.1703 -0.3348 -0.5161
    2CHTO  H181  518   3.116   5.606   3.118 -1.2653  0.4767  0.1884
    2CHTO   O61  519   3.293   5.687   3.062 -0.2255 -0.0660 -0.1013
    2CHTO   C95  520   3.387   5.573   3.077 -0.4775  0.0890 -0.0652
    2CHTO  H182  521   3.333   5.480   3.060  1.1948 -1.4635  2.7133
    2CHTO  C106  522   3.475   5.597   2.950  0.4874  0.0615  0.4555
    2CHTO   O69  523   3.593   5.676   2.973  0.3850  0.3085  0.2882
    2CHTO  H169  524   3.672   5.633   2.948 -0.9710 -1.3990 -1.2360
    2CHTO   O63  525   3.102   5.833   3.144 -0.1403 -0.3686  0.0158
    2CHTO   C96  526   3.186   5.961   3.118 -0.2532  0.9384  0.7818
    2CHTO  H183  527   3.292   5.939   3.103 -0.7576 -0.5983 -0.6917
    2CHTO   C98  528   3.168   6.074   3.225  0.3889  0.2789 -0.2097
    2CHTO  H185  529   3.060   6.093   3.227  0.3500  0.0069  0.6919
    2CHTO   O67  530   3.198   6.015   3.352  0.7027  0.1971  0.4151
    2CHTO  H167  531   3.286   5.983   3.354  1.0762  1.0125 -1.9826
    2CHTO  C102  532   3.239   6.210   3.193 -1.3118  0.2937  0.2751
    2CHTO  H189  533   3.346   6.187   3.186 -1.5691 -0.9660  0.4860
    2CHTO   N18  534   3.223   6.322   3.290  0.1009  0.5519  0.5010
    2CHTO  H176  535   3.118   6.343   3.305 -0.0951 -0.2066  0.2161
    2CHTO  H177  536   3.286   6.406   3.265  0.3057  0.6598  1.3439
    2CHTO  C105  537   3.199   6.238   3.046 -0.4001 -1.1724  0.0949
    2CHTO  H192  538   3.093   6.266   3.044 -0.1398 -0.0348  1.1582
    2CHTO   O65  539   3.225   6.132   2.951 -0.3268 -0.7681 -0.6166
    2CHTO  C100  540   3.147   6.014   2.977  0.1119 -0.4322 -0.5351
    2CHTO  H187  541   3.041   6.041   2.965  0.6711  1.8922 -0.6432
    2CHTO  C107  542   3.155   5.909   2.860 -0.1866 -0.5573  0.6371
    2CHTO   O70  543   3.286   5.870   2.824  0.1170 -0.0860 -0.0322
    2CHTO  H170  544   3.326   5.821   2.893  1.7301  1.1093 -0.0819
    2CHTO   O57  545   3.274   6.351   2.999  0.2100 -0.2027 -0.2485
    2CHTO   C85  546   3.214   6.469   2.939 -0.1748 -0.1204 -0.5995
    2CHTO  H157  547   3.112   6.488   2.979 -0.4475 -1.6426 -0.5228
    2CHTO   C83  548   3.194   6.430   2.784 -0.0725  0.3612 -0.0024
    2CHTO  H155  549   3.111   6.361   2.768 -1.8769  2.5126 -0.2236
    2CHTO   O56  550   3.311   6.361   2.736  0.3186  0.3340  0.3981
    2CHTO  H135  551   3.316   6.286   2.792  1.5971  1.2758  1.5615
    2CHTO   C81  552   3.159   6.560   2.710 -0.4781  0.1063 -0.3294
    2CHTO  H153  553   3.069   6.597   2.757 -1.2043 -0.9322 -0.8779
    2CHTO   N14  554   3.133   6.536   2.560 -0.3602  0.1180  0.0913
    2CHTO  H141  555   3.077   6.614   2.513  0.9257  0.5517 -0.7643
    2CHTO  H142  556   3.088   6.439   2.550  2.1817 -1.3147  1.7903
    2CHTO   C79  557   3.272   6.668   2.731  0.0655 -0.4612 -0.3734
    2CHTO  H151  558   3.239   6.759   2.681 -1.7662 -1.9073 -1.8791
    2CHTO   O52  559   3.290   6.699   2.875  0.2858 -0.1044  0.6835
    2CHTO   C86  560   3.308   6.584   2.958 -0.3076 -0.4919  0.9103
    2CHTO  H158  561   3.415   6.560   2.940  0.2023  1.4897  1.1026
    2CHTO   C90  562   3.307   6.636   3.104  0.6669 -0.4324 -0.1761
    2CHTO   O60  563   3.416   6.724   3.121 -0.3618 -0.3055  0.2972
    2CHTO  H138  564   3.401   6.776   3.197  1.6919  0.2297  0.3578
    2CHTO   O50  565   3.394   6.633   2.671  0.0840  0.0330  0.6532
    2CHTO   C73  566   3.512   6.697   2.612  0.3068  0.2253  0.2537
    2CHTO  H145  567   3.495   6.806   2.616 -1.9965 -0.1420  0.7217
    2CHTO   C74  568   3.536   6.642   2.465 -0.2552 -0.3417  0.0437
    2CHTO  H146  569   3.448   6.662   2.403 -0.0349  2.1057  0.4973
    2CHTO   O54  570   3.644   6.713   2.407  0.1390 -0.4204 -0.7124
    2CHTO  H133  571   3.714   6.722   2.469 -0.2685  0.6327 -0.3871
    2CHTO   C75  572   3.557   6.486   2.485  0.7743 -0.5684  0.2410
    2CHTO  H147  573   3.469   6.450   2.541 -0.4487  1.8349 -0.0983
    2CHTO   N13  574   3.556   6.412   2.359  0.9279 -0.5123 -0.1041
    2CHTO  H139  575   3.464   6.357   2.351  0.7690 -0.1818 -0.5758
    2CHTO  H140  576   3.641   6.346   2.346  0.7247 -0.9030  0.5390
    2CHTO   C76  577   3.687   6.462   2.574  0.0144  0.2275  0.7896
    2CHTO  H148  578   3.774   6.493   2.516  0.3470  1.1922  1.7771
    2CHTO   O49  579   3.673   6.532   2.698 -0.0669 -0.2353  0.1176
    2CHTO   C77  580   3.645   6.673   2.691  0.0242  0.5771 -0.2676
    2CHTO  H149  581   3.731   6.714   2.638  1.1042 -0.0687  0.9488
    2CHTO   C88  582   3.640   6.734   2.829  0.0143 -0.1800 -0.1739
    2CHTO   O58  583   3.616   6.850   2.826  0.5120 -0.2551 -0.0022
    2CHTO  H136  584   3.692   6.896   2.858 -0.7325  0.5228  1.9100
    2CHTO   O51  585   3.691   6.295   2.609 -0.3394  0.0065 -0.0460
    2CHTO   C78  586   3.785   6.259   2.740 -0.2270 -0.0852  0.3515
    2CHTO  H150  587   3.803   6.347   2.806  0.6318 -0.0587  0.0784
    2CHTO   C80  588   3.922   6.208   2.692  0.0396  0.0664 -0.2378
    2CHTO  H152  589   3.907   6.119   2.629 -0.2797  0.7587 -1.1414
    2CHTO   O55  590   3.982   6.309   2.612  0.3126  1.0091 -0.0071
    2CHTO  H134  591   4.000   6.386   2.662  2.4442  0.3878  0.2264
    2CHTO   C84  592   4.008   6.170   2.823 -0.0818 -1.0284  0.2206
    2CHTO  H156  593   4.033   6.265   2.871  1.3346 -0.4193 -1.6282
    2CHTO   N15  594   4.142   6.121   2.787 -0.8723  0.2366 -0.8368
    2CHTO  H143  595   4.196   6.186   2.721 -0.2943 -0.9622 -1.5757
    2CHTO  H144  596   4.198   6.105   2.876  0.1236 -1.0138 -1.6671
    2CHTO   C87  597   3.932   6.070   2.916 -0.2034  0.3066  0.6206
    2CHTO  H159  598   3.941   5.967   2.882  0.8474  0.0054  1.7482
    2CHTO   O53  599   3.790   6.116   2.946  0.2974 -0.5380  0.3727
    2CHTO   C82  600   3.708   6.151   2.831 -0.5926 -0.4620  0.3426
    2CHTO  H154  601   3.685   6.063   2.771 -1.2338  0.1002 -0.2352
    2CHTO   C89  602   3.571   6.204   2.878  0.6932 -0.0877 -0.3453
    2CHTO   O59  603   3.508   6.098   2.947  0.4043 -0.5271 -0.2803
    2CHTO  H137  604   3.503   6.021   2.894  2.6312 -0.2955 -0.8692
    2CHTO   O45  605   4.013   6.069   3.067  0.0481 -0.0851 -0.0090
    2CHTO   C67  606   3.935   6.037   3.187 -0.4271 -1.1614 -0.2034
    2CHTO  H124  607   3.842   6.094   3.193 -0.4132 -1.1440 -0.1532
    2CHTO   C65  608   3.902   5.886   3.189 -0.2937 -0.3575 -0.0422
    2CHTO  H122  609   3.991   5.835   3.153  1.8453  2.9487  0.2827
    2CHTO   O44  610   3.791   5.870   3.102 -0.6598  0.5363 -0.3286
    2CHTO  H102  611   3.716   5.846   3.153  0.7377 -1.6471  0.7572
    2CHTO   C63  612   3.887   5.829   3.342  0.2196  0.1168 -0.0932
    2CHTO  H120  613   3.985   5.797   3.375 -0.7079  0.6789  3.3806
    2CHTO   N11  614   3.814   5.700   3.352  0.1071 -0.0051 -0.3535
    2CHTO  H108  615   3.734   5.693   3.423  0.2790  0.6274 -0.0948
    2CHTO  H109  616   3.791   5.658   3.256  0.1621  2.2869 -1.4035
    2CHTO   C61  617   3.832   5.945   3.439 -0.5525  0.0148  0.3368
    2CHTO  H118  618   3.839   5.904   3.541  0.1787 -0.6398  0.0216
    2CHTO   O40  619   3.920   6.065   3.430 -0.1248  0.1932 -0.0353
    2CHTO   C68  620   4.012   6.074   3.318  0.5328  0.8058 -0.5261
    2CHTO  H125  621   4.098   6.006   3.332  0.2983  0.6667  0.2426
    2CHTO   C72  622   4.064   6.222   3.323  0.2959  0.1153 -0.4021
    2CHTO   O48  623   4.182   6.231   3.247  0.8427  0.0398  0.0734
    2CHTO  H105  624   4.213   6.319   3.260  1.7667 -0.4644  1.4633
    2CHTO   O38  625   3.691   5.978   3.415  0.1972  0.3948 -0.0126
    2CHTO   C55  626   3.619   6.025   3.531  0.2329  0.2123 -0.5924
    2CHTO  H112  627   3.691   6.071   3.601  1.5330  0.5414 -2.1311
    2CHTO   C56  628   3.546   5.903   3.595  0.0311 -0.3505  0.0223
    2CHTO  H113  629   3.492   5.854   3.513  1.8851  1.8348 -2.6097
    2CHTO   O42  630   3.641   5.810   3.650 -0.1233  0.1810  0.3851
    2CHTO  H100  631   3.635   5.722   3.620  0.0424  0.4256 -0.3677
    2CHTO   C57  632   3.441   5.946   3.701  0.5948  0.1474 -0.3423
    2CHTO  H114  633   3.505   5.974   3.785 -1.7911  1.0496  1.2090
    2CHTO   N10  634   3.349   5.841   3.748 -0.4833 -0.2813  0.3679
    2CHTO  H106  635   3.321   5.777   3.666 -0.8184 -2.0301  1.8036
    2CHTO  H107  636   3.402   5.783   3.823  0.4284  0.0614 -0.0156
    2CHTO   C58  637   3.359   6.067   3.661  0.0748  0.5574  0.0891
    2CHTO  H115  638   3.290   6.040   3.579 -1.8351  1.2546  1.4404
    2CHTO   O37  639   3.451   6.168   3.626 -0.5609  0.4424 -0.2209
    2CHTO   C59  640   3.516   6.144   3.504  0.6645 -0.0702 -0.0927
    2CHTO  H116  641   3.448   6.110   3.426  1.2230 -2.4879  0.4192
    2CHTO   C70  642   3.588   6.264   3.450  0.6394 -0.0305 -0.4080
    2CHTO   O46  643   3.631   6.246   3.312 -0.5618  0.1513  0.3028
    2CHTO  H103  644   3.723   6.256   3.297 -0.3975  0.3014  1.3585
    2CHTO   O39  645   3.267   6.132   3.779 -0.1576  0.6790 -0.2958
    2CHTO   C60  646   3.178   6.234   3.743 -0.0714 -0.5048  0.5555
    2CHTO  H117  647   3.233   6.309   3.685 -1.8039 -0.0744 -0.5642
    2CHTO   C62  648   3.062   6.183   3.649  1.0989  0.3337  0.1182
    2CHTO  H119  649   3.112   6.138   3.561  2.9755  0.4832  1.0928
    2CHTO   O43  650   2.986   6.075   3.717  0.3267  0.3701  0.6928
    2CHTO  H101  651   2.896   6.100   3.727  0.4611  1.0959  0.1405
    2CHTO   C66  652   2.962   6.299   3.610  0.4903  0.4543  0.0400
    2CHTO  H123  653   3.016   6.383   3.566 -1.4516  1.1511 -1.0709
    2CHTO   N12  654   2.857   6.254   3.515 -0.2441  0.4342 -0.5279
    2CHTO  H110  655   2.820   6.154   3.529  0.2396  0.2668 -0.4116
    2CHTO  H111  656   2.904   6.265   3.418  0.2930  0.0407 -0.3137
    2CHTO   C69  657   2.910   6.368   3.741  0.0200 -0.0613 -0.4204
    2CHTO  H126  658   2.851   6.296   3.802 -0.0229  0.0794 -0.2974
    2CHTO   O41  659   3.038   6.412   3.820 -0.0666  0.0248 -0.2527
    2CHTO   C64  660   3.124   6.310   3.865 -0.3472  0.1964  0.2254
    2CHTO  H121  661   3.069   6.239   3.930 -2.7884  1.3612 -0.5313
    2CHTO   C71  662   3.239   6.367   3.952  0.3706 -0.6494 -0.1171
    2CHTO   O47  663   3.200   6.449   4.061 -0.4111 -0.0891 -0.0589
    2CHTO  H104  664   3.185   6.539   4.040  0.7353  0.4937  1.5271
    2CHTO   O34  665   2.829   6.489   3.704  0.0892  0.6020  0.0582
    2CHTO   C49  666   2.713   6.578   3.755  0.0495  0.0908  0.5087
    2CHTO   H91  667   2.645   6.508   3.803  1.2189 -1.9345 -0.6735
    2CHTO   C47  668   2.652   6.654   3.640  0.2771  0.9316 -0.3469
    2CHTO   H89  669   2.566   6.712   3.682 -2.6118 -2.6179 -1.1173
    2CHTO   O33  670   2.605   6.566   3.534 -0.1549 -0.1602 -0.5158
    2CHTO   H70  671   2.514   6.546   3.539  0.1262 -1.2697  0.3307
    2CHTO   C45  672   2.761   6.759   3.583 -0.1323  0.0670  0.0302
    2CHTO   H87  673   2.848   6.698   3.554  0.8011  0.8173  1.2039
    2CHTO    N8  674   2.718   6.832   3.457 -0.3430  0.1982  0.1446
    2CHTO   H75  675   2.690   6.766   3.376  0.6060 -0.8389  0.6528
    2CHTO   H76  676   2.782   6.909   3.418 -1.3818  0.7529 -0.4865
    2CHTO   C43  677   2.805   6.859   3.702 -0.6551  0.1505  0.6350
    2CHTO   H85  678   2.892   6.913   3.665  0.1598 -1.3335  0.3334
    2CHTO   O29  679   2.838   6.786   3.820  0.1285  0.1095  0.0535
    2CHTO   C50  680   2.765   6.667   3.860  0.1074  0.1636  0.1228
    2CHTO   H92  681   2.834   6.605   3.919  2.1411 -1.7312 -4.0268
    2CHTO   C54  682   2.646   6.697   3.959 -0.5348 -0.3736  0.5018
    2CHTO   O36  683   2.694   6.761   4.073  0.0135  0.1035  0.0427
    2CHTO   H72  684   2.615   6.790   4.113 -0.4134  0.0957 -0.7737
    2CHTO   O27  685   2.703   6.955   3.728  0.3383 -0.1458 -0.3238
    2CHTO   C37  686   2.616   7.070   3.757  0.2815  0.5790  0.3451
    2CHTO   H79  687   2.547   7.078   3.671  0.9447 -2.7549 -0.5715
    2CHTO   C38  688   2.511   7.060   3.877 -0.5092 -0.3725  0.3345
    2CHTO   H80  689   2.567   7.013   3.960 -0.1042  0.7425  0.7029
    2CHTO   O31  690   2.401   6.963   3.847  0.2633 -0.3011 -0.7901
    2CHTO   H68  691   2.337   6.993   3.786 -1.5487 -1.0254  0.6810
    2CHTO   C39  692   2.447   7.198   3.923  0.1578  1.1039  0.3817
    2CHTO   H81  693   2.363   7.221   3.857 -0.8977 -0.0146  1.2987
    2CHTO    N7  694   2.372   7.198   4.058  0.0011  0.4576 -0.2825
    2CHTO   H73  695   2.277   7.155   4.032  1.3892 -1.1572 -2.8785
    2CHTO   H74  696   2.373   7.289   4.117 -1.3374  0.2871 -0.0008
    2CHTO   C40  697   2.548   7.311   3.920 -0.0112  0.6373 -0.3182
    2CHTO   H82  698   2.610   7.292   4.007 -2.0448 -0.0039  1.0275
    2CHTO   O26  699   2.630   7.315   3.799 -0.1302  0.2180  0.4989
    2CHTO   C41  700   2.702   7.195   3.765 -0.5143  0.1591  0.3726
    2CHTO   H83  701   2.772   7.172   3.846  0.5226  1.2811 -0.1818
    2CHTO   C52  702   2.783   7.218   3.638  0.6204  1.0273 -0.5857
    2CHTO   O35  703   2.901   7.288   3.670  0.0753 -0.1588  0.6081
    2CHTO   H71  704   2.958   7.224   3.705  0.4894 -0.0192  0.2005
    2CHTO   O28  705   2.485   7.439   3.922 -0.3583  0.2379 -0.2584
    2CHTO   C42  706   2.534   7.563   3.972  0.3044 -0.0874 -0.2731
    2CHTO   H84  707   2.467   7.633   3.922 -1.9633 -2.5130 -0.7737
    2CHTO   C44  708   2.676   7.595   3.935  0.1046 -0.2438  0.6556
    2CHTO   H86  709   2.747   7.517   3.963  0.1643 -1.0064 -1.4971
    2CHTO   O32  710   2.673   7.590   3.789  0.3547  0.2202  0.2194
    2CHTO   H69  711   2.746   7.639   3.757  0.4567 -0.0262  0.0735
    2CHTO   C48  712   2.729   7.736   3.987  0.1214  0.6716  0.3372
    2CHTO   H90  713   2.671   7.815   3.940 -0.0677 -0.7535 -1.9039
    2CHTO    N9  714   2.869   7.760   3.953 -0.1563  0.1441 -0.1963
    2CHTO   H77  715   2.876   7.765   3.845 -2.0323 -2.2682 -0.4838
    2CHTO   H78  716   2.940   7.685   3.983 -0.9090 -1.1440 -1.5072
    2CHTO   C51  717   2.709   7.747   4.141 -0.8682  0.3593  0.3724
    2CHTO   H93  718   2.777   7.676   4.187 -1.4152  0.1666  0.8798
    2CHTO   O30  719   2.572   7.723   4.189 -0.0787  0.4649 -0.2843
    2CHTO   C46  720   2.508   7.575   4.126 -1.1206 -0.3625 -0.1517
    2CHTO   H88  721   2.562   7.499   4.182 -1.5238 -2.0805 -2.0420
    2CHTO   C53  722   2.356   7.570   4.170  0.1822  0.4704  0.0923
    2CHTO   O72  723   2.280   7.690   4.137 -0.5183  0.3584  0.4796
    2CHTO  H199  724   2.189   7.667   4.130 -0.4791  0.0785  0.8871
    2CHTO   O22  725   2.736   7.877   4.190  0.1768 -0.5056  0.7094
    2CHTO   C31  726   2.771   7.912   4.330 -0.5373  0.1179 -0.3965
    2CHTO   H59  727   2.784   8.023   4.332 -1.5201  0.2596 -1.2275
    2CHTO   C29  728   2.661   7.879   4.429 -0.3069 -0.2135  0.0723
    2CHTO   H57  729   2.644   7.770   4.430  1.1451 -0.4560  0.3904
    2CHTO   O21  730   2.541   7.945   4.388 -0.0414  0.0299 -0.0108
    2CHTO   H37  731   2.482   7.947   4.462  0.6483 -3.1740  0.7264
    2CHTO   C27  732   2.698   7.923   4.574  0.6107  0.2452  0.3945
    2CHTO   H55  733   2.714   8.031   4.566 -1.4788  0.4752 -0.8676
    2CHTO    N5  734   2.603   7.901   4.687  0.0801  0.0990 -0.1807
    2CHTO   H43  735   2.500   7.887   4.658  0.5061  0.5019 -1.9599
    2CHTO   H44  736   2.631   7.809   4.737  1.0695  0.6610  0.2993
    2CHTO   C25  737   2.844   7.867   4.603 -0.4250 -0.3027  0.2732
    2CHTO   H53  738   2.842   7.758   4.618 -2.6583 -0.1263  1.4706
    2CHTO   O17  739   2.938   7.907   4.496 -0.7562  0.5734 -0.3377
    2CHTO   C32  740   2.905   7.849   4.374 -0.4836 -0.1661 -0.7130
    2CHTO   H60  741   2.894   7.741   4.383 -1.8338  0.0787  0.9127
    2CHTO   C36  742   3.030   7.883   4.280  0.6528 -0.9403 -0.3847
    2CHTO   O25  743   3.157   7.830   4.327 -0.1980 -0.1617  0.0914
    2CHTO   H40  744   3.178   7.750   4.284 -0.4901 -0.6489  0.8508
    2CHTO   O15  745   2.904   7.924   4.755 -0.5492 -0.6081  0.7124
    2CHTO   C19  746   2.989   7.857   4.853 -0.0508 -0.0914 -0.3706
    2CHTO   H47  747   2.962   7.751   4.852 -1.2665  0.1960  1.0164
    2CHTO   C20  748   3.141   7.868   4.807 -0.1881 -0.4652 -0.7248
    2CHTO   H48  749   3.179   7.971   4.799  1.1816 -0.9063 -0.1090
    2CHTO   O19  750   3.156   7.802   4.676 -0.3542  0.3573  0.3599
    2CHTO   H35  751   3.121   7.715   4.677 -3.4732  1.5278 -1.0362
    2CHTO   C21  752   3.239   7.789   4.907  0.2719 -0.7751  0.2957
    2CHTO   H49  753   3.204   7.685   4.912 -1.3885 -0.2280  0.4024
    2CHTO    N4  754   3.384   7.788   4.864 -0.1076  0.3180 -0.0279
    2CHTO   H41  755   3.421   7.886   4.892 -1.4049  1.1576 -1.1827
    2CHTO   H42  756   3.438   7.715   4.922  0.8087  0.5440 -0.5895
    2CHTO   C22  757   3.207   7.841   5.051  0.3419  0.2983 -0.2418
    2CHTO   H50  758   3.239   7.946   5.048  0.5642  0.2524  0.4623
    2CHTO   O14  759   3.068   7.824   5.082  0.3452  0.1524 -0.0161
    2CHTO   C23  760   2.982   7.905   5.005  0.5619 -0.3204  0.9399
    2CHTO   H51  761   3.020   8.007   5.018  0.0857 -0.0193  0.0156
    2CHTO   C34  762   2.847   7.878   5.062  0.0694 -0.2973  0.0068
    2CHTO   O23  763   2.813   7.987   5.147  0.5940  0.7064 -0.6254
    2CHTO   H38  764   2.879   8.009   5.210  0.8551 -1.4252 -0.1301
    2CHTO   O16  765   3.277   7.771   5.151  0.0018  0.0916 -0.7907
    2CHTO   C24  766   3.329   7.871   5.278 -0.3379  0.0892  0.1373
    2CHTO   H52  767   3.280   7.968   5.272  0.3843  0.3954 -1.0083
    2CHTO   C26  768   3.481   7.881   5.277  0.2834 -0.0398 -0.6175
    2CHTO   H54  769   3.523   7.778   5.270  0.4234  0.1910 -4.1341
    2CHTO   O20  770   3.514   7.958   5.163 -0.1737 -0.9651 -0.2901
    2CHTO   H36  771   3.505   7.908   5.084  0.4026  0.1961 -1.0997
    2CHTO   C30  772   3.539   7.951   5.401 -0.3416  0.3799 -0.2676
    2CHTO   H58  773   3.521   8.060   5.394  0.1237  0.4021 -1.2305
    2CHTO    N6  774   3.680   7.936   5.410  0.0428 -0.4019 -0.7334
    2CHTO   H45  775   3.716   7.950   5.511 -1.0575  1.0995 -0.5411
    2CHTO   H46  776   3.726   8.014   5.351 -1.1791 -0.9680 -2.4549
    2CHTO   C33  777   3.469   7.908   5.536  0.6244 -0.1515  0.3728
    2CHTO   H61  778   3.508   7.808   5.559  0.0025 -0.1309  1.5190
    2CHTO   O18  779   3.328   7.898   5.520  0.1377  0.0977  0.5161
    2CHTO   C28  780   3.281   7.811   5.413 -0.2462  0.2398 -0.2867
    2CHTO   H56  781   3.331   7.714   5.419 -1.6683 -0.5539 -1.1693
    2CHTO   C35  782   3.126   7.809   5.424  0.6183 -0.0116 -0.5326
    2CHTO   O24  783   3.072   7.771   5.549  0.5254 -0.7436  0.5553
    2CHTO   H39  784   3.096   7.680   5.554 -0.4492 -1.1047 -1.1565
    2CHTO    O9  785   3.505   7.994   5.642 -0.2303 -0.4657  0.5628
    2CHTO   C13  786   3.481   7.938   5.791 -0.3035 -0.0966 -0.0909
    2CHTO   H26  787   3.508   7.830   5.786  1.8844  0.3851  0.6737
    2CHTO   C11  788   3.332   7.962   5.828 -0.7662 -0.3685  0.1163
    2CHTO   H24  789   3.271   7.882   5.782 -1.2018 -0.4616  0.8402
    2CHTO    O8  790   3.276   8.087   5.789  0.0466  0.6211  0.2678
    2CHTO    H3  791   3.304   8.157   5.844  0.3654  0.1317  0.7299
    2CHTO    C9  792   3.307   7.942   5.980 -0.4923  0.4783  1.1262
    2CHTO   H22  793   3.352   7.844   6.002 -0.9826 -0.5806 -2.2177
    2CHTO    N2  794   3.166   7.922   6.029 -0.2207 -0.2420  0.6278
    2CHTO   H10  795   3.095   7.897   5.952  0.3634 -0.5191  0.1710
    2CHTO   H11  796   3.173   7.847   6.106 -0.8861  0.2851  1.2048
    2CHTO    C7  797   3.394   8.039   6.063 -0.7372  0.6296  0.4731
    2CHTO   H20  798   3.375   8.007   6.168 -0.9603 -0.2756  0.1632
    2CHTO    O4  799   3.533   8.025   6.036 -0.0799  0.6304 -0.0951
    2CHTO   C14  800   3.584   8.005   5.900  0.0299  0.4265 -0.3071
    2CHTO   H27  801   3.679   7.948   5.909 -1.0809 -1.5935 -1.0093
    2CHTO   C18  802   3.634   8.146   5.856  0.1455  0.0012  0.0316
    2CHTO   O13  803   3.532   8.247   5.854 -0.3446 -0.0304  0.1411
    2CHTO    H7  804   3.548   8.309   5.923 -2.1620  0.2834  0.3226
    2CHTO    O2  805   3.346   8.205   6.033  0.0867  0.4146  0.2286
    2CHTO    C1  806   3.318   8.295   6.143 -0.9080 -0.3777 -0.0848
    2CHTO   H14  807   3.398   8.287   6.220 -1.5567  0.4116  0.6689
    2CHTO    C2  808   3.184   8.267   6.222 -0.4521  0.9180 -0.3745
    2CHTO   H15  809   3.106   8.285   6.146 -1.3863 -2.3932 -0.2611
    2CHTO    O6  810   3.174   8.128   6.266 -0.0856  0.1264  0.1105
    2CHTO    H1  811   3.152   8.081   6.187  3.2955  1.5294 -1.7441
    2CHTO    C3  812   3.166   8.360   6.352  0.0044  0.4148  0.1598
    2CHTO   H16  813   3.241   8.337   6.429 -0.8904  0.5093  1.0601
    2CHTO    N1  814   3.024   8.341   6.404 -0.2595  0.1446  0.3102
    2CHTO    H8  815   2.959   8.308   6.325  1.7418  0.4482 -1.5173
    2CHTO    H9  816   3.030   8.273   6.487 -2.4477 -0.1209  0.2741
    2CHTO    C4  817   3.191   8.511   6.310 -0.1900 -0.6902  0.4689
    2CHTO   H17  818   3.112   8.542   6.242 -0.5658 -0.5313  0.9761
    2CHTO    O1  819   3.315   8.525   6.238  0.1060 -0.3825 -0.7284
    2CHTO    C5  820   3.322   8.447   6.116 -0.0159  0.2401  0.2567
    2CHTO   H18  821   3.240   8.473   6.049 -0.1743  1.6016  0.9466
    2CHTO   C16  822   3.451   8.490   6.042 -0.1141 -0.5687  0.6579
    2CHTO   O11  823   3.449   8.629   6.003  0.7113  0.4178 -0.0988
    2CHTO    H5  824   3.430   8.635   5.911 -1.4944  0.4578  0.3242
    2CHTO    O3  825   3.198   8.603   6.421  0.0878  0.1653 -1.3374
    2CHTO    C6  826   3.143   8.740   6.423  1.2943 -0.6007 -0.7411
    2CHTO   H19  827   3.112   8.779   6.326  2.2937  1.6462 -0.1791
    2CHTO    C8  828   3.018   8.737   6.517 -0.0810 -0.0481  0.6350
    2CHTO   H21  829   3.048   8.673   6.600  1.4505 -0.7214 -0.4183
    2CHTO    O7  830   2.923   8.656   6.443 -0.5676  0.0993 -0.1635
    2CHTO    H2  831   2.937   8.566   6.463 -1.4746 -0.1974 -0.8222
    2CHTO   C12  832   2.959   8.880   6.550  0.4141 -0.2516  0.1826
    2CHTO   H25  833   2.898   8.909   6.462 -1.4996 -1.8318  0.9307
    2CHTO    N3  834   2.856   8.872   6.655 -0.0340 -0.0224 -0.0718
    2CHTO   H12  835   2.836   8.968   6.701 -0.8160  1.0186 -2.5091
    2CHTO   H13  836   2.765   8.826   6.619  0.3118 -0.1708 -0.7662
    2CHTO   C15  837   3.076   8.985   6.573  0.3462  0.5875  0.2368
    2CHTO   H28  838   3.113   8.982   6.675 -2.6796  0.4214  1.3786
    2CHTO   O10  839   3.033   9.118   6.544  0.1225 -0.0822 -0.1472
    2CHTO    H4  840   3.103   9.181   6.539 -0.4058  0.5242  0.1932
    2CHTO    O5  841   3.177   8.968   6.468  0.5565 -0.2091 -0.1947
    2CHTO   C10  842   3.240   8.843   6.485 -0.6278  0.5818 -0.7517
    2CHTO   H23  843   3.251   8.821   6.591 -1.7927 -1.8903 -1.0919
    2CHTO   C17  844   3.378   8.839   6.425  0.5180  0.2416 -0.1817
    2CHTO   O12  845   3.364   8.855   6.280  0.7035  0.4595  0.3017
    2CHTO    H6  846   3.362   8.769   6.244  2.8556  0.3174  0.4557
    3CHTO  H203  847   7.832   2.202   2.357  0.7606 -1.1889  0.2663
    3CHTO   O82  848   7.824   2.135   2.292 -0.7148  0.1313 -0.9522
    3CHTO  C123  849   7.790   2.014   2.365 -0.3828 -0.7108 -0.1564
    3CHTO  H227  850   7.850   2.001   2.456 -1.2868  0.3001  0.5918
    3CHTO   O77  851   7.654   2.045   2.399 -0.0446  0.1695  0.2716
    3CHTO  C118  852   7.586   1.942   2.480 -0.8439 -0.1260  0.3883
    3CHTO  H222  853   7.646   1.926   2.571 -0.5806  0.2099  0.2722
    3CHTO  C125  854   7.449   2.004   2.521 -0.4736 -0.0605 -0.0521
    3CHTO   O84  855   7.470   2.092   2.633  0.1547 -0.4103 -0.4364
    3CHTO  H205  856   7.386   2.103   2.674  0.1575 -0.5389 -0.3976
    3CHTO  C114  857   7.586   1.809   2.403  0.0050 -0.7197  0.3310
    3CHTO  H218  858   7.521   1.819   2.316  1.0258 -0.9172 -0.4727
    3CHTO  C116  859   7.721   1.768   2.335  0.6379  0.2377 -0.2573
    3CHTO  H220  860   7.782   1.712   2.410 -0.2528  0.6683  0.7890
    3CHTO   O79  861   7.683   1.670   2.239  0.2253 -0.4207  0.3306
    3CHTO  H201  862   7.750   1.605   2.228  1.5646  0.8939  0.6112
    3CHTO  C120  863   7.804   1.884   2.276  0.1653 -0.6984  0.2416
    3CHTO  H224  864   7.754   1.910   2.180 -0.4839 -1.4529  0.3729
    3CHTO   N21  865   7.945   1.843   2.256 -0.1564 -0.1428 -0.2687
    3CHTO  H211  866   7.955   1.739   2.229  0.1409 -0.5368  1.3006
    3CHTO  H212  867   7.990   1.904   2.179 -1.7085  1.7274  0.2554
    3CHTO   O75  868   7.530   1.715   2.502  0.0039 -0.2619 -0.0506
    3CHTO  C112  869   7.418   1.624   2.437  0.2424 -0.2407 -0.4304
    3CHTO  H216  870   7.437   1.597   2.332 -0.3701  0.4520 -0.7161
    3CHTO   O73  871   7.296   1.700   2.455  0.2212 -0.3445  0.0779
    3CHTO  C113  872   7.192   1.631   2.388 -0.0399  0.2961  0.2036
    3CHTO  H217  873   7.211   1.608   2.281 -2.0141  0.6563 -0.2291
    3CHTO  C124  874   7.065   1.719   2.398 -0.6710 -0.0674 -0.0399
    3CHTO   O83  875   7.081   1.852   2.343 -0.6325 -0.1496  0.3821
    3CHTO  H204  876   7.159   1.890   2.380 -0.2625 -0.5576  0.0237
    3CHTO  C109  877   7.162   1.494   2.459  0.2737 -0.2668  1.0806
    3CHTO  H213  878   7.130   1.518   2.561 -3.0934  1.4028 -0.2809
    3CHTO  C110  879   7.293   1.410   2.460  0.3802 -0.0824 -0.1773
    3CHTO  H214  880   7.308   1.383   2.356  1.2600  2.4496 -0.7306
    3CHTO   O78  881   7.269   1.289   2.525  0.1330 -0.5286 -0.0970
    3CHTO  H200  882   7.291   1.214   2.473  0.9048 -0.9051  0.7494
    3CHTO  C111  883   7.416   1.489   2.515  0.2659 -0.7144  0.8140
    3CHTO  H215  884   7.400   1.513   2.621  1.2216 -0.2361  0.8605
    3CHTO   N19  885   7.538   1.409   2.511  0.0881 -0.3540 -0.3714
    3CHTO  H207  886   7.619   1.465   2.556 -1.0451  0.8375  0.2211
    3CHTO  H208  887   7.538   1.322   2.575 -0.8826 -1.8740 -2.4046
    3CHTO   O74  888   7.050   1.426   2.388 -0.1452  0.1763 -0.4966
    3CHTO  C115  889   6.960   1.317   2.487  0.1254  0.5574 -0.3876
    3CHTO  H219  890   7.028   1.268   2.557  0.8728  2.8222  0.4887
    3CHTO   O76  891   6.858   1.385   2.570 -0.8250 -0.4402  0.1519
    3CHTO  C122  892   6.769   1.464   2.483  0.2852  1.0497 -0.1866
    3CHTO  H226  893   6.826   1.551   2.450  1.7549  0.1121 -0.1596
    3CHTO  C126  894   6.650   1.518   2.582  0.3070 -0.6214  0.3681
    3CHTO   O85  895   6.569   1.621   2.528  0.4916  0.3554 -0.1709
    3CHTO  H206  896   6.615   1.652   2.453 -0.3061  0.3301 -0.6650
    3CHTO  C121  897   6.712   1.392   2.352 -0.8709  0.2985 -0.3176
    3CHTO  H225  898   6.608   1.428   2.338 -1.7780 -1.2090  2.1555
    3CHTO   O81  899   6.780   1.443   2.243  0.0187  0.3680  0.3057
    3CHTO  H202  900   6.757   1.400   2.163 -1.1127  0.9961  0.2754
    3CHTO  C119  901   6.733   1.238   2.376 -0.6698 -0.2561 -0.2892
    3CHTO  H223  902   6.679   1.220   2.469 -0.1020  2.6082  0.6405
    3CHTO  C117  903   6.887   1.203   2.403 -0.1452 -0.3128 -0.0053
    3CHTO  H221  904   6.951   1.204   2.315  0.5152 -1.6704  0.4446
    3CHTO   N20  905   6.901   1.066   2.459  0.3666 -0.4004  0.2496
    3CHTO  H209  906   6.848   1.002   2.389 -0.7312 -1.3149  1.8799
    3CHTO  H210  907   7.004   1.049   2.483  0.3256  0.6464  1.2290
    3CHTO   O80  908   6.661   1.136   2.271 -0.8059 -0.1101  0.4388
    3CHTO  C103  909   6.515   1.089   2.298 -0.0368 -0.2734  0.2271
    3CHTO  H190  910   6.497   1.070   2.404  1.0822 -0.6226  0.3570
    3CHTO  C101  911   6.402   1.174   2.239  0.0856  0.5459 -0.3244
    3CHTO  H188  912   6.436   1.202   2.139  2.4329 -0.9514  0.0223
    3CHTO   O68  913   6.380   1.322   2.337 -0.5454 -0.0922 -0.1183
    3CHTO  H168  914   6.389   1.395   2.279 -1.4276  0.6243  0.6298
    3CHTO   C99  915   6.266   1.094   2.244  0.0597  0.6558 -0.2947
    3CHTO  H186  916   6.244   1.077   2.351 -1.0785 -3.1907 -1.0328
    3CHTO   N17  917   6.150   1.165   2.177 -0.3014  0.4621  0.0180
    3CHTO  H174  918   6.072   1.159   2.252  0.4438 -1.3679  0.6735
    3CHTO  H175  919   6.184   1.265   2.156  2.8211 -0.3426  0.9207
    3CHTO   C97  920   6.280   0.956   2.186 -0.1060 -0.2991  0.4039
    3CHTO  H184  921   6.267   0.948   2.077 -1.2958  0.2526  0.4912
    3CHTO   O64  922   6.397   0.882   2.229  0.0209 -0.9409 -0.1071
    3CHTO  C104  923   6.514   0.951   2.219 -0.6234 -0.5023  0.5418
    3CHTO  H191  924   6.540   0.973   2.115  1.6635  0.5069  1.3002
    3CHTO  C108  925   6.629   0.858   2.271 -0.1371 -0.4922  0.5140
    3CHTO   O71  926   6.603   0.830   2.407  0.0481  0.8420 -0.2527
    3CHTO  H171  927   6.641   0.893   2.464  0.1525  3.6190 -3.2647
    3CHTO   O62  928   6.173   0.879   2.249  0.2893 -0.9631  0.1172
    3CHTO   C91  929   6.112   0.771   2.178  0.5528  0.4700 -0.1782
    3CHTO  H178  930   6.167   0.762   2.084 -1.0429  1.2156 -1.1871
    3CHTO   C92  931   5.971   0.802   2.126  0.0641  0.4886 -1.3360
    3CHTO  H179  932   5.904   0.812   2.213  1.4459 -3.0233  0.2197
    3CHTO   O66  933   5.974   0.937   2.066  0.0166  0.3178  0.2266
    3CHTO  H166  934   5.974   0.993   2.141  2.1536 -0.9465  1.2208
    3CHTO   C93  935   5.919   0.694   2.030  0.2758  0.6014 -0.2199
    3CHTO  H180  936   5.979   0.708   1.939  2.0194  0.2580  0.8627
    3CHTO   N16  937   5.780   0.717   1.981 -0.7083  0.9317 -0.3749
    3CHTO  H172  938   5.731   0.772   2.059  0.0752 -0.0268  0.8106
    3CHTO  H173  939   5.779   0.778   1.892  0.1327 -1.5797 -2.1834
    3CHTO   C94  940   5.939   0.543   2.073 -0.9036 -0.2106 -0.2196
    3CHTO  H181  941   5.865   0.507   2.144 -1.1501 -1.6270 -1.1649
    3CHTO   O61  942   6.066   0.523   2.145 -0.4033 -0.0742 -0.1440
    3CHTO   C95  943   6.112   0.630   2.235  0.5375  0.4825  0.2371
    3CHTO  H182  944   6.046   0.637   2.322  0.9965  2.2848  0.4576
    3CHTO  C106  945   6.243   0.566   2.297 -0.1891  0.4767  0.7340
    3CHTO   O69  946   6.330   0.651   2.378  0.2658 -0.3519  0.3835
    3CHTO  H169  947   6.297   0.658   2.466 -0.5017 -1.3602  0.1893
    3CHTO   O63  948   5.935   0.456   1.938 -0.1342  0.4100 -0.0431
    3CHTO   C96  949   5.891   0.285   1.955  0.2618 -0.0441 -0.9807
    3CHTO  H183  950   5.931   0.228   1.872  2.1094  0.1348 -0.2531
    3CHTO   C98  951   5.740   0.279   1.933 -0.3756  0.6881 -0.3805
    3CHTO  H185  952   5.690   0.367   1.976  0.3321  1.8226 -1.8444
    3CHTO   O67  953   5.728   0.299   1.795  0.3036  0.3980  0.3348
    3CHTO  H167  954   5.727   0.388   1.767 -1.4472 -0.5073 -2.6828
    3CHTO  C102  955   5.675   0.142   1.985 -0.4062  0.1810  0.2458
    3CHTO  H189  956   5.707   0.062   1.917  0.2890  0.7701 -0.1260
    3CHTO   N18  957   5.523   0.140   1.987  0.2028 -0.0824 -0.1148
    3CHTO  H176  958   5.493   0.150   1.884  0.8285  0.4612 -0.2490
    3CHTO  H177  959   5.493   0.230   2.039  3.0916  1.4322 -0.9659
    3CHTO  C105  960   5.728   0.103   2.130  0.5487  0.2159  0.1352
    3CHTO  H192  961   5.677   0.163   2.205  1.2517  1.6342 -0.5053
    3CHTO   O65  962   5.870   0.113   2.148 -0.0881  0.0164  0.1579
    3CHTO  C100  963   5.946   0.223   2.097  0.3416  0.0703 -0.1383
    3CHTO  H187  964   5.936   0.299   2.177  0.9898 -0.8298  0.8006
    3CHTO  C107  965   6.091   0.165   2.098 -0.5713 -0.1635  1.1189
    3CHTO   O70  966   6.191   0.263   2.118  0.0889  0.5761 -0.1174
    3CHTO  H170  967   6.176   0.327   2.184 -3.1939 -1.2297  1.0044
    3CHTO   O57  968   5.682  -0.067   2.140  0.2514  0.7174 -0.1004
    3CHTO   C85  969   5.667  -0.129   2.271 -0.9155  0.3047  0.7144
    3CHTO  H157  970   5.671  -0.236   2.240  0.9501  0.7861 -0.8249
    3CHTO   C83  971   5.522  -0.107   2.330 -0.0143  0.1851 -0.4646
    3CHTO  H155  972   5.454  -0.171   2.273  0.9668 -1.4313  0.1565
    3CHTO   O56  973   5.478   0.028   2.309  0.1415  0.0786  0.3788
    3CHTO  H135  974   5.426   0.058   2.381  2.2168 -1.2324  2.4962
    3CHTO   C81  975   5.522  -0.153   2.484 -0.6756  0.0108  0.2763
    3CHTO  H153  976   5.549  -0.259   2.482  1.0396  0.4478 -0.1818
    3CHTO   N14  977   5.386  -0.148   2.552 -0.1159 -0.1036 -0.0169
    3CHTO  H141  978   5.349  -0.242   2.587  1.4340 -0.5017  0.5778
    3CHTO  H142  979   5.390  -0.081   2.636 -0.2236  0.1661 -0.2309
    3CHTO   C79  980   5.626  -0.080   2.568 -0.9535  0.2742 -0.0177
    3CHTO  H151  981   5.613  -0.111   2.671 -2.0120 -3.4032 -1.1764
    3CHTO   O52  982   5.753  -0.117   2.516  0.2748  0.0646 -0.2054
    3CHTO   C86  983   5.782  -0.094   2.377 -0.7323 -0.3309 -0.1867
    3CHTO  H158  984   5.812   0.012   2.372  0.1451 -0.6390 -1.5939
    3CHTO   C90  985   5.912  -0.160   2.326 -0.3243  0.0638 -0.2741
    3CHTO   O60  986   5.938  -0.287   2.392 -0.2944 -0.2442 -0.3730
    3CHTO  H138  987   6.031  -0.298   2.389 -0.2127  0.7490 -1.6575
    3CHTO   O50  988   5.630   0.062   2.560 -0.1912 -0.9279  0.1033
    3CHTO   C73  989   5.630   0.175   2.641 -0.1646  0.6582  0.6471
    3CHTO  H145  990   5.710   0.169   2.717  1.0911  0.0580 -0.6941
    3CHTO   C74  991   5.494   0.193   2.713  0.1110 -0.2762 -0.1316
    3CHTO  H146  992   5.478   0.096   2.762 -0.5935  0.1232  0.4397
    3CHTO   O54  993   5.520   0.281   2.821  0.5974  0.0204  0.2609
    3CHTO  H133  994   5.440   0.314   2.857  1.1762  1.2875  0.3752
    3CHTO   C75  995   5.380   0.228   2.608  0.3486  0.8386 -0.4992
    3CHTO  H147  996   5.375   0.151   2.529  1.7633  0.1821  0.0470
    3CHTO   N13  997   5.237   0.253   2.654  0.1195 -0.2671 -0.6197
    3CHTO  H139  998   5.235   0.343   2.715 -0.8039 -0.2541 -0.6629
    3CHTO  H140  999   5.181   0.171   2.696  1.0494 -1.1202 -1.0170
    3CHTO   C76 1000   5.423   0.358   2.527  0.2171 -0.2696  0.2484
    3CHTO  H148 1001   5.430   0.446   2.592 -0.5458  1.7798 -2.3762
    3CHTO   O49 1002   5.554   0.335   2.465  0.0443 -0.4305 -0.2264
    3CHTO   C77 1003   5.657   0.308   2.559  0.1707  0.3649 -0.2477
    3CHTO  H149 1004   5.666   0.391   2.629 -2.4286  0.2355  0.2634
    3CHTO   C88 1005   5.792   0.314   2.483 -0.7195  0.2102  0.1880
    3CHTO   O58 1006   5.897   0.306   2.556  0.1540  0.0982  0.4452
    3CHTO  H136 1007   5.972   0.270   2.514  0.1945 -0.0001  0.6043
    3CHTO   O51 1008   5.313   0.384   2.399 -0.1928  0.3349 -0.1307
    3CHTO   C78 1009   5.291   0.550   2.366 -0.0217  0.0321 -0.2477
    3CHTO  H150 1010   5.374   0.607   2.412  0.1779 -0.2175 -0.2962
    3CHTO   C80 1011   5.151   0.603   2.418 -0.1887  0.5401 -0.0083
    3CHTO  H152 1012   5.068   0.561   2.358  0.5150 -0.7711 -0.0641
    3CHTO   O55 1013   5.138   0.568   2.555  0.1781  0.7250  0.2667
    3CHTO  H134 1014   5.082   0.493   2.558  1.4644 -0.3526 -1.7886
    3CHTO   C84 1015   5.149   0.758   2.402  0.3120 -0.0257 -0.0216
    3CHTO  H156 1016   5.219   0.799   2.475 -1.1498  0.5710  1.0674
    3CHTO   N15 1017   5.022   0.825   2.457  0.1872  0.3375  0.4606
    3CHTO  H143 1018   4.989   0.793   2.554 -1.3319 -1.3158 -0.5676
    3CHTO  H144 1019   4.938   0.820   2.391 -1.3993 -0.1811  2.4699
    3CHTO   C87 1020   5.182   0.804   2.257 -0.4831 -0.1038  0.6818
    3CHTO  H159 1021   5.086   0.785   2.208 -0.1468  0.7608 -0.3405
    3CHTO   O53 1022   5.297   0.715   2.180  0.1817 -0.3293 -0.0518
    3CHTO   C82 1023   5.312   0.576   2.218 -0.6501  0.6531 -0.7363
    3CHTO  H154 1024   5.258   0.508   2.152 -1.9201  2.8331 -2.0179
    3CHTO   C89 1025   5.455   0.537   2.198 -0.1461  0.1406 -0.8036
    3CHTO   O59 1026   5.494   0.528   2.061  0.1294 -0.2210  0.2477
    3CHTO  H137 1027   5.586   0.533   2.044  0.5040 -3.9169  0.8108
    3CHTO   O45 1028   5.233   0.980   2.249  0.1331  0.4603 -0.0436
    3CHTO   C67 1029   5.370   0.987   2.287 -0.4181  0.1619 -0.0271
    3CHTO  H124 1030   5.395   0.889   2.326  0.3929  1.4070  2.6744
    3CHTO   C65 1031   5.472   1.010   2.165 -0.1550 -0.2075 -0.6442
    3CHTO  H122 1032   5.416   1.059   2.084  1.1918  0.6818 -1.0525
    3CHTO   O44 1033   5.525   0.887   2.119  0.5528 -0.8469 -0.0603
    3CHTO  H102 1034   5.463   0.836   2.070  0.8852 -3.0466  1.7211
    3CHTO   C63 1035   5.579   1.122   2.202  0.3182  0.6712  0.1645
    3CHTO  H120 1036   5.533   1.221   2.210  0.1407  0.6450 -0.4474
    3CHTO   N11 1037   5.682   1.149   2.096 -0.3606  0.3075 -0.0030
    3CHTO  H108 1038   5.643   1.194   2.007  3.5391  0.0476 -1.9647
    3CHTO  H109 1039   5.727   1.053   2.085 -2.4766 -0.7491  0.3335
    3CHTO   C61 1040   5.630   1.094   2.347  0.3230 -0.4306  0.6436
    3CHTO  H118 1041   5.702   1.174   2.372  0.0392  0.1129 -0.2556
    3CHTO   O40 1042   5.529   1.102   2.451  0.2428  0.4985  0.1468
    3CHTO   C68 1043   5.385   1.086   2.412 -0.9303 -0.6506  0.4497
    3CHTO  H125 1044   5.352   1.186   2.377  1.7183  0.7071  1.7154
    3CHTO   C72 1045   5.302   1.049   2.538 -0.0636  0.1614  0.4858
    3CHTO   O48 1046   5.313   1.138   2.660 -0.1146  1.0213  0.3211
    3CHTO  H105 1047   5.315   1.227   2.630 -0.0627  0.9264  0.0477
    3CHTO   O38 1048   5.707   0.972   2.360  0.2456  0.2971 -0.7040
    3CHTO   C55 1049   5.779   0.932   2.481  0.1732 -0.6563 -0.0493
    3CHTO  H112 1050   5.720   0.983   2.559 -0.2658 -0.4644 -0.5061
    3CHTO   C56 1051   5.929   0.979   2.478  0.1368 -0.0139 -0.4436
    3CHTO  H113 1052   5.975   0.927   2.393 -1.4483 -0.9398 -0.7490
    3CHTO   O42 1053   5.950   1.123   2.450  0.5079  0.4451 -0.0288
    3CHTO  H100 1054   5.906   1.173   2.517  0.4256  0.4319 -0.0730
    3CHTO   C57 1055   5.986   0.926   2.619 -0.7360 -0.7849 -0.3344
    3CHTO  H114 1056   5.924   0.970   2.697  1.4094  1.1689  0.3167
    3CHTO   N10 1057   6.125   0.962   2.653  0.0051  0.1749  0.4734
    3CHTO  H106 1058   6.161   1.055   2.612 -1.2850  1.2834  1.8185
    3CHTO  H107 1059   6.153   0.964   2.757 -0.4731 -2.1041  0.6707
    3CHTO   C58 1060   5.968   0.771   2.632  0.9853  0.5171  0.3334
    3CHTO  H115 1061   6.025   0.722   2.550  1.1931  3.6989 -1.5268
    3CHTO   O37 1062   5.826   0.742   2.619  0.4203  0.7494 -0.2892
    3CHTO   C59 1063   5.769   0.775   2.496 -0.1312 -0.2079  0.2472
    3CHTO  H116 1064   5.823   0.726   2.415  1.4985  0.9087  0.6295
    3CHTO   C70 1065   5.625   0.737   2.511 -0.0676 -0.0257  0.2958
    3CHTO   O46 1066   5.557   0.783   2.628  0.0947  0.0416 -0.2352
    3CHTO  H103 1067   5.545   0.876   2.626  1.4085  0.2394  0.4204
    3CHTO   O39 1068   6.005   0.710   2.781  0.0225 -0.5810 -0.4349
    3CHTO   C60 1069   6.063   0.584   2.774 -0.2696  0.1058  0.6256
    3CHTO  H117 1070   6.024   0.532   2.687  0.3022 -0.8068  0.9073
    3CHTO   C62 1071   6.220   0.597   2.779 -0.6465  0.3264  0.0685
    3CHTO  H119 1072   6.253   0.655   2.691  0.7736  1.1522  1.1162
    3CHTO   O43 1073   6.259   0.674   2.893 -0.4059  0.5592 -0.2536
    3CHTO  H101 1074   6.353   0.679   2.898  0.0393 -2.7964 -2.7601
    3CHTO   C66 1075   6.287   0.449   2.777 -0.2906  0.2797  0.6337
    3CHTO  H123 1076   6.239   0.391   2.698  0.7791 -1.6748  1.3886
    3CHTO   N12 1077   6.434   0.450   2.764 -0.0150  0.2381  0.0483
    3CHTO  H110 1078   6.461   0.466   2.660  0.5201 -2.0353 -0.1887
    3CHTO  H111 1079   6.466   0.526   2.833  1.6147  0.1033 -0.5234
    3CHTO   C69 1080   6.240   0.386   2.910  0.8772 -0.7185  0.0182
    3CHTO  H126 1081   6.272   0.437   3.003 -0.5537 -1.5334  0.9790
    3CHTO   O41 1082   6.094   0.372   2.901  1.2837  0.0051  0.6201
    3CHTO   C64 1083   6.013   0.504   2.891 -0.3472 -0.2052 -0.6228
    3CHTO  H121 1084   6.031   0.560   2.985  1.1437 -0.6737 -0.6271
    3CHTO   C71 1085   5.860   0.470   2.875 -0.1832 -0.5321 -0.5940
    3CHTO   O47 1086   5.795   0.428   3.001 -0.5211 -0.6754 -0.1231
    3CHTO  H104 1087   5.819   0.338   3.012 -3.2557 -1.5973 -1.3141
    3CHTO   O34 1088   6.291   0.247   2.938  0.2701 -0.1263 -0.4619
    3CHTO   C49 1089   6.322   0.121   2.885  0.1995 -0.0221  0.0266
    3CHTO   H91 1090   6.378   0.153   2.797 -0.2096  3.5254  0.9383
    3CHTO   C47 1091   6.193   0.059   2.831  0.4487 -0.0998  0.6667
    3CHTO   H89 1092   6.173   0.108   2.734  3.2451  0.7668  0.5027
    3CHTO   O33 1093   6.085   0.083   2.928  0.1759 -0.0424 -0.1490
    3CHTO   H70 1094   6.010   0.117   2.883  0.0112 -1.4344 -0.9532
    3CHTO   C45 1095   6.218  -0.109   2.814 -0.4780  0.1619 -0.1955
    3CHTO   H87 1096   6.189  -0.155   2.909 -2.1161 -1.3221 -1.3899
    3CHTO    N8 1097   6.138  -0.167   2.702 -0.1982 -0.4425 -0.5114
    3CHTO   H75 1098   6.111  -0.268   2.726  2.5887 -0.9488  0.6582
    3CHTO   H76 1099   6.209  -0.179   2.621  0.7356 -0.2366  0.2640
    3CHTO   C43 1100   6.372  -0.140   2.802 -0.4723  0.1470  0.3971
    3CHTO   H85 1101   6.380  -0.248   2.790  0.6151  0.2898 -0.1754
    3CHTO   O29 1102   6.427  -0.102   2.924 -0.5608 -0.2384  0.0105
    3CHTO   C50 1103   6.389   0.026   2.978 -0.2380 -0.0762 -0.5070
    3CHTO   H92 1104   6.320   0.006   3.062 -1.5372 -0.6483 -1.6921
    3CHTO   C54 1105   6.509   0.107   3.044 -0.3362 -0.5440 -0.6675
    3CHTO   O36 1106   6.581   0.046   3.151  0.1246 -0.3680  0.1730
    3CHTO   H72 1107   6.611   0.108   3.215  0.0678  1.7221 -1.7899
    3CHTO   O27 1108   6.423  -0.073   2.684 -0.1998  0.3245  0.1483
    3CHTO   C37 1109   6.502  -0.080   2.565 -0.5575 -0.2194 -1.2121
    3CHTO   H79 1110   6.585  -0.008   2.573 -0.8010  0.0256 -0.8803
    3CHTO   C38 1111   6.567  -0.226   2.541  0.2522 -0.3008  0.4850
    3CHTO   H80 1112   6.485  -0.298   2.536 -0.4381  0.4436  0.9018
    3CHTO   O31 1113   6.657  -0.264   2.644 -0.1421  0.5518  0.0847
    3CHTO   H68 1114   6.668  -0.357   2.637 -1.5219  0.2007  2.2023
    3CHTO   C39 1115   6.640  -0.241   2.406  0.0816 -0.2820  0.1595
    3CHTO   H81 1116   6.731  -0.183   2.416 -1.0417  1.1663  2.3971
    3CHTO    N7 1117   6.693  -0.388   2.380 -0.4850 -0.3279 -0.0455
    3CHTO   H73 1118   6.766  -0.379   2.301 -1.3483 -1.3611 -0.9735
    3CHTO   H74 1119   6.612  -0.458   2.365 -0.2669 -0.5295 -0.2915
    3CHTO   C40 1120   6.545  -0.176   2.299 -0.3208 -0.7158  0.2530
    3CHTO   H82 1121   6.459  -0.242   2.285 -0.5347 -0.0925 -1.5533
    3CHTO   O26 1122   6.506  -0.036   2.332  0.3735 -0.3546 -0.0453
    3CHTO   C41 1123   6.419  -0.033   2.449 -0.8516  0.0488 -0.5222
    3CHTO   H83 1124   6.326  -0.089   2.431  1.1551 -3.1657 -1.4354
    3CHTO   C52 1125   6.378   0.109   2.468  0.5124  0.1426 -0.1991
    3CHTO   O35 1126   6.480   0.220   2.484 -0.0061 -0.1394 -0.0121
    3CHTO   H71 1127   6.463   0.265   2.565  1.1782  0.2859  0.0078
    3CHTO   O28 1128   6.604  -0.181   2.167  0.1652  0.4937  0.5406
    3CHTO   C42 1129   6.653  -0.065   2.090  0.7471  0.2364 -0.6422
    3CHTO   H84 1130   6.682  -0.111   1.996 -0.3439 -0.8753 -0.4495
    3CHTO   C44 1131   6.778   0.022   2.139  0.6481 -0.4974  1.0560
    3CHTO   H86 1132   6.747   0.080   2.225 -1.7937 -0.8162  0.4548
    3CHTO   O32 1133   6.884  -0.072   2.166 -0.2297 -0.3031 -0.4767
    3CHTO   H69 1134   6.964  -0.053   2.122 -0.8191  1.6262 -0.7323
    3CHTO   C48 1135   6.818   0.130   2.039 -1.0570 -0.2422 -0.9138
    3CHTO   H90 1136   6.856   0.071   1.956 -0.0778 -0.4867 -0.3091
    3CHTO    N9 1137   6.932   0.211   2.089 -0.4575  0.2680 -0.2895
    3CHTO   H77 1138   6.972   0.278   2.014  0.8771 -0.5031 -0.2952
    3CHTO   H78 1139   6.900   0.259   2.180  0.3514  1.2343 -0.5149
    3CHTO   C51 1140   6.689   0.217   1.993  0.0434 -0.2686  0.0417
    3CHTO   H93 1141   6.660   0.280   2.077  0.0656  1.1330 -0.9826
    3CHTO   O30 1142   6.585   0.136   1.944 -0.0819  0.5976  0.1097
    3CHTO   C46 1143   6.537   0.037   2.055 -0.6347  0.6377  0.0728
    3CHTO   H88 1144   6.521   0.099   2.143  1.7563  0.9584  0.2930
    3CHTO   C53 1145   6.410  -0.032   1.991 -0.0151 -0.1950 -0.2183
    3CHTO   O72 1146   6.325  -0.107   2.079 -0.5723 -0.5568  0.8146
    3CHTO  H199 1147   6.284  -0.057   2.147  0.5981 -0.7541  1.6906
    3CHTO   O22 1148   6.713   0.296   1.873 -0.7248 -0.2579 -0.0340
    3CHTO   C31 1149   6.645   0.427   1.850  0.1076 -0.0325  0.0604
    3CHTO   H59 1150   6.648   0.448   1.741 -1.4659 -1.0127 -0.1812
    3CHTO   C29 1151   6.492   0.428   1.893  0.5573  0.5419  0.4306
    3CHTO   H57 1152   6.483   0.412   2.001  1.1915 -0.4231  0.3445
    3CHTO   O21 1153   6.424   0.323   1.830  0.2798  0.1119  0.9891
    3CHTO   H37 1154   6.447   0.310   1.740  0.5796 -3.1228  1.4943
    3CHTO   C27 1155   6.414   0.562   1.851 -0.0991 -0.0390  0.4160
    3CHTO   H55 1156   6.410   0.567   1.741  0.2189  1.2476  0.4603
    3CHTO    N5 1157   6.275   0.578   1.907 -0.3370  0.0872 -0.5907
    3CHTO   H43 1158   6.215   0.498   1.865  1.9955 -1.5906 -0.7906
    3CHTO   H44 1159   6.281   0.560   2.013  1.1379  2.0026 -0.3222
    3CHTO   C25 1160   6.501   0.684   1.894 -0.3294 -0.1673  0.7040
    3CHTO   H53 1161   6.493   0.688   2.004 -0.6604 -0.3548  0.6868
    3CHTO   O17 1162   6.639   0.664   1.857 -0.3169 -0.0481 -0.9011
    3CHTO   C32 1163   6.710   0.551   1.913 -0.2567  0.2247  0.1329
    3CHTO   H60 1164   6.713   0.548   2.022  1.0958  1.1793  0.1355
    3CHTO   C36 1165   6.858   0.573   1.883 -0.0663  0.1072  0.3662
    3CHTO   O25 1166   6.884   0.556   1.747 -0.0557 -0.3458 -0.2663
    3CHTO   H40 1167   6.830   0.489   1.709 -0.0181  0.2568 -1.4113
    3CHTO   O15 1168   6.432   0.831   1.846 -0.0265 -0.2394 -0.3734
    3CHTO   C19 1169   6.383   0.907   1.725  0.1906  0.4557 -0.0316
    3CHTO   H47 1170   6.324   0.842   1.658 -1.0892  0.6128  0.9312
    3CHTO   C20 1171   6.288   1.014   1.765  0.9876 -0.7078  0.5744
    3CHTO   H48 1172   6.326   1.075   1.849  0.4733  2.0477 -1.1276
    3CHTO   O19 1173   6.169   0.955   1.819 -0.6680 -0.0235 -0.3750
    3CHTO   H35 1174   6.131   1.009   1.885  0.1389  0.9049 -0.6489
    3CHTO   C21 1175   6.257   1.111   1.639  0.8855 -0.0533  0.5599
    3CHTO   H49 1176   6.201   1.054   1.565  3.3828 -1.6548 -0.1485
    3CHTO    N4 1177   6.178   1.224   1.671 -0.7721 -0.5557 -0.4339
    3CHTO   H41 1178   6.158   1.248   1.774  1.3788 -2.4216  0.4630
    3CHTO   H42 1179   6.206   1.310   1.613 -0.1725 -0.0626  0.5727
    3CHTO   C22 1180   6.377   1.147   1.553  0.1095  0.2949 -0.0827
    3CHTO   H50 1181   6.441   1.210   1.615  0.7982  0.2143 -0.7085
    3CHTO   O14 1182   6.455   1.029   1.524 -0.4751 -0.2560  0.1026
    3CHTO   C23 1183   6.497   0.963   1.641  0.3455 -0.4725 -0.0563
    3CHTO   H51 1184   6.560   1.032   1.700 -0.8262  0.1592  0.4802
    3CHTO   C34 1185   6.586   0.848   1.591  0.0732  0.2907 -0.2613
    3CHTO   O23 1186   6.705   0.902   1.526 -0.3642  0.1509 -0.1335
    3CHTO   H38 1187   6.738   0.840   1.465  1.0582  2.4484 -1.7891
    3CHTO   O16 1188   6.354   1.207   1.426  0.0175  0.2933 -0.2858
    3CHTO   C24 1189   6.405   1.342   1.402  0.1060 -0.3577  0.2247
    3CHTO   H52 1190   6.430   1.398   1.493 -1.2592  1.0983 -0.2601
    3CHTO   C26 1191   6.290   1.422   1.333 -0.5957  0.8152  0.4747
    3CHTO   H54 1192   6.268   1.369   1.238  0.5401 -0.1090  0.7187
    3CHTO   O20 1193   6.179   1.432   1.415 -0.4109  0.1375 -0.7749
    3CHTO   H36 1194   6.189   1.503   1.476  1.5100 -1.8489  1.3468
    3CHTO   C30 1195   6.346   1.565   1.295  0.0836  0.1222  0.7450
    3CHTO   H58 1196   6.377   1.620   1.385  0.1549  1.2502  0.0368
    3CHTO    N6 1197   6.248   1.649   1.227  0.3951 -0.7042  0.3195
    3CHTO   H45 1198   6.235   1.744   1.276  0.8774  1.2238 -3.1264
    3CHTO   H46 1199   6.280   1.667   1.126  0.1826 -0.9168  0.2126
    3CHTO   C33 1200   6.482   1.553   1.217  0.1885 -0.0830 -0.3487
    3CHTO   H61 1201   6.460   1.496   1.125  0.3428 -2.0785  0.8097
    3CHTO   O18 1202   6.574   1.480   1.292 -0.2175 -0.1682 -0.3699
    3CHTO   C28 1203   6.536   1.344   1.309 -0.2209 -0.2153  0.0048
    3CHTO   H56 1204   6.510   1.304   1.211 -1.5965 -2.2963  1.1878
    3CHTO   C35 1205   6.661   1.274   1.350 -0.0215  1.0993 -0.3527
    3CHTO   O24 1206   6.690   1.317   1.486  0.2977 -0.1485 -0.2572
    3CHTO   H39 1207   6.716   1.407   1.488  0.0059 -0.0565 -0.6017
    3CHTO    O9 1208   6.537   1.675   1.179  0.1467 -0.1757  0.3450
    3CHTO   C13 1209   6.625   1.745   1.307  0.0591 -0.6107  0.5882
    3CHTO   H26 1210   6.584   1.699   1.400 -0.2952  0.0039  0.7349
    3CHTO   C11 1211   6.600   1.899   1.296  0.1089  0.3159 -0.5513
    3CHTO   H24 1212   6.493   1.910   1.320  0.5798 -0.5020  2.1957
    3CHTO    O8 1213   6.623   1.945   1.159 -0.3000  0.6912  0.0090
    3CHTO    H3 1214   6.703   1.909   1.128  0.6199  1.7495  1.1118
    3CHTO    C9 1215   6.683   1.975   1.401 -0.3061 -0.6966 -0.0550
    3CHTO   H22 1216   6.649   1.935   1.497 -1.8464  0.3741 -0.1410
    3CHTO    N2 1217   6.649   2.122   1.414 -0.1506  0.0218 -0.1842
    3CHTO   H10 1218   6.669   2.179   1.324  0.0217  2.4901  1.3714
    3CHTO   H11 1219   6.553   2.140   1.461 -1.2283 -1.7923 -1.5931
    3CHTO    C7 1220   6.839   1.953   1.380 -0.0535  0.4684 -0.3725
    3CHTO   H20 1221   6.883   1.985   1.476 -0.2996 -0.6190  0.1125
    3CHTO    O4 1222   6.867   1.813   1.373  0.5150 -0.1013  0.5987
    3CHTO   C14 1223   6.777   1.712   1.308  0.0407  0.3253  0.5602
    3CHTO   H27 1224   6.787   1.615   1.362 -0.1156  0.2712  0.4926
    3CHTO   C18 1225   6.833   1.697   1.166 -0.1975  0.5214  0.3719
    3CHTO   O13 1226   6.809   1.571   1.099 -0.9666 -0.1171  0.5619
    3CHTO    H7 1227   6.859   1.575   1.020  0.1718 -0.7844  1.2371
    3CHTO    O2 1228   6.908   2.032   1.255 -0.0392 -0.1222 -0.6498
    3CHTO    C1 1229   7.056   2.016   1.228  0.2965 -0.2748 -0.6775
    3CHTO   H14 1230   7.081   1.919   1.181  1.1396  0.3786 -1.5804
    3CHTO    C2 1231   7.160   2.035   1.346 -0.4894  0.1998 -0.4688
    3CHTO   H15 1232   7.123   2.127   1.394 -3.9801 -1.2505 -0.2364
    3CHTO    O6 1233   7.150   1.928   1.442  0.2603 -0.4627  0.1243
    3CHTO    H1 1234   7.228   1.876   1.440  0.1170 -0.6358 -1.0508
    3CHTO    C3 1235   7.307   2.060   1.293 -0.1596 -0.1648  0.0752
    3CHTO   H16 1236   7.351   1.968   1.251 -0.6427 -0.0049 -0.7778
    3CHTO    N1 1237   7.394   2.107   1.403 -0.1002 -0.6946  0.5487
    3CHTO    H8 1238   7.388   2.210   1.432  0.9242 -0.5217  0.1858
    3CHTO    H9 1239   7.495   2.071   1.391  0.3833  1.1457 -1.3450
    3CHTO    C4 1240   7.311   2.159   1.171 -0.5669 -0.7733 -0.0845
    3CHTO   H17 1241   7.294   2.261   1.203  0.7640 -0.6451  0.2206
    3CHTO    O1 1242   7.226   2.119   1.070 -0.0686  0.1548 -0.5372
    3CHTO    C5 1243   7.089   2.114   1.106 -0.6873  0.1188 -0.1173
    3CHTO   H18 1244   7.068   2.217   1.133 -1.1106  0.5601 -2.0662
    3CHTO   C16 1245   6.996   2.067   0.991 -0.0379 -0.5980 -0.0759
    3CHTO   O11 1246   7.010   2.178   0.902  0.2968 -0.0012 -0.1326
    3CHTO    H5 1247   7.071   2.144   0.839  0.9661 -0.4652  0.7368
    3CHTO    O3 1248   7.446   2.153   1.113  0.1503 -0.1267 -0.2962
    3CHTO    C6 1249   7.486   2.269   1.028  0.3631 -0.2910  0.4397
    3CHTO   H19 1250   7.400   2.331   1.002  0.1542 -0.9789 -0.5142
    3CHTO    C8 1251   7.580   2.364   1.115  0.2429 -0.8691  0.2285
    3CHTO   H21 1252   7.631   2.306   1.192 -1.1542 -0.6571  1.3277
    3CHTO    O7 1253   7.489   2.440   1.192  0.0822  0.3373 -0.1897
    3CHTO    H2 1254   7.538   2.502   1.243 -0.9206  1.2016 -0.2495
    3CHTO   C12 1255   7.663   2.452   1.017  0.8219  0.1780 -0.1104
    3CHTO   H25 1256   7.598   2.528   0.969  0.8477 -0.3128 -0.9412
    3CHTO    N3 1257   7.762   2.531   1.097  0.0025 -0.5029  0.2241
    3CHTO   H12 1258   7.827   2.459   1.145  1.6565 -0.6075 -2.1021
    3CHTO   H13 1259   7.709   2.595   1.166  1.3150  1.0498 -0.1788
    3CHTO   C15 1260   7.722   2.363   0.904 -0.2557  0.1515 -0.1277
    3CHTO   H28 1261   7.774   2.274   0.940 -1.0719  0.0122  0.7423
    3CHTO   O10 1262   7.820   2.449   0.797  0.0380 -0.0446  0.5284
    3CHTO    H4 1263   7.771   2.516   0.755  1.2191  0.0343 -0.7431
    3CHTO    O5 1264   7.607   2.321   0.830 -0.1951  0.2038 -0.2405
    3CHTO   C10 1265   7.543   2.209   0.898  0.0241  0.0712 -0.6207
    3CHTO   H23 1266   7.616   2.130   0.915  0.9848  0.9237 -0.7805
    3CHTO   C17 1267   7.446   2.144   0.806  0.2759  0.0765  0.0274
    3CHTO   O12 1268   7.506   2.107   0.682 -0.4153 -0.3599  0.3479
    3CHTO    H6 1269   7.441   2.072   0.624 -3.3200  0.7752  2.7836
    4CHTO  H203 1270   5.442   7.237   2.768  1.8365 -1.5697  0.9038
    4CHTO   O82 1271   5.500   7.292   2.817  0.4547  0.3003  0.5059
    4CHTO  C123 1272   5.428   7.418   2.839  0.3847 -0.7223 -0.3859
    4CHTO  H227 1273   5.335   7.398   2.896 -0.9525  3.4194 -0.9504
    4CHTO   O77 1274   5.528   7.487   2.916 -0.0185  0.3120  0.4096
    4CHTO  C118 1275   5.478   7.609   2.965  0.0185 -0.6002 -0.6756
    4CHTO  H222 1276   5.381   7.582   3.008 -0.3478  2.4961  0.5720
    4CHTO  C125 1277   5.567   7.673   3.083  0.3173 -0.4025 -0.4358
    4CHTO   O84 1278   5.587   7.579   3.186  0.0270 -0.1776 -0.5031
    4CHTO  H205 1279   5.506   7.545   3.220  0.0806  0.4414  0.2655
    4CHTO  C114 1280   5.465   7.705   2.844 -0.1572 -0.1157  0.1649
    4CHTO  H218 1281   5.563   7.733   2.805  0.9206 -1.3379  1.9160
    4CHTO  C116 1282   5.374   7.643   2.732 -0.7856 -0.7957  0.0710
    4CHTO  H220 1283   5.269   7.658   2.762 -1.2882 -1.8048 -1.1412
    4CHTO   O79 1284   5.379   7.722   2.610 -0.5873  0.4288  0.3038
    4CHTO  H201 1285   5.364   7.669   2.535  1.5138  3.5643 -2.5047
    4CHTO  C120 1286   5.400   7.495   2.710  0.4212  0.2051  0.1326
    4CHTO  H224 1287   5.486   7.488   2.640 -0.5799  0.4174 -1.1524
    4CHTO   N21 1288   5.291   7.436   2.624 -0.0624 -0.4909  0.0533
    4CHTO  H211 1289   5.197   7.490   2.627 -0.0586 -0.2195 -2.7909
    4CHTO  H212 1290   5.276   7.333   2.652 -1.0488 -0.2178  0.5753
    4CHTO   O75 1291   5.412   7.825   2.895 -1.0731  0.1317  0.4046
    4CHTO  C112 1292   5.486   7.965   2.846 -0.3541  0.0102 -0.5188
    4CHTO  H216 1293   5.547   7.943   2.757 -0.2480  0.4007 -0.5446
    4CHTO   O73 1294   5.570   8.015   2.959 -0.4184  0.7309 -0.6202
    4CHTO  C113 1295   5.668   8.101   2.895  0.0940 -0.3468 -0.1193
    4CHTO  H217 1296   5.711   8.056   2.804  0.6966 -0.2912  0.1267
    4CHTO  C124 1297   5.787   8.117   2.994 -0.2017 -0.7820  0.5537
    4CHTO   O83 1298   5.868   8.004   3.008 -0.1485  0.5124 -0.3882
    4CHTO  H204 1299   5.823   7.938   3.058 -2.3012  1.6484 -0.8011
    4CHTO  C109 1300   5.604   8.232   2.851  0.3164 -0.0038  0.0116
    4CHTO  H213 1301   5.568   8.284   2.942 -1.9822 -0.5569 -0.5513
    4CHTO  C110 1302   5.480   8.202   2.760 -0.2809 -0.2529  0.0630
    4CHTO  H214 1303   5.510   8.194   2.655  1.4481  0.5361  0.4736
    4CHTO   O78 1304   5.404   8.324   2.760  0.2019  0.1644  0.8372
    4CHTO  H200 1305   5.457   8.399   2.744  0.7186 -0.4590 -0.5231
    4CHTO  C111 1306   5.390   8.078   2.806  0.4343 -0.0696  0.6851
    4CHTO  H215 1307   5.335   8.109   2.896  2.0848  0.2090  1.6141
    4CHTO   N19 1308   5.285   8.038   2.705 -0.0484  0.5349 -0.2516
    4CHTO  H207 1309   5.317   7.953   2.647 -0.0273 -0.2845  0.9413
    4CHTO  H208 1310   5.254   8.119   2.641 -2.1126  0.2851  0.3692
    4CHTO   O74 1311   5.700   8.313   2.791 -0.6870  0.4784 -0.8942
    4CHTO  C115 1312   5.685   8.488   2.784 -0.0733  0.3328  0.9074
    4CHTO  H219 1313   5.584   8.520   2.758 -0.1170 -0.9231 -0.5594
    4CHTO   O76 1314   5.726   8.551   2.917 -0.1011 -0.2076 -0.2918
    4CHTO  C122 1315   5.726   8.694   2.919 -0.3911 -0.4032 -0.6331
    4CHTO  H226 1316   5.744   8.718   3.024 -0.5134  0.7074 -0.8577
    4CHTO  C126 1317   5.582   8.757   2.889  0.0510  0.0760 -0.4213
    4CHTO   O85 1318   5.583   8.900   2.916 -0.6481 -0.1415 -0.5457
    4CHTO  H206 1319   5.511   8.937   2.870 -0.9409  0.0258  0.0349
    4CHTO  C121 1320   5.838   8.744   2.813 -0.5214 -0.6351  0.2478
    4CHTO  H225 1321   5.841   8.853   2.796 -0.1214 -0.7867 -0.7180
    4CHTO   O81 1322   5.969   8.703   2.859  0.0731  0.5806  0.2779
    4CHTO  H202 1323   5.979   8.610   2.853  2.0318  0.6964  1.5408
    4CHTO  C119 1324   5.797   8.686   2.669  0.1879  0.3671  0.4494
    4CHTO  H223 1325   5.697   8.724   2.650  0.4467  0.0606 -1.6533
    4CHTO  C117 1326   5.781   8.534   2.664  0.7153 -0.2493 -1.2397
    4CHTO  H221 1327   5.870   8.476   2.691  0.0752  0.3259  2.5051
    4CHTO   N20 1328   5.733   8.489   2.536 -0.4828  0.2682  0.5257
    4CHTO  H209 1329   5.654   8.419   2.557  1.5313 -1.1194  3.8323
    4CHTO  H210 1330   5.820   8.453   2.482 -1.7969 -1.8071 -0.3008
    4CHTO   O80 1331   5.884   8.753   2.545  0.5449  0.7723 -0.1508
    4CHTO  C103 1332   6.039   8.772   2.559  0.6767 -0.8371  0.2583
    4CHTO  H190 1333   6.060   8.779   2.665 -3.0534  1.4144  0.9482
    4CHTO  C101 1334   6.129   8.660   2.501 -0.0135  0.1587  0.5762
    4CHTO  H188 1335   6.095   8.631   2.401  0.5036 -1.0185  0.7445
    4CHTO   O68 1336   6.110   8.545   2.585  0.1957  0.2025 -0.1620
    4CHTO  H168 1337   6.126   8.566   2.676 -0.6186  0.2992 -0.0347
    4CHTO   C99 1338   6.281   8.708   2.486  0.8584  0.6320  0.0614
    4CHTO  H186 1339   6.337   8.707   2.581  1.7386  0.0136 -0.4496
    4CHTO   N17 1340   6.357   8.615   2.397 -0.0331  0.3753 -0.7636
    4CHTO  H174 1341   6.450   8.664   2.372 -0.8575  1.0074 -2.6706
    4CHTO  H175 1342   6.387   8.524   2.448  2.4504  1.0018 -1.0546
    4CHTO   C97 1343   6.295   8.853   2.436  0.7375  0.4856  0.5230
    4CHTO  H184 1344   6.276   8.860   2.328  2.8832  1.2638  0.1562
    4CHTO   O64 1345   6.210   8.939   2.512  0.3706 -0.6605 -0.4252
    4CHTO  C104 1346   6.069   8.914   2.503  0.4006  0.2279  0.4954
    4CHTO  H191 1347   6.034   8.908   2.400 -1.6364  1.4469  1.0759
    4CHTO  C108 1348   5.987   9.025   2.566 -0.1799 -0.0077  0.3633
    4CHTO   O71 1349   5.985   9.139   2.480  0.2808  0.0695  0.6110
    4CHTO  H171 1350   5.968   9.216   2.531  3.0894  0.6470  0.7580
    4CHTO   O62 1351   6.424   8.906   2.464  0.0732 -0.1199 -0.1682
    4CHTO   C91 1352   6.481   8.991   2.354  0.2794  0.4050  0.0059
    4CHTO  H178 1353   6.455   8.945   2.259 -0.4839 -1.3339  1.0375
    4CHTO   C92 1354   6.640   8.984   2.354  0.1601 -0.2752  0.3472
    4CHTO  H179 1355   6.674   9.020   2.453  0.9403  0.4666 -0.1844
    4CHTO   O66 1356   6.689   8.850   2.352  0.2519 -0.1996 -0.0217
    4CHTO  H166 1357   6.760   8.840   2.290  1.2061  4.2778  0.1744
    4CHTO   C93 1358   6.697   9.072   2.225  0.1168  0.0231 -0.4138
    4CHTO  H180 1359   6.693   9.007   2.136  1.0247 -2.6640  1.4309
    4CHTO   N16 1360   6.840   9.107   2.239 -0.1045  0.1308  0.3361
    4CHTO  H172 1361   6.903   9.026   2.205  2.6615  1.8668  1.1365
    4CHTO  H173 1362   6.873   9.146   2.334  1.7344 -0.9761  0.1701
    4CHTO   C94 1363   6.617   9.202   2.203 -0.2758 -0.2760  0.1734
    4CHTO  H181 1364   6.682   9.289   2.189 -1.4457  0.7298  0.8577
    4CHTO   O61 1365   6.530   9.241   2.310 -0.7003  0.3590  0.4703
    4CHTO   C95 1366   6.439   9.148   2.362 -0.1768  0.3516  0.4364
    4CHTO  H182 1367   6.434   9.167   2.470  1.1691  1.0684  0.3792
    4CHTO  C106 1368   6.302   9.175   2.282  1.0516  0.6429  0.1821
    4CHTO   O69 1369   6.257   9.309   2.296  0.2456  0.4651 -0.0245
    4CHTO  H169 1370   6.311   9.365   2.243  2.3725  1.6904  3.3210
    4CHTO   O63 1371   6.521   9.193   2.067 -0.3967  0.2143 -0.4418
    4CHTO   C96 1372   6.600   9.164   1.927 -0.1791  0.4250 -0.2787
    4CHTO  H183 1373   6.700   9.125   1.950  0.0775  1.6394  0.6991
    4CHTO   C98 1374   6.618   9.285   1.833 -0.3591 -0.4299 -0.4783
    4CHTO  H185 1375   6.519   9.327   1.811  0.0403  0.4680 -0.5892
    4CHTO   O67 1376   6.682   9.389   1.905  0.5890 -0.2236 -0.3511
    4CHTO  H167 1377   6.651   9.473   1.877  2.1385  1.1512  1.8435
    4CHTO  C102 1378   6.691   9.252   1.701 -0.9910  0.0639 -0.1712
    4CHTO  H189 1379   6.795   9.224   1.725 -1.0358 -1.5772 -1.8038
    4CHTO   N18 1380   6.703   9.366   1.608 -0.0401  0.5919 -0.3989
    4CHTO  H176 1381   6.695   9.326   1.507  0.1713  0.1985 -0.2617
    4CHTO  H177 1382   6.612   9.421   1.626 -0.1095  0.1637  0.5563
    4CHTO  C105 1383   6.613   9.132   1.632 -0.3969  0.5355  0.2503
    4CHTO  H192 1384   6.513   9.165   1.605 -0.5042 -0.1765 -0.2085
    4CHTO   O65 1385   6.605   9.024   1.726  0.3188 -0.3926 -0.0903
    4CHTO  C100 1386   6.523   9.050   1.838  0.1414 -0.5305 -0.4212
    4CHTO  H187 1387   6.425   9.093   1.814 -0.0666 -0.1785  1.0006
    4CHTO  C107 1388   6.512   8.916   1.896 -0.8219  0.7997 -0.2625
    4CHTO   O70 1389   6.401   8.917   1.984 -0.5683  0.4220 -0.0645
    4CHTO  H170 1390   6.396   8.828   2.014  2.9008  0.6262  1.3750
    4CHTO   O57 1391   6.709   9.094   1.492  0.1701 -0.2544 -0.2804
    4CHTO   C85 1392   6.632   9.052   1.380 -0.1140  0.2178  0.0656
    4CHTO  H157 1393   6.546   9.122   1.371 -0.3525 -0.2644 -1.5871
    4CHTO   C83 1394   6.569   8.909   1.407 -1.0514  0.2619  0.7844
    4CHTO  H155 1395   6.492   8.921   1.484  0.3132  1.7257  1.9816
    4CHTO   O56 1396   6.674   8.821   1.460  0.3225  0.0331  0.3832
    4CHTO  H135 1397   6.747   8.810   1.402  0.3252 -1.4663  0.6426
    4CHTO   C81 1398   6.508   8.858   1.279 -0.2475 -0.1966  0.8153
    4CHTO  H153 1399   6.435   8.934   1.250 -1.2795 -1.6966 -0.5799
    4CHTO   N14 1400   6.423   8.738   1.290  0.3225  0.3701  0.4659
    4CHTO  H141 1401   6.370   8.714   1.200  1.9394 -1.7398  0.0352
    4CHTO  H142 1402   6.351   8.753   1.368 -1.9039 -2.9416 -0.8671
    4CHTO   C79 1403   6.614   8.849   1.164 -0.3536 -0.3404  0.0891
    4CHTO  H151 1404   6.564   8.809   1.076 -0.0681  2.1236 -1.2031
    4CHTO   O52 1405   6.653   8.978   1.139  0.5584 -0.2331 -0.6066
    4CHTO   C86 1406   6.717   9.046   1.249  0.2017  0.4968  0.0918
    4CHTO  H158 1407   6.811   8.992   1.271  0.0134 -0.7409 -1.9772
    4CHTO   C90 1408   6.760   9.190   1.195 -0.0782  0.1011 -0.0509
    4CHTO   O60 1409   6.650   9.284   1.187  0.3534  0.5456  0.2338
    4CHTO  H138 1410   6.685   9.364   1.152  0.7039  0.6017  0.7169
    4CHTO   O50 1411   6.732   8.768   1.191  0.4444 -0.2663 -0.5154
    4CHTO   C73 1412   6.861   8.733   1.144  0.1611 -0.0864  0.2451
    4CHTO  H145 1413   6.924   8.823   1.133  0.6362 -0.7953 -3.9619
    4CHTO   C74 1414   6.837   8.678   1.003  0.1235  0.7282  0.1424
    4CHTO  H146 1415   6.779   8.758   0.955 -0.9810 -0.8386 -1.1960
    4CHTO   O54 1416   6.965   8.659   0.934 -0.2052  0.2260 -0.1665
    4CHTO  H133 1417   6.998   8.732   0.885  1.9033 -0.5446  0.0637
    4CHTO   C75 1418   6.755   8.543   1.008 -0.1153  0.4190 -0.6089
    4CHTO  H147 1419   6.659   8.560   1.058  0.0507  0.7908 -0.4156
    4CHTO   N13 1420   6.729   8.496   0.864  0.1779  0.1100  0.2699
    4CHTO  H139 1421   6.680   8.578   0.814 -1.0028 -0.4734  0.4577
    4CHTO  H140 1422   6.816   8.463   0.808 -0.9063 -1.3791 -0.5863
    4CHTO   C76 1423   6.837   8.445   1.099 -0.6059  0.3024  0.4492
    4CHTO  H148 1424   6.936   8.437   1.053 -1.7435  1.1334 -2.2390
    4CHTO   O49 1425   6.858   8.498   1.237  0.3561 -0.0539 -0.0415
    4CHTO   C77 1426   6.938   8.620   1.236  0.1747 -0.1268  0.8673
    4CHTO  H149 1427   7.032   8.602   1.184 -0.6625 -2.8127  0.1752
    4CHTO   C88 1428   6.967   8.670   1.383  0.0650  0.0435 -0.9843
    4CHTO   O58 1429   7.031   8.558   1.482  0.2667  0.2783  0.1377
    4CHTO  H136 1430   7.048   8.484   1.427  1.6022  0.0607  0.8150
    4CHTO   O51 1431   6.762   8.301   1.124  0.4305 -0.2022  0.0252
    4CHTO   C78 1432   6.876   8.175   1.123  0.3947 -0.7173 -0.0915
    4CHTO  H150 1433   6.976   8.216   1.148  0.9115 -0.9948 -1.6464
    4CHTO   C80 1434   6.886   8.101   0.988 -0.3397  0.4612 -0.4156
    4CHTO  H152 1435   6.785   8.065   0.962 -0.4824 -0.4343  1.3177
    4CHTO   O55 1436   6.937   8.199   0.897  0.3381  0.3260  0.2110
    4CHTO  H134 1437   6.943   8.163   0.810 -3.0518  1.1477 -0.4609
    4CHTO   C84 1438   6.970   7.967   0.995  0.7464 -0.1618 -0.9460
    4CHTO  H156 1439   7.071   7.996   1.023  0.6039  0.8167 -1.3976
    4CHTO   N15 1440   6.968   7.900   0.860 -0.4847 -0.1451 -0.3446
    4CHTO  H143 1441   6.900   7.817   0.859  0.2750 -0.7539 -1.9416
    4CHTO  H144 1442   7.068   7.866   0.845  0.0965  0.8925  1.0917
    4CHTO   C87 1443   6.909   7.883   1.112 -0.2473 -0.1389  0.5078
    4CHTO  H159 1444   6.806   7.858   1.089 -0.1631 -2.1431  2.0976
    4CHTO   O53 1445   6.921   7.971   1.254  0.4768  0.0682  0.9145
    4CHTO   C82 1446   6.835   8.086   1.239  0.4597  0.0672  0.0317
    4CHTO  H154 1447   6.729   8.060   1.232  0.2212  1.1108 -0.3670
    4CHTO   C89 1448   6.850   8.157   1.369  0.4604  0.3911 -0.3207
    4CHTO   O59 1449   6.788   8.278   1.414  0.0864  0.0429 -0.2165
    4CHTO  H137 1450   6.796   8.282   1.507  0.5274 -0.2399 -0.2431
    4CHTO   O45 1451   6.997   7.759   1.147  0.1429 -0.3679  0.2025
    4CHTO   C67 1452   6.958   7.635   1.085 -0.0763 -0.2587 -0.6838
    4CHTO  H124 1453   6.945   7.648   0.978 -2.1648  0.6101 -0.3505
    4CHTO   C65 1454   7.069   7.532   1.116  0.1043  0.0952  0.2346
    4CHTO  H122 1455   7.162   7.582   1.089  0.7989 -1.1475  0.2904
    4CHTO   O44 1456   7.060   7.408   1.044 -0.0281 -0.4004  0.1744
    4CHTO  H102 1457   7.004   7.420   0.970  0.0984  2.7601  0.4997
    4CHTO   C63 1458   7.079   7.501   1.268  0.1766 -0.6092  0.3073
    4CHTO  H120 1459   7.083   7.593   1.325 -0.3543 -0.4658  0.1218
    4CHTO   N11 1460   7.207   7.433   1.305  0.3869 -0.3977  0.1151
    4CHTO  H108 1461   7.250   7.384   1.220  0.1891 -0.2301 -0.0835
    4CHTO  H109 1462   7.266   7.494   1.370 -0.6307  1.8478 -0.9795
    4CHTO   C61 1463   6.941   7.439   1.315  0.4087 -0.4780  0.8273
    4CHTO  H118 1464   6.943   7.436   1.425 -1.2255  0.8790  0.9212
    4CHTO   O40 1465   6.827   7.516   1.277  0.5656  0.0140 -0.4222
    4CHTO   C68 1466   6.822   7.577   1.146 -0.2120  0.5295 -0.5644
    4CHTO  H125 1467   6.759   7.666   1.167  1.7455  1.8290 -0.0712
    4CHTO   C72 1468   6.750   7.486   1.038 -0.4001  0.5111  0.2894
    4CHTO   O48 1469   6.623   7.440   1.079 -0.7006 -0.4341  0.0150
    4CHTO  H105 1470   6.617   7.402   1.165  1.7993 -0.6404  0.1260
    4CHTO   O38 1471   6.919   7.302   1.276  0.1732 -0.2564  0.3641
    4CHTO   C55 1472   6.849   7.230   1.376  0.0959  0.3300 -0.0732
    4CHTO  H112 1473   6.773   7.282   1.435 -0.2189 -2.6282  2.2574
    4CHTO   C56 1474   6.965   7.165   1.468  0.3873 -1.0188  0.1501
    4CHTO  H113 1475   7.032   7.120   1.394  1.0148 -0.1142  0.1579
    4CHTO   O42 1476   7.051   7.265   1.533  0.9276  0.2017  0.5227
    4CHTO  H100 1477   7.005   7.314   1.598  0.7098 -1.4309  1.5929
    4CHTO   C57 1478   6.910   7.057   1.565  0.1321 -0.4346  0.3113
    4CHTO  H114 1479   6.847   7.116   1.631 -1.1212 -1.1666 -0.2040
    4CHTO   N10 1480   7.012   6.978   1.638  0.3133  0.4414 -0.4487
    4CHTO  H106 1481   6.973   6.953   1.735  0.8687 -0.8810 -0.5572
    4CHTO  H107 1482   7.104   7.033   1.646  0.7861 -0.4517  0.2804
    4CHTO   C58 1483   6.819   6.957   1.487  0.4027 -0.7634 -0.6023
    4CHTO  H115 1484   6.878   6.902   1.412 -0.4323  0.5295 -2.2333
    4CHTO   O37 1485   6.720   7.030   1.412 -0.6826 -0.4431  0.1646
    4CHTO   C59 1486   6.779   7.117   1.307  1.0966 -0.9429 -0.0249
    4CHTO  H116 1487   6.847   7.053   1.251  0.1526 -1.3450 -0.7309
    4CHTO   C70 1488   6.666   7.152   1.209 -0.6330 -0.9892 -0.4000
    4CHTO   O46 1489   6.636   7.064   1.099 -0.0201 -0.3584  0.0771
    4CHTO  H103 1490   6.591   6.986   1.126  0.5024 -0.5757  0.3415
    4CHTO   O39 1491   6.739   6.832   1.593 -0.3709  0.0866 -0.1477
    4CHTO   C60 1492   6.647   6.740   1.527  0.9085 -0.3916 -0.2831
    4CHTO  H117 1493   6.623   6.775   1.426 -1.8133  0.1148  0.4798
    4CHTO   C62 1494   6.711   6.598   1.522  0.7491 -0.2954 -0.2481
    4CHTO  H119 1495   6.804   6.616   1.464  1.3941  1.0389  1.1794
    4CHTO   O43 1496   6.753   6.543   1.650  0.9054  0.1747 -0.0218
    4CHTO  H101 1497   6.841   6.569   1.668  0.5971  1.1303  0.1697
    4CHTO   C66 1498   6.612   6.496   1.437  0.3330 -0.1792  0.1543
    4CHTO  H123 1499   6.603   6.533   1.335 -0.6358 -1.3408 -0.1907
    4CHTO   N12 1500   6.673   6.361   1.412  0.3269  0.4541 -0.1715
    4CHTO  H110 1501   6.638   6.285   1.480  3.7566  0.3899  1.6194
    4CHTO  H111 1502   6.781   6.370   1.413  0.4767 -1.0294 -1.1538
    4CHTO   C69 1503   6.469   6.482   1.500  0.1331  0.0913 -0.6133
    4CHTO  H126 1504   6.483   6.424   1.594  1.8532  1.2091 -0.1490
    4CHTO   O41 1505   6.417   6.647   1.514 -0.2844 -0.1598  0.5354
    4CHTO   C64 1506   6.512   6.720   1.603 -0.2909  0.4295  0.4620
    4CHTO  H121 1507   6.533   6.666   1.697 -0.8187  0.1844  0.4359
    4CHTO   C71 1508   6.459   6.862   1.634  0.5191 -0.2811 -0.0770
    4CHTO   O47 1509   6.318   6.869   1.639  0.4073 -0.3586  0.3170
    4CHTO  H104 1510   6.289   6.947   1.596  0.7450 -0.6256 -0.3903
    4CHTO   O34 1511   6.367   6.396   1.388  0.3846 -0.1915 -0.4058
    4CHTO   C49 1512   6.250   6.438   1.293 -0.4500 -0.8724 -0.5684
    4CHTO   H91 1513   6.191   6.516   1.341 -1.5838 -2.1814  0.2109
    4CHTO   C47 1514   6.163   6.317   1.250  0.1478 -0.7238  0.0873
    4CHTO   H89 1515   6.073   6.353   1.197  0.2300 -1.0290 -0.2601
    4CHTO   O33 1516   6.121   6.239   1.361  0.3538 -0.0540  0.4756
    4CHTO   H70 1517   6.195   6.188   1.389  0.0008 -0.6133  0.3826
    4CHTO   C45 1518   6.244   6.216   1.153 -0.2768  0.5040 -0.0064
    4CHTO   H87 1519   6.271   6.126   1.210 -1.0554  1.6028  2.1265
    4CHTO    N8 1520   6.152   6.173   1.037 -0.6811 -0.3296 -0.1746
    4CHTO   H75 1521   6.083   6.091   1.051  0.7101 -1.4467  0.3138
    4CHTO   H76 1522   6.209   6.143   0.950  0.2752 -1.8776  0.9517
    4CHTO   C43 1523   6.386   6.270   1.112  0.6696  0.0558  0.0581
    4CHTO   H85 1524   6.445   6.255   1.202 -0.3935 -1.4000  0.5216
    4CHTO   O29 1525   6.381   6.406   1.071  0.1172 -0.2628 -0.3667
    4CHTO   C50 1526   6.307   6.498   1.158 -0.2184  0.1984 -0.4721
    4CHTO   H92 1527   6.380   6.577   1.181 -0.9596  0.2578  1.8448
    4CHTO   C54 1528   6.202   6.563   1.070 -0.5882 -0.3078 -0.0085
    4CHTO   O36 1529   6.248   6.649   0.966 -0.6791  0.3692 -0.3625
    4CHTO   H72 1530   6.299   6.598   0.906 -0.3652 -2.0255  1.8326
    4CHTO   O27 1531   6.459   6.197   1.008  0.0373  0.2878 -0.2067
    4CHTO   C37 1532   6.601   6.174   1.010  0.5813  0.2501  0.3809
    4CHTO   H79 1533   6.629   6.130   0.913  0.8995  1.1529  0.0597
    4CHTO   C38 1534   6.679   6.311   1.035  0.6406 -0.2400  0.3320
    4CHTO   H80 1535   6.635   6.358   1.124 -0.7426 -0.7303 -0.0846
    4CHTO   O31 1536   6.663   6.395   0.922  0.5650 -0.4850  0.3217
    4CHTO   H68 1537   6.601   6.462   0.943  2.9742  1.4992  1.5207
    4CHTO   C39 1538   6.836   6.280   1.057  0.3863 -0.6011 -0.0781
    4CHTO   H81 1539   6.874   6.248   0.960 -1.1749 -0.2615 -0.8102
    4CHTO    N7 1540   6.922   6.395   1.104  0.4042 -0.6316 -0.0948
    4CHTO   H73 1541   6.906   6.486   1.049  0.3366  0.4816  1.7056
    4CHTO   H74 1542   7.028   6.375   1.100  0.5121  0.1926 -1.6467
    4CHTO   C40 1543   6.859   6.152   1.148  0.0638 -0.2684  0.2810
    4CHTO   H82 1544   6.835   6.177   1.252  1.8582 -0.2543  0.7078
    4CHTO   O26 1545   6.788   6.039   1.103  0.6866  0.2738 -0.9352
    4CHTO   C41 1546   6.638   6.059   1.116 -0.4635 -0.1072 -0.4991
    4CHTO   H83 1547   6.611   6.099   1.216 -1.5763 -0.9580 -0.4622
    4CHTO   C52 1548   6.558   5.927   1.091  1.0081 -0.1715  0.2951
    4CHTO   O35 1549   6.532   5.871   0.940  0.2821  0.0492  0.2440
    4CHTO   H71 1550   6.489   5.789   0.927  0.8331 -0.4211  1.3431
    4CHTO   O28 1551   6.994   6.112   1.157 -0.1543  0.1711 -0.3338
    4CHTO   C42 1552   7.051   6.032   1.267  0.0490 -0.1546 -0.0737
    4CHTO   H84 1553   7.160   6.045   1.265  0.2351 -1.1828  1.7960
    4CHTO   C44 1554   7.032   5.876   1.254 -0.3694 -0.0533 -0.0674
    4CHTO   H86 1555   6.926   5.854   1.243 -0.8668  1.3807  1.6076
    4CHTO   O32 1556   7.093   5.834   1.125  0.1128  0.0899 -0.3395
    4CHTO   H69 1557   7.087   5.740   1.119 -0.0557  0.1102 -0.4923
    4CHTO   C48 1558   7.093   5.804   1.381  0.1842 -0.1651  0.5562
    4CHTO   H90 1559   7.200   5.826   1.381  0.5152 -1.7127  0.1965
    4CHTO    N9 1560   7.095   5.655   1.369  0.5584  0.3536 -0.2202
    4CHTO   H77 1561   7.154   5.634   1.281 -1.3539 -0.5690 -1.3114
    4CHTO   H78 1562   6.992   5.623   1.360  0.6234  0.1176 -0.1259
    4CHTO   C51 1563   7.024   5.855   1.510 -0.9165 -0.5517  0.2481
    4CHTO   H93 1564   6.917   5.838   1.496 -0.5753 -1.4165 -1.4449
    4CHTO   O30 1565   7.055   5.997   1.513 -0.4907  0.0008 -0.3944
    4CHTO   C46 1566   6.996   6.081   1.402 -0.2419 -0.3235 -0.2987
    4CHTO   H88 1567   6.888   6.068   1.404 -0.6715  2.7919  1.8409
    4CHTO   C53 1568   7.047   6.225   1.446 -0.7606 -0.3370 -0.3618
    4CHTO   O72 1569   6.967   6.267   1.557 -1.2104  0.7034  0.4265
    4CHTO  H199 1570   6.988   6.218   1.635 -0.7540 -0.0331 -0.1594
    4CHTO   O22 1571   7.067   5.795   1.633 -0.2634  0.0468  0.0851
    4CHTO   C31 1572   6.971   5.791   1.743 -0.0481  0.4979  0.4749
    4CHTO   H59 1573   6.889   5.858   1.711  1.0270  0.4819 -2.5336
    4CHTO   C29 1574   6.910   5.649   1.758 -0.3531 -0.7937  0.0367
    4CHTO   H57 1575   6.990   5.574   1.749  0.0106 -0.2922 -1.0727
    4CHTO   O21 1576   6.838   5.615   1.642 -0.1393  0.2374  0.1847
    4CHTO   H37 1577   6.744   5.620   1.653 -0.1223  2.4919 -0.5141
    4CHTO   C27 1578   6.833   5.622   1.890 -0.4595 -0.6224 -0.3722
    4CHTO   H55 1579   6.735   5.669   1.879  0.6821  1.2801 -3.0645
    4CHTO    N5 1580   6.814   5.476   1.915  0.1387 -0.1792  0.0529
    4CHTO   H43 1581   6.768   5.426   1.831  0.0046 -1.1799  0.7157
    4CHTO   H44 1582   6.758   5.467   2.007 -1.4544  1.1458 -0.7472
    4CHTO   C25 1583   6.887   5.701   2.016 -0.3760 -0.3941  1.0838
    4CHTO   H53 1584   6.972   5.641   2.052 -1.0787 -1.5411  0.8396
    4CHTO   O17 1585   6.920   5.842   1.982 -0.4537  0.0290 -0.0675
    4CHTO   C32 1586   7.020   5.843   1.884 -0.0996 -0.3733  0.1445
    4CHTO   H60 1587   7.103   5.785   1.923 -1.1848 -1.4208  0.9296
    4CHTO   C36 1588   7.084   5.989   1.873 -0.1831  0.3965 -0.5051
    4CHTO   O25 1589   6.989   6.083   1.830 -0.5026  0.3194 -0.2622
    4CHTO   H40 1590   7.035   6.150   1.782 -0.4402  0.8840  0.5833
    4CHTO   O15 1591   6.772   5.700   2.134  0.2611  0.0153 -0.5756
    4CHTO   C19 1592   6.743   5.765   2.257 -0.4150  0.1375 -0.2133
    4CHTO   H47 1593   6.654   5.725   2.306 -1.0170  2.6430  0.8322
    4CHTO   C20 1594   6.860   5.746   2.359 -0.0879  0.4965  0.2795
    4CHTO   H48 1595   6.960   5.764   2.317 -0.2124  0.0094 -0.2402
    4CHTO   O19 1596   6.866   5.604   2.391  0.3145 -0.3631 -0.2371
    4CHTO   H35 1597   6.801   5.552   2.347 -1.0046  0.4209  0.7358
    4CHTO   C21 1598   6.839   5.829   2.494 -0.4264 -0.2481  0.0764
    4CHTO   H49 1599   6.754   5.783   2.544 -0.9368  0.1897 -0.3806
    4CHTO    N4 1600   6.961   5.824   2.579  0.5807 -0.1656  0.5372
    4CHTO   H41 1601   6.954   5.745   2.652  1.2957 -2.5942 -1.9351
    4CHTO   H42 1602   6.967   5.920   2.627 -0.4183 -0.0395  0.4263
    4CHTO   C22 1603   6.797   5.972   2.459 -0.0296  0.1696 -0.8188
    4CHTO   H50 1604   6.879   6.019   2.405  0.1953 -0.3623 -0.9397
    4CHTO   O14 1605   6.682   5.966   2.375 -0.2024  0.0643 -0.4058
    4CHTO   C23 1606   6.703   5.917   2.241 -0.6901  0.6914  0.5329
    4CHTO   H51 1607   6.788   5.978   2.206  0.5515 -2.1303 -1.6202
    4CHTO   C34 1608   6.571   5.941   2.171 -0.2651  0.0685  0.0642
    4CHTO   O23 1609   6.570   5.906   2.031 -0.6734  0.3811  0.5355
    4CHTO   H38 1610   6.589   5.814   2.021 -1.3632  0.2032  0.8444
    4CHTO   O16 1611   6.758   6.042   2.578  0.0975 -0.6805 -0.4591
    4CHTO   C24 1612   6.797   6.207   2.564 -0.3861 -0.9515  0.4437
    4CHTO   H52 1613   6.798   6.242   2.461  1.4441 -0.5917  0.5556
    4CHTO   C26 1614   6.932   6.237   2.624 -0.1039 -0.7840  0.6342
    4CHTO   H54 1615   6.924   6.217   2.733  0.8069  1.2243  1.1132
    4CHTO   O20 1616   7.037   6.151   2.568  0.3451  0.0483 -0.1215
    4CHTO   H36 1617   7.004   6.101   2.497 -1.7546 -0.9321  1.4893
    4CHTO   C30 1618   6.963   6.390   2.610 -0.4001  0.7243 -0.3370
    4CHTO   H58 1619   6.978   6.429   2.509  0.3037  0.8854 -0.1770
    4CHTO    N6 1620   7.090   6.424   2.680  0.1084 -0.3932  0.0715
    4CHTO   H45 1621   7.113   6.354   2.758 -1.4007 -2.1933 -1.0609
    4CHTO   H46 1622   7.170   6.420   2.607  0.3181  0.8752  0.2105
    4CHTO   C33 1623   6.848   6.474   2.670 -0.0647 -0.1112  0.1204
    4CHTO   H61 1624   6.848   6.454   2.779 -1.5025 -0.8651 -0.0046
    4CHTO   O18 1625   6.715   6.437   2.620  0.3674 -0.3795 -0.5577
    4CHTO   C28 1626   6.687   6.294   2.633 -0.1544 -0.3671 -0.1192
    4CHTO   H56 1627   6.673   6.260   2.736  0.1289 -1.3929 -0.4068
    4CHTO   C35 1628   6.566   6.266   2.535  0.4363 -0.0249 -0.2382
    4CHTO   O24 1629   6.449   6.352   2.558  0.0374  0.1788 -0.0854
    4CHTO   H39 1630   6.451   6.435   2.515 -0.2105  1.0885  1.6262
    4CHTO    O9 1631   6.874   6.616   2.656 -0.5913  0.4072 -0.2525
    4CHTO   C13 1632   6.765   6.701   2.672 -0.1514  0.2985  0.1067
    4CHTO   H26 1633   6.688   6.652   2.734 -0.6133 -1.3282 -1.7137
    4CHTO   C11 1634   6.716   6.737   2.524 -0.2524  0.2533 -0.4179
    4CHTO   H24 1635   6.670   6.644   2.487  1.4955 -0.1789 -1.6029
    4CHTO    O8 1636   6.826   6.773   2.434  0.2958  0.0490 -0.2906
    4CHTO    H3 1637   6.791   6.773   2.347  1.0811  3.6809 -0.6853
    4CHTO    C9 1638   6.618   6.855   2.531  0.8063 -0.4027 -0.5961
    4CHTO   H22 1639   6.544   6.829   2.609  2.2525 -0.4281  0.7955
    4CHTO    N2 1640   6.546   6.881   2.402  0.2203  0.6525 -0.4822
    4CHTO   H10 1641   6.560   6.984   2.373  1.4330  0.9515  1.1059
    4CHTO   H11 1642   6.582   6.808   2.330 -1.9069  0.1391 -1.0668
    4CHTO    C7 1643   6.694   6.982   2.593  0.3410 -0.4537 -0.4982
    4CHTO   H20 1644   6.622   7.034   2.660  1.8817 -0.4688  1.2188
    4CHTO    O4 1645   6.813   6.950   2.670 -0.2483 -1.1333 -0.1990
    4CHTO   C14 1646   6.792   6.836   2.756 -0.5676 -0.2178  0.1657
    4CHTO   H27 1647   6.696   6.857   2.807 -1.2561  0.4343 -1.3671
    4CHTO   C18 1648   6.909   6.836   2.861  0.0369 -0.5588 -0.2204
    4CHTO   O13 1649   7.038   6.810   2.802 -0.3397  0.0179  0.2088
    4CHTO    H7 1650   7.066   6.881   2.748 -0.5067 -0.2702 -0.2563
    4CHTO    O2 1651   6.738   7.101   2.459  0.1933 -0.9006  0.0997
    4CHTO    C1 1652   6.843   7.191   2.482 -0.1470  0.8625 -0.1922
    4CHTO   H14 1653   6.916   7.136   2.545 -0.4642  0.6484 -0.0105
    4CHTO    C2 1654   6.801   7.322   2.569 -0.5332  0.5090  0.7954
    4CHTO   H15 1655   6.711   7.370   2.528  0.4434  2.2757  0.6660
    4CHTO    O6 1656   6.771   7.280   2.704 -0.1278  0.6505  0.5681
    4CHTO    H1 1657   6.691   7.232   2.701  1.1714 -1.5091 -2.0171
    4CHTO    C3 1658   6.915   7.427   2.570 -0.1286 -0.0320 -0.3316
    4CHTO   H16 1659   6.993   7.389   2.638 -1.4231  0.3864  1.3990
    4CHTO    N1 1660   6.872   7.561   2.624 -0.1165  0.2814  0.1009
    4CHTO    H8 1661   6.881   7.647   2.560  0.3234  0.3344  0.2340
    4CHTO    H9 1662   6.777   7.551   2.675 -0.2152  2.7655  0.4512
    4CHTO    C4 1663   6.986   7.439   2.429  0.1603 -0.2474 -0.5306
    4CHTO   H17 1664   6.909   7.481   2.364 -0.4836 -1.9335 -0.8609
    4CHTO    O1 1665   7.033   7.308   2.386 -0.2711 -0.5243 -0.6417
    4CHTO    C5 1666   6.920   7.227   2.346  0.0371 -0.0176 -0.4256
    4CHTO   H18 1667   6.854   7.288   2.284  0.6685  1.4097  0.2889
    4CHTO   C16 1668   6.982   7.105   2.263 -0.0845 -0.0779 -0.4679
    4CHTO   O11 1669   6.887   7.029   2.187  0.0987 -0.4991  0.3160
    4CHTO    H5 1670   6.931   6.980   2.120 -0.0931 -0.0060 -0.1720
    4CHTO    O3 1671   7.107   7.516   2.429 -0.3475  0.4003 -0.1383
    4CHTO    C6 1672   7.162   7.574   2.304 -0.1617 -0.1014  0.1094
    4CHTO   H19 1673   7.106   7.539   2.217 -1.6414  1.3601  0.4549
    4CHTO    C8 1674   7.165   7.733   2.317 -1.0490  0.5382 -0.0416
    4CHTO   H21 1675   7.234   7.770   2.393 -1.9354  0.9111  0.5877
    4CHTO    O7 1676   7.031   7.774   2.350 -0.2134 -0.0004 -0.2394
    4CHTO    H2 1677   6.964   7.745   2.290 -0.1710  1.5608 -1.0840
    4CHTO   C12 1678   7.212   7.789   2.179  0.0021 -0.8244 -0.1365
    4CHTO   H25 1679   7.148   7.746   2.099  1.0263 -1.5872 -0.5608
    4CHTO    N3 1680   7.203   7.936   2.166  0.2102  0.4907 -0.2530
    4CHTO   H12 1681   7.173   7.955   2.064 -0.8490 -0.5010 -0.1306
    4CHTO   H13 1682   7.302   7.976   2.184  0.7227 -0.9480  0.2293
    4CHTO   C15 1683   7.357   7.740   2.150 -0.4962 -0.1601  0.0585
    4CHTO   H28 1684   7.429   7.789   2.217 -0.8755 -3.1905  2.8182
    4CHTO   O10 1685   7.401   7.748   1.995 -0.2641  0.0154  0.3281
    4CHTO    H4 1686   7.325   7.731   1.943  0.0717 -3.2105  0.7665
    4CHTO    O5 1687   7.373   7.598   2.170  0.0327 -0.0615 -0.6697
    4CHTO   C10 1688   7.318   7.533   2.286 -0.0134 -0.3443  0.2545
    4CHTO   H23 1689   7.373   7.565   2.375  0.0302  1.0031 -0.2534
    4CHTO   C17 1690   7.340   7.381   2.269  0.1883  0.2020  0.1803
    4CHTO   O12 1691   7.277   7.335   2.150  0.1638  1.0735 -0.3275
    4CHTO    H6 1692   7.265   7.242   2.156 -0.2846  0.9112 -3.0218
    5CHTO  H203 1693   7.927   3.605   1.975 -0.8594 -1.8723 -0.1791
    5CHTO   O82 1694   7.848   3.656   1.980  0.3312 -0.0499  0.2630
    5CHTO  C123 1695   7.771   3.632   2.102 -0.0446 -0.1337  0.3735
    5CHTO  H227 1696   7.838   3.619   2.188 -0.0358  1.7214  0.6682
    5CHTO   O77 1697   7.686   3.745   2.124 -0.0195 -0.6771  0.0582
    5CHTO  C118 1698   7.615   3.758   2.244  0.0569  0.2599 -0.2970
    5CHTO  H222 1699   7.681   3.748   2.332 -0.4908  2.0489  0.3537
    5CHTO  C125 1700   7.545   3.898   2.255  0.1865  0.3667  0.9546
    5CHTO   O84 1701   7.437   3.920   2.159  0.2940  0.2729 -0.2140
    5CHTO  H205 1702   7.466   3.891   2.075 -1.3430 -0.7991 -0.4351
    5CHTO  C114 1703   7.509   3.644   2.251 -0.3435 -0.5525  0.9024
    5CHTO  H218 1704   7.436   3.664   2.173  0.2511  0.1753  0.5209
    5CHTO  C116 1705   7.575   3.509   2.214 -0.0820 -0.3417 -0.5548
    5CHTO  H220 1706   7.615   3.466   2.308  0.4218  0.3029 -0.4740
    5CHTO   O79 1707   7.467   3.419   2.191 -0.8853  0.3739  0.1009
    5CHTO  H201 1708   7.417   3.411   2.270 -0.3064 -0.1635  0.4158
    5CHTO  C120 1709   7.670   3.509   2.087  0.0561 -0.2013 -0.2262
    5CHTO  H224 1710   7.606   3.533   1.999 -1.2113  0.3196  0.8182
    5CHTO   N21 1711   7.748   3.386   2.075  0.1621  0.3662  0.5519
    5CHTO  H211 1712   7.701   3.299   2.119  1.9433 -0.9284 -0.0119
    5CHTO  H212 1713   7.852   3.405   2.098  0.8925 -1.0341 -1.4141
    5CHTO   O75 1714   7.448   3.643   2.380  0.0233 -0.3167 -0.0219
    5CHTO  C112 1715   7.289   3.625   2.400 -0.0832  0.4211  0.4387
    5CHTO  H216 1716   7.252   3.560   2.321  0.5429 -0.5667  0.9522
    5CHTO   O73 1717   7.229   3.760   2.390 -0.0115 -0.2714  0.1786
    5CHTO  C113 1718   7.091   3.772   2.415  0.1779  0.1105  0.0215
    5CHTO  H217 1719   7.036   3.697   2.355  0.2985  0.7253 -0.8776
    5CHTO  C124 1720   7.034   3.914   2.377  0.3502 -0.1821  0.0398
    5CHTO   O83 1721   7.070   3.952   2.242 -0.1943  0.0543  0.6369
    5CHTO  H204 1722   7.151   3.999   2.250 -0.0581  0.2683 -1.5891
    5CHTO  C109 1723   7.058   3.739   2.562 -0.1078 -0.1424  0.4280
    5CHTO  H213 1724   7.120   3.809   2.620  0.8397 -0.6201  0.0063
    5CHTO  C110 1725   7.110   3.588   2.579 -0.2714 -0.1243 -1.3774
    5CHTO  H214 1726   7.051   3.529   2.509  0.2954 -1.8442 -0.4457
    5CHTO   O78 1727   7.077   3.552   2.715  0.0061  0.1343  0.4536
    5CHTO  H200 1728   6.989   3.518   2.720  0.1418 -0.2496  0.2654
    5CHTO  C111 1729   7.260   3.562   2.544 -0.2692 -0.1866  0.2108
    5CHTO  H215 1730   7.325   3.615   2.616 -0.1345 -0.1359  0.0530
    5CHTO   N19 1731   7.295   3.420   2.554 -0.0683 -0.0560  0.0268
    5CHTO  H207 1732   7.286   3.373   2.457  1.5387 -3.0962  1.2615
    5CHTO  H208 1733   7.243   3.368   2.633 -4.2719  1.5771 -1.5041
    5CHTO   O74 1734   6.911   3.766   2.593  0.2415  0.6371  0.7339
    5CHTO  C115 1735   6.865   3.810   2.735  0.1588 -0.2963 -0.0708
    5CHTO  H219 1736   6.952   3.831   2.797  0.7983 -0.4391 -0.9147
    5CHTO   O76 1737   6.788   3.958   2.733  0.1135  0.2980 -0.3824
    5CHTO  C122 1738   6.669   3.948   2.643 -0.5295 -0.7028 -0.0169
    5CHTO  H226 1739   6.704   3.947   2.540 -1.8119 -0.8903 -0.4601
    5CHTO  C126 1740   6.594   4.085   2.661  0.3874  0.1030  0.4592
    5CHTO   O85 1741   6.680   4.202   2.643 -0.1906 -0.0642 -0.5009
    5CHTO  H206 1742   6.630   4.282   2.642  0.1402  0.1488 -0.1915
    5CHTO  C121 1743   6.568   3.831   2.664  0.1445 -0.1619  0.5596
    5CHTO  H225 1744   6.465   3.867   2.684  0.4713  0.3969  1.2282
    5CHTO   O81 1745   6.575   3.745   2.546 -0.4382 -0.2839  0.1398
    5CHTO  H202 1746   6.546   3.793   2.471 -2.0167 -0.8562  0.3651
    5CHTO  C119 1747   6.617   3.755   2.794  0.4446 -0.6379 -0.1423
    5CHTO  H223 1748   6.608   3.827   2.876  0.1131 -0.8384 -0.0024
    5CHTO  C117 1749   6.767   3.701   2.788  0.4488 -0.2629  0.0746
    5CHTO  H221 1750   6.788   3.618   2.721 -3.1662  0.0723 -1.5851
    5CHTO   N20 1751   6.806   3.656   2.926  0.8789 -0.2280 -0.4912
    5CHTO  H209 1752   6.737   3.579   2.956  1.3033 -0.1105  0.8412
    5CHTO  H210 1753   6.910   3.628   2.933  0.9968  0.7455  2.1021
    5CHTO   O80 1754   6.517   3.651   2.847 -0.3794 -0.3335  0.5332
    5CHTO  C103 1755   6.461   3.529   2.743  0.0438 -0.9216 -0.4527
    5CHTO  H190 1756   6.475   3.553   2.638  2.0019 -0.0443 -0.0237
    5CHTO  C101 1757   6.516   3.384   2.754  0.5202 -0.2616  0.3681
    5CHTO  H188 1758   6.520   3.353   2.858  1.8191  1.0296  0.7281
    5CHTO   O68 1759   6.669   3.383   2.714 -0.3062 -0.3854  0.2393
    5CHTO  H168 1760   6.710   3.301   2.736  0.7603  0.1699  0.3545
    5CHTO   C99 1761   6.433   3.291   2.661 -0.0483  0.4563  0.2195
    5CHTO  H186 1762   6.446   3.330   2.558  0.1113 -2.1764 -0.8007
    5CHTO   N17 1763   6.487   3.146   2.664 -0.1939  0.2802  0.0723
    5CHTO  H174 1764   6.593   3.131   2.652 -0.2322 -0.6365  0.8502
    5CHTO  H175 1765   6.423   3.068   2.628  0.4898  0.7138 -2.1328
    5CHTO   C97 1766   6.278   3.303   2.696  0.0281 -0.0694  0.0762
    5CHTO  H184 1767   6.258   3.259   2.795 -0.5163  0.3126  0.1358
    5CHTO   O64 1768   6.233   3.440   2.688  0.6845  0.4079  0.2647
    5CHTO  C104 1769   6.305   3.536   2.770 -0.5690  0.4387 -0.4637
    5CHTO  H191 1770   6.293   3.516   2.877  1.5171  3.1606  0.3034
    5CHTO  C108 1771   6.239   3.673   2.757 -0.0235 -0.4252 -0.4773
    5CHTO   O71 1772   6.232   3.719   2.627  0.3735  0.0734  0.3407
    5CHTO  H171 1773   6.174   3.792   2.617 -0.2556 -0.2215  1.6813
    5CHTO   O62 1774   6.201   3.236   2.597 -0.3880  0.3224  0.2264
    5CHTO   C91 1775   6.067   3.188   2.647  0.1221 -0.4448  0.1158
    5CHTO  H178 1776   6.035   3.246   2.734  0.8576  1.6818 -0.9788
    5CHTO   C92 1777   6.072   3.038   2.678 -0.2175  0.0512 -0.5453
    5CHTO  H179 1778   6.106   2.979   2.592  0.4296 -0.5178  0.0948
    5CHTO   O66 1779   6.184   3.028   2.768 -0.4895 -0.0753  0.0386
    5CHTO  H166 1780   6.160   2.985   2.848  2.4137 -2.6425 -0.3345
    5CHTO   C93 1781   5.934   2.986   2.738  0.4235 -0.3283 -0.4973
    5CHTO  H180 1782   5.920   3.033   2.836  1.1690 -0.8380 -0.1433
    5CHTO   N16 1783   5.936   2.848   2.769  0.0894  0.0670  0.2274
    5CHTO  H172 1784   5.967   2.794   2.681  4.2435  2.1189  0.3196
    5CHTO  H173 1785   5.839   2.806   2.793 -0.2912  0.2328 -0.9914
    5CHTO   C94 1786   5.813   3.030   2.637  1.0217 -0.9101  0.1812
    5CHTO  H181 1787   5.821   2.986   2.537 -0.5093  0.3895 -0.5251
    5CHTO   O61 1788   5.826   3.172   2.600 -0.1422  0.6117 -0.1004
    5CHTO   C95 1789   5.952   3.210   2.538 -0.2408  0.1206  0.2653
    5CHTO  H182 1790   5.963   3.157   2.443 -2.2598 -2.3762  1.3704
    5CHTO  C106 1791   5.935   3.356   2.509 -0.2229 -0.4670 -0.0987
    5CHTO   O69 1792   6.028   3.404   2.414  0.0308  0.4109  0.1435
    5CHTO  H169 1793   6.117   3.387   2.438  0.8661  1.4019 -2.0302
    5CHTO   O63 1794   5.661   3.012   2.705 -0.2863  0.0164 -0.2279
    5CHTO   C96 1795   5.558   2.997   2.616  0.3657  0.7404  0.0856
    5CHTO  H183 1796   5.615   2.968   2.527  0.5735 -0.9642  0.7705
    5CHTO   C98 1797   5.462   3.114   2.583 -0.2781  0.0654 -0.2361
    5CHTO  H185 1798   5.408   3.138   2.675  1.3607 -0.5264  0.9130
    5CHTO   O67 1799   5.551   3.222   2.553 -0.3330 -0.2208  0.2272
    5CHTO  H167 1800   5.513   3.295   2.597  0.5581  0.1554  0.3656
    5CHTO  C102 1801   5.374   3.077   2.462  0.3374 -0.3513  0.0349
    5CHTO  H189 1802   5.451   3.067   2.384  0.6296 -0.9002  0.3903
    5CHTO   N18 1803   5.278   3.186   2.411  0.0409 -0.3346 -1.0079
    5CHTO  H176 1804   5.234   3.145   2.321  0.8272  0.1981 -1.6349
    5CHTO  H177 1805   5.198   3.207   2.480  3.2950 -1.3131  3.2523
    5CHTO  C105 1806   5.303   2.943   2.482 -0.3413  0.1252 -0.1947
    5CHTO  H192 1807   5.195   2.959   2.488 -0.2282 -0.2631  4.0596
    5CHTO   O65 1808   5.342   2.876   2.599 -0.2428  0.3990  0.4461
    5CHTO  C100 1809   5.475   2.871   2.659 -0.6001 -1.0646 -0.8649
    5CHTO  H187 1810   5.477   2.869   2.769  2.1981  1.1365 -0.8049
    5CHTO  C107 1811   5.536   2.738   2.620 -0.5400 -0.5707 -0.0480
    5CHTO   O70 1812   5.669   2.717   2.660 -0.0802 -0.2602 -0.7628
    5CHTO  H170 1813   5.719   2.795   2.651  0.8296 -0.7210  0.3185
    5CHTO   O57 1814   5.331   2.875   2.354  0.5283  0.6041  0.1853
    5CHTO   C85 1815   5.257   2.764   2.298 -1.0292  0.3228  0.7344
    5CHTO  H157 1816   5.150   2.780   2.323 -0.5151  2.2705  1.7998
    5CHTO   C83 1817   5.298   2.628   2.366  0.4163 -0.1285 -0.1463
    5CHTO  H155 1818   5.279   2.627   2.473 -4.4483  0.7803 -0.9101
    5CHTO   O56 1819   5.438   2.603   2.354  0.2954 -0.4802 -0.6670
    5CHTO  H135 1820   5.481   2.670   2.404  0.8581 -0.5099 -1.1079
    5CHTO   C81 1821   5.210   2.524   2.294 -0.7796 -0.0449  0.3647
    5CHTO  H153 1822   5.106   2.558   2.293 -0.5402  0.8218  2.4839
    5CHTO   N14 1823   5.209   2.391   2.351  0.4499  0.2880  0.2255
    5CHTO  H141 1824   5.168   2.394   2.450 -1.5175 -0.7305 -0.5341
    5CHTO  H142 1825   5.299   2.333   2.353  1.4627  1.8586  2.1442
    5CHTO   C79 1826   5.260   2.508   2.148 -0.0212  0.1749  0.2649
    5CHTO  H151 1827   5.197   2.436   2.095 -0.5749  0.0844  1.0413
    5CHTO   O52 1828   5.230   2.636   2.077 -0.3900  0.2240 -0.2969
    5CHTO   C86 1829   5.280   2.762   2.136 -0.6222  0.1445 -0.5269
    5CHTO  H158 1830   5.388   2.769   2.111 -1.2860  1.7565 -3.0723
    5CHTO   C90 1831   5.214   2.891   2.079 -0.6757  0.2040 -0.1238
    5CHTO   O60 1832   5.242   2.899   1.941 -0.1555  0.0015 -0.1528
    5CHTO  H138 1833   5.248   2.986   1.907  0.0964  0.0180 -0.0725
    5CHTO   O50 1834   5.401   2.487   2.129  0.7443  0.4147  0.2749
    5CHTO   C73 1835   5.453   2.396   2.032  0.2923 -0.4852 -0.5985
    5CHTO  H145 1836   5.378   2.384   1.953 -1.9979 -0.3675  1.4704
    5CHTO   C74 1837   5.470   2.255   2.078  0.0108 -0.2824  0.4050
    5CHTO  H146 1838   5.371   2.212   2.098 -0.4876 -0.0881 -1.4662
    5CHTO   O54 1839   5.510   2.177   1.965  0.0186 -0.2803 -0.0322
    5CHTO  H133 1840   5.602   2.158   1.967  0.0711 -0.0651 -0.3601
    5CHTO   C75 1841   5.568   2.258   2.206  0.0085  0.3283  0.6248
    5CHTO  H147 1842   5.526   2.325   2.282  0.2749 -1.1133  2.0790
    5CHTO   N13 1843   5.587   2.131   2.275 -0.1839 -0.3151  0.1391
    5CHTO  H139 1844   5.683   2.081   2.266 -0.0944  0.1436 -1.6597
    5CHTO  H140 1845   5.510   2.057   2.260  0.5087 -1.0029 -0.0498
    5CHTO   C76 1846   5.713   2.313   2.147 -0.5001 -0.9167 -0.8047
    5CHTO  H148 1847   5.751   2.241   2.075 -1.4852 -0.1876 -2.0801
    5CHTO   O49 1848   5.694   2.435   2.070  0.3359 -0.1528  0.5310
    5CHTO   C77 1849   5.589   2.443   1.977 -0.3286 -0.4922 -0.2806
    5CHTO  H149 1850   5.620   2.376   1.897  2.1463  0.0576  0.1742
    5CHTO   C88 1851   5.584   2.590   1.927 -0.0165 -0.1759  0.6869
    5CHTO   O58 1852   5.664   2.612   1.837  0.6215  0.0829 -0.1046
    5CHTO  H136 1853   5.655   2.696   1.797  1.5670  1.5443  2.6125
    5CHTO   O51 1854   5.812   2.343   2.268 -0.3263  0.0495  0.0883
    5CHTO   C78 1855   5.925   2.395   2.240 -0.0542  0.1198 -0.4636
    5CHTO  H150 1856   5.932   2.442   2.139 -3.1462 -0.3312 -0.9566
    5CHTO   C80 1857   6.032   2.286   2.248 -0.7826  0.3993 -0.3428
    5CHTO  H152 1858   6.034   2.243   2.350  0.8771  1.3953  0.0569
    5CHTO   O55 1859   5.999   2.184   2.148  0.0015  0.0693  0.4252
    5CHTO  H134 1860   5.932   2.127   2.179 -0.1182 -0.3757 -0.6583
    5CHTO   C84 1861   6.169   2.358   2.223  0.0088  0.6383 -0.2736
    5CHTO  H156 1862   6.170   2.397   2.121  0.9272 -0.3902 -0.6711
    5CHTO   N15 1863   6.282   2.263   2.230 -0.6110 -0.1753 -0.2282
    5CHTO  H143 1864   6.249   2.161   2.237  1.7120 -0.9137  0.7130
    5CHTO  H144 1865   6.327   2.287   2.325 -1.5426  1.6242 -0.2326
    5CHTO   C87 1866   6.191   2.473   2.329 -0.5517 -0.3137 -0.1460
    5CHTO  H159 1867   6.201   2.429   2.428  0.8968 -1.7942 -0.9218
    5CHTO   O53 1868   6.081   2.571   2.318 -0.0985  0.2390  0.5448
    5CHTO   C82 1869   5.960   2.511   2.342 -0.0996  0.2996  0.3499
    5CHTO  H154 1870   5.971   2.477   2.445  1.6791  0.7953  0.3454
    5CHTO   C89 1871   5.863   2.627   2.338  0.2534  0.0423 -0.0929
    5CHTO   O59 1872   5.737   2.599   2.390 -0.3124 -0.5653 -0.0747
    5CHTO  H137 1873   5.667   2.647   2.350  0.2912  0.3204 -0.0760
    5CHTO   O45 1874   6.306   2.569   2.293  0.2756  0.3123  0.1653
    5CHTO   C67 1875   6.385   2.607   2.407 -0.0048 -0.2272 -0.3967
    5CHTO  H124 1876   6.327   2.588   2.497  0.2373 -1.6927 -0.5289
    5CHTO   C65 1877   6.513   2.516   2.410 -0.4532 -0.1009 -0.4050
    5CHTO  H122 1878   6.531   2.484   2.307 -0.8354  1.7676 -1.0620
    5CHTO   O44 1879   6.487   2.398   2.497 -0.0277  0.2241  0.5712
    5CHTO  H102 1880   6.400   2.364   2.500 -0.1495  0.6811  2.8198
    5CHTO   C63 1881   6.649   2.590   2.448 -0.0938  0.6493 -0.0018
    5CHTO  H120 1882   6.679   2.644   2.358 -0.1569 -0.6369 -0.8132
    5CHTO   N11 1883   6.768   2.500   2.460  0.5028  0.0145 -0.2125
    5CHTO  H108 1884   6.856   2.561   2.457 -0.2120  1.0519 -0.4582
    5CHTO  H109 1885   6.774   2.437   2.374  0.5767 -0.7711  0.3627
    5CHTO   C61 1886   6.621   2.707   2.547 -0.0137  0.3353  0.1639
    5CHTO  H118 1887   6.710   2.772   2.547  0.8424 -0.8320  1.0035
    5CHTO   O40 1888   6.507   2.793   2.511 -0.0159  0.0698 -0.1024
    5CHTO   C68 1889   6.415   2.755   2.404 -0.2201  0.5160 -0.0081
    5CHTO  H125 1890   6.470   2.778   2.309  0.5325 -1.4564 -0.0676
    5CHTO   C72 1891   6.289   2.846   2.416  0.3233 -0.4602 -0.3374
    5CHTO   O48 1892   6.294   2.986   2.387  0.2497  0.1403 -0.2968
    5CHTO  H105 1893   6.219   3.033   2.418 -0.1265 -1.0345  0.6031
    5CHTO   O38 1894   6.609   2.653   2.675  0.4281 -0.8682 -0.3378
    5CHTO   C55 1895   6.586   2.735   2.785 -0.2941  0.3965 -0.2508
    5CHTO  H112 1896   6.492   2.789   2.768 -1.1130 -0.5747  1.1053
    5CHTO   C56 1897   6.703   2.826   2.838 -0.5831 -0.0612  1.1858
    5CHTO  H113 1898   6.788   2.761   2.866 -0.6557 -0.7948 -0.2832
    5CHTO   O42 1899   6.761   2.925   2.748 -0.0252  0.6673 -0.0741
    5CHTO  H100 1900   6.797   2.885   2.671 -0.1151 -2.3326  1.3683
    5CHTO   C57 1901   6.658   2.900   2.971  0.2660  0.8078  0.7111
    5CHTO  H114 1902   6.595   2.985   2.946  0.3541 -0.3630 -3.8976
    5CHTO   N10 1903   6.769   2.970   3.041 -0.3619  0.4255  0.1572
    5CHTO  H106 1904   6.848   2.898   3.024 -1.3520 -0.4993 -0.6095
    5CHTO  H107 1905   6.795   3.060   2.987  0.2650  0.4948  0.5711
    5CHTO   C58 1906   6.577   2.810   3.068  0.5256 -0.6669  0.1317
    5CHTO  H115 1907   6.646   2.746   3.128  2.3622  0.8813 -0.3153
    5CHTO   O37 1908   6.485   2.717   3.009 -0.3433 -0.7685  0.6811
    5CHTO   C59 1909   6.544   2.641   2.902 -0.1488 -0.0554  0.1100
    5CHTO  H116 1910   6.627   2.581   2.941 -1.9246 -2.4404  0.3076
    5CHTO   C70 1911   6.440   2.536   2.853 -0.9124 -0.0487 -0.2171
    5CHTO   O46 1912   6.312   2.598   2.832 -0.5927 -0.0450 -0.3744
    5CHTO  H103 1913   6.245   2.534   2.816 -1.2717  0.8360 -1.1036
    5CHTO   O39 1914   6.478   2.917   3.154  0.2556  0.2757  0.2262
    5CHTO   C60 1915   6.346   2.943   3.098 -0.9443  0.9304 -0.2078
    5CHTO  H117 1916   6.342   2.914   2.993 -0.4119  0.8921 -0.2159
    5CHTO   C62 1917   6.241   2.857   3.178  0.3034  0.1296 -0.8808
    5CHTO  H119 1918   6.251   2.752   3.145  0.3590  0.4230 -1.7938
    5CHTO   O43 1919   6.275   2.864   3.319 -0.4046  0.3380 -0.7547
    5CHTO  H101 1920   6.330   2.794   3.350 -1.5268 -0.0758  0.3229
    5CHTO   C66 1921   6.089   2.905   3.152 -0.0559  0.7623  0.2784
    5CHTO  H123 1922   6.063   2.881   3.049  0.7481 -0.6178  0.3990
    5CHTO   N12 1923   5.986   2.822   3.226  0.0300  0.3543  0.5857
    5CHTO  H110 1924   5.883   2.848   3.203 -0.5719 -1.1664  1.4408
    5CHTO  H111 1925   6.007   2.822   3.332  0.5932  1.1366  0.4838
    5CHTO   C69 1926   6.074   3.058   3.149  0.4267  0.5255 -0.0099
    5CHTO  H126 1927   6.090   3.100   3.250  1.9687  1.2025 -0.5219
    5CHTO   O41 1928   6.183   3.120   3.055 -0.3763 -0.0803  0.0882
    5CHTO   C64 1929   6.317   3.090   3.113 -0.1939  0.5523  0.4406
    5CHTO  H121 1930   6.323   3.125   3.218  1.1016  2.0941 -0.1147
    5CHTO   C71 1931   6.409   3.184   3.034  0.5839 -0.7857  0.3775
    5CHTO   O47 1932   6.366   3.320   3.040  0.9443 -0.5713 -0.1622
    5CHTO  H104 1933   6.276   3.312   3.013 -0.2051  3.1627  2.1823
    5CHTO   O34 1934   5.933   3.093   3.100  0.0192 -0.1363  0.5355
    5CHTO   C49 1935   5.905   3.251   3.092  0.0829  0.5260 -0.5061
    5CHTO   H91 1936   5.978   3.297   3.158  0.9417 -0.0180 -1.0659
    5CHTO   C47 1937   5.761   3.264   3.144 -0.4139 -0.1803  0.2854
    5CHTO   H89 1938   5.739   3.372   3.151 -1.8612 -0.5609  1.9298
    5CHTO   O33 1939   5.753   3.203   3.271 -0.2273 -0.3840  0.1069
    5CHTO   H70 1940   5.669   3.173   3.301 -0.0171 -0.1338  0.9420
    5CHTO   C45 1941   5.664   3.191   3.032  0.0139  0.4079  0.1118
    5CHTO   H87 1942   5.702   3.091   3.007 -0.5809 -0.0519  1.0064
    5CHTO    N8 1943   5.521   3.178   3.078  0.8726  0.3517  1.1773
    5CHTO   H75 1944   5.454   3.224   3.007  2.0752 -1.0111 -0.8751
    5CHTO   H76 1945   5.491   3.074   3.089  0.8994  0.3316  1.0540
    5CHTO   C43 1946   5.672   3.283   2.897  0.1176  0.1809 -0.0793
    5CHTO   H85 1947   5.617   3.237   2.815  3.4082 -0.7652 -1.8382
    5CHTO   O29 1948   5.814   3.287   2.866  0.4058  0.2723  0.3261
    5CHTO   C50 1949   5.912   3.320   2.958 -0.4450 -0.2568 -0.2389
    5CHTO   H92 1950   6.012   3.304   2.915 -0.0799  1.5990 -0.1354
    5CHTO   C54 1951   5.918   3.480   2.960 -0.8265  0.5129  0.6116
    5CHTO   O36 1952   6.024   3.543   3.034 -0.0072  0.2581 -0.1052
    5CHTO   H72 1953   6.022   3.515   3.123 -2.2651 -3.1098 -1.0852
    5CHTO   O27 1954   5.622   3.417   2.913 -0.2610 -0.0803 -0.6483
    5CHTO   C37 1955   5.529   3.525   2.938 -0.6857  0.1175 -0.0664
    5CHTO   H79 1956   5.552   3.609   2.871 -1.6177 -0.1765 -0.7623
    5CHTO   C38 1957   5.391   3.484   2.877  0.0346 -0.2015  0.1038
    5CHTO   H80 1958   5.390   3.374   2.865 -0.5312 -0.4462  2.1368
    5CHTO   O31 1959   5.362   3.542   2.747  0.1300 -0.1554  0.1227
    5CHTO   H68 1960   5.271   3.547   2.724  0.2310 -2.0180 -0.7323
    5CHTO   C39 1961   5.269   3.515   2.968  0.3627 -0.9134 -0.5064
    5CHTO   H81 1962   5.228   3.611   2.938  0.7384 -0.2822  0.9220
    5CHTO    N7 1963   5.150   3.426   2.941 -0.0756 -0.5486  0.2034
    5CHTO   H73 1964   5.066   3.430   3.009  1.0527  0.5655  1.5634
    5CHTO   H74 1965   5.112   3.442   2.841 -1.1009  1.9099  0.9333
    5CHTO   C40 1966   5.310   3.512   3.118  0.2053  0.6331 -0.3003
    5CHTO   H82 1967   5.338   3.410   3.143 -0.1888  0.5171 -0.3257
    5CHTO   O26 1968   5.416   3.607   3.147 -0.2652  0.2730 -0.5628
    5CHTO   C41 1969   5.538   3.570   3.083 -0.3296 -0.8230  0.1347
    5CHTO   H83 1970   5.577   3.488   3.145 -0.5048 -1.8143 -1.0427
    5CHTO   C52 1971   5.637   3.689   3.083  0.1025 -0.0338 -0.4855
    5CHTO   O35 1972   5.639   3.751   3.214  0.4654 -0.4565  0.1557
    5CHTO   H71 1973   5.583   3.826   3.204  0.2895 -0.7193 -0.9309
    5CHTO   O28 1974   5.214   3.543   3.224 -0.0344 -0.2084 -0.0231
    5CHTO   C42 1975   5.230   3.500   3.367 -0.0475  0.2612 -0.5069
    5CHTO   H84 1976   5.129   3.521   3.403  0.9998  1.5210  1.7867
    5CHTO   C44 1977   5.318   3.571   3.469 -0.7578  1.0979  0.8933
    5CHTO   H86 1978   5.422   3.552   3.442 -0.7313 -2.5895  3.1771
    5CHTO   O32 1979   5.297   3.709   3.448 -0.2008  0.3241 -0.1829
    5CHTO   H69 1980   5.361   3.755   3.498 -0.1486  0.1721 -0.1076
    5CHTO   C48 1981   5.279   3.530   3.616  0.4568  0.4095  0.5038
    5CHTO   H90 1982   5.171   3.535   3.631  0.5287  1.6690  0.6823
    5CHTO    N9 1983   5.347   3.616   3.722 -0.1567 -0.8632  0.6609
    5CHTO   H77 1984   5.398   3.561   3.799  1.6439  1.6704  1.3669
    5CHTO   H78 1985   5.273   3.682   3.765 -0.1365 -1.7712  2.1074
    5CHTO   C51 1986   5.316   3.376   3.625  1.0835 -0.1617  0.0646
    5CHTO   H93 1987   5.423   3.369   3.603  0.6931 -3.8637 -1.0167
    5CHTO   O30 1988   5.242   3.299   3.534  0.0290 -0.1150  0.0971
    5CHTO   C46 1989   5.256   3.343   3.381  1.1125 -0.9219  0.4269
    5CHTO   H88 1990   5.356   3.314   3.347  0.0998 -2.3909 -1.3844
    5CHTO   C53 1991   5.160   3.260   3.292  0.4547  0.3227 -0.2633
    5CHTO   O72 1992   5.026   3.299   3.314 -0.5032  0.5053  0.2745
    5CHTO  H199 1993   5.005   3.369   3.254 -1.2062  0.5778  0.5971
    5CHTO   O22 1994   5.288   3.322   3.756 -0.0125  0.1198  0.6382
    5CHTO   C31 1995   5.327   3.186   3.804 -0.2880  0.2195  0.1691
    5CHTO   H59 1996   5.314   3.191   3.915  2.4018 -1.5666  0.6112
    5CHTO   C29 1997   5.244   3.064   3.753  0.1488 -0.4809  0.0516
    5CHTO   H57 1998   5.258   3.057   3.644 -1.2413 -1.0284 -0.0963
    5CHTO   O21 1999   5.107   3.104   3.756 -0.0429  0.1398  0.1889
    5CHTO   H37 2000   5.087   3.161   3.828  1.0327 -0.0925  0.6955
    5CHTO   C27 2001   5.292   2.926   3.817 -0.7701  0.0769  0.0844
    5CHTO   H55 2002   5.277   2.923   3.926 -0.9885 -0.7218  0.0392
    5CHTO    N5 2003   5.217   2.805   3.762 -0.4178  0.1501  0.3917
    5CHTO   H43 2004   5.126   2.837   3.714  0.5253  0.3782 -1.2968
    5CHTO   H44 2005   5.288   2.745   3.708 -0.1174  0.5819  0.2993
    5CHTO   C25 2006   5.443   2.923   3.800 -0.2493 -0.4039  0.3615
    5CHTO   H53 2007   5.462   2.922   3.692 -1.1827  0.9737  0.1707
    5CHTO   O17 2008   5.509   3.036   3.864 -0.2310  0.1941 -0.3199
    5CHTO   C32 2009   5.480   3.153   3.791 -0.2057 -0.4076  0.2228
    5CHTO   H60 2010   5.507   3.143   3.686 -3.6264 -0.1278 -0.7135
    5CHTO   C36 2011   5.559   3.268   3.850 -0.0687  0.4392 -0.3606
    5CHTO   O25 2012   5.695   3.251   3.813 -0.5007 -0.6094  0.2308
    5CHTO   H40 2013   5.732   3.332   3.784 -1.7237 -0.2720 -0.4478
    5CHTO   O15 2014   5.501   2.804   3.880 -0.0970  0.6770  0.1190
    5CHTO   C19 2015   5.636   2.762   3.911  0.2962  0.2409  0.8344
    5CHTO   H47 2016   5.666   2.830   3.992 -2.8687 -1.0253  3.1498
    5CHTO   C20 2017   5.636   2.616   3.977 -0.1969 -0.1581 -0.5526
    5CHTO   H48 2018   5.590   2.544   3.909 -0.3779  0.1159 -0.7236
    5CHTO   O19 2019   5.557   2.620   4.089 -0.2649 -0.0345  0.4384
    5CHTO   H35 2020   5.602   2.649   4.166 -0.7604 -0.1018  0.7592
    5CHTO   C21 2021   5.783   2.572   4.015  0.0837 -0.4077  0.3882
    5CHTO   H49 2022   5.813   2.633   4.100  1.9377  1.2999 -1.4209
    5CHTO    N4 2023   5.785   2.431   4.057 -0.0922 -0.0895 -0.5651
    5CHTO   H41 2024   5.759   2.404   4.158 -0.6175 -1.0403 -0.9467
    5CHTO   H42 2025   5.868   2.373   4.018 -0.7201 -1.5623  0.2185
    5CHTO   C22 2026   5.887   2.593   3.898 -0.1725  0.4357 -1.1887
    5CHTO   H50 2027   5.869   2.517   3.823 -2.0526 -1.0702  0.7263
    5CHTO   O14 2028   5.871   2.726   3.845  0.2110  0.1898 -0.5301
    5CHTO   C23 2029   5.744   2.763   3.793 -0.1959 -0.3715  0.5702
    5CHTO   H51 2030   5.716   2.691   3.715  1.1644 -0.6373  0.3126
    5CHTO   C34 2031   5.769   2.897   3.725 -0.0845 -0.5726  0.3167
    5CHTO   O23 2032   5.672   2.932   3.631 -0.1327  0.3472 -0.3485
    5CHTO   H38 2033   5.679   3.024   3.612  1.5385  0.4284  0.5672
    5CHTO   O16 2034   6.023   2.591   3.940 -0.1931 -0.2388 -0.0961
    5CHTO   C24 2035   6.118   2.513   3.852 -0.5148  0.8106  0.4871
    5CHTO   H52 2036   6.070   2.473   3.763 -0.7845  0.6887  0.6864
    5CHTO   C26 2037   6.184   2.417   3.949  0.2845 -0.2359 -0.8649
    5CHTO   H54 2038   6.204   2.474   4.041 -1.6238 -1.8406  0.5812
    5CHTO   O20 2039   6.094   2.309   3.978  0.1507 -0.0459 -0.1801
    5CHTO   H36 2040   6.102   2.243   3.911  0.8953  0.2523 -0.3933
    5CHTO   C30 2041   6.321   2.359   3.900 -1.5337  0.2457  0.7229
    5CHTO   H58 2042   6.301   2.285   3.821  4.3567 -0.6773 -0.0906
    5CHTO    N6 2043   6.389   2.274   4.003 -0.3146  0.7311  0.9108
    5CHTO   H45 2044   6.461   2.335   4.055  1.8617 -2.3941  1.6932
    5CHTO   H46 2045   6.440   2.197   3.946  0.1140  1.2297  0.6161
    5CHTO   C33 2046   6.414   2.474   3.849  0.1024 -0.7121 -0.3441
    5CHTO   H61 2047   6.442   2.541   3.931  1.4293 -1.3429 -0.2729
    5CHTO   O18 2048   6.336   2.547   3.758 -0.3581  0.0836  0.1153
    5CHTO   C28 2049   6.226   2.615   3.809 -0.3059  0.2513  0.6918
    5CHTO   H56 2050   6.252   2.676   3.895  1.2760 -0.3732  0.6734
    5CHTO   C35 2051   6.163   2.706   3.703 -0.1015  0.4600 -0.7205
    5CHTO   O24 2052   6.117   2.649   3.585 -0.7302 -0.2015  0.5316
    5CHTO   H39 2053   6.087   2.715   3.525  0.1471 -0.0614  0.2485
    5CHTO    O9 2054   6.535   2.425   3.794  0.7966  0.5335 -0.2744
    5CHTO   C13 2055   6.535   2.340   3.661  0.0181 -0.0902  0.4824
    5CHTO   H26 2056   6.439   2.286   3.658 -0.5408  0.9793 -1.8388
    5CHTO   C11 2057   6.668   2.252   3.642  0.2193 -0.4193  0.6684
    5CHTO   H24 2058   6.664   2.169   3.714  0.4980 -1.3085 -0.3285
    5CHTO    O8 2059   6.782   2.332   3.663 -0.4238 -0.5122  0.2034
    5CHTO    H3 2060   6.768   2.394   3.732  1.2210 -0.3060  0.3536
    5CHTO    C9 2061   6.664   2.186   3.492 -0.4394  0.0752 -0.2987
    5CHTO   H22 2062   6.576   2.121   3.493  1.2609 -2.3299  2.6182
    5CHTO    N2 2063   6.765   2.087   3.463  0.2265 -0.0449  0.1059
    5CHTO   H10 2064   6.848   2.074   3.530  1.2907 -1.1350 -1.3738
    5CHTO   H11 2065   6.786   2.084   3.357 -3.1033  0.0499 -0.6238
    5CHTO    C7 2066   6.658   2.302   3.378 -0.0226  0.7988 -0.3225
    5CHTO   H20 2067   6.652   2.243   3.284  1.1169  0.4005 -0.1553
    5CHTO    O4 2068   6.552   2.387   3.400  0.0941  0.2364 -0.1910
    5CHTO   C14 2069   6.531   2.445   3.531 -0.8444 -0.5290  0.0624
    5CHTO   H27 2070   6.424   2.477   3.529 -0.4651  0.7820  0.4449
    5CHTO   C18 2071   6.613   2.576   3.540 -0.5076  0.4638  0.6468
    5CHTO   O13 2072   6.563   2.679   3.458 -0.5285 -0.3917  0.1975
    5CHTO    H7 2073   6.547   2.646   3.372 -0.5029 -3.4544  1.3034
    5CHTO    O2 2074   6.796   2.376   3.356  0.3902 -0.1217  0.1880
    5CHTO    C1 2075   6.823   2.459   3.245  0.7931 -0.0475 -0.7747
    5CHTO   H14 2076   6.741   2.532   3.235  0.7057 -0.1907 -1.0990
    5CHTO    C2 2077   6.852   2.381   3.111 -0.0439  0.1039 -0.5783
    5CHTO   H15 2078   6.925   2.302   3.134  0.1007 -0.1853 -2.0260
    5CHTO    O6 2079   6.724   2.332   3.068 -0.7857  0.2629 -0.3174
    5CHTO    H1 2080   6.678   2.392   3.013 -2.2981  0.6035  1.2850
    5CHTO    C3 2081   6.916   2.472   2.998 -0.1855  0.3784  0.4770
    5CHTO   H16 2082   6.844   2.552   2.976  2.5354  2.4213 -1.2651
    5CHTO    N1 2083   6.939   2.392   2.870 -0.4239 -0.6470 -0.3001
    5CHTO    H8 2084   6.942   2.457   2.783  0.0698  1.5577  1.3019
    5CHTO    H9 2085   6.851   2.331   2.860 -0.6464 -0.3264 -0.3248
    5CHTO    C4 2086   7.040   2.530   3.062 -0.0642 -0.1709 -0.3224
    5CHTO   H17 2087   7.108   2.450   3.093  0.4460 -0.6864 -2.6470
    5CHTO    O1 2088   7.006   2.609   3.175 -0.4543 -0.9576  0.6962
    5CHTO    C5 2089   6.958   2.530   3.281 -0.5566 -1.0105  0.0247
    5CHTO   H18 2090   7.029   2.450   3.302  0.2896 -1.0978 -2.8853
    5CHTO   C16 2091   6.947   2.627   3.401  0.6144 -0.0832 -0.3563
    5CHTO   O11 2092   6.946   2.562   3.531 -0.4643 -0.2444 -0.5013
    5CHTO    H5 2093   6.975   2.622   3.597 -2.1771 -0.5531  0.5491
    5CHTO    O3 2094   7.103   2.624   2.974  0.1548  0.5247  0.0647
    5CHTO    C6 2095   7.249   2.631   2.947  0.9921 -0.0553 -0.5816
    5CHTO   H19 2096   7.306   2.593   3.032  1.0018  0.7349 -0.2276
    5CHTO    C8 2097   7.294   2.539   2.828 -0.3697  0.8356  0.1769
    5CHTO   H21 2098   7.235   2.567   2.742  0.0853 -0.7272 -0.6648
    5CHTO    O7 2099   7.264   2.405   2.875 -0.2601  0.6050 -0.3257
    5CHTO    H2 2100   7.297   2.342   2.814 -0.2094  1.2615 -0.9987
    5CHTO   C12 2101   7.444   2.571   2.781 -0.5002  0.1446  0.2597
    5CHTO   H25 2102   7.514   2.529   2.855  1.9911  0.2688 -1.9349
    5CHTO    N3 2103   7.481   2.509   2.644 -0.1901 -0.3277 -0.3441
    5CHTO   H12 2104   7.581   2.533   2.611 -0.5661 -0.4836 -1.6060
    5CHTO   H13 2105   7.455   2.404   2.647 -1.5476 -0.2170 -4.9954
    5CHTO   C15 2106   7.475   2.725   2.773 -0.2805 -0.3813 -0.0713
    5CHTO   H28 2107   7.411   2.764   2.694  0.6759 -0.1157 -0.7285
    5CHTO   O10 2108   7.608   2.771   2.755 -0.4281  0.5415  0.1767
    5CHTO    H4 2109   7.645   2.727   2.681  0.8411 -0.6522  1.4782
    5CHTO    O5 2110   7.432   2.785   2.896  0.9220  0.1773 -0.1702
    5CHTO   C10 2111   7.292   2.784   2.923  0.1383 -0.1102  0.2293
    5CHTO   H23 2112   7.237   2.842   2.849 -1.1923  0.4412  1.6019
    5CHTO   C17 2113   7.290   2.855   3.058  0.9016 -0.4977  0.3827
    5CHTO   O12 2114   7.157   2.861   3.109  0.2917  0.3113  0.1718
    5CHTO    H6 2115   7.144   2.783   3.159  0.1526  0.7901  0.8881
    6CHTO  H203 2116   4.982   4.163   0.208 -1.0020 -2.2183 -0.3278
    6CHTO   O82 2117   4.934   4.196   0.281  0.5092 -0.0932 -0.2471
    6CHTO  C123 2118   4.955   4.336   0.306 -0.5218 -0.1514 -0.1041
    6CHTO  H227 2119   4.885   4.391   0.241 -1.2865  0.2635  1.0471
    6CHTO   O77 2120   4.908   4.352   0.444  0.1555 -0.1520  0.5951
    6CHTO  C118 2121   4.890   4.492   0.483 -0.1146  0.3303 -0.4348
    6CHTO  H222 2122   4.837   4.549   0.406  1.7780  2.3985 -0.2514
    6CHTO  C125 2123   4.814   4.496   0.612 -0.1035 -0.0358  0.2906
    6CHTO   O84 2124   4.686   4.429   0.595  0.1210  1.0806  0.2984
    6CHTO  H205 2125   4.616   4.476   0.636 -0.6471  0.0602  0.1628
    6CHTO  C114 2126   5.038   4.549   0.499 -0.0174 -0.4962  0.2201
    6CHTO  H218 2127   5.091   4.494   0.577  0.7293  0.2803  0.2719
    6CHTO  C116 2128   5.123   4.527   0.372 -0.5742  0.0241 -0.2512
    6CHTO  H220 2129   5.100   4.604   0.294 -2.8190 -0.4163 -0.0641
    6CHTO   O79 2130   5.259   4.543   0.403 -0.2851 -0.2843  0.2937
    6CHTO  H201 2131   5.307   4.597   0.343  0.6362 -1.2528  0.1504
    6CHTO  C120 2132   5.100   4.385   0.302  0.1747 -0.1785  0.5856
    6CHTO  H224 2133   5.160   4.317   0.366 -1.2408 -2.2435 -0.2151
    6CHTO   N21 2134   5.157   4.388   0.162 -0.3535  0.0606 -0.8806
    6CHTO  H211 2135   5.090   4.426   0.086 -0.3064 -0.7294 -1.3186
    6CHTO  H212 2136   5.184   4.287   0.135 -2.1137 -0.7890  0.3754
    6CHTO   O75 2137   5.016   4.686   0.539  0.1217 -0.0268 -0.1255
    6CHTO  C112 2138   5.106   4.723   0.678  0.5190 -0.2507 -0.1139
    6CHTO  H216 2139   5.187   4.652   0.696  0.2252 -0.1483  1.6704
    6CHTO   O73 2140   5.010   4.720   0.785 -0.2108 -0.1092  0.4695
    6CHTO  C113 2141   5.062   4.761   0.916  0.6629 -0.9688 -0.3989
    6CHTO  H217 2142   5.147   4.698   0.951  2.3050  1.4633  0.1160
    6CHTO  C124 2143   4.955   4.750   1.025  0.7238  0.4564  0.0714
    6CHTO   O83 2144   4.913   4.610   1.044 -0.1175  0.2365 -0.1376
    6CHTO  H204 2145   4.935   4.590   1.133 -0.4042  2.4329  0.4575
    6CHTO  C109 2146   5.097   4.910   0.904 -0.0216  0.0659 -0.1191
    6CHTO  H213 2147   5.002   4.962   0.884 -0.7392 -0.6857  1.2506
    6CHTO  C110 2148   5.197   4.937   0.789 -0.7657  0.0059 -0.3843
    6CHTO  H214 2149   5.293   4.897   0.823 -1.4316 -0.9366  0.4012
    6CHTO   O78 2150   5.216   5.077   0.768  0.4063 -0.4511 -0.0896
    6CHTO  H200 2151   5.133   5.118   0.750  0.9643  0.4943 -0.5653
    6CHTO  C111 2152   5.159   4.870   0.655  0.3297  0.4904 -0.4772
    6CHTO  H215 2153   5.077   4.928   0.609  0.1709 -0.5558 -1.5282
    6CHTO   N19 2154   5.264   4.862   0.552  0.1766  0.1520  0.1432
    6CHTO  H207 2155   5.244   4.808   0.461 -1.6509 -1.1232  1.2943
    6CHTO  H208 2156   5.362   4.856   0.598 -0.2812  0.5574  1.1867
    6CHTO   O74 2157   5.147   4.954   1.035 -0.5450 -0.3052  0.3569
    6CHTO  C115 2158   5.099   5.109   1.052 -0.4530 -0.2512 -0.2564
    6CHTO  H219 2159   5.100   5.165   0.959 -2.3903  3.7439  2.0015
    6CHTO   O76 2160   4.952   5.118   1.091 -0.3496 -0.0841  0.4507
    6CHTO  C122 2161   4.923   5.061   1.223  0.3234 -0.3508 -0.1521
    6CHTO  H226 2162   4.930   4.953   1.213  1.3340 -0.1732 -1.3512
    6CHTO  C126 2163   4.781   5.095   1.267 -0.3170  0.6021  0.4192
    6CHTO   O85 2164   4.731   5.031   1.382  0.1822  0.4063 -0.0258
    6CHTO  H206 2165   4.652   5.073   1.411 -0.4297 -1.8430  1.6356
    6CHTO  C121 2166   5.030   5.095   1.342  0.5190 -0.0008  0.1194
    6CHTO  H225 2167   4.983   5.123   1.439  0.1235 -0.7236  0.1332
    6CHTO   O81 2168   5.111   4.977   1.380  0.0859 -0.5051 -0.0889
    6CHTO  H202 2169   5.058   4.920   1.433  1.4806 -2.1032 -0.3819
    6CHTO  C119 2170   5.120   5.216   1.292 -0.4543  0.1876  0.1841
    6CHTO  H223 2171   5.049   5.294   1.266 -0.6806 -0.8540 -2.5143
    6CHTO  C117 2172   5.195   5.177   1.153  0.8432  1.2994  0.0934
    6CHTO  H221 2173   5.278   5.107   1.163 -0.4131 -0.0419  1.2620
    6CHTO   N20 2174   5.257   5.300   1.099 -0.2726  0.2869  0.0105
    6CHTO  H209 2175   5.311   5.282   1.007 -1.9691  0.6309 -1.0941
    6CHTO  H210 2176   5.175   5.363   1.067 -2.0615 -2.0368 -0.1964
    6CHTO   O80 2177   5.221   5.294   1.418  0.1852 -0.3377 -0.2422
    6CHTO  C103 2178   5.148   5.333   1.569 -0.7984  1.2042 -0.3608
    6CHTO  H190 2179   5.202   5.417   1.611  1.0092 -0.0098 -0.1916
    6CHTO  C101 2180   5.003   5.376   1.556  0.1470 -0.4831 -0.5862
    6CHTO  H188 2181   4.947   5.329   1.475 -0.1621 -2.9540  1.0141
    6CHTO   O68 2182   5.019   5.529   1.510  0.5276 -0.6236  0.0403
    6CHTO  H168 2183   5.040   5.534   1.419  0.4845  0.8052  0.1012
    6CHTO   C99 2184   4.922   5.373   1.691  0.2480  0.1459  0.3903
    6CHTO  H186 2185   4.982   5.436   1.760 -0.0056 -0.5321  1.2253
    6CHTO   N17 2186   4.781   5.424   1.674  0.3613 -0.4029  0.5465
    6CHTO  H174 2187   4.766   5.439   1.568  0.5733  0.4680  0.6361
    6CHTO  H175 2188   4.760   5.517   1.723 -0.2556  2.2267 -4.3611
    6CHTO   C97 2189   4.952   5.231   1.744 -0.2594  0.2685 -0.0934
    6CHTO  H184 2190   4.920   5.164   1.662  1.5129 -0.0244 -0.5486
    6CHTO   O64 2191   5.097   5.222   1.767 -0.4166  0.3055 -0.1418
    6CHTO  C104 2192   5.182   5.207   1.656  0.5457  0.1159 -0.4285
    6CHTO  H191 2193   5.160   5.118   1.598 -1.2826  0.6537 -0.5951
    6CHTO  C108 2194   5.328   5.205   1.701  0.4896 -0.1859 -0.1048
    6CHTO   O71 2195   5.424   5.173   1.606 -0.0017  0.4591  0.0335
    6CHTO  H171 2196   5.389   5.105   1.551 -0.8841  1.3350 -0.4990
    6CHTO   O62 2197   4.894   5.202   1.869 -0.0205  0.0679 -0.0561
    6CHTO   C91 2198   4.853   5.062   1.886 -0.1772  0.4491  0.2978
    6CHTO  H178 2199   4.806   5.059   1.985 -0.1661  1.4073  0.3402
    6CHTO   C92 2200   4.977   4.966   1.878  0.4652  0.2287  1.0346
    6CHTO  H179 2201   5.045   4.989   1.795 -1.6555 -0.3812 -0.8971
    6CHTO   O66 2202   5.042   4.998   2.005 -0.5684 -0.3597  0.6969
    6CHTO  H166 2203   5.100   5.072   1.994 -0.7301 -0.6163 -2.0859
    6CHTO   C93 2204   4.935   4.815   1.863 -0.6023 -0.2378  0.0879
    6CHTO  H180 2205   4.903   4.785   1.964  0.4379  0.3811  0.6077
    6CHTO   N16 2206   5.056   4.728   1.836 -0.1740  0.0786  0.4521
    6CHTO  H172 2207   5.034   4.625   1.858  1.8961 -0.7852 -1.3389
    6CHTO  H173 2208   5.097   4.746   1.738  0.4124 -2.9205  0.0939
    6CHTO   C94 2209   4.818   4.790   1.764 -0.1563 -0.2754 -0.0893
    6CHTO  H181 2210   4.841   4.826   1.664  0.4275 -0.1618  0.0819
    6CHTO   O61 2211   4.715   4.873   1.812 -0.3137 -0.1484  0.5209
    6CHTO   C95 2212   4.729   5.016   1.786  0.6592 -0.5823  0.0533
    6CHTO  H182 2213   4.736   5.028   1.678 -2.4155 -1.2460 -0.2564
    6CHTO  C106 2214   4.593   5.082   1.834  0.8895  0.9725  0.2856
    6CHTO   O69 2215   4.482   5.021   1.763 -0.0168  0.1711  0.1235
    6CHTO  H169 2216   4.504   5.022   1.672 -0.4507 -1.7465 -0.0043
    6CHTO   O63 2217   4.753   4.635   1.760  0.2961 -0.4825  0.6835
    6CHTO   C96 2218   4.724   4.592   1.622 -0.4912 -0.3797 -0.5609
    6CHTO  H183 2219   4.795   4.644   1.559  2.3628  0.6720  3.3054
    6CHTO   C98 2220   4.590   4.633   1.564  0.0297  0.7040  0.2238
    6CHTO  H185 2221   4.504   4.597   1.624  0.5654  1.6416  1.5720
    6CHTO   O67 2222   4.575   4.775   1.562 -0.2659 -0.3347  0.0004
    6CHTO  H167 2223   4.483   4.795   1.569  0.0085  2.8250 -3.5523
    6CHTO  C102 2224   4.572   4.582   1.415 -0.0163  0.2065 -0.0572
    6CHTO  H189 2225   4.634   4.655   1.360  1.3554  1.4975  3.0292
    6CHTO   N18 2226   4.436   4.590   1.347 -0.3939 -0.7657  0.3814
    6CHTO  H176 2227   4.403   4.692   1.331 -1.1459 -0.7313  2.0997
    6CHTO  H177 2228   4.369   4.537   1.413 -2.4982  3.0673  1.5063
    6CHTO  C105 2229   4.629   4.435   1.401 -0.3441 -0.0987 -0.1109
    6CHTO  H192 2230   4.548   4.364   1.417 -1.2162  1.3409  2.0940
    6CHTO   O65 2231   4.748   4.402   1.473 -0.2564 -0.5998 -0.1739
    6CHTO  C100 2232   4.750   4.444   1.609  0.3143  0.5502  1.1454
    6CHTO  H187 2233   4.661   4.393   1.650  0.3639 -0.8420 -0.4146
    6CHTO  C107 2234   4.876   4.397   1.680  0.6758  0.3771 -0.2519
    6CHTO   O70 2235   4.871   4.260   1.719 -0.0680 -0.5328  0.3528
    6CHTO  H170 2236   4.942   4.247   1.779 -0.5569  0.1705  1.0935
    6CHTO   O57 2237   4.678   4.419   1.239  0.0908 -0.2967 -0.1614
    6CHTO   C85 2238   4.640   4.294   1.173 -0.0295  0.0379 -0.0012
    6CHTO  H157 2239   4.530   4.278   1.177  0.2080 -2.6970 -2.5145
    6CHTO   C83 2240   4.707   4.178   1.254  0.3053  0.4805 -0.1669
    6CHTO  H155 2241   4.657   4.166   1.351  0.4768  0.7392 -0.0473
    6CHTO   O56 2242   4.840   4.211   1.278  0.3069 -1.1195 -0.4434
    6CHTO  H135 2243   4.883   4.246   1.202  0.2542 -1.0268 -0.4301
    6CHTO   C81 2244   4.692   4.048   1.168 -0.7753  0.2120  0.0862
    6CHTO  H153 2245   4.585   4.033   1.151 -0.7466  1.5258 -1.3707
    6CHTO   N14 2246   4.742   3.924   1.234  0.5141 -0.1346 -0.3363
    6CHTO  H141 2247   4.834   3.886   1.195 -1.3806 -2.3195 -2.8432
    6CHTO  H142 2248   4.671   3.844   1.239  0.4506 -0.0549  0.0279
    6CHTO   C79 2249   4.756   4.072   1.025  0.6126  0.1655 -0.2886
    6CHTO  H151 2250   4.749   3.977   0.971 -0.2651  1.3685 -2.3233
    6CHTO   O52 2251   4.690   4.178   0.958 -1.2251  0.4103 -0.4382
    6CHTO   C86 2252   4.693   4.303   1.031 -0.8367  0.2030  0.1391
    6CHTO  H158 2253   4.800   4.334   1.031 -0.6063 -0.5423  1.0632
    6CHTO   C90 2254   4.617   4.399   0.937  0.0420 -0.2263 -0.1564
    6CHTO   O60 2255   4.588   4.522   0.992  0.2400 -0.5119 -0.1514
    6CHTO  H138 2256   4.563   4.519   1.082 -0.1390  1.3444 -0.1746
    6CHTO   O50 2257   4.895   4.103   1.023  0.5061  0.4139 -0.0389
    6CHTO   C73 2258   5.016   4.056   0.974 -0.0924  0.2800 -0.4981
    6CHTO  H145 2259   5.000   4.013   0.874 -0.8904  0.4517 -0.4516
    6CHTO   C74 2260   5.069   3.946   1.066  0.5839  0.2657  0.9371
    6CHTO  H146 2261   4.996   3.865   1.081  0.2708  0.6120  1.3047
    6CHTO   O54 2262   5.179   3.886   1.000 -0.3150 -0.7104  0.0806
    6CHTO  H133 2263   5.228   3.819   1.044  0.6673  1.6160  2.6780
    6CHTO   C75 2264   5.103   4.013   1.205 -0.1002 -0.4053  0.5579
    6CHTO  H147 2265   5.004   4.030   1.251 -0.8598  0.1638 -1.2313
    6CHTO   N13 2266   5.161   3.928   1.310 -0.0397  0.3221 -0.4822
    6CHTO  H139 2267   5.267   3.946   1.303 -0.3344  3.4829  2.1535
    6CHTO  H140 2268   5.140   3.824   1.287  0.7704 -0.0111  0.2879
    6CHTO   C76 2269   5.175   4.152   1.203 -0.1868  0.7082 -0.1373
    6CHTO  H148 2270   5.278   4.129   1.175 -0.5073 -3.1964  1.5876
    6CHTO   O49 2271   5.127   4.242   1.098 -0.4476 -0.5875  0.1700
    6CHTO   C77 2272   5.109   4.187   0.965  0.0877  0.4316  0.3423
    6CHTO  H149 2273   5.204   4.160   0.920 -0.8584 -0.2223 -1.3476
    6CHTO   C88 2274   5.049   4.291   0.868  0.3929  0.3956 -0.3533
    6CHTO   O58 2275   5.140   4.413   0.850  0.7708  0.2071 -0.5106
    6CHTO  H136 2276   5.204   4.386   0.787  0.7822 -0.8033 -0.0791
    6CHTO   O51 2277   5.152   4.242   1.353 -0.1367  0.2623  0.0126
    6CHTO   C78 2278   5.241   4.363   1.378  0.1748 -0.2612 -0.1789
    6CHTO  H150 2279   5.223   4.392   1.484 -1.2700  1.0156 -0.7699
    6CHTO   C80 2280   5.214   4.484   1.288 -0.0491 -0.5879  0.3175
    6CHTO  H152 2281   5.232   4.456   1.182 -0.7620 -0.6713  0.2101
    6CHTO   O55 2282   5.065   4.505   1.295  0.4359 -0.3422  0.3203
    6CHTO  H134 2283   5.019   4.438   1.248  0.9990 -0.8628  0.5043
    6CHTO   C84 2284   5.295   4.605   1.335 -0.3282 -0.1697  0.6796
    6CHTO  H156 2285   5.276   4.635   1.438  2.5836  1.6966  0.7059
    6CHTO   N15 2286   5.265   4.727   1.260  0.2722  0.3747  0.0151
    6CHTO  H143 2287   5.199   4.795   1.310  0.3673 -0.4718  1.2832
    6CHTO  H144 2288   5.230   4.703   1.162  1.2875  2.6498 -0.9503
    6CHTO   C87 2289   5.448   4.571   1.332 -0.5618  0.0945  0.3029
    6CHTO  H159 2290   5.491   4.548   1.235 -0.6186 -1.8182  0.7030
    6CHTO   O53 2291   5.474   4.431   1.424 -0.2082  0.2040 -0.2510
    6CHTO   C82 2292   5.391   4.327   1.367 -0.9830 -0.2928  0.1252
    6CHTO  H154 2293   5.434   4.317   1.267 -0.8448 -0.0355  0.1556
    6CHTO   C89 2294   5.428   4.200   1.449 -0.1631 -0.6999 -0.4972
    6CHTO   O59 2295   5.571   4.178   1.447 -0.2239  0.3425  0.4927
    6CHTO  H137 2296   5.589   4.103   1.499  3.6475  0.2920 -0.7409
    6CHTO   O45 2297   5.533   4.696   1.394 -0.6410  0.0060 -0.3181
    6CHTO   C67 2298   5.674   4.688   1.363 -0.7845 -0.1532  0.7192
    6CHTO  H124 2299   5.698   4.593   1.314 -1.5791 -0.7011  1.3791
    6CHTO   C65 2300   5.727   4.812   1.274 -0.2120  0.0917  0.2775
    6CHTO  H122 2301   5.651   4.834   1.200  1.3590  0.8184 -1.1626
    6CHTO   O44 2302   5.840   4.778   1.195 -0.2419  0.2203  0.2764
    6CHTO  H102 2303   5.905   4.725   1.238  0.6092  0.6003 -0.5153
    6CHTO   C63 2304   5.730   4.942   1.364  0.1364 -0.2985 -0.1872
    6CHTO  H120 2305   5.631   4.944   1.410  0.3502 -0.9368  0.3022
    6CHTO   N11 2306   5.736   5.074   1.284  0.2703  0.1771  0.4361
    6CHTO  H108 2307   5.837   5.100   1.258  0.7724 -0.3654  1.8010
    6CHTO  H109 2308   5.687   5.149   1.343  0.7388  0.8733 -0.0652
    6CHTO   C61 2309   5.837   4.923   1.479  0.1516 -0.3379  0.2617
    6CHTO  H118 2310   5.821   5.009   1.546  0.4071 -0.4808  0.5017
    6CHTO   O40 2311   5.815   4.806   1.555  0.2620  0.4479  0.4326
    6CHTO   C68 2312   5.758   4.680   1.498  0.1365  0.9493  0.0896
    6CHTO  H125 2313   5.691   4.634   1.575  0.0123 -0.1731 -0.6698
    6CHTO   C72 2314   5.869   4.574   1.475  0.1251 -0.3123 -0.2133
    6CHTO   O48 2315   5.816   4.444   1.495 -0.3624  0.1413 -0.2858
    6CHTO  H105 2316   5.878   4.388   1.538 -0.6370 -0.9385 -1.2953
    6CHTO   O38 2317   5.972   4.933   1.431  0.7390  0.3596  0.1809
    6CHTO   C55 2318   6.069   5.017   1.503 -0.2045 -0.0301 -0.0974
    6CHTO  H112 2319   6.025   5.041   1.601 -0.2976  1.1806 -0.4299
    6CHTO   C56 2320   6.109   5.148   1.424 -0.0288 -0.1461  0.1201
    6CHTO  H113 2321   6.120   5.119   1.319  0.7176 -0.9356  0.4086
    6CHTO   O42 2322   5.997   5.235   1.419 -0.3219  0.2586  0.0214
    6CHTO  H100 2323   6.018   5.317   1.460 -3.7586  1.0902  0.2822
    6CHTO   C57 2324   6.235   5.219   1.483 -0.4821 -0.2160 -0.0352
    6CHTO  H114 2325   6.196   5.261   1.576  0.7584  0.2919  0.2706
    6CHTO   N10 2326   6.298   5.309   1.382  0.0842  0.1515  0.0083
    6CHTO  H106 2327   6.257   5.409   1.384  0.4533  0.2918  1.0481
    6CHTO  H107 2328   6.296   5.275   1.280 -1.6379  0.9007 -0.2221
    6CHTO   C58 2329   6.347   5.120   1.524  0.1637  0.3639 -0.1762
    6CHTO  H115 2330   6.393   5.079   1.431 -2.1464  3.2798 -2.6941
    6CHTO   O37 2331   6.293   5.006   1.597  0.6343  0.0538  1.0921
    6CHTO   C59 2332   6.195   4.927   1.530 -0.2554  0.6890 -0.2960
    6CHTO  H116 2333   6.239   4.900   1.434  0.3502  1.4570 -0.2451
    6CHTO   C70 2334   6.148   4.808   1.620  0.1588  0.2625  0.0789
    6CHTO   O46 2335   6.251   4.720   1.675  0.0528 -0.1896  0.2890
    6CHTO  H103 2336   6.229   4.629   1.674 -0.4907 -0.0909  2.0761
    6CHTO   O39 2337   6.448   5.197   1.610  0.5573  0.0401  0.5986
    6CHTO   C60 2338   6.584   5.152   1.612 -0.7772 -0.2563 -0.0072
    6CHTO  H117 2339   6.589   5.049   1.578  4.6546  0.1514 -0.8012
    6CHTO   C62 2340   6.670   5.253   1.525  0.0240 -0.1710  0.7028
    6CHTO  H119 2341   6.618   5.255   1.426 -0.2188 -1.4875  0.7971
    6CHTO   O43 2342   6.655   5.383   1.578  0.7459  0.5150 -0.0134
    6CHTO  H101 2343   6.678   5.442   1.508 -0.3660 -0.6883 -1.4246
    6CHTO   C66 2344   6.816   5.200   1.521 -0.1320 -0.6534  0.5996
    6CHTO  H123 2345   6.808   5.097   1.485  0.7579 -0.5148  0.0031
    6CHTO   N12 2346   6.903   5.282   1.431 -0.6667  0.0770  0.4015
    6CHTO  H110 2347   6.851   5.373   1.407  0.4331  1.1814  2.1012
    6CHTO  H111 2348   7.007   5.296   1.457 -0.4489  2.9557 -1.8418
    6CHTO   C69 2349   6.876   5.193   1.662  0.4121  0.3876 -0.0733
    6CHTO  H126 2350   6.882   5.293   1.711  1.0125  1.6920 -2.7354
    6CHTO   O41 2351   6.771   5.102   1.755 -0.3861 -0.1449 -0.3890
    6CHTO   C64 2352   6.630   5.149   1.757  0.4968  0.1754 -0.0530
    6CHTO  H121 2353   6.632   5.252   1.798  0.0037  0.4028 -0.6050
    6CHTO   C71 2354   6.544   5.064   1.849 -0.3896  0.0064 -0.1764
    6CHTO   O47 2355   6.600   5.071   1.974 -0.0096  0.3265 -0.4635
    6CHTO  H104 2356   6.563   5.019   2.043  0.4365  1.0942  0.3670
    6CHTO   O34 2357   7.025   5.099   1.670 -0.6894 -0.2588  0.6970
    6CHTO   C49 2358   7.176   5.152   1.698 -0.3143  0.1083  0.3263
    6CHTO   H91 2359   7.246   5.150   1.614 -0.0464  2.1535  0.4823
    6CHTO   C47 2360   7.239   5.074   1.812 -0.7123 -0.0779  0.1925
    6CHTO   H89 2361   7.341   5.113   1.826 -0.2040 -1.9409  1.8790
    6CHTO   O33 2362   7.242   4.939   1.770 -0.2349  0.1779  0.3206
    6CHTO   H70 2363   7.298   4.901   1.835  2.0866  1.9426 -0.5878
    6CHTO   C45 2364   7.159   5.094   1.955  0.2901 -1.0121 -0.1010
    6CHTO   H87 2365   7.053   5.073   1.934 -0.2945 -0.2620  2.0078
    6CHTO    N8 2366   7.200   5.006   2.067  0.4422  0.2190  0.2198
    6CHTO   H75 2367   7.285   4.947   2.035  0.3476  0.5019 -0.5618
    6CHTO   H76 2368   7.111   4.954   2.098 -1.2407  1.0893 -3.0096
    6CHTO   C43 2369   7.168   5.257   1.990  0.2274 -0.0675  0.2561
    6CHTO   H85 2370   7.102   5.270   2.076 -2.0223  1.8030 -1.6757
    6CHTO   O29 2371   7.124   5.327   1.873 -0.2334 -0.0811 -0.2580
    6CHTO   C50 2372   7.175   5.303   1.745 -0.1534  0.8279 -0.1371
    6CHTO   H92 2373   7.106   5.352   1.674 -0.9107  0.0481  0.0561
    6CHTO   C54 2374   7.306   5.378   1.715 -0.0131 -0.3757  0.1166
    6CHTO   O36 2375   7.333   5.385   1.572 -0.0720 -0.1875  0.1258
    6CHTO   H72 2376   7.416   5.426   1.555  1.1626 -2.4795  0.4255
    6CHTO   O27 2377   7.297   5.300   2.025 -0.5788  0.4621 -0.0022
    6CHTO   C37 2378   7.369   5.409   2.088  0.4689  0.2686  0.6710
    6CHTO   H79 2379   7.453   5.437   2.023  0.5539  1.2666  1.2029
    6CHTO   C38 2380   7.286   5.539   2.101 -0.4330 -0.0509  0.4623
    6CHTO   H80 2381   7.188   5.511   2.143 -0.0881 -0.1721  1.1988
    6CHTO   O31 2382   7.261   5.586   1.972  0.0567  0.2341  0.1261
    6CHTO   H68 2383   7.200   5.657   1.974  0.9449  1.0043  3.8511
    6CHTO   C39 2384   7.355   5.646   2.197  0.4984 -0.5052  0.1344
    6CHTO   H81 2385   7.441   5.686   2.143  0.2960  2.6729  2.0634
    6CHTO    N7 2386   7.263   5.758   2.234 -0.2398  0.1206  0.3067
    6CHTO   H73 2387   7.159   5.728   2.224 -0.3552  0.1790  1.2488
    6CHTO   H74 2388   7.277   5.790   2.336  0.7615  1.5065 -0.2587
    6CHTO   C40 2389   7.408   5.576   2.326  0.2900 -0.5480  0.2513
    6CHTO   H82 2390   7.326   5.550   2.393 -0.2094  0.3924  0.0200
    6CHTO   O26 2391   7.492   5.464   2.291  0.0491  0.2316 -0.2920
    6CHTO   C41 2392   7.417   5.358   2.228 -0.3014 -0.3195  0.1546
    6CHTO   H83 2393   7.334   5.334   2.296 -1.2647  0.9270 -0.5542
    6CHTO   C52 2394   7.508   5.234   2.215  0.6549 -0.1451 -0.2054
    6CHTO   O35 2395   7.517   5.170   2.338  0.0035  0.4069  0.6124
    6CHTO   H71 2396   7.605   5.162   2.370 -0.2852 -0.1130  1.2817
    6CHTO   O28 2397   7.511   5.664   2.382  0.1002  0.5308  0.5041
    6CHTO   C42 2398   7.524   5.674   2.528  0.2720 -0.0781  0.2451
    6CHTO   H84 2399   7.628   5.707   2.535 -0.2519  1.4592  1.1630
    6CHTO   C44 2400   7.518   5.548   2.628 -0.5836  0.4082  0.8987
    6CHTO   H86 2401   7.418   5.506   2.621  0.3285 -1.3474 -3.8206
    6CHTO   O32 2402   7.614   5.448   2.585  0.2286 -0.7727  0.3533
    6CHTO   H69 2403   7.582   5.402   2.510 -0.9383  1.0616 -0.2905
    6CHTO   C48 2404   7.538   5.587   2.780 -0.0909 -0.5720  0.4958
    6CHTO   H90 2405   7.637   5.629   2.794  0.2190 -1.3037  0.5426
    6CHTO    N9 2406   7.532   5.466   2.871  0.4876 -0.1803 -0.5005
    6CHTO   H77 2407   7.535   5.380   2.806 -1.3874 -0.6260 -0.0446
    6CHTO   H78 2408   7.454   5.460   2.946  1.0058  1.4136  0.1857
    6CHTO   C51 2409   7.427   5.695   2.813 -0.1036 -0.4152 -0.5126
    6CHTO   H93 2410   7.325   5.663   2.792 -0.8973  1.4877  0.3435
    6CHTO   O30 2411   7.461   5.815   2.741  0.8498  0.6139 -0.3163
    6CHTO   C46 2412   7.442   5.788   2.585 -0.7630  0.1970  0.1996
    6CHTO   H88 2413   7.336   5.795   2.559 -0.8037 -1.1596 -0.0171
    6CHTO   C53 2414   7.491   5.929   2.525 -0.5279  0.2572  0.4030
    6CHTO   O72 2415   7.387   6.026   2.547 -0.4523  0.2998  0.7171
    6CHTO  H199 2416   7.391   6.091   2.480  1.9305 -0.0820  0.4513
    6CHTO   O22 2417   7.422   5.741   2.948 -0.2908 -0.2099 -0.1807
    6CHTO   C31 2418   7.323   5.839   3.007  0.3822 -0.1477  0.8497
    6CHTO   H59 2419   7.341   5.836   3.116  0.7255 -0.3420  0.7868
    6CHTO   C29 2420   7.340   5.984   2.956 -0.4118  0.0055 -0.4236
    6CHTO   H57 2421   7.319   5.968   2.850 -0.4928 -3.2190  0.0356
    6CHTO   O21 2422   7.475   6.027   2.977  0.0620 -0.2168  0.0507
    6CHTO   H37 2423   7.477   6.117   2.951 -0.3369 -0.6201 -1.4666
    6CHTO   C27 2424   7.228   6.084   3.013  0.1553  0.0430 -0.5073
    6CHTO   H55 2425   7.239   6.097   3.122 -0.2293  0.9924 -0.5785
    6CHTO    N5 2426   7.241   6.213   2.944  0.3085 -0.2568 -0.3206
    6CHTO   H43 2427   7.165   6.275   2.989  0.9377  0.0458  0.3284
    6CHTO   H44 2428   7.220   6.201   2.838  0.6795  0.9242 -0.5422
    6CHTO   C25 2429   7.089   6.003   2.983 -0.8010  0.0401 -0.4728
    6CHTO   H53 2430   7.073   5.993   2.875 -2.6396 -0.5018 -0.1703
    6CHTO   O17 2431   7.090   5.875   3.045  0.0264 -0.5628 -0.1213
    6CHTO   C32 2432   7.179   5.787   2.979  0.4388 -0.2407 -0.3841
    6CHTO   H60 2433   7.157   5.795   2.873  0.4013 -2.3091 -0.5496
    6CHTO   C36 2434   7.155   5.645   3.036 -0.2511 -0.1415  0.0629
    6CHTO   O25 2435   7.033   5.603   2.960 -0.0860 -0.2684 -0.1228
    6CHTO   H40 2436   6.960   5.656   2.985 -1.9712 -2.3622 -0.9591
    6CHTO   O15 2437   6.989   6.054   3.023  0.0797  0.5020  0.2061
    6CHTO   C19 2438   6.871   6.129   3.056  0.4105  0.7834  0.5154
    6CHTO   H47 2439   6.846   6.104   3.160  1.8034 -1.0805  0.4291
    6CHTO   C20 2440   6.903   6.279   3.053  0.1295  0.2556 -0.3049
    6CHTO   H48 2441   6.948   6.309   2.957 -0.3375 -1.6426 -1.1547
    6CHTO   O19 2442   7.010   6.307   3.152  0.1138  0.0914 -0.1948
    6CHTO   H35 2443   7.077   6.242   3.144 -1.2795 -1.3205 -0.4383
    6CHTO   C21 2444   6.771   6.363   3.093 -0.1880 -0.7229 -0.1344
    6CHTO   H49 2445   6.747   6.342   3.198 -0.3461 -0.4994 -0.1259
    6CHTO    N4 2446   6.792   6.514   3.084  0.3914  0.3748  0.4154
    6CHTO   H41 2447   6.875   6.541   3.148  0.8139 -0.2068  0.1251
    6CHTO   H42 2448   6.701   6.551   3.128  1.4278 -0.7436  3.5982
    6CHTO   C22 2449   6.647   6.321   3.008  0.2583  0.5013  0.5092
    6CHTO   H50 2450   6.665   6.354   2.905  0.0138 -1.6308 -0.2496
    6CHTO   O14 2451   6.634   6.178   3.015  0.0360 -0.4570  0.2817
    6CHTO   C23 2452   6.744   6.096   2.966  0.3230 -0.6861 -0.2312
    6CHTO   H51 2453   6.764   6.103   2.859 -0.3625 -0.4146 -0.3430
    6CHTO   C34 2454   6.696   5.949   2.981 -0.4921  0.1818 -0.2896
    6CHTO   O23 2455   6.790   5.858   2.931 -0.3154 -0.1252  0.0216
    6CHTO   H38 2456   6.770   5.779   2.979  0.5152  0.8291  2.0056
    6CHTO   O16 2457   6.524   6.382   3.051 -0.5181 -0.2513  0.5073
    6CHTO   C24 2458   6.416   6.378   2.929 -0.2905  0.0862 -0.7716
    6CHTO   H52 2459   6.460   6.337   2.838 -1.0771 -1.7839 -0.3524
    6CHTO   C26 2460   6.374   6.525   2.899 -0.1767  1.3428 -0.2184
    6CHTO   H54 2461   6.330   6.570   2.990  0.8274  1.4218  0.2424
    6CHTO   O20 2462   6.495   6.593   2.862 -0.3885  0.0150  0.2419
    6CHTO   H36 2463   6.562   6.588   2.928  0.8832  0.5245 -0.9846
    6CHTO   C30 2464   6.264   6.522   2.792 -0.4381  0.3676  0.3009
    6CHTO   H58 2465   6.315   6.490   2.700  1.5256  1.8067  0.8693
    6CHTO    N6 2466   6.209   6.661   2.765 -0.4005 -0.1395 -0.1099
    6CHTO   H45 2467   6.143   6.684   2.847  1.0635  1.0829  0.7454
    6CHTO   H46 2468   6.145   6.640   2.680 -0.1348 -2.2812  0.1991
    6CHTO   C33 2469   6.150   6.419   2.824  0.1227 -0.0146 -0.1478
    6CHTO   H61 2470   6.103   6.456   2.916  2.0246 -0.4508  1.0169
    6CHTO   O18 2471   6.209   6.290   2.850  0.1765 -0.5602 -0.2995
    6CHTO   C28 2472   6.292   6.283   2.965  0.2592  0.3121 -0.0753
    6CHTO   H56 2473   6.236   6.321   3.051  0.9027  0.3098  0.3481
    6CHTO   C35 2474   6.331   6.142   3.003 -0.3086 -0.1190 -0.1234
    6CHTO   O24 2475   6.381   6.062   2.894 -0.1656 -0.6352 -0.1608
    6CHTO   H39 2476   6.339   5.978   2.892  0.9158 -1.1862 -0.6181
    6CHTO    O9 2477   6.039   6.404   2.728  0.5431 -0.3978  0.8893
    6CHTO   C13 2478   5.887   6.457   2.781 -0.3445  0.7618 -0.0835
    6CHTO   H26 2479   5.890   6.543   2.852 -1.8308  0.8102 -0.0767
    6CHTO   C11 2480   5.822   6.329   2.851 -0.0332 -0.9442  0.2086
    6CHTO   H24 2481   5.872   6.296   2.943  1.6285 -0.5409 -0.5256
    6CHTO    O8 2482   5.822   6.214   2.766 -0.5957  0.4349 -0.1353
    6CHTO    H3 2483   5.815   6.245   2.678 -0.7914  1.3076  0.1867
    6CHTO    C9 2484   5.676   6.378   2.890 -1.0036  0.0087  0.1955
    6CHTO   H22 2485   5.697   6.462   2.957  0.2017 -0.3085  0.2261
    6CHTO    N2 2486   5.605   6.275   2.977 -0.3541  0.1704 -0.1393
    6CHTO   H10 2487   5.503   6.303   2.996  0.3053  1.4685  1.5901
    6CHTO   H11 2488   5.611   6.172   2.943  0.8109  0.1935 -0.0281
    6CHTO    C7 2489   5.594   6.425   2.767  0.9680  0.7372  1.5120
    6CHTO   H20 2490   5.510   6.474   2.821 -0.6377  0.4165 -0.6402
    6CHTO    O4 2491   5.663   6.519   2.680  0.4041 -0.4990 -0.2354
    6CHTO   C14 2492   5.804   6.523   2.661  0.1333  0.4951  0.2938
    6CHTO   H27 2493   5.835   6.630   2.658 -1.3082  0.8681 -1.8786
    6CHTO   C18 2494   5.825   6.468   2.518 -0.3238 -0.1210  0.4011
    6CHTO   O13 2495   5.957   6.499   2.468 -0.0512 -0.4065 -0.1356
    6CHTO    H7 2496   5.973   6.464   2.383  1.1073 -2.8320  1.0217
    6CHTO    O2 2497   5.520   6.301   2.683 -0.5108 -0.3600 -0.1789
    6CHTO    C1 2498   5.377   6.315   2.644 -0.2462 -0.4691 -0.1216
    6CHTO   H14 2499   5.354   6.240   2.565  1.0308 -0.1120 -0.8585
    6CHTO    C2 2500   5.351   6.461   2.577  0.7923  0.1610  0.2964
    6CHTO   H15 2501   5.385   6.540   2.645 -1.5953  1.4110  0.1060
    6CHTO    O6 2502   5.424   6.467   2.450  0.1454  0.5520  0.1341
    6CHTO    H1 2503   5.516   6.453   2.467  0.1905  1.5933  0.7744
    6CHTO    C3 2504   5.194   6.489   2.546 -0.2287 -0.0878 -0.2149
    6CHTO   H16 2505   5.157   6.434   2.459 -1.4409 -0.1046  0.2947
    6CHTO    N1 2506   5.157   6.636   2.516  0.7891  0.6716 -0.1797
    6CHTO    H8 2507   5.176   6.701   2.601 -0.5690  2.9457 -1.5550
    6CHTO    H9 2508   5.221   6.672   2.437 -1.4790  1.1892 -1.8274
    6CHTO    C4 2509   5.106   6.438   2.669  0.3107  0.0800  0.2659
    6CHTO   H17 2510   5.123   6.506   2.753 -0.4052  1.3907 -0.6232
    6CHTO    O1 2511   5.142   6.302   2.709  0.0712 -0.2989  1.0400
    6CHTO    C5 2512   5.273   6.292   2.764 -0.1381  0.6993 -0.1300
    6CHTO   H18 2513   5.293   6.376   2.830  1.6691  1.3592 -1.4628
    6CHTO   C16 2514   5.283   6.162   2.844 -0.1849  0.1567 -0.0621
    6CHTO   O11 2515   5.235   6.049   2.775 -0.4811 -0.1182  0.6648
    6CHTO    H5 2516   5.141   6.049   2.779 -0.5564 -0.0232 -0.6877
    6CHTO    O3 2517   4.969   6.426   2.632  0.1466 -0.0432  0.0527
    6CHTO    C6 2518   4.864   6.434   2.729  0.1816  0.2873 -0.0193
    6CHTO   H19 2519   4.909   6.448   2.827 -0.8678  1.2999  0.3309
    6CHTO    C8 2520   4.773   6.560   2.709  0.4101  0.1487 -0.1386
    6CHTO   H21 2521   4.740   6.562   2.606 -1.5940 -0.9637  0.4494
    6CHTO    O7 2522   4.854   6.678   2.727  0.2013 -0.0607  0.3137
    6CHTO    H2 2523   4.809   6.760   2.730 -0.5797 -0.5059  0.9684
    6CHTO   C12 2524   4.643   6.562   2.802  0.4320  1.0497 -0.1284
    6CHTO   H25 2525   4.682   6.584   2.904 -0.4918  1.0716  0.2292
    6CHTO    N3 2526   4.549   6.675   2.765  0.2856 -0.0315  0.1627
    6CHTO   H12 2527   4.505   6.671   2.667 -0.1699 -0.6696  0.3914
    6CHTO   H13 2528   4.563   6.769   2.817 -1.4156  0.5775 -0.4633
    6CHTO   C15 2529   4.572   6.418   2.798 -0.4954 -0.2322  0.8437
    6CHTO   H28 2530   4.527   6.400   2.700 -3.1729 -0.4419  2.0768
    6CHTO   O10 2531   4.474   6.403   2.895  0.1945 -0.6425  0.2883
    6CHTO    H4 2532   4.514   6.382   2.977 -0.4182 -2.6425  0.1157
    6CHTO    O5 2533   4.670   6.317   2.829 -0.2790 -0.8010  0.1274
    6CHTO   C10 2534   4.781   6.309   2.741 -0.0167 -0.4049  0.0195
    6CHTO   H23 2535   4.742   6.281   2.643 -0.7343 -1.2476  0.5441
    6CHTO   C17 2536   4.855   6.190   2.796  0.5038 -0.1014 -0.7587
    6CHTO   O12 2537   4.786   6.062   2.783 -0.0263  0.0705  0.4736
    6CHTO    H6 2538   4.827   6.007   2.719  0.1779  0.3156  0.3900
    7CHTO  H203 2539   4.914   2.027   0.339  0.2160  1.0677 -0.4493
    7CHTO   O82 2540   4.947   2.042   0.253 -0.0622 -0.0119 -0.7509
    7CHTO  C123 2541   5.056   2.147   0.266 -0.0653  0.5740 -0.4618
    7CHTO  H227 2542   5.006   2.238   0.302  1.1636  1.2009 -0.3144
    7CHTO   O77 2543   5.138   2.106   0.375 -0.1560  0.4949 -0.7391
    7CHTO  C118 2544   5.247   2.188   0.414  0.7276 -0.0052  0.8585
    7CHTO  H222 2545   5.208   2.284   0.449 -0.9255  0.4879 -2.1033
    7CHTO  C125 2546   5.327   2.123   0.533  0.1898  0.1651  0.0254
    7CHTO   O84 2547   5.237   2.136   0.646 -0.5228 -0.4624  0.3452
    7CHTO  H205 2548   5.266   2.209   0.699  0.5465 -0.0068 -0.8530
    7CHTO  C114 2549   5.336   2.208   0.293 -0.3400  0.6736  0.2876
    7CHTO  H218 2550   5.368   2.110   0.257 -0.2415  0.7486  0.1715
    7CHTO  C116 2551   5.254   2.266   0.169  0.8207  0.7935  0.1066
    7CHTO  H220 2552   5.226   2.371   0.191 -0.4462 -0.0699  2.7930
    7CHTO   O79 2553   5.349   2.280   0.060 -0.2662  0.4478  0.2882
    7CHTO  H201 2554   5.321   2.227  -0.012 -0.9635 -0.2535  1.0499
    7CHTO  C120 2555   5.135   2.169   0.135  0.2402  0.2920  0.3188
    7CHTO  H224 2556   5.174   2.076   0.088  1.9355  1.4485 -0.6092
    7CHTO   N21 2557   5.064   2.230   0.027  0.0351 -0.2046  0.5418
    7CHTO  H211 2558   5.006   2.164  -0.035 -0.0001  0.3229  0.0103
    7CHTO  H212 2559   5.013   2.321   0.053  0.5730  0.1172  0.4835
    7CHTO   O75 2560   5.445   2.296   0.339 -0.1333  0.0173  0.4888
    7CHTO  C112 2561   5.594   2.260   0.264  0.1432  0.7108 -0.3688
    7CHTO  H216 2562   5.576   2.214   0.166 -0.4478 -2.4179  1.1270
    7CHTO   O73 2563   5.661   2.171   0.352  0.3638 -0.4542  0.2321
    7CHTO  C113 2564   5.793   2.129   0.318 -0.3273  0.4886 -0.3202
    7CHTO  H217 2565   5.789   2.089   0.215  0.6715 -0.7425  0.1016
    7CHTO  C124 2566   5.828   2.012   0.421 -0.1254 -0.1518  0.1376
    7CHTO   O83 2567   5.802   2.040   0.558 -0.3734 -0.9054 -0.1081
    7CHTO  H204 2568   5.841   1.971   0.607  0.0196 -1.4388 -1.1418
    7CHTO  C109 2569   5.883   2.248   0.324  0.6620  0.1204 -0.5319
    7CHTO  H213 2570   5.887   2.286   0.427 -0.5331 -1.5569  0.1378
    7CHTO  C110 2571   5.828   2.360   0.225 -0.2498  0.3755 -0.2118
    7CHTO  H214 2572   5.847   2.324   0.124 -0.2776  0.0886 -0.1183
    7CHTO   O78 2573   5.897   2.485   0.247 -0.1048 -0.0863  0.8715
    7CHTO  H200 2574   5.907   2.532   0.167 -2.7095 -2.5928 -1.0145
    7CHTO  C111 2575   5.678   2.390   0.254  0.4627  0.1723 -0.2065
    7CHTO  H215 2576   5.666   2.428   0.356  1.9149 -0.4360  0.1963
    7CHTO   N19 2577   5.604   2.479   0.156  0.3907  0.3708 -0.1756
    7CHTO  H207 2578   5.680   2.553   0.135 -0.0961  0.9112 -0.0433
    7CHTO  H208 2579   5.586   2.424   0.065  0.7075  0.1297 -0.0918
    7CHTO   O74 2580   6.011   2.203   0.289  0.1529  0.8746 -0.1966
    7CHTO  C115 2581   6.124   2.293   0.347 -0.3635 -0.3548 -0.2460
    7CHTO  H219 2582   6.121   2.392   0.302  0.0823 -1.4858 -2.8284
    7CHTO   O76 2583   6.112   2.315   0.510 -0.0662  0.1522 -0.5361
    7CHTO  C122 2584   6.136   2.191   0.580  0.2422 -0.4149  0.1239
    7CHTO  H226 2585   6.071   2.111   0.544  1.0904 -0.3526 -1.5814
    7CHTO  C126 2586   6.111   2.208   0.731  0.3196 -0.3874  0.5116
    7CHTO   O85 2587   5.972   2.223   0.773  1.0859  0.0968  0.7857
    7CHTO  H206 2588   5.910   2.184   0.713  0.7051  0.7966  0.7160
    7CHTO  C121 2589   6.279   2.145   0.547  0.5502 -0.0039 -0.1038
    7CHTO  H225 2590   6.349   2.232   0.556  1.1706 -0.4660 -0.4748
    7CHTO   O81 2591   6.318   2.042   0.638  0.0512  0.0574  0.2072
    7CHTO  H202 2592   6.354   2.084   0.714  1.2368 -1.5536  0.5616
    7CHTO  C119 2593   6.285   2.101   0.402 -0.1553  0.0407  0.6125
    7CHTO  H223 2594   6.390   2.072   0.394  0.3799  1.9662  0.4865
    7CHTO  C117 2595   6.255   2.213   0.297  0.1655  0.2636 -0.0496
    7CHTO  H221 2596   6.228   2.191   0.194  0.3225 -1.1798  0.2072
    7CHTO   N20 2597   6.359   2.309   0.279 -0.7346  0.2841  0.0476
    7CHTO  H209 2598   6.370   2.373   0.366  0.1282 -0.8348  0.7833
    7CHTO  H210 2599   6.449   2.252   0.261 -0.8010 -0.2767  1.4063
    7CHTO   O80 2600   6.208   1.949   0.376  0.5002 -0.4665 -0.6615
    7CHTO  C103 2601   6.219   1.882   0.236 -0.1083 -0.2055  0.0682
    7CHTO  H190 2602   6.150   1.926   0.164  1.7338  0.7133 -1.1717
    7CHTO  C101 2603   6.365   1.881   0.163 -0.0942  0.0301  0.1134
    7CHTO  H188 2604   6.439   1.855   0.239  2.1915  1.2612 -1.6202
    7CHTO   O68 2605   6.388   2.023   0.115  0.0474  0.1762 -0.3491
    7CHTO  H168 2606   6.462   2.023   0.058  0.4348 -1.7064  0.0980
    7CHTO   C99 2607   6.369   1.777   0.038  0.1682  0.3219  0.2677
    7CHTO  H186 2608   6.310   1.829  -0.040 -1.2493 -1.1786  0.3088
    7CHTO   N17 2609   6.505   1.754  -0.008 -0.0852 -0.5448  0.4813
    7CHTO  H174 2610   6.546   1.654  -0.011 -0.0603 -0.4994 -1.3718
    7CHTO  H175 2611   6.506   1.803  -0.104 -0.8682  1.0449  1.2712
    7CHTO   C97 2612   6.294   1.642   0.061  0.2868  1.1254 -0.3341
    7CHTO  H184 2613   6.360   1.584   0.128 -0.6997  1.0414  0.5831
    7CHTO   O64 2614   6.166   1.667   0.129 -0.0710  0.7506  0.3487
    7CHTO  C104 2615   6.179   1.733   0.258  0.0296  0.1258  0.2150
    7CHTO  H191 2616   6.254   1.682   0.317  0.7767  0.6838 -0.2423
    7CHTO  C108 2617   6.043   1.723   0.329 -0.4026  0.1462  0.4523
    7CHTO   O71 2618   6.013   1.582   0.363 -0.3832 -0.1897 -0.1095
    7CHTO  H171 2619   5.933   1.556   0.320 -0.6252 -0.5895  0.5828
    7CHTO   O62 2620   6.277   1.574  -0.064 -0.2382  0.2337 -0.2181
    7CHTO   C91 2621   6.308   1.433  -0.083 -0.2010 -0.5119  0.0570
    7CHTO  H178 2622   6.414   1.414  -0.065 -0.4909 -1.6601  0.6125
    7CHTO   C92 2623   6.283   1.391  -0.234  0.1179 -0.4751  0.3209
    7CHTO  H179 2624   6.345   1.450  -0.303 -1.5302  2.0613  0.9207
    7CHTO   O66 2625   6.340   1.257  -0.244  0.4833  0.1524 -0.4095
    7CHTO  H166 2626   6.272   1.193  -0.234 -0.5207  1.3444  0.6167
    7CHTO   C93 2627   6.130   1.395  -0.268  1.1740 -0.6386  0.4535
    7CHTO  H180 2628   6.114   1.315  -0.341  3.0703 -2.9731  2.5366
    7CHTO   N16 2629   6.084   1.517  -0.338  0.4137  0.1492 -0.3438
    7CHTO  H172 2630   5.977   1.527  -0.351  0.3864  1.0426  0.5287
    7CHTO  H173 2631   6.146   1.535  -0.424  1.1544 -0.7387 -0.0008
    7CHTO   C94 2632   6.044   1.374  -0.135 -0.1324  0.1977 -0.0336
    7CHTO  H181 2633   6.029   1.467  -0.080 -0.6805 -0.4977  1.0113
    7CHTO   O61 2634   6.111   1.279  -0.050  0.4082 -0.2324 -0.1581
    7CHTO   C95 2635   6.227   1.340   0.015  0.5843  0.2512  0.4699
    7CHTO  H182 2636   6.185   1.406   0.090 -1.9464 -2.1342  1.2274
    7CHTO  C106 2637   6.319   1.232   0.083 -0.3021 -0.2789 -0.6116
    7CHTO   O69 2638   6.265   1.187   0.208  0.1011  0.0759 -0.2344
    7CHTO  H169 2639   6.304   1.104   0.225 -0.7556 -0.6252 -1.5617
    7CHTO   O63 2640   5.917   1.320  -0.172 -0.1646 -0.1787 -0.1307
    7CHTO   C96 2641   5.797   1.388  -0.095  0.0982 -0.4602 -0.1811
    7CHTO  H183 2642   5.800   1.495  -0.114  0.0119 -0.5871 -0.9119
    7CHTO   C98 2643   5.797   1.370   0.060 -0.1129 -0.8643  0.1743
    7CHTO  H185 2644   5.892   1.403   0.107  0.3655 -1.3019 -0.4745
    7CHTO   O67 2645   5.698   1.456   0.120  0.2945 -0.2830  0.0568
    7CHTO  H167 2646   5.721   1.452   0.210 -1.1264  1.8750  0.5401
    7CHTO  C102 2647   5.751   1.225   0.109  0.0428 -0.4583 -0.4635
    7CHTO  H189 2648   5.713   1.242   0.211 -0.0579 -0.6634 -0.4666
    7CHTO   N18 2649   5.861   1.127   0.132 -0.0192 -1.1460 -0.2332
    7CHTO  H176 2650   5.898   1.099   0.035  1.3644  2.2518 -0.7783
    7CHTO  H177 2651   5.823   1.046   0.192  0.3784 -0.6703  0.6799
    7CHTO  C105 2652   5.636   1.157   0.022  0.4265  0.3028  0.2602
    7CHTO  H192 2653   5.679   1.086  -0.048 -0.6446 -0.0310 -0.0747
    7CHTO   O65 2654   5.580   1.265  -0.062 -0.1237  0.6561 -0.2573
    7CHTO  C100 2655   5.669   1.326  -0.159 -0.7597 -0.7302 -0.2980
    7CHTO  H187 2656   5.694   1.254  -0.238  1.5011  0.4179 -0.6745
    7CHTO  C107 2657   5.570   1.424  -0.220 -1.0572  0.0944  0.3492
    7CHTO   O70 2658   5.630   1.476  -0.332  0.3573  0.0028 -0.7982
    7CHTO  H170 2659   5.589   1.426  -0.400 -1.5712  1.0248 -0.4279
    7CHTO   O57 2660   5.534   1.091   0.110  0.3659 -0.1313  0.2031
    7CHTO   C85 2661   5.465   0.978   0.051 -0.2913  0.1853 -0.0687
    7CHTO  H157 2662   5.465   0.988  -0.059 -0.8783 -1.0562 -0.1853
    7CHTO   C83 2663   5.317   0.979   0.106 -0.6293  0.1002  0.1438
    7CHTO  H155 2664   5.258   1.069   0.085 -1.8482 -0.7946 -0.3325
    7CHTO   O56 2665   5.310   0.975   0.251  0.4469  0.0306 -0.1973
    7CHTO  H135 2666   5.357   1.046   0.290  0.5927 -1.0092  1.5759
    7CHTO   C81 2667   5.238   0.855   0.047  0.6537 -0.8705  0.0198
    7CHTO  H153 2668   5.240   0.870  -0.061  2.5302  0.9476  0.2710
    7CHTO   N14 2669   5.094   0.854   0.079 -0.4636 -0.0275 -0.0593
    7CHTO  H141 2670   5.075   0.843   0.183 -2.3600 -0.3708 -0.4338
    7CHTO  H142 2671   5.054   0.947   0.044 -1.3366 -1.0547 -1.8709
    7CHTO   C79 2672   5.310   0.720   0.082 -0.3227  0.1925 -0.4605
    7CHTO  H151 2673   5.266   0.644   0.019  1.8140 -0.4340 -1.2297
    7CHTO   O52 2674   5.454   0.723   0.038  0.0123  0.0311 -0.1181
    7CHTO   C86 2675   5.524   0.838   0.098  0.1323 -0.6277  0.3898
    7CHTO  H158 2676   5.517   0.821   0.207  1.8336  0.8733  0.7608
    7CHTO   C90 2677   5.671   0.828   0.060  0.1099  0.4785 -0.3802
    7CHTO   O60 2678   5.745   0.720   0.128  0.2856  0.2690  0.2869
    7CHTO  H138 2679   5.832   0.743   0.103 -0.1161  1.0279 -0.4179
    7CHTO   O50 2680   5.303   0.682   0.218 -0.3553 -0.1894  0.7933
    7CHTO   C73 2681   5.338   0.582   0.318 -0.0020 -0.2175  0.0410
    7CHTO  H145 2682   5.440   0.546   0.299  0.2437  0.2391  0.4524
    7CHTO   C74 2683   5.248   0.468   0.298  0.2828 -0.2296  0.6227
    7CHTO  H146 2684   5.252   0.441   0.192 -1.2544 -0.3590  0.5925
    7CHTO   O54 2685   5.309   0.355   0.362  0.5462  0.6049 -0.3903
    7CHTO  H133 2686   5.296   0.275   0.314  1.5288 -0.7492  1.5128
    7CHTO   C75 2687   5.098   0.491   0.346  0.0942 -0.1622  0.8809
    7CHTO  H147 2688   5.055   0.569   0.282 -1.1701  0.1169  2.0470
    7CHTO   N13 2689   5.007   0.381   0.321  0.4676  0.2556 -0.3853
    7CHTO  H139 2690   4.971   0.338   0.414  0.2494 -0.9888 -1.0397
    7CHTO  H140 2691   4.920   0.417   0.268 -0.8079 -0.0779  1.4288
    7CHTO   C76 2692   5.114   0.540   0.503 -0.2262 -0.3444  0.2316
    7CHTO  H148 2693   5.153   0.470   0.577  0.4456  0.7378  0.9190
    7CHTO   O49 2694   5.189   0.661   0.504  0.0605  0.5793  0.2169
    7CHTO   C77 2695   5.327   0.635   0.465 -0.1748 -0.5552  0.3657
    7CHTO  H149 2696   5.386   0.571   0.531  2.1846  1.1174 -0.0644
    7CHTO   C88 2697   5.408   0.763   0.479 -0.1723  0.0461  0.9042
    7CHTO   O58 2698   5.402   0.807   0.641  0.1338  0.0483  0.3756
    7CHTO  H136 2699   5.317   0.832   0.669  0.0412 -0.8063  0.8676
    7CHTO   O51 2700   4.976   0.599   0.569  0.0861 -0.3619  0.9577
    7CHTO   C78 2701   4.954   0.560   0.732 -0.0715  0.1811  0.4151
    7CHTO  H150 2702   5.042   0.501   0.764  0.9039  0.5774 -1.4176
    7CHTO   C80 2703   4.827   0.479   0.756  0.1846  0.3032  0.2779
    7CHTO  H152 2704   4.744   0.546   0.725  0.5193  0.7833  0.4018
    7CHTO   O55 2705   4.826   0.364   0.671 -0.2929  0.4085 -0.4212
    7CHTO  H134 2706   4.903   0.313   0.685 -1.7095 -1.3099  1.5485
    7CHTO   C84 2707   4.812   0.441   0.911  0.2352  0.0088 -1.3629
    7CHTO  H156 2708   4.902   0.386   0.938  0.3408  1.2128  0.8125
    7CHTO   N15 2709   4.702   0.341   0.957  0.5669  0.4410  0.3484
    7CHTO  H143 2710   4.604   0.372   0.928 -0.5845 -1.7912  1.7254
    7CHTO  H144 2711   4.727   0.258   0.894  1.6476  1.8690 -1.1193
    7CHTO   C87 2712   4.810   0.575   0.995 -0.4215 -0.7082  0.3978
    7CHTO  H159 2713   4.723   0.637   0.977  0.1642 -0.1330 -0.5316
    7CHTO   O53 2714   4.934   0.666   0.957 -0.0535 -0.4026  0.1310
    7CHTO   C82 2715   4.951   0.690   0.815  0.1185 -0.6741  0.1799
    7CHTO  H154 2716   4.873   0.758   0.780 -1.9337 -2.5548  0.9802
    7CHTO   C89 2717   5.094   0.761   0.801  0.5423 -0.4110  0.0216
    7CHTO   O59 2718   5.086   0.883   0.878  0.2723 -0.2686  0.1215
    7CHTO  H137 2719   5.060   0.950   0.818  1.7323 -0.2008 -0.4674
    7CHTO   O45 2720   4.835   0.526   1.159  0.2570  0.2640  0.3972
    7CHTO   C67 2721   4.878   0.627   1.256  0.0841 -0.9429  0.1020
    7CHTO  H124 2722   4.966   0.677   1.216 -1.2404  0.7593 -0.7892
    7CHTO   C65 2723   4.771   0.739   1.288 -0.1309 -0.2529 -0.6300
    7CHTO  H122 2724   4.673   0.700   1.259 -0.6803  1.6110 -1.3984
    7CHTO   O44 2725   4.798   0.842   1.197  0.5349 -0.0675  0.4581
    7CHTO  H102 2726   4.720   0.871   1.152 -0.4114 -1.5680  1.0842
    7CHTO   C63 2727   4.762   0.770   1.441 -0.2604 -0.2250 -1.0098
    7CHTO  H120 2728   4.725   0.680   1.490  1.6732  0.3958  1.7346
    7CHTO   N11 2729   4.675   0.882   1.490  0.1889  0.2416  0.3450
    7CHTO  H108 2730   4.596   0.843   1.551 -0.2575 -1.3908 -1.2326
    7CHTO  H109 2731   4.731   0.950   1.551 -2.3709  1.7876  1.0690
    7CHTO   C61 2732   4.916   0.784   1.488 -0.2826 -0.5019 -0.4463
    7CHTO  H118 2733   4.915   0.817   1.593  0.2041 -2.0905  0.0758
    7CHTO   O40 2734   4.981   0.654   1.491 -0.1448  0.0631  0.4267
    7CHTO   C68 2735   4.939   0.554   1.390  0.5528 -0.3225  0.2693
    7CHTO  H125 2736   4.860   0.488   1.434  0.5833 -1.1191 -0.8500
    7CHTO   C72 2737   5.055   0.467   1.347  0.2379 -0.5702 -0.2370
    7CHTO   O48 2738   5.015   0.349   1.274  0.3869  0.5432 -0.2366
    7CHTO  H105 2739   5.093   0.305   1.244  0.0061 -0.0676 -0.3366
    7CHTO   O38 2740   4.999   0.873   1.411 -0.5143 -0.6071 -0.2054
    7CHTO   C55 2741   5.129   0.928   1.453  0.0016  0.1473  1.0739
    7CHTO  H112 2742   5.190   0.850   1.502  1.7655 -0.7404 -2.3544
    7CHTO   C56 2743   5.110   1.051   1.549 -0.2027 -0.4090 -0.4945
    7CHTO  H113 2744   5.023   1.108   1.514  1.3854  1.7833 -0.9582
    7CHTO   O42 2745   5.072   0.996   1.674  0.1957 -0.1880  0.3228
    7CHTO  H100 2746   5.019   0.920   1.659 -0.8234  0.1553  2.0159
    7CHTO   C57 2747   5.245   1.139   1.569 -1.2202 -0.0563 -0.1486
    7CHTO  H114 2748   5.306   1.098   1.650 -1.7911  1.8442  1.2670
    7CHTO   N10 2749   5.232   1.272   1.631  0.0664  0.1890 -0.3437
    7CHTO  H106 2750   5.136   1.301   1.590  0.6232 -0.3248 -2.0082
    7CHTO  H107 2751   5.228   1.258   1.738 -0.2247 -0.7950 -0.4799
    7CHTO   C58 2752   5.336   1.146   1.442 -1.1591  0.0389 -0.5718
    7CHTO  H115 2753   5.292   1.220   1.372 -0.0945  0.4521 -0.8248
    7CHTO   O37 2754   5.347   1.017   1.375 -0.1155  0.2111  0.3529
    7CHTO   C59 2755   5.217   0.974   1.329 -0.8931  0.1728 -0.0881
    7CHTO  H116 2756   5.174   1.058   1.274 -0.9345 -0.4432 -1.0093
    7CHTO   C70 2757   5.226   0.863   1.224  0.5370  0.5798 -1.0774
    7CHTO   O46 2758   5.327   0.769   1.264 -0.5436 -0.2504 -0.1574
    7CHTO  H103 2759   5.322   0.698   1.203  2.9860 -3.0337  2.5922
    7CHTO   O39 2760   5.499   1.199   1.492  1.0146 -0.2148 -0.4247
    7CHTO   C60 2761   5.610   1.171   1.415  0.1196 -0.5026 -0.0342
    7CHTO  H117 2762   5.618   1.063   1.408 -4.0085 -0.8817 -0.3230
    7CHTO   C62 2763   5.600   1.207   1.262  0.3468 -0.1479 -0.1107
    7CHTO  H119 2764   5.508   1.150   1.236 -0.1673  0.1279  1.0525
    7CHTO   O43 2765   5.574   1.345   1.242 -0.3896  0.2800 -0.6143
    7CHTO  H101 2766   5.559   1.343   1.150 -4.3162 -1.0192 -0.0227
    7CHTO   C66 2767   5.722   1.139   1.187  0.1452  0.3693 -0.8185
    7CHTO  H123 2768   5.717   1.033   1.209  0.7210  0.7167  1.0320
    7CHTO   N12 2769   5.708   1.141   1.034 -0.3095  0.0828 -0.0954
    7CHTO  H110 2770   5.677   1.237   0.995 -0.8136 -0.7995 -1.8776
    7CHTO  H111 2771   5.800   1.108   0.988  0.6055  2.5615 -0.1593
    7CHTO   C69 2772   5.860   1.192   1.235  0.5620  0.4386  0.5566
    7CHTO  H126 2773   5.869   1.299   1.210  0.1834  0.3390 -0.0168
    7CHTO   O41 2774   5.871   1.164   1.395 -0.2937 -0.2403 -0.2013
    7CHTO   C64 2775   5.743   1.224   1.463 -0.1483 -0.0244  0.0942
    7CHTO  H121 2776   5.748   1.332   1.438  1.1544 -0.8706 -3.5730
    7CHTO   C71 2777   5.766   1.202   1.616  0.3432 -0.5021  0.7785
    7CHTO   O47 2778   5.848   1.306   1.665  0.5017 -0.3808  0.4075
    7CHTO  H104 2779   5.786   1.366   1.702 -0.6531 -1.6421  0.5792
    7CHTO   O34 2780   5.984   1.115   1.178  0.1810 -0.0304 -0.0316
    7CHTO   C49 2781   6.112   1.064   1.114  0.4102  0.1158  0.3429
    7CHTO   H91 2782   6.182   1.148   1.109 -1.5617  1.7991 -0.0931
    7CHTO   C47 2783   6.080   1.017   0.968 -0.1541 -0.6980 -0.0724
    7CHTO   H89 2784   6.174   0.988   0.917 -1.3012 -2.1565 -1.4038
    7CHTO   O33 2785   6.027   1.127   0.899  0.9002  0.2716  0.4072
    7CHTO   H70 2786   5.933   1.135   0.903  0.9452  0.5606  0.8584
    7CHTO   C45 2787   5.984   0.885   0.968 -0.2135 -0.3660  0.0903
    7CHTO   H87 2788   5.900   0.898   1.037 -0.7683  0.2272 -0.6882
    7CHTO    N8 2789   5.939   0.845   0.834  0.0288 -0.5556 -0.4012
    7CHTO   H75 2790   5.832   0.832   0.842 -0.1350 -0.6525 -2.3860
    7CHTO   H76 2791   5.960   0.917   0.756 -0.7990  0.0616 -0.0652
    7CHTO   C43 2792   6.063   0.769   1.055  0.1746  0.4267 -0.4949
    7CHTO   H85 2793   5.988   0.691   1.063 -0.5722  1.0324 -1.4707
    7CHTO   O29 2794   6.108   0.816   1.187 -0.7425  0.3774  0.0310
    7CHTO   C50 2795   6.168   0.946   1.199 -0.0953 -0.1577 -0.2960
    7CHTO   H92 2796   6.147   0.976   1.303  1.8820  0.1286  0.0435
    7CHTO   C54 2797   6.328   0.945   1.194  0.1528  0.0640  0.0280
    7CHTO   O36 2798   6.404   1.068   1.194  0.4292 -0.7416  0.0082
    7CHTO   H72 2799   6.382   1.128   1.126  1.8868  2.3205  2.1102
    7CHTO   O27 2800   6.186   0.724   0.988  1.0854  0.0183  0.4068
    7CHTO   C37 2801   6.261   0.598   0.997 -0.8313  0.3848 -0.4454
    7CHTO   H79 2802   6.291   0.593   1.103 -1.8238 -1.0613 -0.2109
    7CHTO   C38 2803   6.183   0.465   0.966  0.1225 -1.0640 -0.0289
    7CHTO   H80 2804   6.121   0.482   0.876  0.8782  2.0443 -0.0073
    7CHTO   O31 2805   6.086   0.450   1.076  0.4826  0.2700 -0.2553
    7CHTO   H68 2806   6.028   0.379   1.054  0.7661  0.3550 -1.2894
    7CHTO   C39 2807   6.280   0.343   0.948 -0.0707 -0.1795  0.3625
    7CHTO   H81 2808   6.314   0.325   1.050 -1.5709  1.6448  1.2256
    7CHTO    N7 2809   6.215   0.219   0.888 -0.8075 -0.4666 -0.0071
    7CHTO   H73 2810   6.171   0.158   0.966 -1.3080  1.1023  0.9555
    7CHTO   H74 2811   6.139   0.253   0.819 -1.7239  1.1868  1.7792
    7CHTO   C40 2812   6.411   0.381   0.874 -0.1214  1.1183 -0.3835
    7CHTO   H82 2813   6.405   0.396   0.766  0.0608  1.9014 -0.2907
    7CHTO   O26 2814   6.465   0.499   0.935  0.4599 -0.0607 -0.3127
    7CHTO   C41 2815   6.383   0.618   0.910  0.3854  0.1233 -0.5696
    7CHTO   H83 2816   6.358   0.620   0.803  3.0676 -0.4746 -1.2584
    7CHTO   C52 2817   6.472   0.738   0.934  0.6619 -0.3443 -0.1696
    7CHTO   O35 2818   6.570   0.739   0.843 -0.0268 -0.4120  0.2258
    7CHTO   H71 2819   6.635   0.673   0.857  1.9726  0.8038 -2.6682
    7CHTO   O28 2820   6.519   0.286   0.892  0.0855 -0.2186 -0.5092
    7CHTO   C42 2821   6.653   0.288   0.830 -0.1133 -0.1041  0.1600
    7CHTO   H84 2822   6.696   0.203   0.883 -1.2039 -0.5035  0.4200
    7CHTO   C44 2823   6.745   0.414   0.861 -0.0337 -0.1662 -0.0839
    7CHTO   H86 2824   6.694   0.502   0.821 -1.2401 -1.8812 -2.4193
    7CHTO   O32 2825   6.743   0.427   1.004 -0.0989 -0.3844  0.8278
    7CHTO   H69 2826   6.668   0.477   1.031 -0.6491  0.9923 -2.8697
    7CHTO   C48 2827   6.892   0.405   0.811  0.3640 -0.5905  0.0457
    7CHTO   H90 2828   6.940   0.316   0.852 -0.5406 -0.5020  1.3226
    7CHTO    N9 2829   6.986   0.520   0.844  0.3765  0.2739 -0.2718
    7CHTO   H77 2830   7.082   0.495   0.801  0.4870  1.7743 -0.9135
    7CHTO   H78 2831   6.995   0.528   0.951  0.9745  1.2879 -0.3940
    7CHTO   C51 2832   6.884   0.378   0.651  0.3123  0.6539  0.1076
    7CHTO   H93 2833   6.818   0.456   0.615  0.5654  1.7932  2.0241
    7CHTO   O30 2834   6.824   0.247   0.636  0.1387 -0.1426 -0.2175
    7CHTO   C46 2835   6.664   0.265   0.673 -0.0895 -0.1918 -0.2823
    7CHTO   H88 2836   6.624   0.357   0.631  2.6052  1.2588  0.2238
    7CHTO   C53 2837   6.591   0.143   0.634  0.2507  0.1007 -0.1128
    7CHTO   O72 2838   6.448   0.151   0.656 -0.1409 -0.3271  0.6859
    7CHTO  H199 2839   6.412   0.179   0.574 -1.0175  0.5439  1.3630
    7CHTO   O22 2840   7.005   0.363   0.578  0.5535  0.4838 -0.0091
    7CHTO   C31 2841   7.011   0.410   0.433 -0.0563  0.1586  0.5268
    7CHTO   H59 2842   7.111   0.377   0.396 -0.2128 -1.5861  1.6029
    7CHTO   C29 2843   6.905   0.346   0.347 -0.1549  0.2506 -0.8674
    7CHTO   H57 2844   6.807   0.366   0.391  0.4068  0.1639  0.4278
    7CHTO   O21 2845   6.937   0.203   0.355 -0.1760 -0.5016  0.2069
    7CHTO   H37 2846   6.878   0.153   0.407 -0.5338  0.2538  0.5439
    7CHTO   C27 2847   6.920   0.401   0.197 -0.6572  0.0987  0.2856
    7CHTO   H55 2848   7.022   0.373   0.167 -0.2873  1.8856 -0.1759
    7CHTO    N5 2849   6.821   0.345   0.101  0.5847  0.4804  0.0699
    7CHTO   H43 2850   6.854   0.272   0.028 -3.0995 -0.3750 -0.8729
    7CHTO   H44 2851   6.762   0.419   0.049  2.6470  1.5326 -0.8442
    7CHTO   C25 2852   6.918   0.552   0.191  0.1265 -0.0517 -0.0283
    7CHTO   H53 2853   6.828   0.598   0.233 -0.4480 -0.8805 -0.3331
    7CHTO   O17 2854   7.023   0.602   0.276  0.4869  0.0388  0.9205
    7CHTO   C32 2855   7.009   0.560   0.417 -0.0114  0.3450 -0.0011
    7CHTO   H60 2856   6.914   0.598   0.453 -1.2894 -0.9481 -1.9103
    7CHTO   C36 2857   7.134   0.624   0.475 -0.3259  0.1876 -0.2276
    7CHTO   O25 2858   7.130   0.772   0.475  0.1575  0.3793 -0.0824
    7CHTO   H40 2859   7.047   0.811   0.495 -0.5121 -0.5937 -0.9290
    7CHTO   O15 2860   6.950   0.622   0.037  0.4664  0.1427 -0.1434
    7CHTO   C19 2861   6.917   0.764   0.020 -0.3887  0.2226  0.4903
    7CHTO   H47 2862   6.930   0.782  -0.088  1.3402 -1.9551  0.3070
    7CHTO   C20 2863   6.765   0.793   0.042 -0.1392  0.0299 -0.1542
    7CHTO   H48 2864   6.736   0.777   0.146  0.2369 -2.1043 -0.3544
    7CHTO   O19 2865   6.698   0.700  -0.038  0.1987  0.1888  0.5649
    7CHTO   H35 2866   6.620   0.672   0.005  0.2988 -0.9672  0.0153
    7CHTO   C21 2867   6.727   0.938   0.006 -0.0928  0.2485 -0.0089
    7CHTO   H49 2868   6.753   0.950  -0.099 -2.6253 -2.2347 -0.9961
    7CHTO    N4 2869   6.583   0.977   0.030  0.0577  0.0840 -0.0401
    7CHTO   H41 2870   6.517   0.893   0.042  0.8696 -0.6593 -0.7673
    7CHTO   H42 2871   6.561   1.047   0.109  0.9536  0.2099  0.0990
    7CHTO   C22 2872   6.821   1.031   0.082 -0.4195  0.1793  0.6589
    7CHTO   H50 2873   6.790   1.036   0.186  0.0236  1.6206  0.7272
    7CHTO   O14 2874   6.962   0.999   0.063  0.5250  0.1208 -0.1392
    7CHTO   C23 2875   7.008   0.870   0.095 -0.3756  0.7265  0.1844
    7CHTO   H51 2876   7.006   0.859   0.204  1.5614  1.8173  0.3514
    7CHTO   C34 2877   7.155   0.866   0.045  0.3372  0.0627 -0.4452
    7CHTO   O23 2878   7.221   0.764   0.120 -0.1567 -0.1805  0.0874
    7CHTO   H38 2879   7.295   0.807   0.159 -0.3366 -1.4816  1.9222
    7CHTO   O16 2880   6.826   1.157   0.010  0.3609  0.5715 -0.3058
    7CHTO   C24 2881   6.859   1.283   0.115 -0.0885  0.2972 -0.7177
    7CHTO   H52 2882   6.915   1.250   0.202 -1.2925  2.3147  0.8579
    7CHTO   C26 2883   6.728   1.360   0.162  0.1133 -0.7316 -0.6917
    7CHTO   H54 2884   6.666   1.386   0.074  0.4480 -1.9039 -1.2719
    7CHTO   O20 2885   6.659   1.267   0.248 -0.1525  0.5974  0.1044
    7CHTO   H36 2886   6.593   1.218   0.202  0.1975  0.9008 -0.7317
    7CHTO   C30 2887   6.750   1.494   0.243 -0.5733  0.0530 -0.1573
    7CHTO   H58 2888   6.801   1.473   0.338 -2.9795  0.0723  1.1794
    7CHTO    N6 2889   6.626   1.569   0.277  0.1686  0.2321  0.4080
    7CHTO   H45 2890   6.584   1.598   0.182  3.2886  0.2642 -1.0209
    7CHTO   H46 2891   6.554   1.511   0.334 -1.4749  1.6183 -0.2087
    7CHTO   C33 2892   6.855   1.581   0.161 -0.0553  0.3644  0.5765
    7CHTO   H61 2893   6.803   1.617   0.072 -0.3802  2.6067  1.6308
    7CHTO   O18 2894   6.965   1.496   0.128 -0.3325 -0.4081  0.1907
    7CHTO   C28 2895   6.951   1.382   0.037 -0.1144  0.0604  0.1670
    7CHTO   H56 2896   6.903   1.416  -0.055  0.9686  1.0418 -0.0497
    7CHTO   C35 2897   7.086   1.307   0.009 -0.8951 -0.5216 -0.6745
    7CHTO   O24 2898   7.180   1.390  -0.062 -0.0669 -0.1850  0.5043
    7CHTO   H39 2899   7.169   1.384  -0.155  2.1563  1.3944  0.1002
    7CHTO    O9 2900   6.896   1.701   0.227 -0.6927 -0.2329 -0.3693
    7CHTO   C13 2901   6.964   1.804   0.116  0.1873  0.2702 -0.6677
    7CHTO   H26 2902   6.927   1.774   0.016  0.7963  0.4114 -0.9351
    7CHTO   C11 2903   7.114   1.789   0.124  0.3621 -0.3427  0.4990
    7CHTO   H24 2904   7.148   1.694   0.080  1.6054  1.6824 -3.0961
    7CHTO    O8 2905   7.157   1.793   0.259 -0.3054  0.4227  0.1610
    7CHTO    H3 2906   7.247   1.797   0.283 -0.9119 -1.7766  3.0728
    7CHTO    C9 2907   7.176   1.907   0.043 -0.2686  0.3377  0.4744
    7CHTO   H22 2908   7.117   1.917  -0.049 -0.5792  2.5554  0.8940
    7CHTO    N2 2909   7.311   1.875  -0.003 -0.2819 -0.0422  0.1448
    7CHTO   H10 2910   7.309   1.812  -0.091 -0.3171  0.6281 -0.3414
    7CHTO   H11 2911   7.366   1.825   0.075 -0.6767 -2.3245 -0.9902
    7CHTO    C7 2912   7.149   2.043   0.118  0.4658 -0.0548  0.1908
    7CHTO   H20 2913   7.167   2.126   0.047  0.7525 -0.6554 -0.4415
    7CHTO    O4 2914   7.011   2.054   0.156 -0.0325 -0.0083 -0.4103
    7CHTO   C14 2915   6.911   1.955   0.134  0.3910  0.0871  1.1194
    7CHTO   H27 2916   6.866   1.981   0.035  3.1901  1.2747  0.1009
    7CHTO   C18 2917   6.793   1.954   0.234 -0.7865 -0.7118  0.1440
    7CHTO   O13 2918   6.700   2.054   0.212 -0.5170  0.2040  0.2815
    7CHTO    H7 2919   6.614   2.041   0.247 -0.6009 -1.1191 -0.3772
    7CHTO    O2 2920   7.247   2.069   0.245 -0.3081  0.0368  0.5997
    7CHTO    C1 2921   7.298   2.198   0.276 -0.3814  1.0090  0.5160
    7CHTO   H14 2922   7.240   2.277   0.224  0.3385  0.1843 -1.5745
    7CHTO    C2 2923   7.444   2.219   0.235  0.6975  0.0411 -0.2559
    7CHTO   H15 2924   7.510   2.157   0.298  2.2046 -0.2564 -2.0683
    7CHTO    O6 2925   7.479   2.182   0.102 -0.4691 -0.3887 -0.4137
    7CHTO    H1 2926   7.511   2.094   0.103 -3.1499 -1.4084 -0.4405
    7CHTO    C3 2927   7.478   2.369   0.285 -0.3695  0.3552  0.1118
    7CHTO   H16 2928   7.415   2.442   0.232 -0.0624  1.4272  1.2031
    7CHTO    N1 2929   7.622   2.401   0.247  0.0598 -0.2109 -0.0145
    7CHTO    H8 2930   7.683   2.316   0.273 -0.3136 -0.8300 -1.1701
    7CHTO    H9 2931   7.640   2.452   0.154 -0.1578 -0.3355 -0.1245
    7CHTO    C4 2932   7.450   2.392   0.433 -0.0229  0.6936 -0.3756
    7CHTO   H17 2933   7.513   2.329   0.495  0.5788  0.5517 -1.1281
    7CHTO    O1 2934   7.314   2.354   0.459  0.2877  0.0930 -0.7173
    7CHTO    C5 2935   7.273   2.223   0.424 -0.6258 -0.6692  0.2249
    7CHTO   H18 2936   7.339   2.152   0.474 -0.8546  0.1852  1.7632
    7CHTO   C16 2937   7.129   2.196   0.481  0.1605 -0.0444  0.3878
    7CHTO   O11 2938   7.113   2.234   0.623  0.3796  0.5577 -0.0903
    7CHTO    H5 2939   7.181   2.183   0.664  1.8372  0.0347 -2.9953
    7CHTO    O3 2940   7.451   2.529   0.472 -0.3736  0.4950 -0.2882
    7CHTO    C6 2941   7.505   2.575   0.601  0.3829  0.9282 -0.3938
    7CHTO   H19 2942   7.560   2.495   0.652 -0.0669  0.5020 -0.5820
    7CHTO    C8 2943   7.586   2.707   0.565 -0.0308  0.6125 -0.1016
    7CHTO   H21 2944   7.520   2.776   0.512 -0.9707 -2.2169 -2.7964
    7CHTO    O7 2945   7.697   2.675   0.476  0.0568  0.2354  0.3498
    7CHTO    H2 2946   7.720   2.585   0.477 -0.5406  0.0515 -1.1668
    7CHTO   C12 2947   7.637   2.781   0.688 -0.0911 -0.6935 -0.2685
    7CHTO   H25 2948   7.716   2.717   0.734  1.4267  2.3201  1.4244
    7CHTO    N3 2949   7.702   2.912   0.657 -0.1404 -0.8572 -0.2235
    7CHTO   H12 2950   7.775   2.886   0.582  0.8538 -3.8616  1.7145
    7CHTO   H13 2951   7.748   2.943   0.749 -0.8727 -1.1383  0.2366
    7CHTO   C15 2952   7.530   2.799   0.801  0.0212  0.2785  0.9792
    7CHTO   H28 2953   7.472   2.888   0.777  1.7786  1.1821 -0.0171
    7CHTO   O10 2954   7.593   2.819   0.939 -0.1347  0.3499  0.0360
    7CHTO    H4 2955   7.549   2.884   0.991  0.5096 -1.2898  2.7305
    7CHTO    O5 2956   7.445   2.687   0.824 -0.6776  0.3558  0.1747
    7CHTO   C10 2957   7.394   2.620   0.699 -0.5002 -0.2463  0.4304
    7CHTO   H23 2958   7.326   2.686   0.647  0.5355  0.3120 -0.2297
    7CHTO   C17 2959   7.303   2.501   0.737 -0.4748 -0.1990 -0.2517
    7CHTO   O12 2960   7.187   2.548   0.804  0.0119  0.6719 -0.3236
    7CHTO    H6 2961   7.214   2.569   0.891 -1.8170 -1.1627  0.7410
    8CHTO  H203 2962   6.851   8.125   2.350 -0.7534 -1.0718  0.4444
    8CHTO   O82 2963   6.785   8.191   2.352  0.1652 -0.1211  0.1523
    8CHTO  C123 2964   6.780   8.270   2.229  0.0681  0.2307 -0.6176
    8CHTO  H227 2965   6.881   8.270   2.186  1.2072  1.9708  1.8845
    8CHTO   O77 2966   6.687   8.188   2.149 -0.8348 -0.1525 -0.1761
    8CHTO  C118 2967   6.658   8.247   2.024  0.5066  0.4963  0.1487
    8CHTO  H222 2968   6.754   8.261   1.972 -0.5040  1.8451 -1.3999
    8CHTO  C125 2969   6.564   8.147   1.944 -0.4875  0.3422 -0.4651
    8CHTO   O84 2970   6.630   8.021   1.916 -0.2701  0.2007  1.2694
    8CHTO  H205 2971   6.625   7.968   1.993 -0.8516 -0.1130  1.0222
    8CHTO  C114 2972   6.589   8.380   2.045  0.2780  0.2833 -0.1847
    8CHTO  H218 2973   6.507   8.363   2.115 -0.7639  0.1958 -1.4243
    8CHTO  C116 2974   6.695   8.473   2.106 -0.5675  0.1924  0.0020
    8CHTO  H220 2975   6.782   8.479   2.037 -0.6315  1.6141  0.0442
    8CHTO   O79 2976   6.642   8.604   2.115 -0.8717  0.2107  0.0192
    8CHTO  H201 2977   6.702   8.647   2.173 -1.3416 -1.3489  1.7244
    8CHTO  C120 2978   6.729   8.416   2.252  0.0419 -0.9899 -0.6144
    8CHTO  H224 2979   6.631   8.415   2.304  0.2062  2.1098 -0.1162
    8CHTO   N21 2980   6.822   8.509   2.325  0.0995  0.0253 -0.4369
    8CHTO  H211 2981   6.841   8.470   2.424  0.8359 -0.5625 -0.8056
    8CHTO  H212 2982   6.909   8.529   2.265 -0.5214  0.2731 -1.2642
    8CHTO   O75 2983   6.542   8.424   1.918  0.6259 -0.1087  0.6202
    8CHTO  C112 2984   6.420   8.517   1.903  0.7038 -0.1165  0.2299
    8CHTO  H216 2985   6.452   8.614   1.945  1.0905  0.1565 -0.6703
    8CHTO   O73 2986   6.316   8.454   1.984 -0.5498 -0.2579 -0.3628
    8CHTO  C113 2987   6.207   8.545   2.008 -0.1222 -0.5200  0.2613
    8CHTO  H217 2988   6.252   8.632   2.060 -0.5892 -0.2975  0.2975
    8CHTO  C124 2989   6.119   8.470   2.110 -0.2724  0.5122  0.0024
    8CHTO   O83 2990   6.027   8.559   2.173 -0.3708  0.3072  0.5919
    8CHTO  H204 2991   6.015   8.535   2.263 -0.6848  0.1543  0.5068
    8CHTO  C109 2992   6.136   8.593   1.878 -0.2397 -0.3524 -0.9769
    8CHTO  H213 2993   6.073   8.511   1.842 -4.0041  0.6613  2.8978
    8CHTO  C110 2994   6.244   8.637   1.770 -0.4042 -0.3956  0.9449
    8CHTO  H214 2995   6.273   8.738   1.801  1.9197 -0.3264 -1.2426
    8CHTO   O78 2996   6.177   8.661   1.648  0.3211  0.1568  0.2976
    8CHTO  H200 2997   6.145   8.582   1.609 -0.8464 -0.3705  2.2425
    8CHTO  C111 2998   6.356   8.528   1.755  0.5011 -0.5773  0.4354
    8CHTO  H215 2999   6.308   8.433   1.726 -0.6199  0.0955  0.0407
    8CHTO   N19 3000   6.457   8.564   1.651  0.1392  0.1005 -0.0990
    8CHTO  H207 3001   6.547   8.523   1.694  0.1411  0.8465  0.6087
    8CHTO  H208 3002   6.434   8.523   1.554  0.4991 -2.3487  0.8239
    8CHTO   O74 3003   6.051   8.707   1.902 -0.1150 -0.0346  0.1207
    8CHTO  C115 3004   5.902   8.685   1.904  0.2666  0.8532  0.2671
    8CHTO  H219 3005   5.875   8.580   1.907  0.9575  0.7199  2.8189
    8CHTO   O76 3006   5.835   8.754   2.048  0.3881 -0.1218 -0.3339
    8CHTO  C122 3007   5.847   8.897   2.053 -0.4510 -0.3815 -0.8994
    8CHTO  H226 3008   5.954   8.914   2.069 -0.3089 -0.4935 -1.7439
    8CHTO  C126 3009   5.773   8.956   2.179  0.8508  0.1771 -0.2704
    8CHTO   O85 3010   5.790   9.095   2.203  0.1812 -0.3974 -0.3787
    8CHTO  H206 3011   5.878   9.116   2.228  0.0922 -0.3008 -0.1419
    8CHTO  C121 3012   5.777   8.955   1.922 -0.1656 -0.2618  0.6297
    8CHTO  H225 3013   5.674   8.916   1.909 -1.2543  2.2069  1.3943
    8CHTO   O81 3014   5.776   9.097   1.924 -0.2951 -0.3908  0.0657
    8CHTO  H202 3015   5.746   9.124   2.008 -0.1611  1.6325 -0.5091
    8CHTO  C119 3016   5.862   8.906   1.801  0.2928 -0.1037  0.1138
    8CHTO  H223 3017   5.816   8.951   1.713  1.7655  0.2493 -0.4994
    8CHTO  C117 3018   5.843   8.753   1.774  0.3676 -0.8580 -0.3537
    8CHTO  H221 3019   5.896   8.710   1.689 -0.3788 -0.2905 -1.1159
    8CHTO   N20 3020   5.698   8.715   1.755 -0.3967  0.5952 -0.6087
    8CHTO  H209 3021   5.655   8.717   1.854  0.0527  0.2602 -0.4071
    8CHTO  H210 3022   5.679   8.615   1.721 -1.1957 -0.7634  3.5606
    8CHTO   O80 3023   6.032   8.963   1.783  0.0261  0.3134 -0.3328
    8CHTO  C103 3024   6.062   9.124   1.765  0.2189 -0.2372  0.0476
    8CHTO  H190 3025   5.965   9.173   1.761  0.0813 -0.2448  2.3391
    8CHTO  C101 3026   6.140   9.194   1.874 -0.2268  0.6985  0.1836
    8CHTO  H188 3027   6.240   9.149   1.878 -1.4659 -2.0737  1.1774
    8CHTO   O68 3028   6.072   9.173   1.996 -0.3723  0.0172  0.3733
    8CHTO  H168 3029   6.134   9.164   2.065  0.7524 -1.5475 -0.8122
    8CHTO   C99 3030   6.154   9.346   1.844  0.2215 -0.1824  0.0831
    8CHTO  H186 3031   6.054   9.392   1.829  0.5085  0.1452 -0.8658
    8CHTO   N17 3032   6.227   9.428   1.947  0.1094  0.0453 -0.5039
    8CHTO  H174 3033   6.186   9.413   2.046  0.7687  0.8543 -0.1033
    8CHTO  H175 3034   6.249   9.530   1.920  2.5037 -0.6472 -1.3370
    8CHTO   C97 3035   6.230   9.351   1.707  0.6808  0.6938 -0.6763
    8CHTO  H184 3036   6.326   9.306   1.735 -0.0358  0.4146  1.4309
    8CHTO   O64 3037   6.164   9.278   1.603  0.7949  0.0049  0.2354
    8CHTO  C104 3038   6.137   9.143   1.634 -0.0220 -0.3069  0.4432
    8CHTO  H191 3039   6.226   9.079   1.639  0.8082  0.9905  2.5790
    8CHTO  C108 3040   6.058   9.083   1.523  0.1421  0.4410 -0.0917
    8CHTO   O71 3041   6.088   8.948   1.482 -0.4214 -0.3103 -0.3798
    8CHTO  H171 3042   6.073   8.941   1.389  0.9551 -0.9812 -0.5641
    8CHTO   O62 3043   6.247   9.494   1.671  0.1646  0.2145  0.2429
    8CHTO   C91 3044   6.349   9.526   1.574 -0.0983 -0.0381 -0.5809
    8CHTO  H178 3045   6.424   9.447   1.575 -1.4390 -1.3281 -0.8374
    8CHTO   C92 3046   6.406   9.671   1.603 -0.0858  0.2177 -0.1580
    8CHTO  H179 3047   6.418   9.684   1.712  0.7632 -1.3191 -0.0437
    8CHTO   O66 3048   6.531   9.686   1.537  0.4059  0.1879  0.0576
    8CHTO  H166 3049   6.525   9.666   1.446 -0.0423  1.9875 -0.3402
    8CHTO   C93 3050   6.315   9.789   1.545 -0.2488 -0.1783 -0.7471
    8CHTO  H180 3051   6.377   9.877   1.520 -0.2964  0.1253  0.1646
    8CHTO   N16 3052   6.230   9.853   1.649 -0.5583  0.0377  0.2927
    8CHTO  H172 3053   6.289   9.890   1.731  1.2124 -0.2880 -0.8060
    8CHTO  H173 3054   6.156   9.779   1.677  0.0982 -0.8642 -0.3344
    8CHTO   C94 3055   6.233   9.749   1.421  0.0360  0.2441  0.1013
    8CHTO  H181 3056   6.133   9.713   1.446 -0.3505  0.9275 -0.4427
    8CHTO   O61 3057   6.297   9.642   1.357  0.2863  0.8997  0.2977
    8CHTO   C95 3058   6.300   9.513   1.424  0.2629  0.4322  0.6918
    8CHTO  H182 3059   6.205   9.459   1.414  0.7669 -0.4169  0.4020
    8CHTO  C106 3060   6.395   9.429   1.339 -0.0193  0.1864 -0.2091
    8CHTO   O69 3061   6.388   9.290   1.370 -0.1375 -0.2299 -0.0173
    8CHTO  H169 3062   6.312   9.254   1.328 -1.9314  2.9815  0.3809
    8CHTO   O63 3063   6.215   9.868   1.330 -0.3599 -0.3555 -0.3102
    8CHTO   C96 3064   6.103   9.862   1.216  0.0789 -0.5492  0.6758
    8CHTO  H183 3065   6.058   9.764   1.231 -1.2847  0.2510  1.9968
    8CHTO   C98 3066   6.155   9.873   1.069 -0.2956  0.3852 -0.4670
    8CHTO  H185 3067   6.211   9.966   1.055  0.1127  0.1349 -0.5088
    8CHTO   O67 3068   6.245   9.767   1.057  0.1362 -0.0928 -0.0554
    8CHTO  H167 3069   6.312   9.769   1.123  0.4249  0.2876 -0.3650
    8CHTO  C102 3070   6.031   9.867   0.961 -0.0478  0.0549 -0.7498
    8CHTO  H189 3071   5.977   9.774   0.984 -0.2153  0.4163  0.3592
    8CHTO   N18 3072   6.056   9.865   0.817 -0.0714  0.6714  0.4363
    8CHTO  H176 3073   5.967   9.845   0.760  0.3881  1.0146 -0.4238
    8CHTO  H177 3074   6.125   9.786   0.791 -2.4094 -0.8005 -1.4009
    8CHTO  C105 3075   5.938   9.981   1.007 -0.6051  0.0093  0.3272
    8CHTO  H192 3076   5.984  10.079   1.016 -0.0706 -0.0086 -1.8686
    8CHTO   O65 3077   5.890   9.955   1.140 -0.1938 -0.0203 -0.6206
    8CHTO  C100 3078   5.994   9.972   1.242  0.3276  0.4015 -0.1184
    8CHTO  H187 3079   6.033  10.075   1.239 -0.9461  0.8851 -0.5934
    8CHTO  C107 3080   5.916   9.950   1.375  0.3341 -0.1372  0.3918
    8CHTO   O70 3081   5.850   9.823   1.384 -0.0971 -0.6586  0.0782
    8CHTO  H170 3082   5.908   9.750   1.394  0.1633 -0.5771 -0.8498
    8CHTO   O57 3083   5.805  10.001   0.917  0.4213  0.7808 -0.0617
    8CHTO   C85 3084   5.784  10.125   0.841 -0.1764  0.2444  0.2335
    8CHTO  H157 3085   5.871  10.135   0.773  0.1338  2.7561  0.9498
    8CHTO   C83 3086   5.788  10.249   0.939  0.2797 -0.4072  0.1893
    8CHTO  H155 3087   5.888  10.253   0.982 -0.3179 -3.2313  2.0170
    8CHTO   O56 3088   5.696  10.225   1.053  0.0306  0.1502  0.0263
    8CHTO  H135 3089   5.707  10.293   1.117  0.4200 -0.0053  0.1252
    8CHTO   C81 3090   5.761  10.378   0.859  0.4546  0.3873 -0.6968
    8CHTO  H153 3091   5.845  10.391   0.791  1.0608  0.9649  0.1468
    8CHTO   N14 3092   5.771  10.504   0.937  0.8333 -0.7149 -0.1054
    8CHTO  H141 3093   5.767  10.497   1.043 -0.6529  1.4624  0.0205
    8CHTO  H142 3094   5.855  10.559   0.901 -0.5702  1.2707 -0.4251
    8CHTO   C79 3095   5.623  10.367   0.776  0.5473  0.6351  0.9139
    8CHTO  H151 3096   5.628  10.446   0.701 -1.3446 -1.0555 -1.0428
    8CHTO   O52 3097   5.625  10.247   0.688  0.2870 -0.7017 -0.6013
    8CHTO   C86 3098   5.648  10.128   0.764  0.1506  0.4967  0.6313
    8CHTO  H158 3099   5.557  10.121   0.827 -2.1869  2.6008 -2.3485
    8CHTO   C90 3100   5.638  10.009   0.671  0.0813 -0.0378  0.2877
    8CHTO   O60 3101   5.504   9.983   0.623 -0.1391 -0.1861  0.0827
    8CHTO  H138 3102   5.465  10.057   0.581  1.4248  0.6634  0.0623
    8CHTO   O50 3103   5.499  10.377   0.850  0.0200 -0.2666 -0.5917
    8CHTO   C73 3104   5.361  10.398   0.895  0.2586 -0.8448  0.4637
    8CHTO  H145 3105   5.306  10.458   0.821 -0.2889  1.0430  2.3211
    8CHTO   C74 3106   5.358  10.488   1.022  0.6361  1.0902  0.2770
    8CHTO  H146 3107   5.402  10.588   1.008 -3.1836  2.7166 -0.5811
    8CHTO   O54 3108   5.216  10.526   1.049 -0.5521  0.2945  0.2485
    8CHTO  H133 3109   5.211  10.571   1.131  0.4604 -1.2814  1.2194
    8CHTO   C75 3110   5.424  10.413   1.143  0.7641 -0.3389 -0.2192
    8CHTO  H147 3111   5.532  10.410   1.127  0.8390  2.6176 -0.5806
    8CHTO   N13 3112   5.421  10.474   1.278  0.2932  0.1331 -0.4074
    8CHTO  H139 3113   5.518  10.464   1.323 -0.0882 -2.2358 -0.0483
    8CHTO  H140 3114   5.406  10.579   1.256  0.7774  1.1186  3.5989
    8CHTO   C76 3115   5.374  10.261   1.149  0.3169 -0.8609  0.2417
    8CHTO  H148 3116   5.277  10.267   1.199  0.4318 -2.0626  0.6297
    8CHTO   O49 3117   5.364  10.190   1.017  0.2304  0.4997  0.2578
    8CHTO   C77 3118   5.290  10.264   0.916  0.1780  0.5091 -0.5342
    8CHTO  H149 3119   5.183  10.277   0.928  0.1538  0.2778 -0.4973
    8CHTO   C88 3120   5.289  10.171   0.792 -0.3450 -0.1597 -0.2363
    8CHTO   O58 3121   5.250  10.238   0.671 -0.6935 -0.2842  0.3030
    8CHTO  H136 3122   5.197  10.183   0.616  0.5095 -0.3196 -0.8419
    8CHTO   O51 3123   5.466  10.182   1.239 -0.0762 -0.0504 -0.7335
    8CHTO   C78 3124   5.401  10.050   1.305 -0.3287  0.0069  0.2232
    8CHTO  H150 3125   5.319  10.008   1.242  1.5336  0.1284 -2.3618
    8CHTO   C80 3126   5.341  10.094   1.439 -0.3269  0.1464  0.2311
    8CHTO  H152 3127   5.411  10.173   1.474 -1.1712  0.3153  1.5622
    8CHTO   O55 3128   5.217  10.168   1.409 -0.9061 -0.2315 -0.3609
    8CHTO  H134 3129   5.142  10.116   1.428 -0.5801 -0.7711 -0.5380
    8CHTO   C84 3130   5.325   9.983   1.556 -0.1677  0.5082  0.0826
    8CHTO  H156 3131   5.226   9.939   1.540  1.0154 -1.8937 -0.8481
    8CHTO   N15 3132   5.319  10.044   1.696 -1.3185  0.0982 -0.2293
    8CHTO  H143 3133   5.398  10.116   1.704 -0.3443 -0.8017 -1.5515
    8CHTO  H144 3134   5.328   9.970   1.772 -0.5536 -0.8281 -1.1905
    8CHTO   C87 3135   5.439   9.885   1.545  0.3152 -0.4288 -0.3698
    8CHTO  H159 3136   5.530   9.927   1.588 -0.0446 -0.1925  0.1690
    8CHTO   O53 3137   5.456   9.831   1.405 -0.2002  0.2611  0.0758
    8CHTO   C82 3138   5.506   9.935   1.317 -0.2505 -0.1990 -0.4211
    8CHTO  H154 3139   5.594   9.987   1.356 -1.3972  3.0176 -1.8973
    8CHTO   C89 3140   5.538   9.881   1.175  0.1952  0.8107 -0.0317
    8CHTO   O59 3141   5.636   9.784   1.204 -0.6780 -0.2622  0.2087
    8CHTO  H137 3142   5.688   9.776   1.127 -3.7447 -1.1031 -1.8645
    8CHTO   O45 3143   5.402   9.753   1.627 -0.0582  0.0819 -0.2321
    8CHTO   C67 3144   5.500   9.694   1.717  0.0255  0.1687 -0.4007
    8CHTO  H124 3145   5.457   9.597   1.740 -3.8367  2.5977  3.3887
    8CHTO   C65 3146   5.643   9.671   1.658 -0.1083 -0.6414  0.2865
    8CHTO  H122 3147   5.662   9.748   1.584  1.7329 -0.9272  0.4363
    8CHTO   O44 3148   5.636   9.538   1.602 -0.1104 -0.0105 -0.5097
    8CHTO  H102 3149   5.555   9.506   1.568  1.0603 -3.0641 -0.5857
    8CHTO   C63 3150   5.765   9.682   1.766 -0.3910 -0.3809  0.5918
    8CHTO  H120 3151   5.785   9.789   1.774 -0.5548 -0.1781 -1.4109
    8CHTO   N11 3152   5.894   9.639   1.708  0.1355  1.0420 -0.0265
    8CHTO  H108 3153   5.879   9.636   1.602 -0.1228 -0.8846  0.0473
    8CHTO  H109 3154   5.911   9.539   1.743  0.2141  0.1990 -2.3662
    8CHTO   C61 3155   5.727   9.629   1.911 -0.1564  0.2604  0.5432
    8CHTO  H118 3156   5.809   9.673   1.970  0.7101  1.8918 -1.7779
    8CHTO   O40 3157   5.607   9.696   1.954 -0.3610 -0.2130 -0.1832
    8CHTO   C68 3158   5.517   9.765   1.860 -0.3638  0.5682  0.3546
    8CHTO  H125 3159   5.552   9.870   1.850 -1.8032  1.1665  1.3150
    8CHTO   C72 3160   5.381   9.764   1.923  0.0969  0.2737  0.4138
    8CHTO   O48 3161   5.381   9.776   2.064  0.1048 -0.1072  0.0752
    8CHTO  H105 3162   5.416   9.856   2.097  1.2730 -0.1964 -0.9247
    8CHTO   O38 3163   5.737   9.481   1.925 -0.1262  0.0555  0.2483
    8CHTO   C55 3164   5.652   9.403   2.012 -1.1226  0.4197  0.4894
    8CHTO  H112 3165   5.713   9.311   2.015  0.0023  1.0955 -1.0029
    8CHTO   C56 3166   5.511   9.380   1.941 -0.3367 -0.6978 -0.1158
    8CHTO  H113 3167   5.480   9.476   1.898  1.7396  0.6521  1.3063
    8CHTO   O42 3168   5.533   9.298   1.826  0.3518  0.2441 -0.3851
    8CHTO  H100 3169   5.456   9.248   1.806  1.0400 -2.0309  2.2341
    8CHTO   C57 3170   5.401   9.317   2.039 -0.0063 -0.1748 -1.1598
    8CHTO  H114 3171   5.425   9.210   2.040 -0.0767 -0.1916 -1.2503
    8CHTO   N10 3172   5.265   9.344   1.983  0.3266  0.0579 -0.0667
    8CHTO  H106 3173   5.250   9.269   1.906 -0.2654 -2.3205  2.2870
    8CHTO  H107 3174   5.242   9.441   1.941 -2.7103 -0.4528  0.2553
    8CHTO   C58 3175   5.411   9.374   2.185  0.6831 -0.6085  0.4947
    8CHTO  H115 3176   5.369   9.477   2.184 -1.9183 -1.5821  2.2442
    8CHTO   O37 3177   5.547   9.377   2.233 -0.4404  0.6258  0.0683
    8CHTO   C59 3178   5.637   9.458   2.158 -0.3549  0.5110 -0.0285
    8CHTO  H116 3179   5.619   9.564   2.171 -1.2816  0.3750 -0.2212
    8CHTO   C70 3180   5.774   9.427   2.222 -0.3624  0.3925 -0.4778
    8CHTO   O46 3181   5.778   9.480   2.356 -0.1549 -0.2586  0.9139
    8CHTO  H103 3182   5.858   9.462   2.400  1.7829  2.1827 -1.4408
    8CHTO   O39 3183   5.322   9.273   2.298  0.0269 -0.1645  0.3907
    8CHTO   C60 3184   5.192   9.333   2.325 -0.0132 -0.3218  0.4870
    8CHTO  H117 3185   5.186   9.428   2.271  1.4100 -1.0450 -0.9979
    8CHTO   C62 3186   5.070   9.244   2.288  0.0546  0.2601  0.9246
    8CHTO  H119 3187   5.066   9.225   2.179 -1.3688 -0.3948  1.0732
    8CHTO   O43 3188   5.094   9.114   2.352 -0.2463 -0.2236  0.0353
    8CHTO  H101 3189   5.132   9.053   2.291 -2.1428 -1.0275 -0.3606
    8CHTO   C66 3190   4.932   9.316   2.328 -0.2276  0.7049 -0.7396
    8CHTO  H123 3191   4.929   9.414   2.281  0.6900  0.2817 -1.6973
    8CHTO   N12 3192   4.803   9.242   2.291 -0.0788 -0.4298  0.5756
    8CHTO  H110 3193   4.710   9.287   2.320  1.2429  2.3077  0.7494
    8CHTO  H111 3194   4.815   9.144   2.334  3.1590 -0.2207  0.2747
    8CHTO   C69 3195   4.938   9.349   2.478  0.5066 -0.1735 -0.3544
    8CHTO  H126 3196   4.938   9.249   2.527 -0.9237 -0.7533 -1.4862
    8CHTO   O41 3197   5.055   9.439   2.517  0.5150 -0.2399  0.1846
    8CHTO   C64 3198   5.184   9.369   2.478  0.3454  0.6091 -0.9924
    8CHTO  H121 3199   5.200   9.277   2.537  1.3731  0.9355 -0.7493
    8CHTO   C71 3200   5.293   9.465   2.531 -0.3193  0.1268 -0.1912
    8CHTO   O47 3201   5.423   9.410   2.522 -0.0451 -0.8677 -0.8587
    8CHTO  H104 3202   5.489   9.476   2.529 -1.1179  0.0248  1.2447
    8CHTO   O34 3203   4.802   9.421   2.515  0.1877  0.0598  0.5148
    8CHTO   C49 3204   4.784   9.584   2.506 -0.0880 -0.4893  0.5542
    8CHTO   H91 3205   4.837   9.625   2.592  0.6751 -0.9302  0.2937
    8CHTO   C47 3206   4.627   9.602   2.521 -0.3273 -0.2613 -0.0368
    8CHTO   H89 3207   4.608   9.712   2.526 -2.6646 -0.6260 -0.3639
    8CHTO   O33 3208   4.579   9.549   2.650  0.1536  0.2876  0.2494
    8CHTO   H70 3209   4.485   9.554   2.649  0.1283 -0.3286 -0.9762
    8CHTO   C45 3210   4.566   9.541   2.386 -0.2823 -0.4812  0.0341
    8CHTO   H87 3211   4.607   9.442   2.362  2.0226  0.6794 -0.9897
    8CHTO    N8 3212   4.419   9.532   2.384 -0.3042  0.5393 -0.0137
    8CHTO   H75 3213   4.363   9.624   2.385 -1.4456 -0.1182 -1.7482
    8CHTO   H76 3214   4.385   9.465   2.306  1.0842  0.5740 -0.6672
    8CHTO   C43 3215   4.620   9.626   2.252 -0.8124  0.5228 -0.5107
    8CHTO   H85 3216   4.588   9.576   2.160  1.4833 -0.6225 -0.7204
    8CHTO   O29 3217   4.766   9.622   2.263  0.5156  0.4620  0.2120
    8CHTO   C50 3218   4.831   9.661   2.383  0.7369  0.4337  1.1651
    8CHTO   H92 3219   4.933   9.627   2.360  0.4329  0.4968 -0.2937
    8CHTO   C54 3220   4.823   9.814   2.401  0.1213 -0.6266 -0.6227
    8CHTO   O36 3221   4.891   9.854   2.522 -0.1589  0.4063 -0.5091
    8CHTO   H72 3222   4.941   9.932   2.506  1.2501 -0.5533 -0.8687
    8CHTO   O27 3223   4.588   9.763   2.243 -0.4298  0.1071  0.3006
    8CHTO   C37 3224   4.529   9.847   2.135  0.1329 -0.6148 -0.2398
    8CHTO   H79 3225   4.496   9.779   2.055  1.3589 -0.1821 -1.1271
    8CHTO   C38 3226   4.401   9.924   2.173  0.1521 -0.1217 -0.1998
    8CHTO   H80 3227   4.425   9.986   2.261  0.1858 -0.4439  0.0229
    8CHTO   O31 3228   4.299   9.834   2.207 -0.8664 -0.2971  0.4741
    8CHTO   H68 3229   4.233   9.878   2.256 -3.2442 -1.1899 -1.7960
    8CHTO   C39 3230   4.356  10.021   2.058 -0.2766  1.0168 -0.6070
    8CHTO   H81 3231   4.334   9.962   1.969  0.2639  2.4666 -1.7301
    8CHTO    N7 3232   4.225  10.091   2.081  0.0222  0.7284 -0.3729
    8CHTO   H73 3233   4.262  10.191   2.097 -0.7256  0.8619  0.5679
    8CHTO   H74 3234   4.172  10.095   1.987  2.2143  0.1652 -1.6895
    8CHTO   C40 3235   4.473  10.116   2.012 -0.2152  0.8178  0.1270
    8CHTO   H82 3236   4.499  10.182   2.095  1.8297  0.1488  0.0609
    8CHTO   O26 3237   4.589  10.038   1.982 -0.1284  0.2230  0.3324
    8CHTO   C41 3238   4.638   9.940   2.078 -0.0083 -0.1267  0.2986
    8CHTO   H83 3239   4.682   9.992   2.164 -1.2572  0.9145  0.3278
    8CHTO   C52 3240   4.744   9.863   1.999  0.5125  1.1910  0.1201
    8CHTO   O35 3241   4.689   9.795   1.878  0.0143  0.1741 -0.0716
    8CHTO   H71 3242   4.596   9.808   1.887  0.1698  1.0305  0.4151
    8CHTO   O28 3243   4.450  10.210   1.910 -0.1184 -0.3518 -0.0188
    8CHTO   C42 3244   4.447  10.183   1.767 -0.3895  0.6550  0.0818
    8CHTO   H84 3245   4.396  10.270   1.725 -0.5851  1.3546  1.7349
    8CHTO   C44 3246   4.368  10.058   1.715 -0.2207  0.1535  0.4650
    8CHTO   H86 3247   4.411   9.970   1.763  0.5021  0.2717  0.0431
    8CHTO   O32 3248   4.233  10.071   1.758 -0.4734  0.0773  0.5531
    8CHTO   H69 3249   4.187  10.147   1.729 -0.7963  0.0634  1.0382
    8CHTO   C48 3250   4.372  10.038   1.552  0.6068 -0.0574  0.4950
    8CHTO   H90 3251   4.307  10.111   1.503  1.5479  0.0716 -0.5822
    8CHTO    N9 3252   4.321   9.904   1.518 -0.3838 -0.6093  0.1699
    8CHTO   H77 3253   4.324   9.835   1.601  1.3943 -2.3563 -1.3222
    8CHTO   H78 3254   4.223   9.910   1.473  0.0946 -1.2073 -0.9546
    8CHTO   C51 3255   4.518  10.068   1.496  0.0400  0.1865  0.6811
    8CHTO   H93 3256   4.579   9.980   1.518  0.3163  0.5419  1.3669
    8CHTO   O30 3257   4.574  10.190   1.548  0.3140  0.0685 -0.0944
    8CHTO   C46 3258   4.587  10.179   1.702 -0.1214  0.1299 -0.7424
    8CHTO   H88 3259   4.641  10.090   1.732 -0.1157  0.2384 -0.4296
    8CHTO   C53 3260   4.673  10.298   1.748 -0.2143 -0.0805 -0.1909
    8CHTO   O72 3261   4.636  10.424   1.690  0.5525 -0.1973  0.0874
    8CHTO  H199 3262   4.693  10.491   1.722  1.0295 -0.1879 -0.7870
    8CHTO   O22 3263   4.502  10.087   1.357 -0.1210 -0.0540 -0.2383
    8CHTO   C31 3264   4.610  10.055   1.262  0.1601 -0.3989  0.2840
    8CHTO   H59 3265   4.601  10.134   1.184  0.7004  1.4993  2.1150
    8CHTO   C29 3266   4.755  10.050   1.310 -0.5032  0.3940 -0.0579
    8CHTO   H57 3267   4.764   9.971   1.386 -1.6944  0.6969  0.3990
    8CHTO   O21 3268   4.794  10.171   1.376 -1.0842  0.4260 -0.3483
    8CHTO   H37 3269   4.787  10.247   1.321  0.7789  0.8397 -0.0625
    8CHTO   C27 3270   4.855  10.008   1.192 -1.5702 -0.4212 -0.2713
    8CHTO   H55 3271   4.854  10.089   1.117 -0.8085 -0.2026 -0.0542
    8CHTO    N5 3272   4.991   9.980   1.236  0.6069  0.2836 -0.5588
    8CHTO   H43 3273   5.027  10.072   1.278 -1.1046  0.4698  0.5552
    8CHTO   H44 3274   4.977   9.901   1.308  0.6968  1.8009  1.1478
    8CHTO   C25 3275   4.799   9.871   1.131  0.0737 -0.0435 -0.2822
    8CHTO   H53 3276   4.820   9.793   1.205 -0.1758  0.0866 -0.0768
    8CHTO   O17 3277   4.658   9.884   1.088  0.4484  0.5523  0.4128
    8CHTO   C32 3278   4.568   9.925   1.190  0.5468  0.1257 -0.2456
    8CHTO   H60 3279   4.569   9.841   1.260 -0.3321 -0.6458 -1.1465
    8CHTO   C36 3280   4.423   9.936   1.143 -0.2254 -0.7644 -0.2082
    8CHTO   O25 3281   4.365   9.804   1.111 -0.0727  0.0662 -0.1453
    8CHTO   H40 3282   4.376   9.737   1.176  0.7582  0.6773  0.3466
    8CHTO   O15 3283   4.893   9.818   1.000 -0.0780 -0.6610 -0.0780
    8CHTO   C19 3284   4.919   9.819   0.851  0.0532 -0.2204  0.2170
    8CHTO   H47 3285   4.848   9.743   0.816  1.9305 -0.8245 -2.3899
    8CHTO   C20 3286   4.900   9.954   0.785 -0.0408  0.3634 -0.2793
    8CHTO   H48 3287   4.959  10.031   0.838 -0.4719  0.6063 -0.1526
    8CHTO   O19 3288   4.772   9.995   0.811 -0.5674 -0.6238  0.0880
    8CHTO   H35 3289   4.697   9.970   0.761  1.4112 -1.1491 -2.7522
    8CHTO   C21 3290   4.932   9.947   0.634 -0.7416  0.8963 -0.0490
    8CHTO   H49 3291   4.860   9.879   0.588  0.3909  0.4702 -1.2258
    8CHTO    N4 3292   4.933  10.084   0.570 -0.5830 -0.3972 -0.8221
    8CHTO   H41 3293   4.840  10.136   0.587 -0.3442 -0.3194  0.2768
    8CHTO   H42 3294   4.938  10.067   0.464  2.0240  1.2297 -1.0083
    8CHTO   C22 3295   5.077   9.887   0.613  0.3903 -0.1914 -0.3879
    8CHTO   H50 3296   5.153   9.955   0.651 -0.8801  0.0768  1.7554
    8CHTO   O14 3297   5.087   9.763   0.676 -0.6882 -0.7353 -0.3496
    8CHTO   C23 3298   5.059   9.758   0.816 -0.2923 -0.4679  0.4988
    8CHTO   H51 3299   5.142   9.819   0.857  0.2232  0.4451 -1.8125
    8CHTO   C34 3300   5.090   9.616   0.849 -0.1939 -0.3452 -0.5929
    8CHTO   O23 3301   5.068   9.578   0.981  0.1935  0.2945  0.3909
    8CHTO   H38 3302   5.040   9.488   0.980  0.0722  0.3098  1.3787
    8CHTO   O16 3303   5.086   9.839   0.481  0.1734 -0.8001  0.1321
    8CHTO   C24 3304   5.241   9.831   0.427  0.3655 -0.1175  0.3087
    8CHTO   H52 3305   5.312   9.813   0.507  2.9579  0.3232 -1.8148
    8CHTO   C26 3306   5.284   9.950   0.343  0.5810  0.1494  0.0172
    8CHTO   H54 3307   5.225   9.954   0.248 -1.9310 -0.7522  1.4741
    8CHTO   O20 3308   5.252  10.067   0.425  0.3078  0.0721  0.1312
    8CHTO   H36 3309   5.315  10.084   0.492  0.9910  1.8357 -0.9365
    8CHTO   C30 3310   5.435   9.927   0.304 -0.4674  0.5407 -0.3602
    8CHTO   H58 3311   5.498   9.921   0.394  1.0794  0.8113 -1.4099
    8CHTO    N6 3312   5.490  10.041   0.228 -0.0625  0.1236  0.0741
    8CHTO   H45 3313   5.468  10.125   0.292 -0.6485  0.9049 -1.1396
    8CHTO   H46 3314   5.597  10.032   0.212  0.5068  1.8782  2.6504
    8CHTO   C33 3315   5.460   9.794   0.229 -0.3315 -0.8435 -0.2644
    8CHTO   H61 3316   5.425   9.800   0.125 -1.4139 -2.0745  0.0121
    8CHTO   O18 3317   5.394   9.690   0.294  0.2930 -0.0535 -0.2652
    8CHTO   C28 3318   5.255   9.713   0.326  1.4063  0.6924  0.4720
    8CHTO   H56 3319   5.204   9.738   0.234 -2.9186 -1.1188  2.1992
    8CHTO   C35 3320   5.207   9.574   0.388 -0.1862  0.1108 -0.5823
    8CHTO   O24 3321   5.208   9.462   0.297 -0.2222  0.5835  0.2744
    8CHTO   H39 3322   5.153   9.393   0.330 -0.3968  0.3138 -0.5602
    8CHTO    O9 3323   5.606   9.769   0.218 -0.3708  0.7057  0.1740
    8CHTO   C13 3324   5.642   9.699   0.068 -0.0262 -0.2597  0.8456
    8CHTO   H26 3325   5.583   9.748  -0.012 -2.1681 -2.1078  1.2348
    8CHTO   C11 3326   5.611   9.542   0.080  0.0184 -0.4265  0.3059
    8CHTO   H24 3327   5.502   9.528   0.070 -0.5003  3.0353  0.4099
    8CHTO    O8 3328   5.659   9.481   0.201  0.4554 -0.0339 -0.6327
    8CHTO    H3 3329   5.586   9.466   0.259  0.4452 -1.0075 -0.8808
    8CHTO    C9 3330   5.679   9.483  -0.049 -0.9291 -0.2646 -0.3588
    8CHTO   H22 3331   5.656   9.556  -0.128 -0.4849 -1.0325 -1.2061
    8CHTO    N2 3332   5.630   9.354  -0.099  0.1898  0.0451 -0.1494
    8CHTO   H10 3333   5.696   9.268  -0.092  0.6078  0.1725 -2.1473
    8CHTO   H11 3334   5.592   9.358  -0.200  0.0910  2.7817 -0.0369
    8CHTO    C7 3335   5.839   9.502  -0.028 -0.4165  0.4888  0.3369
    8CHTO   H20 3336   5.878   9.507  -0.131 -2.7898 -1.6192 -0.7084
    8CHTO    O4 3337   5.879   9.613   0.056  0.1883  0.8671 -0.3243
    8CHTO   C14 3338   5.791   9.724   0.026 -0.9371 -0.3677 -0.2835
    8CHTO   H27 3339   5.798   9.733  -0.084  2.2853 -0.3062 -0.1217
    8CHTO   C18 3340   5.842   9.860   0.084 -0.5086  0.6059 -0.2743
    8CHTO   O13 3341   5.774   9.970   0.024 -0.0014 -0.0345 -0.0593
    8CHTO    H7 3342   5.682   9.955   0.030 -0.0681 -0.0169 -1.0573
    8CHTO    O2 3343   5.901   9.361   0.046 -0.0714 -0.6849 -0.0532
    8CHTO    C1 3344   6.042   9.329   0.050  0.5349 -0.1837 -0.3036
    8CHTO   H14 3345   6.088   9.346   0.150  2.7949 -0.7943 -1.2152
    8CHTO    C2 3346   6.130   9.405  -0.056  0.0794 -0.0716  0.0580
    8CHTO   H15 3347   6.065   9.390  -0.144  1.9300 -0.3350 -1.3099
    8CHTO    O6 3348   6.145   9.547  -0.033 -0.0622 -0.0796  0.4083
    8CHTO    H1 3349   6.059   9.581  -0.022 -0.8031 -1.7645  0.0186
    8CHTO    C3 3350   6.273   9.335  -0.071  0.2310 -0.2372 -0.1038
    8CHTO   H16 3351   6.331   9.374   0.014  1.8281  0.1080 -1.3162
    8CHTO    N1 3352   6.349   9.372  -0.188 -0.2275  0.1284 -0.4318
    8CHTO    H8 3353   6.439   9.313  -0.190 -0.5895 -0.3936 -1.1915
    8CHTO    H9 3354   6.380   9.476  -0.194  2.6722 -0.7420 -1.2014
    8CHTO    C4 3355   6.273   9.182  -0.054  0.4184  0.3023  0.1914
    8CHTO   H17 3356   6.247   9.131  -0.146 -0.7729 -2.7860  2.1746
    8CHTO    O1 3357   6.169   9.121   0.033 -0.1537  0.1129  0.1128
    8CHTO    C5 3358   6.038   9.176   0.026 -0.2549 -0.4183 -0.3308
    8CHTO   H18 3359   5.994   9.159  -0.073  0.5019 -0.9290 -0.5814
    8CHTO   C16 3360   5.948   9.110   0.129  0.3875 -0.0596  0.0419
    8CHTO   O11 3361   5.938   8.970   0.121  0.4688  0.1550 -0.6043
    8CHTO    H5 3362   5.880   8.933   0.184  0.2722  0.1774 -0.7736
    8CHTO    O3 3363   6.398   9.142   0.006 -0.7671  0.5995  0.6526
    8CHTO    C6 3364   6.472   9.034  -0.063 -0.0378  0.0652  0.0721
    8CHTO   H19 3365   6.420   8.999  -0.152  0.3544  2.6217 -1.2066
    8CHTO    C8 3366   6.616   9.079  -0.105  0.2035  0.0432 -0.5766
    8CHTO   H21 3367   6.657   9.130  -0.017  2.5688 -2.4674 -0.1654
    8CHTO    O7 3368   6.612   9.178  -0.214 -0.5964  0.1128 -0.3293
    8CHTO    H2 3369   6.699   9.213  -0.215 -0.4776  0.0505  3.2836
    8CHTO   C12 3370   6.717   8.955  -0.136 -0.2554 -0.0725 -0.3015
    8CHTO   H25 3371   6.685   8.930  -0.239  1.9241  1.8330 -1.4973
    8CHTO    N3 3372   6.859   9.000  -0.148  0.2238 -0.7454 -0.0565
    8CHTO   H12 3373   6.924   8.925  -0.192  1.8455  0.7219 -0.2015
    8CHTO   H13 3374   6.893   9.022  -0.048  1.3181 -0.7530 -0.4215
    8CHTO   C15 3375   6.694   8.828  -0.055 -0.3672 -0.0449 -0.1792
    8CHTO   H28 3376   6.760   8.832   0.032 -1.3684 -0.1533  0.5920
    8CHTO   O10 3377   6.713   8.696  -0.148 -0.2566 -0.7900 -0.2508
    8CHTO    H4 3378   6.763   8.713  -0.225 -1.3711 -0.5968 -0.9484
    8CHTO    O5 3379   6.559   8.804  -0.015 -0.1723 -0.1584  0.6191
    8CHTO   C10 3380   6.483   8.913   0.033  0.4920  0.2717  0.6021
    8CHTO   H23 3381   6.523   8.938   0.131 -0.9722 -1.4993  1.6993
    8CHTO   C17 3382   6.341   8.864   0.066 -0.2137 -0.3103  0.0688
    8CHTO   O12 3383   6.278   8.830  -0.061  0.2375  0.3329 -0.0431
    8CHTO    H6 3384   6.236   8.907  -0.092 -0.5002 -0.6440 -1.5019
    9CHTO  H203 3385   8.178   4.086   1.012 -1.3580 -1.1123 -1.4939
    9CHTO   O82 3386   8.120   4.144   1.057  0.8847  0.0608  0.0031
    9CHTO  C123 3387   7.992   4.144   0.993  0.2552 -0.9160  0.0658
    9CHTO  H227 3388   7.910   4.169   1.062 -0.0091  1.9371 -1.2068
    9CHTO   O77 3389   7.994   4.251   0.893 -0.1341 -0.1140 -0.0808
    9CHTO  C118 3390   7.874   4.265   0.819 -0.2452 -0.4127 -0.2342
    9CHTO  H222 3391   7.798   4.289   0.894  0.2237 -1.9553  0.7447
    9CHTO  C125 3392   7.894   4.390   0.718 -0.2682  0.2529 -0.6146
    9CHTO   O84 3393   7.892   4.507   0.798  0.1123  0.0107 -0.1211
    9CHTO  H205 3394   7.953   4.494   0.869 -0.6325  0.3768  0.5878
    9CHTO  C114 3395   7.835   4.136   0.748 -0.5371  0.0032 -0.5994
    9CHTO  H218 3396   7.914   4.117   0.675  1.3076  1.4203  0.9631
    9CHTO  C116 3397   7.829   4.013   0.844 -0.7792 -0.3020 -0.0821
    9CHTO  H220 3398   7.734   4.013   0.902 -1.3015 -1.0611 -0.9324
    9CHTO   O79 3399   7.818   3.894   0.758  0.0677 -0.1550 -0.0158
    9CHTO  H201 3400   7.805   3.818   0.811  0.5961  0.4040  0.9309
    9CHTO  C120 3401   7.960   4.003   0.926  0.0687 -0.3815 -0.6058
    9CHTO  H224 3402   8.045   3.987   0.856  1.3239 -0.9351  0.9978
    9CHTO   N21 3403   7.956   3.888   1.023  0.1165 -0.4892 -0.1107
    9CHTO  H211 3404   7.991   3.799   0.973  0.0440  0.3919 -1.7882
    9CHTO  H212 3405   8.024   3.903   1.106 -0.5915  1.2109  0.1851
    9CHTO   O75 3406   7.714   4.180   0.681 -0.5821  0.5392  0.1684
    9CHTO  C112 3407   7.650   4.093   0.549 -0.0000 -0.3695 -0.4270
    9CHTO  H216 3408   7.573   4.158   0.506  0.0841 -0.3111 -0.4905
    9CHTO   O73 3409   7.598   3.971   0.595 -0.4930 -0.0631 -0.6772
    9CHTO  C113 3410   7.554   3.887   0.487 -0.1493 -0.1410  0.1039
    9CHTO  H217 3411   7.481   3.945   0.427  2.3350  2.7244 -0.2614
    9CHTO  C124 3412   7.485   3.763   0.535  0.5631 -0.4340  0.1290
    9CHTO   O83 3413   7.364   3.786   0.610 -0.2894 -0.3650 -0.2439
    9CHTO  H204 3414   7.372   3.870   0.649 -1.3641 -1.2099  1.8624
    9CHTO  C109 3415   7.662   3.835   0.401  0.5815 -0.6591  0.2501
    9CHTO  H213 3416   7.729   3.773   0.464 -0.0912 -1.9475 -0.2837
    9CHTO  C110 3417   7.739   3.964   0.349  0.0154 -0.1854 -0.3133
    9CHTO  H214 3418   7.674   4.002   0.270  1.4473  1.4538 -0.7509
    9CHTO   O78 3419   7.865   3.926   0.290 -0.2194 -0.3132  0.3346
    9CHTO  H200 3420   7.908   3.990   0.236  0.1381 -0.1258  0.8399
    9CHTO  C111 3421   7.766   4.077   0.447 -0.4850 -0.7551  0.4266
    9CHTO  H215 3422   7.853   4.045   0.506 -1.5604 -2.1700  1.2777
    9CHTO   N19 3423   7.796   4.214   0.389  0.5836 -0.0558 -1.0371
    9CHTO  H207 3424   7.886   4.206   0.329  0.5562 -2.0327 -0.8451
    9CHTO  H208 3425   7.802   4.287   0.468 -1.5743  0.8767 -1.6790
    9CHTO   O74 3426   7.617   3.756   0.282  0.5316  0.0516 -0.1349
    9CHTO  C115 3427   7.723   3.664   0.217 -0.4588  0.0679  0.1648
    9CHTO  H219 3428   7.823   3.693   0.250 -0.7158  2.4710 -1.0366
    9CHTO   O76 3429   7.710   3.520   0.264  0.1493 -0.3953  0.0484
    9CHTO  C122 3430   7.578   3.472   0.234  0.3815 -0.5130 -0.3612
    9CHTO  H226 3431   7.508   3.544   0.278  1.6678 -0.1710  1.1499
    9CHTO  C126 3432   7.558   3.339   0.308  0.1004 -0.5248  0.3328
    9CHTO   O85 3433   7.643   3.233   0.254  0.3933 -0.0305 -0.3352
    9CHTO  H206 3434   7.721   3.215   0.304 -0.6630 -0.8812  1.0479
    9CHTO  C121 3435   7.562   3.466   0.078 -0.0088  0.4197 -0.0393
    9CHTO  H225 3436   7.629   3.393   0.028  0.2310 -0.8831  2.1386
    9CHTO   O81 3437   7.429   3.413   0.051  0.3639  0.0785  0.3225
    9CHTO  H202 3438   7.421   3.377  -0.035 -0.2276 -1.0931  0.8556
    9CHTO  C119 3439   7.578   3.613   0.015  0.2801  0.3725  0.2096
    9CHTO  H223 3440   7.575   3.608  -0.094 -1.5039 -0.6931  0.2793
    9CHTO  C117 3441   7.712   3.676   0.059 -0.2196 -0.5133 -0.3614
    9CHTO  H221 3442   7.721   3.784   0.042  1.0400 -0.3775  1.0385
    9CHTO   N20 3443   7.840   3.621  -0.008  0.3512  0.7216  0.5857
    9CHTO  H209 3444   7.900   3.560   0.058 -0.6882 -1.2260 -0.2397
    9CHTO  H210 3445   7.817   3.563  -0.096  2.4176 -1.2716  1.3149
    9CHTO   O80 3446   7.444   3.703   0.039 -0.0762 -0.0800  0.4941
    9CHTO  C103 3447   7.438   3.828   0.003 -0.0229 -0.5039  0.0516
    9CHTO  H190 3448   7.519   3.881   0.054  0.6413 -1.5742  0.1232
    9CHTO  C101 3449   7.443   3.866  -0.144 -0.8956  0.1672 -1.3105
    9CHTO  H188 3450   7.372   3.806  -0.201 -1.5731  0.3484 -0.6649
    9CHTO   O68 3451   7.606   3.838  -0.200  0.0330 -0.0544 -0.1737
    9CHTO  H168 3452   7.635   3.750  -0.185  1.4371  0.8895  3.0269
    9CHTO   C99 3453   7.404   4.020  -0.163  0.0718 -0.2030 -0.2603
    9CHTO  H186 3454   7.478   4.079  -0.104  1.0925 -0.4640 -1.2490
    9CHTO   N17 3455   7.416   4.071  -0.304  0.2658 -0.3643 -0.3030
    9CHTO  H174 3456   7.402   3.996  -0.380 -0.9144 -0.3237 -0.1442
    9CHTO  H175 3457   7.357   4.160  -0.323  1.2920 -0.1171 -2.3772
    9CHTO   C97 3458   7.267   4.050  -0.101 -0.1494  0.4305  0.5687
    9CHTO  H184 3459   7.193   3.987  -0.153  0.1102  0.3300  0.3230
    9CHTO   O64 3460   7.269   4.019   0.038 -0.1730  0.0389  0.9345
    9CHTO  C104 3461   7.303   3.877   0.064 -0.5076  0.1218  0.6276
    9CHTO  H191 3462   7.222   3.818   0.021  0.9254 -1.1334 -0.3764
    9CHTO  C108 3463   7.298   3.862   0.219 -0.2364 -0.1966 -0.0635
    9CHTO   O71 3464   7.273   3.731   0.264 -0.1928  0.3208  0.2442
    9CHTO  H171 3465   7.199   3.735   0.321  0.5655  0.2116  1.2523
    9CHTO   O62 3466   7.231   4.190  -0.100 -0.2433 -0.2632 -0.4724
    9CHTO   C91 3467   7.091   4.222  -0.096  0.5279 -0.4049  0.1386
    9CHTO  H178 3468   7.035   4.138  -0.138 -1.3921  0.1421  1.5239
    9CHTO   C92 3469   7.056   4.338  -0.193  0.6767  0.1470  0.4376
    9CHTO  H179 3470   7.092   4.328  -0.297 -0.8552 -0.5390 -0.0347
    9CHTO   O66 3471   6.913   4.341  -0.213 -0.5525 -0.1159 -0.1917
    9CHTO  H166 3472   6.889   4.416  -0.265  1.6556  1.5358  1.0880
    9CHTO   C93 3473   7.090   4.480  -0.123  0.5286  0.8932  0.0860
    9CHTO  H180 3474   7.047   4.557  -0.190  2.7489  3.0417  1.0493
    9CHTO   N16 3475   7.232   4.521  -0.131  0.1180  0.0311  0.1110
    9CHTO  H172 3476   7.249   4.613  -0.185  0.1970 -0.1586 -0.1834
    9CHTO  H173 3477   7.270   4.534  -0.030  2.9506  0.8035 -1.0157
    9CHTO   C94 3478   7.026   4.498   0.017  0.6646  0.0025 -0.1540
    9CHTO  H181 3479   7.101   4.510   0.095 -0.5621 -0.0553  1.0713
    9CHTO   O61 3480   6.953   4.380   0.061  0.2457 -0.3187 -0.3002
    9CHTO   C95 3481   7.033   4.258   0.052 -0.1401  0.1264 -0.3367
    9CHTO  H182 3482   7.112   4.259   0.127  0.4207 -2.0042 -0.8636
    9CHTO  C106 3483   6.937   4.145   0.096 -0.4289  0.5196 -0.2632
    9CHTO   O69 3484   6.936   4.131   0.242 -0.3830  0.0745 -0.9276
    9CHTO  H169 3485   6.905   4.205   0.290 -0.2005 -0.5875  0.2397
    9CHTO   O63 3486   6.943   4.634   0.007  0.6714  0.9844 -0.0090
    9CHTO   C96 3487   6.803   4.627   0.097 -0.0441  0.3080  0.5768
    9CHTO  H183 3488   6.805   4.543   0.167 -0.2019 -1.4294 -1.4684
    9CHTO   C98 3489   6.674   4.632   0.009 -0.0895 -0.2133  0.1374
    9CHTO  H185 3490   6.698   4.708  -0.066  0.0330  0.9054  1.2870
    9CHTO   O67 3491   6.678   4.518  -0.063  0.0233  0.2507  0.0821
    9CHTO  H167 3492   6.691   4.530  -0.155 -0.5662  1.1976  0.1155
    9CHTO  C102 3493   6.540   4.670   0.089 -0.4153 -0.7330  0.1336
    9CHTO  H189 3494   6.519   4.581   0.149 -0.1030 -2.0307 -1.6398
    9CHTO   N18 3495   6.413   4.700   0.011  0.2832 -0.0881  0.1298
    9CHTO  H176 3496   6.370   4.609  -0.028  0.4662  0.8378 -2.3262
    9CHTO  H177 3497   6.440   4.766  -0.070  0.8485  1.2982  1.4442
    9CHTO  C105 3498   6.568   4.794   0.181  0.1291 -0.0507 -0.6817
    9CHTO  H192 3499   6.594   4.882   0.121  1.6632 -0.5380 -0.7457
    9CHTO   O65 3500   6.680   4.773   0.265  0.0111  0.0320 -0.5356
    9CHTO  C100 3501   6.801   4.758   0.192  0.3284  0.5506 -0.1119
    9CHTO  H187 3502   6.812   4.851   0.133 -1.7511  0.4021 -0.7856
    9CHTO  C107 3503   6.925   4.763   0.292  0.2949 -0.2944  1.1179
    9CHTO   O70 3504   6.915   4.663   0.381  0.1136 -0.0430  0.0722
    9CHTO  H170 3505   6.955   4.685   0.463  0.2589  0.3412 -0.0974
    9CHTO   O57 3506   6.423   4.825   0.284 -0.4094  0.3198  0.7426
    9CHTO   C85 3507   6.385   4.950   0.355 -0.1322  0.5041  0.5502
    9CHTO  H157 3508   6.315   5.006   0.290  0.5845  0.6421 -0.1156
    9CHTO   C83 3509   6.510   5.047   0.369  0.5090  0.3762 -0.3567
    9CHTO  H155 3510   6.546   5.065   0.268  1.3904 -1.2791 -0.3460
    9CHTO   O56 3511   6.608   4.986   0.456 -0.4484  0.0041 -0.5364
    9CHTO  H135 3512   6.679   5.047   0.459  1.2423 -1.8929 -0.6349
    9CHTO   C81 3513   6.455   5.179   0.431  0.2021 -0.2800 -0.0919
    9CHTO  H153 3514   6.369   5.213   0.374 -0.2083 -2.3760 -0.7546
    9CHTO   N14 3515   6.554   5.286   0.426  0.1407 -0.6406 -0.1869
    9CHTO  H141 3516   6.519   5.359   0.356 -0.3302 -0.5617  0.1342
    9CHTO  H142 3517   6.650   5.248   0.397 -0.6062 -2.8282  0.1176
    9CHTO   C79 3518   6.403   5.153   0.578  0.6775 -0.2921  0.0419
    9CHTO  H151 3519   6.351   5.242   0.615 -0.2092 -1.1018  0.7542
    9CHTO   O52 3520   6.295   5.052   0.572 -0.1200 -0.5279  0.1571
    9CHTO   C86 3521   6.322   4.927   0.498 -0.1395  0.3664 -0.1338
    9CHTO  H158 3522   6.378   4.861   0.568 -0.1665  0.9630  0.4457
    9CHTO   C90 3523   6.180   4.860   0.480 -0.0388  0.6523  0.2217
    9CHTO   O60 3524   6.100   4.960   0.421 -0.0316 -0.0997  0.5502
    9CHTO  H138 3525   6.019   4.968   0.467 -0.1609 -3.1261  0.9544
    9CHTO   O50 3526   6.493   5.112   0.675 -0.5541 -0.5715  0.1736
    9CHTO   C73 3527   6.512   5.094   0.817 -0.3854  0.2193  0.0969
    9CHTO  H145 3528   6.422   5.051   0.862 -0.2315 -1.7393 -1.3850
    9CHTO   C74 3529   6.546   5.228   0.892  0.3024 -0.1184 -0.8219
    9CHTO  H146 3530   6.473   5.308   0.872 -1.2355 -1.0277  0.9928
    9CHTO   O54 3531   6.523   5.206   1.030  0.7092  0.2499  0.1768
    9CHTO  H133 3532   6.571   5.265   1.084  1.6328 -0.8958  0.6359
    9CHTO   C75 3533   6.695   5.276   0.864 -0.0579 -0.8775  0.1904
    9CHTO  H147 3534   6.696   5.309   0.759 -0.2319  1.9874  1.0436
    9CHTO   N13 3535   6.730   5.403   0.930 -0.3892 -0.3892  0.1473
    9CHTO  H139 3536   6.675   5.422   1.021  0.6078 -0.3632  0.7610
    9CHTO  H140 3537   6.836   5.415   0.946 -0.6921  0.0763  1.9820
    9CHTO   C76 3538   6.795   5.160   0.879 -0.3209  0.3642 -0.0882
    9CHTO  H148 3539   6.796   5.125   0.982 -1.0484 -0.9026 -0.4960
    9CHTO   O49 3540   6.757   5.041   0.797  0.2734 -0.2224 -0.9537
    9CHTO   C77 3541   6.628   4.990   0.837  0.9029 -0.7857 -0.2185
    9CHTO  H149 3542   6.633   4.972   0.945 -0.6760 -0.3576 -0.0718
    9CHTO   C88 3543   6.599   4.864   0.756  0.6148  1.1655 -1.1114
    9CHTO   O58 3544   6.713   4.759   0.825 -0.3880 -0.1139  0.1856
    9CHTO  H136 3545   6.795   4.785   0.788 -1.0655  2.3083  0.3142
    9CHTO   O51 3546   6.937   5.204   0.835 -0.0346 -0.2187 -0.2661
    9CHTO   C78 3547   7.049   5.088   0.858 -0.7326 -0.0571 -0.2069
    9CHTO  H150 3548   6.992   4.998   0.891 -0.0088  0.0492  1.3675
    9CHTO   C80 3549   7.147   5.120   0.977 -0.4532  0.0241 -0.7259
    9CHTO  H152 3550   7.195   5.217   0.952 -0.4396 -0.5439 -3.0296
    9CHTO   O55 3551   7.071   5.131   1.102 -0.1701  0.7602 -0.1556
    9CHTO  H134 3552   7.093   5.208   1.152  0.0943 -0.7604  2.1523
    9CHTO   C84 3553   7.264   5.021   0.993 -0.2960  0.1016 -0.0886
    9CHTO  H156 3554   7.213   4.931   1.029  0.4095 -0.9183 -1.5532
    9CHTO   N15 3555   7.372   5.065   1.098  0.0939  0.5584 -0.2110
    9CHTO  H143 3556   7.412   5.152   1.051 -1.5348  0.1259 -2.5338
    9CHTO  H144 3557   7.453   4.996   1.105  0.9925  1.6026 -0.3045
    9CHTO   C87 3558   7.336   4.992   0.855  0.1326 -0.4049  0.5601
    9CHTO  H159 3559   7.397   5.078   0.827  1.3219 -1.5810 -0.5577
    9CHTO   O53 3560   7.232   4.958   0.743  0.5089 -0.4427  0.2338
    9CHTO   C82 3561   7.125   5.055   0.728  0.1853 -0.0096 -0.0073
    9CHTO  H154 3562   7.172   5.146   0.689  2.2765 -1.7053 -1.5503
    9CHTO   C89 3563   7.027   5.015   0.618  0.2917  0.4778 -0.3835
    9CHTO   O59 3564   6.958   4.893   0.648  0.1094 -0.3139 -0.2644
    9CHTO  H137 3565   6.923   4.860   0.568 -0.9673  0.5811 -0.1624
    9CHTO   O45 3566   7.447   4.859   0.880  0.0210  0.4417  0.7169
    9CHTO   C67 3567   7.379   4.734   0.850 -0.2939  0.3212 -0.1606
    9CHTO  H124 3568   7.272   4.738   0.873  0.5237 -1.8363  4.8369
    9CHTO   C65 3569   7.397   4.682   0.703  0.4855  0.7596 -0.6003
    9CHTO  H122 3570   7.409   4.756   0.624 -1.4457  2.1148  0.3101
    9CHTO   O44 3571   7.287   4.604   0.667  0.2068  0.1910 -0.3461
    9CHTO  H102 3572   7.296   4.526   0.717 -0.5788  0.5495  0.3448
    9CHTO   C63 3573   7.531   4.596   0.688  0.6965 -0.4826 -0.1867
    9CHTO  H120 3574   7.610   4.649   0.742  0.2715 -0.2626  0.2204
    9CHTO   N11 3575   7.598   4.566   0.556 -0.0589 -0.0267  0.1654
    9CHTO  H108 3576   7.542   4.516   0.480 -0.5462 -0.4979  0.8315
    9CHTO  H109 3577   7.686   4.506   0.564 -0.6787 -0.8542  0.8426
    9CHTO   C61 3578   7.512   4.462   0.777  0.7340 -0.7914  0.0389
    9CHTO  H118 3579   7.609   4.431   0.819  1.2159  0.0010 -0.4835
    9CHTO   O40 3580   7.427   4.489   0.892 -0.0350  0.8144 -0.6058
    9CHTO   C68 3581   7.437   4.621   0.958 -0.2322 -0.0626  0.1031
    9CHTO  H125 3582   7.542   4.633   0.994 -0.3084 -1.6015  0.8843
    9CHTO   C72 3583   7.350   4.609   1.077  0.3230 -0.5298 -0.1859
    9CHTO   O48 3584   7.418   4.545   1.184 -0.3397  0.5276 -0.0072
    9CHTO  H105 3585   7.377   4.575   1.263 -0.5297  0.8517 -0.2291
    9CHTO   O38 3586   7.469   4.344   0.707 -0.3409  0.1316 -0.1291
    9CHTO   C55 3587   7.347   4.272   0.747  0.1892  0.6656 -0.6675
    9CHTO  H112 3588   7.273   4.329   0.806  0.0735 -0.9357  0.7804
    9CHTO   C56 3589   7.403   4.145   0.830  0.5573  0.0125  0.0792
    9CHTO  H113 3590   7.477   4.092   0.768  1.1211  0.1067  0.6573
    9CHTO   O42 3591   7.482   4.197   0.939  0.0756 -0.0237 -0.2457
    9CHTO  H100 3592   7.510   4.129   0.998 -0.7377  1.4978  1.9469
    9CHTO   C57 3593   7.282   4.054   0.872  0.1535 -0.1886 -0.4712
    9CHTO  H114 3594   7.229   4.102   0.954 -0.1846  0.2415 -0.9362
    9CHTO   N10 3595   7.336   3.927   0.928 -0.2181 -0.0965 -0.0312
    9CHTO  H106 3596   7.432   3.942   0.974  0.6410  0.4989 -1.9782
    9CHTO  H107 3597   7.351   3.854   0.850 -0.1157  0.6461 -0.7073
    9CHTO   C58 3598   7.177   4.031   0.756  0.3136  0.2680  0.1312
    9CHTO  H115 3599   7.223   3.965   0.679 -0.6623 -0.2859  0.0142
    9CHTO   O37 3600   7.158   4.152   0.690  0.1167 -0.1954 -0.2468
    9CHTO   C59 3601   7.266   4.208   0.628  0.6169  0.2252  0.1353
    9CHTO  H116 3602   7.329   4.129   0.586  0.8639  0.1085  0.7247
    9CHTO   C70 3603   7.230   4.306   0.514 -0.0552  0.3864  0.5224
    9CHTO   O46 3604   7.149   4.235   0.421  0.7521  0.2684 -0.1281
    9CHTO  H103 3605   7.131   4.285   0.344 -2.7723 -1.0187 -0.2069
    9CHTO   O39 3606   7.034   3.939   0.808 -0.9063 -0.2901  0.2930
    9CHTO   C60 3607   7.046   3.803   0.761 -0.1037  0.4223  0.1419
    9CHTO  H117 3608   7.144   3.779   0.719 -1.7564 -3.4299 -1.7970
    9CHTO   C62 3609   7.030   3.710   0.889 -0.5323 -0.1928  0.5278
    9CHTO  H119 3610   7.112   3.739   0.958 -0.3002  1.6444 -0.5082
    9CHTO   O43 3611   6.908   3.735   0.955 -0.0827  0.3532  0.3310
    9CHTO  H101 3612   6.838   3.716   0.896  0.7821  2.3033 -1.4030
    9CHTO   C66 3613   7.059   3.555   0.854  0.1830 -0.2124 -0.5334
    9CHTO  H123 3614   7.164   3.547   0.825  0.4887  1.7083 -0.0017
    9CHTO   N12 3615   7.057   3.475   0.978  0.1932 -0.0470  0.4903
    9CHTO  H110 3616   7.061   3.370   0.953 -0.8505  0.1612 -0.6161
    9CHTO  H111 3617   7.156   3.491   1.018  0.5329  1.8163 -1.0481
    9CHTO   C69 3618   6.955   3.509   0.747 -0.2775  0.2708  0.0221
    9CHTO  H126 3619   6.853   3.512   0.790 -0.3318  3.4697 -0.1894
    9CHTO   O41 3620   6.938   3.622   0.614 -0.0189 -0.3239  0.3698
    9CHTO   C64 3621   6.940   3.776   0.644 -0.0213 -0.0823 -0.4863
    9CHTO  H121 3622   6.836   3.803   0.674  0.8059  0.5409  1.9022
    9CHTO   C71 3623   6.972   3.852   0.512  0.1214  0.1422 -0.0590
    9CHTO   O47 3624   6.875   3.832   0.407 -0.2139  0.1932 -0.2015
    9CHTO  H104 3625   6.919   3.796   0.332  0.0130  0.1241 -0.0377
    9CHTO   O34 3626   6.970   3.363   0.696 -0.4917  0.0063  0.0629
    9CHTO   C49 3627   7.018   3.326   0.548  0.3626  0.2807 -0.8501
    9CHTO   H91 3628   6.944   3.366   0.478 -1.0003  0.5161  0.6761
    9CHTO   C47 3629   7.021   3.167   0.544 -0.1285 -0.4186 -0.3460
    9CHTO   H89 3630   7.018   3.138   0.437  1.8822 -1.8473 -0.0438
    9CHTO   O33 3631   6.903   3.113   0.609 -0.0421  0.5077 -0.1528
    9CHTO   H70 3632   6.879   3.033   0.565 -0.2983  0.3961  0.1868
    9CHTO   C45 3633   7.154   3.108   0.614 -0.1766  0.8404  0.0558
    9CHTO   H87 3634   7.133   3.069   0.714  0.5385  2.0037  0.6579
    9CHTO    N8 3635   7.215   2.997   0.537  0.5916 -0.6056  0.3815
    9CHTO   H75 3636   7.233   3.036   0.438  0.6589 -1.3560  0.0902
    9CHTO   H76 3637   7.147   2.915   0.521  0.1755  0.1347 -1.7192
    9CHTO   C43 3638   7.256   3.226   0.651 -0.0188  0.1014 -0.0227
    9CHTO   H85 3639   7.201   3.280   0.729 -0.0810 -3.3023  2.4101
    9CHTO   O29 3640   7.268   3.309   0.532  0.1254 -0.2173 -0.0249
    9CHTO   C50 3641   7.153   3.387   0.502  0.3554  0.1630 -0.6275
    9CHTO   H92 3642   7.161   3.486   0.548 -0.3716 -0.6658  1.3309
    9CHTO   C54 3643   7.143   3.420   0.344  0.1098  0.1310 -0.1873
    9CHTO   O36 3644   7.060   3.532   0.317 -0.3538  0.2340 -0.1063
    9CHTO   H72 3645   6.973   3.506   0.341 -0.8707  0.7601 -1.3647
    9CHTO   O27 3646   7.376   3.187   0.715 -0.0717  0.0551  0.3995
    9CHTO   C37 3647   7.454   3.237   0.827  0.2609  0.4018  0.0136
    9CHTO   H79 3648   7.545   3.176   0.835  1.5025  2.1600 -0.3767
    9CHTO   C38 3649   7.492   3.389   0.794  0.1091 -0.1565 -0.5555
    9CHTO   H80 3650   7.400   3.441   0.763 -0.6817 -2.3288 -1.9683
    9CHTO   O31 3651   7.581   3.380   0.682  0.5560 -0.0530  0.4682
    9CHTO   H68 3652   7.660   3.332   0.699  0.2302 -0.1570  1.6987
    9CHTO   C39 3653   7.555   3.462   0.917 -0.1188 -0.7395 -1.2159
    9CHTO   H81 3654   7.659   3.435   0.933 -0.2963  0.0515  1.3534
    9CHTO    N7 3655   7.568   3.611   0.888  0.3894  0.4769 -0.1072
    9CHTO   H73 3656   7.639   3.663   0.951 -2.2328  2.1455  1.5848
    9CHTO   H74 3657   7.470   3.657   0.899 -0.6775 -1.2214 -2.0734
    9CHTO   C40 3658   7.476   3.436   1.049 -0.5482 -0.2565  0.0791
    9CHTO   H82 3659   7.384   3.494   1.037  0.1125  0.9109  0.5911
    9CHTO   O26 3660   7.451   3.294   1.063 -0.4964 -0.3066 -0.5537
    9CHTO   C41 3661   7.377   3.237   0.957 -0.0782 -0.0667 -0.3097
    9CHTO   H83 3662   7.278   3.285   0.949 -1.1001 -2.1960 -0.9610
    9CHTO   C52 3663   7.337   3.090   1.016 -0.3470  0.0934  0.8071
    9CHTO   O35 3664   7.245   3.106   1.137 -0.1136 -0.3606  0.1305
    9CHTO   H71 3665   7.210   3.031   1.181  0.6249 -0.9892 -0.3428
    9CHTO   O28 3666   7.533   3.487   1.174  0.7642 -0.3456 -0.1036
    9CHTO   C42 3667   7.452   3.556   1.276 -0.3920 -0.0780 -0.1031
    9CHTO   H84 3668   7.508   3.549   1.370  2.2364  2.1370 -1.4390
    9CHTO   C44 3669   7.310   3.497   1.294 -0.2003 -0.1986  0.4588
    9CHTO   H86 3670   7.266   3.499   1.194 -2.1378 -0.7038  1.2867
    9CHTO   O32 3671   7.331   3.365   1.348  0.0431  0.2350  0.4979
    9CHTO   H69 3672   7.257   3.310   1.332  0.6848 -0.7559  0.8944
    9CHTO   C48 3673   7.227   3.585   1.388  0.1810 -0.6576  0.1450
    9CHTO   H90 3674   7.262   3.589   1.492 -0.5995  0.5768  0.3615
    9CHTO    N9 3675   7.083   3.542   1.392 -0.0697 -0.4206 -0.6082
    9CHTO   H77 3676   7.030   3.589   1.311  0.9146  0.1498 -0.9346
    9CHTO   H78 3677   7.049   3.571   1.490 -1.1543 -1.5175 -0.6477
    9CHTO   C51 3678   7.236   3.737   1.352 -0.2840  0.2154 -0.0655
    9CHTO   H93 3679   7.191   3.744   1.253  4.5559 -0.5847 -2.4344
    9CHTO   O30 3680   7.373   3.779   1.347 -0.2832  0.1004 -0.5461
    9CHTO   C46 3681   7.449   3.711   1.246  0.5742  0.5207 -0.0445
    9CHTO   H88 3682   7.394   3.737   1.156 -1.2197  0.6257  1.0658
    9CHTO   C53 3683   7.598   3.763   1.234 -0.5290 -0.3355 -0.4099
    9CHTO   O72 3684   7.611   3.894   1.189 -0.1193  0.2428 -0.3365
    9CHTO  H199 3685   7.560   3.905   1.111 -2.2542  1.3924  1.1735
    9CHTO   O22 3686   7.166   3.822   1.449 -0.2273 -0.7973  0.1148
    9CHTO   C31 3687   7.109   3.954   1.397 -0.1318  0.3015  0.6768
    9CHTO   H59 3688   7.076   4.013   1.485  0.2221 -0.2984  1.2170
    9CHTO   C29 3689   7.203   4.045   1.313  0.4289  0.1928  0.1343
    9CHTO   H57 3690   7.232   3.977   1.232  0.8474 -1.6226  1.7754
    9CHTO   O21 3691   7.316   4.068   1.399 -0.1678 -0.6096  0.2144
    9CHTO   H37 3692   7.365   4.140   1.365 -0.2168 -0.2929  0.8080
    9CHTO   C27 3693   7.130   4.173   1.248 -0.2281 -0.2203  0.4655
    9CHTO   H55 3694   7.081   4.230   1.328 -0.6815 -0.1102  0.1146
    9CHTO    N5 3695   7.225   4.261   1.176  0.3407  0.7514  0.1872
    9CHTO   H43 3696   7.163   4.342   1.140 -1.6668 -0.5354  0.7041
    9CHTO   H44 3697   7.296   4.308   1.243 -0.1124  0.4746  0.8713
    9CHTO   C25 3698   7.017   4.115   1.161  0.1782 -0.1495  0.2372
    9CHTO   H53 3699   7.062   4.052   1.084 -1.3999  1.7278 -2.3024
    9CHTO   O17 3700   6.929   4.037   1.248  0.0975 -0.3681  0.2055
    9CHTO   C32 3701   6.984   3.927   1.322  0.1316 -0.0068 -0.2895
    9CHTO   H60 3702   6.999   3.838   1.262 -0.1345 -1.9981  2.5332
    9CHTO   C36 3703   6.867   3.885   1.424  0.0593  0.0272 -0.0722
    9CHTO   O25 3704   6.750   3.818   1.373  0.4532  0.3528  0.0107
    9CHTO   H40 3705   6.718   3.855   1.293  3.0649 -0.2181 -1.3376
    9CHTO   O15 3706   6.923   4.248   1.094 -0.2781  0.4683  0.2112
    9CHTO   C19 3707   6.858   4.298   0.975  0.2397  0.2893  0.2358
    9CHTO   H47 3708   6.758   4.329   1.010 -0.0203 -0.1245 -0.1482
    9CHTO   C20 3709   6.942   4.413   0.910  0.0387  0.2033  0.0274
    9CHTO   H48 3710   7.046   4.381   0.896  0.8173  3.0425 -0.9008
    9CHTO   O19 3711   6.956   4.514   1.012  0.5134 -0.2246 -0.0440
    9CHTO   H35 3712   6.944   4.602   0.984  1.3992  0.4642  1.6592
    9CHTO   C21 3713   6.872   4.467   0.777  0.1447 -0.0333 -1.1394
    9CHTO   H49 3714   6.779   4.517   0.804 -0.8348 -1.3570 -2.0211
    9CHTO    N4 3715   6.952   4.564   0.701  0.2747  0.5798  0.2662
    9CHTO   H41 3716   6.973   4.654   0.756  2.3955  1.1871 -1.4848
    9CHTO   H42 3717   6.920   4.584   0.600 -0.0695 -0.6547  0.1159
    9CHTO   C22 3718   6.833   4.347   0.685 -0.1776 -0.0698 -0.1751
    9CHTO   H50 3719   6.926   4.306   0.645 -0.7602 -0.4220 -1.1961
    9CHTO   O14 3720   6.756   4.250   0.755  0.3366 -0.1066 -0.4848
    9CHTO   C23 3721   6.825   4.188   0.867 -0.4215  0.3693  0.3459
    9CHTO   H51 3722   6.914   4.149   0.816  0.3292  0.9926  1.1718
    9CHTO   C34 3723   6.748   4.070   0.920  0.1707 -0.6289  0.0660
    9CHTO   O23 3724   6.742   3.964   0.834 -0.3624 -0.0669  0.1232
    9CHTO   H38 3725   6.649   3.956   0.820 -0.1086  0.1719 -1.8071
    9CHTO   O16 3726   6.750   4.390   0.575 -0.1051  0.7346 -0.3741
    9CHTO   C24 3727   6.626   4.290   0.525  0.2247 -0.6720 -0.6300
    9CHTO   H52 3728   6.574   4.238   0.605  0.3448 -2.0619 -1.4236
    9CHTO   C26 3729   6.673   4.190   0.416 -0.3016  0.1625 -0.2234
    9CHTO   H54 3730   6.735   4.242   0.340  0.1703  0.0533  0.0862
    9CHTO   O20 3731   6.767   4.103   0.474  0.3296 -0.1411  0.3953
    9CHTO   H36 3732   6.811   4.048   0.413  0.9855  1.1219 -0.2908
    9CHTO   C30 3733   6.558   4.110   0.360  0.3931  0.3398  0.1674
    9CHTO   H58 3734   6.515   4.052   0.443  0.2612 -0.0732 -0.1865
    9CHTO    N6 3735   6.603   4.014   0.257 -0.8729 -0.1001 -0.5442
    9CHTO   H45 3736   6.609   3.914   0.297 -1.3700  0.0611 -0.0579
    9CHTO   H46 3737   6.547   4.022   0.165 -1.6486  0.0507 -0.0599
    9CHTO   C33 3738   6.446   4.204   0.307 -0.2915 -0.6828 -0.3828
    9CHTO   H61 3739   6.474   4.244   0.208 -4.0231  0.2253 -1.1663
    9CHTO   O18 3740   6.413   4.314   0.394 -0.4027 -0.1079  0.2300
    9CHTO   C28 3741   6.526   4.383   0.453  0.1072 -0.3427  0.0862
    9CHTO   H56 3742   6.578   4.442   0.377 -0.9510 -0.0465 -0.4082
    9CHTO   C35 3743   6.467   4.499   0.539  0.2317 -0.7762 -0.6801
    9CHTO   O24 3744   6.399   4.596   0.459  0.1537 -0.4659 -0.2250
    9CHTO   H39 3745   6.307   4.589   0.475  0.3677 -0.4461  1.0890
    9CHTO    O9 3746   6.331   4.125   0.279  0.0721 -0.1478  0.3519
    9CHTO   C13 3747   6.271   4.147   0.133  0.2908  0.3385  0.5793
    9CHTO   H26 3748   6.348   4.132   0.054  2.7269  1.0407  2.7487
    9CHTO   C11 3749   6.210   4.295   0.126 -0.0479 -0.7715  0.0244
    9CHTO   H24 3750   6.298   4.362   0.124 -0.0315 -0.7424  1.1784
    9CHTO    O8 3751   6.138   4.325   0.243 -0.1463 -0.0089 -0.1332
    9CHTO    H3 3752   6.058   4.276   0.240 -1.5069  2.1308 -0.0026
    9CHTO    C9 3753   6.125   4.307  -0.001  0.7162 -0.1408  0.0355
    9CHTO   H22 3754   6.185   4.259  -0.079 -1.0117  1.4340 -2.3515
    9CHTO    N2 3755   6.104   4.444  -0.042  0.0698  0.5723 -0.1287
    9CHTO   H10 3756   6.195   4.495  -0.068  0.3160  0.0120 -0.3862
    9CHTO   H11 3757   6.046   4.444  -0.133  1.4697 -2.3004 -1.0886
    9CHTO    C7 3758   5.997   4.223   0.028  0.1698  0.5815 -0.4963
    9CHTO   H20 3759   5.963   4.189  -0.072 -0.5468  2.0246 -0.7592
    9CHTO    O4 3760   6.028   4.102   0.107 -0.4006 -0.3965  0.5550
    9CHTO   C14 3761   6.154   4.041   0.090 -0.0472 -0.3884  0.0278
    9CHTO   H27 3762   6.170   4.011  -0.016 -1.3600  0.1389 -0.3327
    9CHTO   C18 3763   6.146   3.906   0.169 -0.2299 -0.6019 -0.1264
    9CHTO   O13 3764   6.123   3.920   0.309 -0.6150 -0.2151  0.1863
    9CHTO    H7 3765   6.136   3.835   0.345  0.3773 -0.2991 -0.3658
    9CHTO    O2 3766   5.863   4.304   0.101  0.3668 -0.1641  0.2391
    9CHTO    C1 3767   5.743   4.222   0.124 -0.5445 -0.2285 -0.1023
    9CHTO   H14 3768   5.775   4.119   0.152 -1.5411 -0.4249  0.3226
    9CHTO    C2 3769   5.642   4.201  -0.001  0.0740  0.0644  0.0691
    9CHTO   H15 3770   5.588   4.295  -0.017  0.4123 -0.1824 -2.6905
    9CHTO    O6 3771   5.712   4.166  -0.121 -0.1094  0.6876 -0.0028
    9CHTO    H1 3772   5.744   4.078  -0.124 -0.0364  0.7588 -2.4711
    9CHTO    C3 3773   5.536   4.092   0.055 -0.1342 -0.3497  0.1653
    9CHTO   H16 3774   5.597   4.001   0.067 -0.6323 -0.6032  0.8099
    9CHTO    N1 3775   5.430   4.067  -0.043  0.3072  0.6427 -0.2950
    9CHTO    H8 3776   5.368   4.155  -0.050 -1.0900 -0.1562  1.7657
    9CHTO    H9 3777   5.472   4.046  -0.141 -1.6493  0.0803 -1.0341
    9CHTO    C4 3778   5.480   4.119   0.202  0.3331 -0.1679 -0.1441
    9CHTO   H17 3779   5.402   4.195   0.199 -0.5305 -1.0426 -0.1085
    9CHTO    O1 3780   5.589   4.152   0.285  0.3139  0.2162 -1.2612
    9CHTO    C5 3781   5.660   4.266   0.246 -0.3949  0.0439  0.0881
    9CHTO   H18 3782   5.597   4.352   0.221  0.1291  0.5251  0.4019
    9CHTO   C16 3783   5.743   4.300   0.367  0.3080 -0.2961 -0.7810
    9CHTO   O11 3784   5.675   4.357   0.480  0.2316  0.3438 -0.0329
    9CHTO    H5 3785   5.736   4.394   0.541 -1.0962  0.7987  1.0399
    9CHTO    O3 3786   5.428   3.996   0.270 -0.2036 -0.3118 -0.2042
    9CHTO    C6 3787   5.286   4.007   0.297  0.3968  0.7841  0.3804
    9CHTO   H19 3788   5.239   4.092   0.247  1.1147  0.1195 -1.5015
    9CHTO    C8 3789   5.210   3.871   0.242  0.7425  0.2757  0.3205
    9CHTO   H21 3790   5.234   3.784   0.303 -2.7088 -0.5091  0.6393
    9CHTO    O7 3791   5.239   3.857   0.105  0.2162  0.4549  0.4894
    9CHTO    H2 3792   5.190   3.915   0.049  2.1112  1.4684 -0.1756
    9CHTO   C12 3793   5.049   3.885   0.266 -0.5345  0.8093 -0.1018
    9CHTO   H25 3794   5.015   3.977   0.214 -2.7373  0.3678  0.4850
    9CHTO    N3 3795   4.970   3.766   0.213  0.0985 -0.3106 -0.3250
    9CHTO   H12 3796   4.991   3.756   0.107  0.5459 -0.2879 -0.2388
    9CHTO   H13 3797   5.002   3.681   0.271  1.8659  1.0246  0.7026
    9CHTO   C15 3798   5.039   3.908   0.422 -0.1144 -0.2897  0.1826
    9CHTO   H28 3799   5.058   3.822   0.486  0.7480  0.4605  0.9539
    9CHTO   O10 3800   4.906   3.960   0.467 -0.1168  0.1018  0.7864
    9CHTO    H4 3801   4.880   3.928   0.551  0.6774 -0.2402  0.9115
    9CHTO    O5 3802   5.112   4.018   0.472 -0.0744 -0.7687 -0.0053
    9CHTO   C10 3803   5.253   4.019   0.448  0.0389 -0.2353 -0.1806
    9CHTO   H23 3804   5.286   3.931   0.505 -0.4508 -0.8649 -0.8583
    9CHTO   C17 3805   5.322   4.139   0.491 -0.3539 -0.4177  0.3477
    9CHTO   O12 3806   5.303   4.182   0.626  0.1165 -0.6426 -0.0179
    9CHTO    H6 3807   5.287   4.114   0.689 -0.9911  1.9908  2.6971
   10CHTO  H203 3808   4.338   6.625   0.192 -0.7209  0.0183 -2.2350
   10CHTO   O82 3809   4.269   6.561   0.188 -0.4837 -0.3747 -0.2777
   10CHTO  C123 3810   4.147   6.625   0.144 -0.3112 -0.2371  0.2330
   10CHTO  H227 3811   4.120   6.587   0.044 -1.7311  3.3885 -0.8559
   10CHTO   O77 3812   4.041   6.573   0.228  0.0152 -0.6016  0.3383
   10CHTO  C118 3813   3.911   6.621   0.212 -0.2319 -0.3642 -0.7188
   10CHTO  H222 3814   3.872   6.617   0.110 -0.3739 -2.1436 -0.6168
   10CHTO  C125 3815   3.816   6.535   0.304 -0.6448  0.0646  0.1525
   10CHTO   O84 3816   3.806   6.396   0.255  0.2207  0.2147 -0.0784
   10CHTO  H205 3817   3.880   6.352   0.293  0.4621  0.4678 -0.2549
   10CHTO  C114 3818   3.913   6.769   0.253 -0.7502  0.6558  0.1019
   10CHTO  H218 3819   3.950   6.773   0.356 -1.6017  0.0970  0.4399
   10CHTO  C116 3820   4.002   6.844   0.152  0.5035 -0.5326 -0.1534
   10CHTO  H220 3821   3.962   6.837   0.049 -1.4725  1.3098  0.4497
   10CHTO   O79 3822   4.004   6.983   0.187 -0.2236  0.0494 -0.3675
   10CHTO  H201 3823   4.048   7.038   0.124  0.4490  0.1974  0.2222
   10CHTO  C120 3824   4.154   6.781   0.163  0.5414  0.1157  0.1172
   10CHTO  H224 3825   4.201   6.810   0.259  3.9765  2.8528 -2.2653
   10CHTO   N21 3826   4.244   6.842   0.062  0.4080 -0.0835  0.4056
   10CHTO  H211 3827   4.220   6.946   0.042 -1.2832 -0.5903 -0.2230
   10CHTO  H212 3828   4.346   6.838   0.096  1.5759  1.7660 -2.6178
   10CHTO   O75 3829   3.772   6.810   0.243 -0.1074 -0.6690  0.2988
   10CHTO  C112 3830   3.722   6.888   0.365  0.1139  0.5587  0.5539
   10CHTO  H216 3831   3.808   6.940   0.410  0.4234  1.4881 -1.0842
   10CHTO   O73 3832   3.672   6.789   0.455 -0.4292  0.1276 -0.0671
   10CHTO  C113 3833   3.616   6.838   0.579 -0.3943  0.6894  0.1992
   10CHTO  H217 3834   3.697   6.883   0.642 -0.2317  1.7665 -0.7573
   10CHTO  C124 3835   3.569   6.714   0.652 -0.1177  0.2581  0.0427
   10CHTO   O83 3836   3.459   6.646   0.584 -0.2286  0.1937 -0.4854
   10CHTO  H204 3837   3.378   6.686   0.610 -0.3941 -0.9154  0.7432
   10CHTO  C109 3838   3.511   6.950   0.561 -0.3857  0.2874  0.0409
   10CHTO  H213 3839   3.421   6.904   0.518 -1.1720  1.2227  0.6855
   10CHTO  C110 3840   3.559   7.062   0.462 -0.1025 -0.3724 -0.2903
   10CHTO  H214 3841   3.646   7.113   0.503 -0.4145 -0.1575  0.0961
   10CHTO   O78 3842   3.450   7.152   0.434  0.9269  0.2791  0.0570
   10CHTO  H200 3843   3.413   7.120   0.353 -0.8248  1.3246  0.4304
   10CHTO  C111 3844   3.610   6.994   0.333  0.4894 -0.2166  0.1455
   10CHTO  H215 3845   3.529   6.945   0.278  1.2066  0.8858 -1.9701
   10CHTO   N19 3846   3.662   7.099   0.235  0.5787  0.5659  0.0991
   10CHTO  H207 3847   3.644   7.077   0.131  0.7615  1.4082 -0.1162
   10CHTO  H208 3848   3.759   7.141   0.256  0.9395 -0.1518 -0.1101
   10CHTO   O74 3849   3.472   6.998   0.694 -0.0781  0.3722  0.7073
   10CHTO  C115 3850   3.306   7.045   0.693 -0.3628  0.1426  0.2583
   10CHTO  H219 3851   3.274   7.085   0.597 -0.9172 -1.1545 -0.1006
   10CHTO   O76 3852   3.202   6.910   0.725  0.0891 -0.3237 -0.0379
   10CHTO  C122 3853   3.244   6.840   0.841  0.2317 -0.2278 -0.3350
   10CHTO  H226 3854   3.347   6.810   0.824  0.8838  1.6220  0.2416
   10CHTO  C126 3855   3.154   6.708   0.859  0.1352 -0.4029  0.6014
   10CHTO   O85 3856   3.107   6.636   0.744 -0.1016  0.4186 -0.0657
   10CHTO  H206 3857   3.094   6.550   0.777 -0.3463  0.4173 -0.1638
   10CHTO  C121 3858   3.241   6.942   0.968  0.8649  0.4417  0.7486
   10CHTO  H225 3859   3.161   6.901   1.033  2.4605 -2.6618  0.8487
   10CHTO   O81 3860   3.359   6.946   1.049  0.0121 -0.0045 -0.1963
   10CHTO  H202 3861   3.365   7.013   1.114  0.2026 -0.8892  0.7210
   10CHTO  C119 3862   3.203   7.094   0.927  0.1677  0.6428 -0.0202
   10CHTO  H223 3863   3.099   7.094   0.895  0.0038 -1.4284  0.4566
   10CHTO  C117 3864   3.300   7.150   0.814  0.0551 -0.0080  0.5000
   10CHTO  H221 3865   3.400   7.175   0.850 -0.4817  1.9521  0.7053
   10CHTO   N20 3866   3.244   7.279   0.765  0.7055  0.3570 -0.4418
   10CHTO  H209 3867   3.160   7.314   0.824  0.6844  0.3208 -0.4507
   10CHTO  H210 3868   3.314   7.361   0.758 -0.2186  1.2238  0.2589
   10CHTO   O80 3869   3.200   7.202   1.043  0.2808 -0.8358  0.2563
   10CHTO  C103 3870   3.060   7.238   1.106  0.2062  0.1953 -0.1664
   10CHTO  H190 3871   2.999   7.274   1.023 -1.7329 -0.6603  0.8666
   10CHTO  C101 3872   3.003   7.124   1.192  0.3733 -0.3318  0.7824
   10CHTO  H188 3873   3.083   7.092   1.258 -0.6057 -0.2436  2.0223
   10CHTO   O68 3874   2.954   7.003   1.094  0.6057  0.2721 -0.6109
   10CHTO  H168 3875   2.915   6.930   1.138  2.5028 -1.6466 -2.0056
   10CHTO   C99 3876   2.886   7.179   1.288 -0.0207  0.1339 -0.4374
   10CHTO  H186 3877   2.801   7.207   1.222 -0.3599 -0.8108 -0.4064
   10CHTO   N17 3878   2.824   7.085   1.384 -0.1502  0.4884 -0.5187
   10CHTO  H174 3879   2.787   7.003   1.326  2.5520 -1.1362 -0.0455
   10CHTO  H175 3880   2.889   7.061   1.468 -0.0723  1.2469 -0.3586
   10CHTO   C97 3881   2.930   7.305   1.365 -0.5091  0.2905  0.1975
   10CHTO  H184 3882   3.008   7.280   1.438  0.1853  2.6406  0.3008
   10CHTO   O64 3883   2.972   7.405   1.273  0.5991  0.1983  0.0149
   10CHTO  C104 3884   3.091   7.366   1.198  0.4263 -0.3365 -0.4342
   10CHTO  H191 3885   3.168   7.338   1.270  0.5955  1.2122  0.0159
   10CHTO  C108 3886   3.145   7.489   1.120 -0.2599 -0.5011  0.3791
   10CHTO   O71 3887   3.185   7.589   1.214  0.1762 -0.0555 -0.3281
   10CHTO  H171 3888   3.127   7.655   1.246  1.4409  1.5299 -1.1925
   10CHTO   O62 3889   2.825   7.381   1.426 -0.7023  0.6209 -0.3077
   10CHTO   C91 3890   2.803   7.368   1.572 -0.2853  0.0257  0.2046
   10CHTO  H178 3891   2.815   7.265   1.607 -1.0228 -0.1376 -0.0145
   10CHTO   C92 3892   2.651   7.399   1.592 -0.1987 -0.7902 -0.7014
   10CHTO  H179 3893   2.631   7.500   1.554 -1.3721 -0.8719 -0.3063
   10CHTO   O66 3894   2.570   7.304   1.520 -0.7818  0.3965 -0.0436
   10CHTO  H166 3895   2.602   7.216   1.529 -0.2196  0.8995  3.2608
   10CHTO   C93 3896   2.614   7.389   1.747 -0.6804  0.2660  0.6835
   10CHTO  H180 3897   2.636   7.286   1.777  2.2597 -0.1233 -2.5300
   10CHTO   N16 3898   2.474   7.416   1.786  0.3273  0.0282 -0.0713
   10CHTO  H172 3899   2.424   7.503   1.744 -1.8679 -1.7302 -1.2396
   10CHTO  H173 3900   2.417   7.326   1.771  0.3508 -0.3117  1.8254
   10CHTO   C94 3901   2.708   7.487   1.826 -0.1259  0.5701 -0.2172
   10CHTO  H181 3902   2.706   7.589   1.788  0.7206  0.9492  0.7387
   10CHTO   O61 3903   2.845   7.441   1.806 -0.3406  0.6944 -0.0768
   10CHTO   C95 3904   2.892   7.464   1.667 -1.0281  0.2400 -0.0755
   10CHTO  H182 3905   2.877   7.570   1.647 -0.4060  0.7579  2.0426
   10CHTO  C106 3906   3.046   7.417   1.666  0.2589  0.1617 -0.8504
   10CHTO   O69 3907   3.125   7.478   1.765 -0.1897 -0.8444 -0.0133
   10CHTO  H169 3908   3.182   7.541   1.725  0.7764 -1.6780  0.0290
   10CHTO   O63 3909   2.680   7.497   1.999  0.2518  0.0227 -0.0303
   10CHTO   C96 3910   2.736   7.377   2.075  0.5115 -0.3929 -0.4350
   10CHTO  H183 3911   2.793   7.317   2.004  0.7974 -0.3759 -0.2227
   10CHTO   C98 3912   2.637   7.276   2.129  0.4883  0.4816 -0.1760
   10CHTO  H185 3913   2.552   7.329   2.173  0.3143  1.4067 -1.6087
   10CHTO   O67 3914   2.581   7.213   2.013 -0.0772  0.2799 -0.0675
   10CHTO  H167 3915   2.487   7.207   2.010 -0.0950  0.8213 -0.6999
   10CHTO  C102 3916   2.704   7.166   2.224 -0.2058 -0.1520 -0.8094
   10CHTO  H189 3917   2.766   7.101   2.160 -1.4112 -2.5366  0.3785
   10CHTO   N18 3918   2.604   7.074   2.281  0.0469  0.1009 -0.1468
   10CHTO  H176 3919   2.652   7.004   2.348 -0.6258  0.2998  0.5571
   10CHTO  H177 3920   2.540   7.038   2.202  0.1249 -0.1998 -0.0755
   10CHTO  C105 3921   2.768   7.250   2.339 -0.0535  0.4766 -0.3904
   10CHTO  H192 3922   2.700   7.311   2.400  1.3931  1.1688  0.5611
   10CHTO   O65 3923   2.876   7.331   2.287  0.3403 -0.0928 -0.8700
   10CHTO  C100 3924   2.840   7.435   2.192 -0.6138 -0.2035 -0.2427
   10CHTO  H187 3925   2.794   7.517   2.250  1.3927  0.3693  0.6170
   10CHTO  C107 3926   2.976   7.469   2.117  0.3049  0.2689  0.6655
   10CHTO   O70 3927   3.066   7.517   2.217 -0.5167 -0.1665 -0.1909
   10CHTO  H170 3928   3.146   7.470   2.205 -0.1517 -0.0406  1.6475
   10CHTO   O57 3929   2.835   7.147   2.455  0.2494 -0.0142  0.3142
   10CHTO   C85 3930   2.793   7.156   2.596  0.2787 -0.0757  0.2537
   10CHTO  H157 3931   2.683   7.155   2.606 -0.0229 -0.6477 -2.7287
   10CHTO   C83 3932   2.842   7.296   2.646 -0.1393  0.2149  0.1303
   10CHTO  H155 3933   2.801   7.372   2.580 -1.2339 -0.6434 -0.1939
   10CHTO   O56 3934   2.986   7.308   2.652 -0.2426 -0.1287 -0.2013
   10CHTO  H135 3935   3.011   7.349   2.571  1.7807 -0.7306  0.0869
   10CHTO   C81 3936   2.789   7.313   2.789 -0.4773 -0.0556 -0.0954
   10CHTO  H153 3937   2.680   7.315   2.795 -0.3882  0.9647  1.6466
   10CHTO   N14 3938   2.808   7.456   2.833 -0.0988 -0.2486 -0.1034
   10CHTO  H141 3939   2.912   7.472   2.812 -0.0254 -1.4119 -0.6460
   10CHTO  H142 3940   2.782   7.472   2.935 -0.2303  1.9314 -0.4550
   10CHTO   C79 3941   2.834   7.201   2.886  0.1611 -0.5038  0.4057
   10CHTO  H151 3942   2.762   7.205   2.967 -1.8035 -0.4444 -1.2857
   10CHTO   O52 3943   2.826   7.062   2.828 -0.1750 -0.6502 -0.3799
   10CHTO   C86 3944   2.858   7.049   2.687  0.1523 -0.1689  0.0617
   10CHTO  H158 3945   2.969   7.054   2.690  0.0666  2.2607 -0.4886
   10CHTO   C90 3946   2.822   6.910   2.636 -0.2931  0.3485  0.8423
   10CHTO   O60 3947   2.885   6.806   2.710 -0.6645 -0.1669  0.0872
   10CHTO  H138 3948   2.842   6.723   2.707  0.2589 -0.6986  1.0884
   10CHTO   O50 3949   2.963   7.224   2.947  0.0761  1.1103  0.0680
   10CHTO   C73 3950   3.029   7.170   3.062 -0.2016 -0.1404  1.1812
   10CHTO  H145 3951   2.976   7.080   3.096 -0.0447 -1.9249 -2.9850
   10CHTO   C74 3952   3.030   7.287   3.178 -0.1371 -0.0092  0.6255
   10CHTO  H146 3953   2.923   7.312   3.189 -0.5864 -2.0039  0.9485
   10CHTO   O54 3954   3.070   7.222   3.299  0.2818 -0.6970 -0.1657
   10CHTO  H133 3955   3.091   7.282   3.369  0.5510 -2.4172  1.2566
   10CHTO   C75 3956   3.121   7.405   3.134  0.4717 -0.0624 -0.1527
   10CHTO  H147 3957   3.072   7.452   3.048 -0.4758  0.6273  0.7438
   10CHTO   N13 3958   3.133   7.511   3.237  0.2788  0.5713  0.0500
   10CHTO  H139 3959   3.215   7.574   3.204 -1.0724  2.7597  0.7853
   10CHTO  H140 3960   3.146   7.476   3.338 -0.5049  0.2094  0.0288
   10CHTO   C76 3961   3.263   7.348   3.084  0.7132  0.1595 -0.2026
   10CHTO  H148 3962   3.321   7.299   3.162  2.1175  0.9310 -0.7567
   10CHTO   O49 3963   3.244   7.249   2.974 -0.3245  0.2262 -0.2086
   10CHTO   C77 3964   3.172   7.133   3.021 -0.6774  0.4406  0.0522
   10CHTO  H149 3965   3.222   7.094   3.110 -1.5252  1.9047  1.1929
   10CHTO   C88 3966   3.186   7.019   2.925  0.6854  0.0800  0.6782
   10CHTO   O58 3967   3.104   6.917   2.950  0.7116 -0.6325 -0.8217
   10CHTO  H136 3968   3.112   6.892   3.040 -0.0246  1.3881 -0.1748
   10CHTO   O51 3969   3.325   7.462   3.001 -0.1654 -0.3397 -0.3763
   10CHTO   C78 3970   3.483   7.461   2.997  0.9147  0.6360 -0.0426
   10CHTO  H150 3971   3.514   7.356   3.018 -0.3796  0.4955  1.2339
   10CHTO   C80 3972   3.544   7.556   3.101 -0.2121 -0.0072 -0.5391
   10CHTO  H152 3973   3.493   7.654   3.095  1.7460  1.0776  0.3390
   10CHTO   O55 3974   3.519   7.475   3.220 -0.2001 -0.4323  0.6797
   10CHTO  H134 3975   3.597   7.430   3.248 -0.0419 -0.3962  0.3078
   10CHTO   C84 3976   3.694   7.580   3.083  0.1944  0.4147  0.6568
   10CHTO  H156 3977   3.735   7.482   3.106 -0.4780  0.3052  1.4115
   10CHTO   N15 3978   3.744   7.666   3.185  0.4695  0.4253 -0.2232
   10CHTO  H143 3979   3.827   7.616   3.230 -0.3641 -1.0383 -0.2871
   10CHTO  H144 3980   3.777   7.760   3.146  2.3224 -1.2825 -2.9582
   10CHTO   C87 3981   3.724   7.623   2.936 -0.4682 -0.3292  0.1058
   10CHTO  H159 3982   3.669   7.716   2.922  1.1547  0.5115 -0.8287
   10CHTO   O53 3983   3.672   7.516   2.848  0.0815 -0.2181  0.3075
   10CHTO   C82 3984   3.534   7.501   2.857  0.1945  0.1142 -0.6039
   10CHTO  H154 3985   3.478   7.591   2.831 -1.0474 -0.5184 -0.1518
   10CHTO   C89 3986   3.492   7.391   2.754 -0.1426 -0.1890 -0.1149
   10CHTO   O59 3987   3.557   7.269   2.783  0.2851  0.4143 -0.0955
   10CHTO  H137 3988   3.648   7.278   2.801  0.5663 -1.1344 -0.6581
   10CHTO   O45 3989   3.884   7.630   2.908  0.2039  0.7842  0.1603
   10CHTO   C67 3990   3.932   7.715   2.803 -0.7848  0.0948  0.2181
   10CHTO  H124 3991   3.867   7.713   2.716  2.7426 -2.2258 -2.4895
   10CHTO   C65 3992   3.951   7.858   2.859  0.0210  0.5191  0.5500
   10CHTO  H122 3993   3.854   7.880   2.904 -1.0401 -2.0543 -0.4061
   10CHTO   O44 3994   3.962   7.957   2.749 -0.2847  0.9235  0.2472
   10CHTO  H102 3995   4.045   7.948   2.707 -1.8524 -0.5834 -2.7094
   10CHTO   C63 3996   4.057   7.859   2.966 -0.3564 -0.2486 -0.0338
   10CHTO  H120 3997   4.033   7.781   3.038  2.8858  0.1229  1.5618
   10CHTO   N11 3998   4.054   7.984   3.053 -0.1084  0.1472  0.3865
   10CHTO  H108 3999   4.126   7.989   3.132  1.5655 -2.5783 -0.9050
   10CHTO  H109 4000   4.040   8.074   2.996 -1.1558 -0.5571 -0.4889
   10CHTO   C61 4001   4.194   7.820   2.892  0.3907 -0.5390  0.3122
   10CHTO  H118 4002   4.266   7.811   2.975  0.4236 -1.1089  0.2214
   10CHTO   O40 4003   4.179   7.680   2.838  0.3408 -1.0624  0.5315
   10CHTO   C68 4004   4.069   7.655   2.750 -0.4419 -0.5928  1.0196
   10CHTO  H125 4005   4.058   7.545   2.749  0.1075 -0.6421 -0.0041
   10CHTO   C72 4006   4.104   7.700   2.600  0.2241  0.2222 -0.3474
   10CHTO   O48 4007   4.174   7.605   2.522 -0.1157 -0.1163  0.0283
   10CHTO  H105 4008   4.228   7.653   2.462  0.4619  1.6862  1.9252
   10CHTO   O38 4009   4.235   7.907   2.788 -0.2089 -0.0461 -0.1219
   10CHTO   C55 4010   4.341   8.009   2.784 -0.5229 -0.1215  0.5957
   10CHTO  H112 4011   4.406   7.968   2.706 -1.0149  0.6350 -0.2158
   10CHTO   C56 4012   4.422   8.034   2.928  0.1215 -0.4292  0.1944
   10CHTO  H113 4013   4.350   8.045   3.010  0.3385 -0.5315  0.4020
   10CHTO   O42 4014   4.497   7.913   2.949 -0.1415 -0.3772  0.7022
   10CHTO  H100 4015   4.566   7.920   3.012  0.5852  1.1969 -0.2426
   10CHTO   C57 4016   4.515   8.166   2.928  0.0333  1.1412  0.6710
   10CHTO  H114 4017   4.605   8.154   2.868 -0.3320 -1.7107  0.6450
   10CHTO   N10 4018   4.567   8.214   3.062  0.0702 -0.0658 -0.4157
   10CHTO  H106 4019   4.527   8.139   3.128  2.0297 -1.2415 -0.5520
   10CHTO  H107 4020   4.675   8.214   3.067  0.0374  0.0682  0.3541
   10CHTO   C58 4021   4.441   8.289   2.860 -0.7710  0.4083  0.2166
   10CHTO  H115 4022   4.362   8.335   2.923  1.9122  1.6276  2.7913
   10CHTO   O37 4023   4.387   8.250   2.731  0.4274 -0.0004  0.6211
   10CHTO   C59 4024   4.284   8.145   2.728  0.0626  0.0140 -0.1842
   10CHTO  H116 4025   4.198   8.177   2.788 -1.4930  1.1900 -2.9434
   10CHTO   C70 4026   4.255   8.130   2.577  0.0271  0.0559  0.6135
   10CHTO   O46 4027   4.154   8.040   2.530  1.2377  0.2263 -0.0638
   10CHTO  H103 4028   4.072   8.073   2.562 -1.4199 -3.8293 -2.3112
   10CHTO   O39 4029   4.550   8.405   2.822  0.0896 -0.3777  0.0422
   10CHTO   C60 4030   4.495   8.533   2.811  0.0249 -0.4617 -0.2088
   10CHTO  H117 4031   4.388   8.526   2.795  0.1475  0.6422 -1.6693
   10CHTO   C62 4032   4.528   8.616   2.946  0.7418  0.0303  0.9624
   10CHTO  H119 4033   4.499   8.550   3.030 -2.3774  1.3067  0.9537
   10CHTO   O43 4034   4.672   8.630   2.966  0.5020  0.1389 -0.4616
   10CHTO  H101 4035   4.689   8.655   3.054 -1.1915 -0.6071  0.0996
   10CHTO   C66 4036   4.454   8.756   2.940 -0.3431  0.1052  0.4929
   10CHTO  H123 4037   4.347   8.736   2.943  0.0142 -1.8123  1.1903
   10CHTO   N12 4038   4.474   8.845   3.058  0.2477 -0.4386  1.3566
   10CHTO  H110 4039   4.484   8.792   3.152  2.7271  0.6495  1.7478
   10CHTO  H111 4040   4.552   8.917   3.039  0.6951 -0.6398  2.4097
   10CHTO   C69 4041   4.497   8.831   2.811  0.3541  0.1784 -0.2638
   10CHTO  H126 4042   4.604   8.862   2.811  0.1810  0.7821 -0.6666
   10CHTO   O41 4043   4.484   8.738   2.691 -0.0227 -0.0769 -0.3052
   10CHTO   C64 4044   4.548   8.608   2.689 -0.1123 -0.1649  0.4147
   10CHTO  H121 4045   4.657   8.628   2.698 -0.1529 -0.5838  2.0562
   10CHTO   C71 4046   4.517   8.524   2.558 -0.6496  0.0311 -0.3927
   10CHTO   O47 4047   4.579   8.395   2.536  0.9475 -0.2067  0.0446
   10CHTO  H104 4048   4.670   8.403   2.560  0.5984  2.5512  0.5979
   10CHTO   O34 4049   4.419   8.943   2.777 -0.4320  0.4258 -0.3991
   10CHTO   C49 4050   4.306   8.997   2.749 -0.1090  0.6047  0.3119
   10CHTO   H91 4051   4.306   9.093   2.800 -0.3152  1.4106 -1.1861
   10CHTO   C47 4052   4.180   8.914   2.795 -0.6519  0.3438 -0.0056
   10CHTO   H89 4053   4.195   8.881   2.900 -1.7060  0.0618  0.0551
   10CHTO   O33 4054   4.181   8.788   2.717  0.5246 -0.1998 -0.1190
   10CHTO   H70 4055   4.264   8.747   2.733  1.7149  1.5204 -1.6203
   10CHTO   C45 4056   4.050   8.990   2.767  0.7631  0.2935  0.4296
   10CHTO   H87 4057   3.986   8.918   2.715  0.5550  1.2507 -0.6508
   10CHTO    N8 4058   3.988   9.041   2.889  0.8733 -0.0101 -0.4682
   10CHTO   H75 4059   3.929   9.130   2.869 -0.8559 -0.4138  2.4893
   10CHTO   H76 4060   3.933   8.964   2.940 -0.1901  0.5785 -0.7165
   10CHTO   C43 4061   4.068   9.111   2.654 -0.0843 -0.2726 -0.8061
   10CHTO   H85 4062   3.964   9.122   2.625 -0.4305  0.7372  0.7569
   10CHTO   O29 4063   4.157   9.066   2.548 -0.0595  0.6037  1.0097
   10CHTO   C50 4064   4.289   9.024   2.594  0.3203  0.1710 -0.1213
   10CHTO   H92 4065   4.321   8.934   2.540  2.3630  0.6723  0.1918
   10CHTO   C54 4066   4.393   9.128   2.546 -0.5934  0.1416 -0.1794
   10CHTO   O36 4067   4.413   9.123   2.404 -0.0276  0.1462  0.6492
   10CHTO   H72 4068   4.487   9.173   2.376 -0.2569 -0.1722 -0.5304
   10CHTO   O27 4069   4.124   9.235   2.712 -0.0893  0.4997  0.5496
   10CHTO   C37 4070   4.155   9.368   2.658 -0.7733  0.9008 -0.0557
   10CHTO   H79 4071   4.216   9.366   2.567 -3.5611  0.5730 -1.9951
   10CHTO   C38 4072   4.029   9.443   2.613 -0.1452 -1.0047 -1.2005
   10CHTO   H80 4073   3.960   9.438   2.699  2.5955 -1.1507  1.0453
   10CHTO   O31 4074   3.979   9.367   2.502  0.0265 -0.9008  0.0113
   10CHTO   H68 4075   3.940   9.286   2.530 -1.0282 -0.5296 -0.3701
   10CHTO   C39 4076   4.070   9.589   2.563 -0.4666  0.4343  0.4651
   10CHTO   H81 4077   4.129   9.576   2.472 -0.9375  2.6399 -0.1661
   10CHTO    N7 4078   3.951   9.672   2.511 -1.0274  0.3672  0.7028
   10CHTO   H73 4079   3.947   9.691   2.405 -0.1624 -5.1508 -0.4596
   10CHTO   H74 4080   3.854   9.659   2.556 -0.8554  0.1414  1.0129
   10CHTO   C40 4081   4.157   9.660   2.676 -0.5747 -0.3154  0.3441
   10CHTO   H82 4082   4.085   9.686   2.754 -1.4655 -3.1735  0.5277
   10CHTO   O26 4083   4.260   9.579   2.727 -0.2782 -0.3209  0.4431
   10CHTO   C41 4084   4.221   9.445   2.768  0.1742  0.0786  0.3778
   10CHTO   H83 4085   4.162   9.445   2.860  1.4629  0.1630  1.2276
   10CHTO   C52 4086   4.352   9.371   2.804 -0.1487 -0.5192 -0.7003
   10CHTO   O35 4087   4.412   9.422   2.948  0.4092 -0.4216  0.0440
   10CHTO   H71 4088   4.346   9.452   3.007 -0.2309 -1.3770 -0.1605
   10CHTO   O28 4089   4.247   9.761   2.630 -0.0011  0.3183 -0.8617
   10CHTO   C42 4090   4.261   9.900   2.667  0.1979  0.2178  0.2737
   10CHTO   H84 4091   4.242   9.904   2.774 -0.4038 -1.9524  0.2594
   10CHTO   C44 4092   4.156   9.994   2.600  0.2342 -0.3253 -0.0279
   10CHTO   H86 4093   4.148   9.971   2.494  1.6047 -0.9553 -0.0108
   10CHTO   O32 4094   4.031   9.959   2.669 -1.0056  0.7386  0.7294
   10CHTO   H69 4095   4.002  10.011   2.741 -2.6547  2.3653 -1.0415
   10CHTO   C48 4096   4.196  10.150   2.617 -0.8936 -0.0209  0.3647
   10CHTO   H90 4097   4.184  10.183   2.720 -1.6794  1.2054 -0.1087
   10CHTO    N9 4098   4.098  10.228   2.530 -0.8991  0.5129 -0.3018
   10CHTO   H77 4099   4.146  10.300   2.466  1.8709  1.3094  2.5505
   10CHTO   H78 4100   4.022  10.278   2.589 -0.3616  1.1550 -0.1533
   10CHTO   C51 4101   4.344  10.174   2.567  0.8745  0.4046 -0.0492
   10CHTO   H93 4102   4.356  10.143   2.463  1.8395 -0.3256  0.2790
   10CHTO   O30 4103   4.422  10.092   2.654 -0.2053  0.1937  0.1169
   10CHTO   C46 4104   4.407   9.947   2.641  0.7362 -0.6852  0.2978
   10CHTO   H88 4105   4.433   9.923   2.538  1.7014  0.5970  0.2308
   10CHTO   C53 4106   4.494   9.877   2.745  0.0810 -0.1791  0.2007
   10CHTO   O72 4107   4.633   9.924   2.753  0.6242  0.1930  0.3653
   10CHTO  H199 4108   4.652   9.997   2.809 -2.1577  0.8815  0.4893
   10CHTO   O22 4109   4.390  10.312   2.582 -0.5059 -0.3104  0.4820
   10CHTO   C31 4110   4.499  10.364   2.504 -0.2060  0.1620  0.5394
   10CHTO   H59 4111   4.499  10.474   2.521  0.2298  0.5133 -1.6384
   10CHTO   C29 4112   4.638  10.315   2.556 -0.5950  0.2651  0.3666
   10CHTO   H57 4113   4.634  10.206   2.542  1.6700  0.3053 -0.7860
   10CHTO   O21 4114   4.643  10.335   2.695  0.2456  0.8047  0.1001
   10CHTO   H37 4115   4.567  10.296   2.734 -1.4562  2.1301 -1.7452
   10CHTO   C27 4116   4.751  10.379   2.466  0.1492 -0.1334 -0.3285
   10CHTO   H55 4117   4.754  10.488   2.481 -0.0593 -0.2194  0.3582
   10CHTO    N5 4118   4.883  10.328   2.504  0.1041 -0.7489 -0.2283
   10CHTO   H43 4119   4.957  10.367   2.435 -0.9660  0.6913 -0.5844
   10CHTO   H44 4120   4.917  10.348   2.605 -0.4828 -1.8486  0.1912
   10CHTO   C25 4121   4.721  10.358   2.313  0.4797 -0.4029 -0.4081
   10CHTO   H53 4122   4.720  10.251   2.287  2.3507 -0.2375 -1.2249
   10CHTO   O17 4123   4.590  10.418   2.285  0.4403 -0.0559  0.3341
   10CHTO   C32 4124   4.483  10.347   2.353 -0.3914 -0.4613 -0.4178
   10CHTO   H60 4125   4.490  10.241   2.328 -0.2254 -0.6110  0.2644
   10CHTO   C36 4126   4.352  10.402   2.306  0.3802  0.1582  0.3696
   10CHTO   O25 4127   4.332  10.384   2.166  0.1759 -0.1256  0.2762
   10CHTO   H40 4128   4.345  10.297   2.134  0.5904 -0.0249  0.1684
   10CHTO   O15 4129   4.814  10.432   2.228  0.1313 -0.0487 -0.4138
   10CHTO   C19 4130   4.852  10.462   2.084  0.1593  0.2204 -0.5188
   10CHTO   H47 4131   4.809  10.380   2.025 -1.8544  0.3426  0.7591
   10CHTO   C20 4132   4.781  10.590   2.033  0.0085 -0.2180  0.0619
   10CHTO   H48 4133   4.781  10.674   2.104 -0.3617 -0.6170  0.5400
   10CHTO   O19 4134   4.643  10.569   2.001  0.0586  0.3683  0.0414
   10CHTO   H35 4135   4.579  10.591   2.067 -0.0103 -0.2369  0.1871
   10CHTO   C21 4136   4.867  10.653   1.911  0.6240 -0.4584  0.6801
   10CHTO   H49 4137   4.829  10.611   1.818 -2.1519  1.2961  0.9742
   10CHTO    N4 4138   4.844  10.794   1.889 -0.4902  0.4319 -0.0065
   10CHTO   H41 4139   4.840  10.848   1.982  2.7531  1.8704 -0.6263
   10CHTO   H42 4140   4.751  10.809   1.836 -0.1110  0.7159 -0.6075
   10CHTO   C22 4141   5.021  10.634   1.915  0.1434 -0.1628 -0.1763
   10CHTO   H50 4142   5.065  10.694   1.995 -0.1334 -0.5764  0.2870
   10CHTO   O14 4143   5.059  10.507   1.951 -0.0820  0.3462  0.4296
   10CHTO   C23 4144   5.004  10.445   2.071  0.1683 -0.4465  0.0133
   10CHTO   H51 4145   5.052  10.492   2.158 -1.1415 -1.2618  1.1771
   10CHTO   C34 4146   5.045  10.305   2.080 -0.5003  0.3015 -0.0046
   10CHTO   O23 4147   5.030  10.238   1.952  0.2911 -0.3804 -0.5409
   10CHTO   H38 4148   4.943  10.204   1.937  0.2043 -0.6324  0.4717
   10CHTO   O16 4149   5.089  10.664   1.792 -0.5294 -0.4139  0.3762
   10CHTO   C24 4150   5.260  10.661   1.804  0.0287  0.1986 -0.7075
   10CHTO   H52 4151   5.298  10.604   1.889 -0.1682  1.7706  0.4579
   10CHTO   C26 4152   5.314  10.804   1.809 -0.2857 -0.1127  0.0669
   10CHTO   H54 4153   5.263  10.856   1.726  0.3406  0.1056 -0.1876
   10CHTO   O20 4154   5.272  10.858   1.933  0.2214  0.0618  0.1287
   10CHTO   H36 4155   5.224  10.939   1.929 -1.0788 -0.6951 -0.0308
   10CHTO   C30 4156   5.465  10.808   1.782  0.4433  0.7784  0.1079
   10CHTO   H58 4157   5.512  10.744   1.859 -1.1536  0.8004  1.1260
   10CHTO    N6 4158   5.520  10.946   1.793 -0.2681 -0.1205 -0.2489
   10CHTO   H45 4159   5.492  10.992   1.887  1.0691 -0.1456  0.1735
   10CHTO   H46 4160   5.627  10.949   1.787 -0.1020 -1.6116  1.4502
   10CHTO   C33 4161   5.485  10.754   1.632  0.2215 -0.1500 -0.9482
   10CHTO   H61 4162   5.413  10.808   1.569 -0.0239  2.0353  1.1479
   10CHTO   O18 4163   5.454  10.614   1.640  0.3665  0.7717 -0.2024
   10CHTO   C28 4164   5.314  10.583   1.674  1.0583 -0.0160  0.2351
   10CHTO   H56 4165   5.253  10.612   1.588 -1.0029 -2.3728  0.8512
   10CHTO   C35 4166   5.302  10.432   1.677 -0.1921  0.5292  0.1890
   10CHTO   O24 4167   5.172  10.379   1.697  0.1450  0.3637 -0.7223
   10CHTO   H39 4168   5.102  10.424   1.654 -0.9663  0.7849  1.4641
   10CHTO    O9 4169   5.607  10.781   1.564 -0.1560  0.4058  0.1647
   10CHTO   C13 4170   5.679  10.688   1.461 -0.5978  0.9035 -0.1134
   10CHTO   H26 4171   5.619  10.696   1.368 -0.2747  0.5590 -0.3523
   10CHTO   C11 4172   5.698  10.534   1.509  0.2388 -1.0302  0.0113
   10CHTO   H24 4173   5.605  10.476   1.519  0.9554 -2.4352 -1.2822
   10CHTO    O8 4174   5.753  10.533   1.640  0.4477  0.3104 -0.3292
   10CHTO    H3 4175   5.681  10.520   1.700  1.2081  1.0660  0.7531
   10CHTO    C9 4176   5.785  10.457   1.402  0.1811 -0.6290  0.0919
   10CHTO   H22 4177   5.736  10.473   1.305 -2.7585  2.2726  1.9505
   10CHTO    N2 4178   5.793  10.310   1.412 -0.3556  0.1990  0.0789
   10CHTO   H10 4179   5.884  10.264   1.373 -0.5319 -1.8682  1.9805
   10CHTO   H11 4180   5.707  10.275   1.356 -0.2027  2.6315 -1.7519
   10CHTO    C7 4181   5.918  10.530   1.387 -0.2349  0.0000  0.5746
   10CHTO   H20 4182   5.974  10.487   1.301  0.1837  5.7499 -2.2573
   10CHTO    O4 4183   5.916  10.674   1.367  0.2027 -0.3637  0.1926
   10CHTO   C14 4184   5.820  10.754   1.440  0.2443 -0.2268 -0.1607
   10CHTO   H27 4185   5.795  10.848   1.386  2.8908  1.0924  0.8265
   10CHTO   C18 4186   5.894  10.791   1.573 -0.0891  0.0011  0.1300
   10CHTO   O13 4187   5.995  10.892   1.550 -0.0011 -0.0362 -0.4486
   10CHTO    H7 4188   6.070  10.840   1.526  0.6077  1.0546 -0.9262
   10CHTO    O2 4189   6.008  10.502   1.512 -0.2289  0.5932  0.1101
   10CHTO    C1 4190   6.150  10.466   1.508  0.2127  0.4347 -0.4554
   10CHTO   H14 4191   6.192  10.494   1.607 -0.5072 -1.3533  0.3813
   10CHTO    C2 4192   6.239  10.541   1.393 -0.2941 -0.4183 -0.3412
   10CHTO   H15 4193   6.192  10.508   1.299  1.6767 -0.7905 -1.2245
   10CHTO    O6 4194   6.227  10.686   1.409 -0.5493 -0.4998 -0.0138
   10CHTO    H1 4195   6.295  10.733   1.365 -1.4854 -0.0416 -0.9885
   10CHTO    C3 4196   6.395  10.486   1.402 -0.5739 -0.1066  0.5654
   10CHTO   H16 4197   6.423  10.498   1.508 -2.8892 -1.7573  1.4093
   10CHTO    N1 4198   6.484  10.561   1.312 -0.2264 -0.4922 -0.4290
   10CHTO    H8 4199   6.585  10.580   1.345  0.1142 -1.0595 -1.1570
   10CHTO    H9 4200   6.430  10.643   1.266  0.2044  0.6545  1.0575
   10CHTO    C4 4201   6.382  10.335   1.379 -0.1327  0.0682 -0.2504
   10CHTO   H17 4202   6.344  10.317   1.278  1.3405 -4.6727 -0.1127
   10CHTO    O1 4203   6.302  10.275   1.479  0.4204  0.5359 -0.0907
   10CHTO    C5 4204   6.164  10.313   1.495 -0.4170 -0.6967 -0.8073
   10CHTO   H18 4205   6.121  10.292   1.397  0.1607  0.8782 -1.4150
   10CHTO   C16 4206   6.096  10.243   1.610  0.5999  0.0703  0.4403
   10CHTO   O11 4207   6.142  10.266   1.743  0.6950  0.6382  0.3335
   10CHTO    H5 4208   6.090  10.217   1.803 -0.2314  0.1913 -0.8147
   10CHTO    O3 4209   6.512  10.270   1.388  0.4917  0.3671  0.0477
   10CHTO    C6 4210   6.527  10.122   1.362  0.0912 -0.0612 -0.4416
   10CHTO   H19 4211   6.438  10.067   1.392 -0.2253  0.0927 -1.0924
   10CHTO    C8 4212   6.552  10.101   1.210 -0.0522  0.1360  0.1941
   10CHTO   H21 4213   6.622  10.178   1.177  0.0094 -0.0286 -0.0619
   10CHTO    O7 4214   6.433  10.128   1.136 -0.3389  0.0441  0.5205
   10CHTO    H2 4215   6.448  10.107   1.045 -0.6355 -0.3832  0.5670
   10CHTO   C12 4216   6.605   9.956   1.175 -0.3077 -0.1437 -0.3386
   10CHTO   H25 4217   6.515   9.891   1.178 -0.0228 -0.5632 -0.7404
   10CHTO    N3 4218   6.648   9.941   1.034 -0.2634  0.2959  0.1945
   10CHTO   H12 4219   6.748   9.903   1.036 -0.2499  0.2163 -1.2604
   10CHTO   H13 4220   6.584   9.865   0.992  0.4374 -1.6864  2.5892
   10CHTO   C15 4221   6.708   9.904   1.281 -1.1809 -0.2202 -0.1740
   10CHTO   H28 4222   6.804   9.955   1.267 -0.2422 -1.8013  0.3212
   10CHTO   O10 4223   6.736   9.749   1.275 -0.4243  0.1478  0.6031
   10CHTO    H4 4224   6.658   9.697   1.273 -0.7994  0.7535 -1.4239
   10CHTO    O5 4225   6.671   9.928   1.413  0.0748  0.4659  0.2031
   10CHTO   C10 4226   6.645  10.071   1.439  1.2767  0.0113  0.2448
   10CHTO   H23 4227   6.731  10.126   1.401  0.7902  0.8929  0.3888
   10CHTO   C17 4228   6.635  10.090   1.586 -0.5395 -0.1409  0.3602
   10CHTO   O12 4229   6.759  10.051   1.643 -0.2760 -0.7654 -0.0622
   10CHTO    H6 4230   6.804   9.995   1.582  0.1162  0.4536 -0.9391
   11CHTO  H203 4231   6.183   5.209   0.680 -0.0058  1.0709  2.0183
   11CHTO   O82 4232   6.095   5.206   0.712 -0.5206  0.2532  0.5652
   11CHTO  C123 4233   6.101   5.235   0.850  0.0111  0.0486 -0.0821
   11CHTO  H227 4234   6.169   5.165   0.901 -1.9644 -1.3438  0.6984
   11CHTO   O77 4235   6.159   5.371   0.854 -0.2134 -0.0399 -0.6125
   11CHTO  C118 4236   6.218   5.412   0.978 -0.1749 -0.5875  0.0384
   11CHTO  H222 4237   6.272   5.338   1.038 -1.7440 -1.1996  0.7399
   11CHTO  C125 4238   6.313   5.536   0.943 -0.1625  0.1701 -0.3088
   11CHTO   O84 4239   6.388   5.583   1.052 -0.1377 -0.0491  0.0436
   11CHTO  H205 4240   6.415   5.504   1.095 -1.2289 -1.4979 -1.8613
   11CHTO  C114 4241   6.088   5.446   1.060  0.0065  0.4459  0.2124
   11CHTO  H218 4242   6.042   5.527   1.003  0.5989  0.3258 -0.4569
   11CHTO  C116 4243   5.995   5.314   1.068  1.3034 -0.2162 -0.0907
   11CHTO  H220 4244   6.052   5.237   1.124  2.0266  1.0844  1.0088
   11CHTO   O79 4245   5.867   5.347   1.129 -0.0041 -0.1949 -0.5432
   11CHTO  H201 4246   5.843   5.287   1.197  0.4989  0.9782  0.6993
   11CHTO  C120 4247   5.968   5.242   0.925  0.4752  0.0863  0.1149
   11CHTO  H224 4248   5.889   5.299   0.872  1.9209  0.6033 -1.5380
   11CHTO   N21 4249   5.894   5.114   0.937  0.2727 -0.1394 -0.3076
   11CHTO  H211 4250   5.916   5.064   1.030 -0.2944 -2.3341 -1.3053
   11CHTO  H212 4251   5.889   5.053   0.848 -0.8584  1.8198 -1.6162
   11CHTO   O75 4252   6.116   5.490   1.189 -0.5770  0.1403  0.2303
   11CHTO  C112 4253   6.003   5.613   1.254  0.7079  0.3351  0.3450
   11CHTO  H216 4254   5.967   5.585   1.354 -4.2978 -0.5025 -1.5768
   11CHTO   O73 4255   5.889   5.624   1.170 -0.3468 -0.3115 -0.4153
   11CHTO  C113 4256   5.783   5.693   1.234  0.0494 -0.3668  0.1593
   11CHTO  H217 4257   5.766   5.651   1.335  0.8905  0.9212  0.8550
   11CHTO  C124 4258   5.654   5.668   1.158 -0.0976  0.1019 -0.3809
   11CHTO   O83 4259   5.600   5.537   1.157 -0.0714  0.0547  0.6083
   11CHTO  H204 4260   5.651   5.481   1.102  2.1059  1.1147  1.4854
   11CHTO  C109 4261   5.825   5.844   1.228  0.5730 -0.5256  0.0507
   11CHTO  H213 4262   5.828   5.879   1.123  2.2898  1.0333  0.5754
   11CHTO  C110 4263   5.964   5.867   1.294  0.1657  0.6844 -0.1159
   11CHTO  H214 4264   5.946   5.864   1.401 -1.1964 -0.0188 -0.3495
   11CHTO   O78 4265   6.008   6.001   1.265  0.1987  0.2879  0.3224
   11CHTO  H200 4266   5.943   6.062   1.293 -0.1672  1.1207 -2.1708
   11CHTO  C111 4267   6.064   5.752   1.257 -0.0649 -0.1975  0.1131
   11CHTO  H215 4268   6.111   5.775   1.160 -1.4477 -1.1569 -0.7894
   11CHTO   N19 4269   6.176   5.761   1.361 -0.0026  0.5103 -0.0904
   11CHTO  H207 4270   6.270   5.746   1.310 -1.5663 -0.7820 -2.6779
   11CHTO  H208 4271   6.156   5.684   1.434  1.6808 -0.8074 -0.9961
   11CHTO   O74 4272   5.720   5.929   1.302  0.2566  0.2870  0.3778
   11CHTO  C115 4273   5.693   6.052   1.232 -0.1454  0.5211 -0.3233
   11CHTO  H219 4274   5.761   6.067   1.149 -0.7156 -2.6626 -1.4371
   11CHTO   O76 4275   5.543   6.050   1.166  0.3808 -0.6289  0.6152
   11CHTO  C122 4276   5.435   6.021   1.253 -0.0649 -0.1920  0.0980
   11CHTO  H226 4277   5.440   5.917   1.283  1.7805 -0.6418 -1.6610
   11CHTO  C126 4278   5.304   6.040   1.170  0.0840 -0.3854 -0.3873
   11CHTO   O85 4279   5.297   5.964   1.050  0.7824 -0.2625 -0.2178
   11CHTO  H206 4280   5.352   5.999   0.983 -1.1307 -1.2407 -2.3830
   11CHTO  C121 4281   5.444   6.115   1.375 -0.1521 -0.5029 -0.1126
   11CHTO  H225 4282   5.346   6.164   1.394 -0.6391 -0.7063 -1.9804
   11CHTO   O81 4283   5.495   6.033   1.483  0.2385 -0.4842 -0.2880
   11CHTO  H202 4284   5.436   5.960   1.489  0.5962 -0.6868  0.8306
   11CHTO  C119 4285   5.550   6.235   1.349  0.4636 -0.2380 -0.1782
   11CHTO  H223 4286   5.524   6.276   1.251  0.8308 -2.5896 -1.2910
   11CHTO  C117 4287   5.698   6.174   1.332 -0.4377 -0.7608 -0.0339
   11CHTO  H221 4288   5.747   6.142   1.423  1.5713  0.4576 -0.6642
   11CHTO   N20 4289   5.794   6.282   1.280  0.0356 -0.2091 -0.2805
   11CHTO  H209 4290   5.766   6.373   1.332 -0.6213 -1.2914  1.2856
   11CHTO  H210 4291   5.894   6.251   1.305 -0.7145 -0.6786  2.2923
   11CHTO   O80 4292   5.531   6.369   1.449 -0.1533  0.3059 -0.1991
   11CHTO  C103 4293   5.500   6.351   1.585  0.0253 -0.1628 -0.6351
   11CHTO  H190 4294   5.445   6.259   1.603  0.2578 -1.1115 -4.3846
   11CHTO  C101 4295   5.629   6.356   1.679 -0.1805  0.4159 -0.1533
   11CHTO  H188 4296   5.701   6.425   1.635 -0.7391  1.5285  0.6527
   11CHTO   O68 4297   5.675   6.212   1.680 -0.0551  0.3220 -0.0951
   11CHTO  H168 4298   5.719   6.186   1.602 -0.3226 -0.4948  0.0205
   11CHTO   C99 4299   5.596   6.400   1.830 -0.5402 -0.1207  0.0656
   11CHTO  H186 4300   5.528   6.323   1.871 -1.2805  1.2665  1.4931
   11CHTO   N17 4301   5.722   6.412   1.908  0.1811 -0.1456  0.1560
   11CHTO  H174 4302   5.791   6.485   1.869  0.1811 -0.4206 -0.3610
   11CHTO  H175 4303   5.705   6.432   2.013 -1.4497  0.3645 -0.1902
   11CHTO   C97 4304   5.505   6.527   1.828 -0.2817  0.1471  0.6279
   11CHTO  H184 4305   5.551   6.617   1.784 -1.6439  1.5189  1.9414
   11CHTO   O64 4306   5.379   6.491   1.761  0.3995  0.1399 -0.0025
   11CHTO  C104 4307   5.403   6.473   1.620  0.8060  0.0716 -0.9469
   11CHTO  H191 4308   5.445   6.566   1.581  1.4138  0.3138  0.2672
   11CHTO  C108 4309   5.269   6.441   1.555  0.3627  0.3421  0.5572
   11CHTO   O71 4310   5.174   6.550   1.586  0.1018 -0.4266  0.9730
   11CHTO  H171 4311   5.147   6.545   1.675  1.0715  1.5414  1.3941
   11CHTO   O62 4312   5.461   6.556   1.961 -0.0595  0.3003  0.0650
   11CHTO   C91 4313   5.397   6.682   1.983 -0.1121 -0.2715  0.0245
   11CHTO  H178 4314   5.344   6.708   1.891 -1.6097  0.6172  1.1148
   11CHTO   C92 4315   5.506   6.789   2.012  0.1302  0.2165  0.2037
   11CHTO  H179 4316   5.585   6.777   1.936 -0.2445  0.9447 -0.3014
   11CHTO   O66 4317   5.460   6.922   1.975  0.2995 -0.3440  0.0679
   11CHTO  H166 4318   5.470   6.942   1.884 -0.5528 -0.8345 -0.1416
   11CHTO   C93 4319   5.562   6.785   2.157 -0.4788  0.1956  0.0432
   11CHTO  H180 4320   5.618   6.880   2.165  1.0464 -0.7827  1.1498
   11CHTO   N16 4321   5.654   6.679   2.183 -0.3943 -0.4174 -0.1504
   11CHTO  H172 4322   5.606   6.583   2.192  1.1468 -1.3853 -1.7962
   11CHTO  H173 4323   5.733   6.671   2.109  1.5944 -1.4820  2.0013
   11CHTO   C94 4324   5.442   6.791   2.258 -0.6068 -0.1265  0.0089
   11CHTO  H181 4325   5.437   6.700   2.319  0.3409 -0.2227 -0.0512
   11CHTO   O61 4326   5.316   6.785   2.189  0.0325 -0.1022 -0.0388
   11CHTO   C95 4327   5.302   6.672   2.103 -0.0678 -0.3614 -0.4526
   11CHTO  H182 4328   5.314   6.582   2.163  0.5047  2.1107  3.3070
   11CHTO  C106 4329   5.157   6.659   2.059 -0.1726  0.4005  0.2667
   11CHTO   O69 4330   5.135   6.535   1.993  0.5136  0.1924 -0.6369
   11CHTO  H169 4331   5.143   6.542   1.899  1.7547  0.2144 -0.5339
   11CHTO   O63 4332   5.441   6.922   2.335  0.6833  0.0285  0.2334
   11CHTO   C96 4333   5.575   6.956   2.436 -0.2482  0.1506 -0.0088
   11CHTO  H183 4334   5.668   6.953   2.379  1.3162  1.0082  2.4222
   11CHTO   C98 4335   5.592   6.876   2.559  0.1628 -0.5476  0.4525
   11CHTO  H185 4336   5.492   6.871   2.605  0.3701 -2.2857  0.7125
   11CHTO   O67 4337   5.615   6.741   2.512 -0.2125  0.1199  0.4947
   11CHTO  H167 4338   5.595   6.685   2.584 -1.3312  0.9983  0.8782
   11CHTO  C102 4339   5.706   6.911   2.661  0.7051 -0.1977  0.0005
   11CHTO  H189 4340   5.802   6.876   2.620  1.2879  1.9172 -0.5063
   11CHTO   N18 4341   5.686   6.846   2.792  0.1589 -0.2199 -0.2081
   11CHTO  H176 4342   5.678   6.916   2.874 -1.1832 -0.7710  0.1400
   11CHTO  H177 4343   5.603   6.777   2.792  0.9651 -1.3018 -3.4896
   11CHTO  C105 4344   5.726   7.064   2.668  0.3340  0.7299  0.2402
   11CHTO  H192 4345   5.650   7.110   2.730 -0.9633  0.8722 -1.4090
   11CHTO   O65 4346   5.702   7.129   2.545 -0.0131  0.3008  0.3537
   11CHTO  C100 4347   5.582   7.107   2.473  0.1242 -1.0329 -0.0366
   11CHTO  H187 4348   5.489   7.125   2.530  0.0263  0.1166 -0.5424
   11CHTO  C107 4349   5.578   7.206   2.357  0.0896 -0.2392 -0.7860
   11CHTO   O70 4350   5.540   7.341   2.392  0.4427 -0.7154 -0.4745
   11CHTO  H170 4351   5.450   7.340   2.421  1.1929  0.5812  2.0244
   11CHTO   O57 4352   5.870   7.081   2.716  0.1262  0.0252 -0.6027
   11CHTO   C85 4353   5.887   7.170   2.829  0.6523  0.0291 -0.3409
   11CHTO  H157 4354   5.791   7.165   2.885 -0.3347 -1.0074 -2.0712
   11CHTO   C83 4355   5.883   7.325   2.786  0.5707 -0.3299 -0.4422
   11CHTO  H155 4356   5.785   7.343   2.743  0.9262  4.8721  0.5882
   11CHTO   O56 4357   5.988   7.343   2.690 -0.2080 -0.0283  0.5799
   11CHTO  H135 4358   5.992   7.432   2.660 -0.3465 -0.9241 -2.1732
   11CHTO   C81 4359   5.897   7.419   2.917  0.6745 -0.1543 -0.0485
   11CHTO  H153 4360   5.812   7.397   2.982  2.1452 -0.9112  1.6851
   11CHTO   N14 4361   5.881   7.559   2.875 -0.3398 -0.4411  0.3088
   11CHTO  H141 4362   5.838   7.565   2.777  2.9043  2.3621 -1.0232
   11CHTO  H142 4363   5.823   7.614   2.946 -0.0391  1.5869 -0.9770
   11CHTO   C79 4364   6.029   7.376   2.997  0.2685  0.4117 -0.6408
   11CHTO  H151 4365   6.030   7.420   3.096  2.6791 -0.2846 -0.3288
   11CHTO   O52 4366   6.018   7.231   3.029 -0.7602 -0.5420 -0.0226
   11CHTO   C86 4367   6.014   7.138   2.919  0.5137 -0.4849  0.1817
   11CHTO  H158 4368   6.104   7.165   2.860 -0.9202  2.8039 -0.5956
   11CHTO   C90 4369   6.016   6.988   2.964 -0.3066  0.1459 -0.1253
   11CHTO   O60 4370   6.140   6.960   3.031  0.0287  0.6017 -0.0231
   11CHTO  H138 4371   6.165   7.033   3.085  1.4646 -0.2992  0.5751
   11CHTO   O50 4372   6.154   7.402   2.928  0.5837  0.1666 -0.0185
   11CHTO   C73 4373   6.280   7.467   2.947  0.2098  0.1032  1.0398
   11CHTO  H145 4374   6.324   7.464   3.048 -0.0827  4.5802  1.4024
   11CHTO   C74 4375   6.273   7.621   2.914  0.6587  0.0832 -0.1387
   11CHTO  H146 4376   6.198   7.664   2.983  1.7244 -0.8775  1.6604
   11CHTO   O54 4377   6.392   7.686   2.949 -0.2531  0.2166 -0.2524
   11CHTO  H133 4378   6.462   7.640   2.907 -0.1682 -0.8101  0.9628
   11CHTO   C75 4379   6.234   7.644   2.763  0.3289 -0.1086  0.2917
   11CHTO  H147 4380   6.141   7.589   2.741  0.7365 -1.7628  2.5512
   11CHTO   N13 4381   6.211   7.782   2.726 -0.3108  0.2406  0.0580
   11CHTO  H139 4382   6.191   7.798   2.621 -0.1526 -0.9694 -0.1617
   11CHTO  H140 4383   6.297   7.841   2.754  0.1062  0.1039 -0.9190
   11CHTO   C76 4384   6.356   7.583   2.679 -0.0007  0.3409 -0.1668
   11CHTO  H148 4385   6.452   7.624   2.712 -0.0543  1.2247 -1.1056
   11CHTO   O49 4386   6.359   7.436   2.707 -0.1418 -0.3184 -0.1318
   11CHTO   C77 4387   6.392   7.406   2.843 -0.3602 -0.1861  0.6022
   11CHTO  H149 4388   6.490   7.448   2.863  0.0423 -0.6516 -0.3841
   11CHTO   C88 4389   6.406   7.257   2.851  1.0348  0.1436 -0.4284
   11CHTO   O58 4390   6.505   7.217   2.774 -0.0003 -0.4530 -0.1538
   11CHTO  H136 4391   6.478   7.135   2.738 -2.1096 -0.2071  0.8049
   11CHTO   O51 4392   6.340   7.593   2.515  0.2108 -0.0726  0.3395
   11CHTO   C78 4393   6.486   7.566   2.446  0.0326  0.3801 -0.4583
   11CHTO  H150 4394   6.556   7.519   2.518 -0.7037  1.1733  0.7907
   11CHTO   C80 4395   6.536   7.702   2.402  0.4537 -0.0732  0.0352
   11CHTO  H152 4396   6.451   7.743   2.345 -1.0227 -0.9710  1.5307
   11CHTO   O55 4397   6.560   7.779   2.529 -0.3741  0.2377  0.5546
   11CHTO  H134 4398   6.511   7.859   2.536 -2.7447 -1.0493 -0.5369
   11CHTO   C84 4399   6.661   7.699   2.307 -0.2650  0.1570  0.5010
   11CHTO  H156 4400   6.743   7.657   2.365 -0.4372 -1.1130 -0.1426
   11CHTO   N15 4401   6.701   7.837   2.249  0.5848 -0.3114  0.2767
   11CHTO  H143 4402   6.776   7.819   2.175 -1.4182 -0.9389 -1.6607
   11CHTO  H144 4403   6.737   7.903   2.325 -0.1623  0.1352  0.2503
   11CHTO   C87 4404   6.641   7.591   2.193 -0.4012 -0.5545 -0.4200
   11CHTO  H159 4405   6.553   7.621   2.135 -1.1082 -2.8180 -0.5605
   11CHTO   O53 4406   6.608   7.462   2.267 -0.1825  0.3632 -0.6606
   11CHTO   C82 4407   6.480   7.463   2.335 -0.4267  0.1710 -0.1613
   11CHTO  H154 4408   6.397   7.484   2.268 -1.2719 -0.5765  0.6434
   11CHTO   C89 4409   6.460   7.324   2.388  0.3816  0.1399  0.2252
   11CHTO   O59 4410   6.432   7.228   2.279 -0.0081  0.1064 -0.3762
   11CHTO  H137 4411   6.447   7.143   2.315  0.9295  0.3774 -0.1162
   11CHTO   O45 4412   6.779   7.559   2.107  0.3822 -0.9516 -0.0336
   11CHTO   C67 4413   6.738   7.556   1.970 -0.1821 -0.0429  0.0456
   11CHTO  H124 4414   6.641   7.509   1.957  0.7232 -2.0002  0.2303
   11CHTO   C65 4415   6.730   7.704   1.904 -0.0271  0.8212  0.3428
   11CHTO  H122 4416   6.794   7.759   1.972 -0.4785  0.1235  1.3415
   11CHTO   O44 4417   6.592   7.744   1.911  0.2583 -0.4298  0.6808
   11CHTO  H102 4418   6.581   7.831   1.879  0.8476 -0.7128 -0.3138
   11CHTO   C63 4419   6.790   7.715   1.760  0.3960 -0.4653 -0.4301
   11CHTO  H120 4420   6.897   7.708   1.775  0.3120 -0.7804  0.0650
   11CHTO   N11 4421   6.759   7.837   1.681 -0.1307 -0.3157  0.1422
   11CHTO  H108 4422   6.847   7.867   1.629  0.3095 -1.4377  0.2486
   11CHTO  H109 4423   6.677   7.825   1.613 -0.5066 -0.9914  0.7059
   11CHTO   C61 4424   6.755   7.585   1.676  0.0345 -0.3767  0.3216
   11CHTO  H118 4425   6.802   7.586   1.576  1.4111 -2.6101  0.9000
   11CHTO   O40 4426   6.807   7.467   1.734  0.2835  0.2028  0.1626
   11CHTO   C68 4427   6.839   7.467   1.882 -0.0612 -0.0077  0.0455
   11CHTO  H125 4428   6.942   7.508   1.874 -0.6347  1.6953  1.0628
   11CHTO   C72 4429   6.845   7.320   1.935 -0.5383 -0.0202 -0.2504
   11CHTO   O48 4430   6.962   7.260   1.903 -0.1651  0.0449  0.2111
   11CHTO  H105 4431   6.951   7.168   1.920 -1.3290  0.1815  0.2133
   11CHTO   O38 4432   6.616   7.562   1.663 -0.0679  0.4592  0.0932
   11CHTO   C55 4433   6.565   7.477   1.561 -0.3310 -0.0986  0.9322
   11CHTO  H112 4434   6.647   7.414   1.522 -1.0089 -0.8216  0.6610
   11CHTO   C56 4435   6.489   7.559   1.450  0.8959 -0.1042 -0.1063
   11CHTO  H113 4436   6.418   7.622   1.504 -0.0696  1.4819 -3.1171
   11CHTO   O42 4437   6.576   7.652   1.387  0.4292 -0.2215  0.0186
   11CHTO  H100 4438   6.523   7.714   1.341 -0.7057 -0.6910  0.6647
   11CHTO   C57 4439   6.409   7.465   1.354 -0.5092  0.1522 -0.6940
   11CHTO  H114 4440   6.482   7.409   1.294 -1.4267 -0.2816 -1.4162
   11CHTO   N10 4441   6.330   7.541   1.258 -0.1292 -0.2225  0.1362
   11CHTO  H106 4442   6.378   7.555   1.163 -2.2410  0.2447 -0.8839
   11CHTO  H107 4443   6.237   7.488   1.244 -0.2071 -0.2985  0.9025
   11CHTO   C58 4444   6.330   7.362   1.439 -0.6475  0.0421  0.0913
   11CHTO  H115 4445   6.260   7.418   1.505  3.0356 -0.0839  4.3720
   11CHTO   O37 4446   6.415   7.284   1.519 -0.1997  0.2005 -0.3718
   11CHTO   C59 4447   6.477   7.365   1.624 -0.4272 -0.4323 -0.1536
   11CHTO  H116 4448   6.404   7.418   1.685  0.7167 -0.9090  1.6707
   11CHTO   C70 4449   6.560   7.267   1.704 -0.4113 -0.2916 -0.1233
   11CHTO   O46 4450   6.473   7.180   1.778 -0.0197 -0.2781  0.2887
   11CHTO  H103 4451   6.466   7.096   1.737  1.8118 -0.4871  0.3797
   11CHTO   O39 4452   6.253   7.268   1.334  0.1725 -0.2354  0.2345
   11CHTO   C60 4453   6.174   7.161   1.396  0.2356  0.0199  0.5208
   11CHTO  H117 4454   6.243   7.101   1.455 -0.8117 -0.5704  1.1572
   11CHTO   C62 4455   6.060   7.208   1.486 -0.1580  0.3700 -0.2454
   11CHTO  H119 4456   6.095   7.266   1.574  0.4593  0.1922 -0.3770
   11CHTO   O43 4457   5.974   7.298   1.410 -0.0692  0.6157  0.4517
   11CHTO  H101 4458   6.031   7.371   1.396 -0.0896  0.7098  0.8605
   11CHTO   C66 4459   5.983   7.076   1.550 -0.3438  0.1484  0.5252
   11CHTO  H123 4460   6.053   7.001   1.587 -0.7003 -0.9803 -1.0520
   11CHTO   N12 4461   5.894   7.117   1.665 -0.3152  0.0257 -0.0218
   11CHTO  H110 4462   5.956   7.171   1.734  0.1790 -0.5260 -0.0334
   11CHTO  H111 4463   5.808   7.176   1.635 -0.2361  0.4390  0.5606
   11CHTO   C69 4464   5.909   7.002   1.431  0.2956 -0.6291  0.3098
   11CHTO  H126 4465   5.833   7.056   1.372  1.1358 -0.2501 -0.4397
   11CHTO   O41 4466   6.035   6.957   1.324  0.5588  0.1961  0.1862
   11CHTO   C64 4467   6.117   7.068   1.281  0.1929 -0.7127 -0.0628
   11CHTO  H121 4468   6.065   7.134   1.209 -0.6585  0.9333  2.0061
   11CHTO   C71 4469   6.240   7.009   1.206  0.1223  0.3628  0.6278
   11CHTO   O47 4470   6.335   6.928   1.270  0.4479 -0.2250  0.2629
   11CHTO  H104 4471   6.347   6.968   1.354  0.6442 -2.4484  1.3166
   11CHTO   O34 4472   5.847   6.868   1.469 -0.5070  0.2547 -0.6057
   11CHTO   C49 4473   5.693   6.821   1.488  0.2750  0.2088  0.4244
   11CHTO   H91 4474   5.680   6.780   1.588 -0.9491 -0.4510  0.0045
   11CHTO   C47 4475   5.676   6.703   1.381 -0.1993 -0.2034  0.3483
   11CHTO   H89 4476   5.572   6.667   1.396 -0.8494  1.4969  0.0807
   11CHTO   O33 4477   5.768   6.594   1.420 -0.1720 -0.1204 -0.1048
   11CHTO   H70 4478   5.763   6.528   1.354 -0.4591  1.3205 -1.5754
   11CHTO   C45 4479   5.684   6.762   1.236  0.7946  0.4172 -0.0670
   11CHTO   H87 4480   5.779   6.818   1.228  0.4594  1.2339  1.3846
   11CHTO    N8 4481   5.682   6.656   1.130  0.6549  0.2988  0.1789
   11CHTO   H75 4482   5.592   6.660   1.070 -0.9699  0.1692  2.5314
   11CHTO   H76 4483   5.768   6.651   1.066 -0.6906  0.1819 -1.6631
   11CHTO   C43 4484   5.562   6.870   1.213 -0.3541  1.3760  0.3817
   11CHTO   H85 4485   5.574   6.908   1.112  1.5644 -7.7530 -3.3613
   11CHTO   O29 4486   5.565   6.966   1.313 -0.1231 -0.6638 -0.1082
   11CHTO   C50 4487   5.586   6.936   1.459  0.7586  0.3037 -0.3154
   11CHTO   H92 4488   5.626   7.030   1.500 -0.1810  1.0364 -1.0890
   11CHTO   C54 4489   5.446   6.909   1.530 -0.7377  0.3869  0.1801
   11CHTO   O36 4490   5.445   6.928   1.674  0.5299  0.1738  0.0278
   11CHTO   H72 4491   5.421   7.018   1.683 -1.5854 -0.2022 -1.4345
   11CHTO   O27 4492   5.441   6.788   1.211  0.2791  0.3404 -0.6932
   11CHTO   C37 4493   5.293   6.776   1.235  0.6472  0.1077  0.9403
   11CHTO   H79 4494   5.275   6.768   1.343  1.8803  0.7790  1.2108
   11CHTO   C38 4495   5.207   6.898   1.187  0.0737 -0.1330  0.1647
   11CHTO   H80 4496   5.229   6.909   1.080 -2.6662  0.4057 -0.3759
   11CHTO   O31 4497   5.250   7.012   1.258  0.1510  0.6225 -0.6467
   11CHTO   H68 4498   5.318   7.057   1.211  0.7215  1.4890  0.9544
   11CHTO   C39 4499   5.049   6.873   1.201  0.1143 -0.5709  0.3667
   11CHTO   H81 4500   5.026   6.868   1.307 -2.2099 -1.3023 -0.1536
   11CHTO    N7 4501   4.966   6.971   1.130 -0.0043  0.0235 -0.2606
   11CHTO   H73 4502   4.994   7.070   1.165 -2.2168  0.3174  0.7798
   11CHTO   H74 4503   4.860   6.958   1.150  0.1585 -0.1821  0.4881
   11CHTO   C40 4504   5.014   6.731   1.142 -0.1855  0.1835 -0.1563
   11CHTO   H82 4505   5.004   6.719   1.034  0.0839 -0.1629 -0.1427
   11CHTO   O26 4506   5.101   6.631   1.199  0.1002  0.1933 -0.4937
   11CHTO   C41 4507   5.246   6.645   1.161  0.5759  0.7000 -0.3745
   11CHTO   H83 4508   5.252   6.664   1.052 -1.6136  0.5678 -0.5326
   11CHTO   C52 4509   5.321   6.516   1.192  0.0224  0.0016  0.1742
   11CHTO   O35 4510   5.294   6.441   1.124 -0.0467 -0.5442 -0.3731
   11CHTO   H71 4511   5.358   6.440   1.055  0.6993 -2.5825  0.3246
   11CHTO   O28 4512   4.891   6.698   1.195 -0.2347  0.2521  0.1728
   11CHTO   C42 4513   4.814   6.583   1.161 -0.1630  0.6646 -0.0822
   11CHTO   H84 4514   4.870   6.532   1.083  0.1090 -0.6800  0.9842
   11CHTO   C44 4515   4.678   6.630   1.100 -0.1361  1.1546 -0.2605
   11CHTO   H86 4516   4.642   6.714   1.160 -0.1073  1.2620 -0.3947
   11CHTO   O32 4517   4.705   6.701   0.980 -0.2031 -0.3843 -0.0622
   11CHTO   H69 4518   4.637   6.758   0.949 -0.4000 -0.4307  0.2767
   11CHTO   C48 4519   4.571   6.523   1.083  0.3913 -0.3740 -0.2197
   11CHTO   H90 4520   4.604   6.450   1.010  0.4118 -2.7966  2.1329
   11CHTO    N9 4521   4.438   6.581   1.040  0.6493 -0.8178 -0.1633
   11CHTO   H77 4522   4.437   6.688   1.058 -0.5204 -1.1872  2.1392
   11CHTO   H78 4523   4.424   6.559   0.935 -2.3124  0.0482 -0.0118
   11CHTO   C51 4524   4.567   6.434   1.215  0.1810 -0.3953 -0.3449
   11CHTO   H93 4525   4.536   6.499   1.297 -1.2004  0.1195 -1.2591
   11CHTO   O30 4526   4.702   6.390   1.237  0.2530 -0.2196  0.3368
   11CHTO   C46 4527   4.795   6.486   1.274  0.3299 -0.3533 -0.1736
   11CHTO   H88 4528   4.775   6.540   1.367  1.6975 -0.0501 -0.0545
   11CHTO   C53 4529   4.919   6.405   1.303 -0.0850  0.3461 -0.2246
   11CHTO   O72 4530   4.975   6.330   1.199  0.1394 -0.0018  0.3132
   11CHTO  H199 4531   5.046   6.281   1.235  1.4348 -0.1525 -2.3477
   11CHTO   O22 4532   4.496   6.312   1.202  0.3271  0.3445 -0.0213
   11CHTO   C31 4533   4.501   6.206   1.308  0.2823  0.1844  0.1324
   11CHTO   H59 4534   4.583   6.235   1.377 -0.1881  1.2691  0.2465
   11CHTO   C29 4535   4.374   6.194   1.394  0.6821 -1.3227 -0.4527
   11CHTO   H57 4536   4.290   6.172   1.327  0.5816 -0.3247 -0.6597
   11CHTO   O21 4537   4.351   6.319   1.464  0.3090  0.3239 -0.0508
   11CHTO   H37 4538   4.273   6.319   1.515  0.4447  0.8066  0.1554
   11CHTO   C27 4539   4.389   6.074   1.495  0.0074  0.4665 -0.0334
   11CHTO   H55 4540   4.461   6.100   1.574  1.2487  1.2772 -1.4230
   11CHTO    N5 4541   4.261   6.041   1.562  0.3515  0.1417 -0.3910
   11CHTO   H43 4542   4.244   6.094   1.654 -1.2647 -0.4104 -0.3581
   11CHTO   H44 4543   4.178   6.048   1.493  1.4169 -1.3289 -1.8389
   11CHTO   C25 4544   4.460   5.945   1.443  0.2005  0.0064 -0.6216
   11CHTO   H53 4545   4.390   5.887   1.380 -1.2202  0.8319  0.1847
   11CHTO   O17 4546   4.571   5.980   1.353  0.8710  0.0832 -0.0351
   11CHTO   C32 4547   4.538   6.074   1.247 -0.0957 -0.0491  0.4078
   11CHTO   H60 4548   4.464   6.042   1.174  2.4005 -0.6460 -1.9734
   11CHTO   C36 4549   4.670   6.063   1.156  0.4839  0.4739 -0.2686
   11CHTO   O25 4550   4.668   6.157   1.055 -0.2236 -0.1370 -0.6634
   11CHTO   H40 4551   4.741   6.153   0.996  0.3144  0.5922 -0.0633
   11CHTO   O15 4552   4.513   5.848   1.563 -0.0781  0.2711 -0.1911
   11CHTO   C19 4553   4.527   5.711   1.615  0.1721  0.1003  0.2158
   11CHTO   H47 4554   4.630   5.686   1.645 -0.2251 -1.3329  0.4301
   11CHTO   C20 4555   4.429   5.701   1.736 -0.4677 -0.0793 -0.0028
   11CHTO   H48 4556   4.332   5.745   1.710 -0.1188  0.2016 -0.8794
   11CHTO   O19 4557   4.492   5.778   1.839 -0.1604  0.0792  0.4154
   11CHTO   H35 4558   4.549   5.726   1.891 -0.9792 -0.5816  0.6609
   11CHTO   C21 4559   4.415   5.543   1.776 -0.0537  0.1312 -0.8043
   11CHTO   H49 4560   4.511   5.504   1.809 -1.6008 -2.7762  0.3716
   11CHTO    N4 4561   4.320   5.524   1.890 -0.0322  0.1513  0.0035
   11CHTO   H41 4562   4.306   5.621   1.933 -1.2514 -0.4854  1.0752
   11CHTO   H42 4563   4.346   5.451   1.965 -3.4838 -1.4003 -0.2339
   11CHTO   C22 4564   4.369   5.468   1.649  0.3463 -0.3958  0.0329
   11CHTO   H50 4565   4.281   5.515   1.605  0.3793  0.2882  0.6946
   11CHTO   O14 4566   4.478   5.470   1.561 -0.7551 -0.1819 -0.2375
   11CHTO   C23 4567   4.497   5.603   1.501 -0.7345  0.1044  0.2955
   11CHTO   H51 4568   4.407   5.624   1.441  1.1561 -0.1276 -2.7561
   11CHTO   C34 4569   4.614   5.609   1.400  0.5785  0.1831  0.3589
   11CHTO   O23 4570   4.601   5.506   1.304 -0.4999  0.2624  0.2185
   11CHTO   H38 4571   4.686   5.484   1.272 -0.5419 -1.0005  0.9473
   11CHTO   O16 4572   4.335   5.326   1.667 -0.4557 -0.2204 -0.0511
   11CHTO   C24 4573   4.239   5.276   1.556 -0.1336 -0.4381  0.4492
   11CHTO   H52 4574   4.232   5.348   1.474  2.9775 -0.2712  0.2749
   11CHTO   C26 4575   4.104   5.253   1.621  0.0873 -0.3349 -0.2103
   11CHTO   H54 4576   4.119   5.174   1.698  0.1828  0.1516  0.2748
   11CHTO   O20 4577   4.055   5.377   1.689 -0.3865 -0.6672 -0.1028
   11CHTO   H36 4578   4.090   5.393   1.774  0.0019  2.0798 -0.7457
   11CHTO   C30 4579   3.995   5.202   1.519 -0.2571 -0.0684 -0.1600
   11CHTO   H58 4580   3.982   5.286   1.449 -0.1782  1.2575  1.3980
   11CHTO    N6 4581   3.867   5.166   1.592  0.0277  0.2458  0.4208
   11CHTO   H45 4582   3.892   5.080   1.654  0.2008  0.8133  1.1463
   11CHTO   H46 4583   3.830   5.242   1.659 -0.9065 -0.4923  0.7731
   11CHTO   C33 4584   4.051   5.089   1.434  0.1419 -0.0838  0.3760
   11CHTO   H61 4585   4.039   4.995   1.490 -2.0159  0.7935  1.3941
   11CHTO   O18 4586   4.192   5.100   1.400 -0.1609  0.0501 -0.4385
   11CHTO   C28 4587   4.284   5.146   1.498 -0.1024 -0.1803 -0.0914
   11CHTO   H56 4588   4.279   5.072   1.578  0.2855  1.3751  1.4103
   11CHTO   C35 4589   4.426   5.160   1.440 -0.1047  0.5969  0.5937
   11CHTO   O24 4590   4.430   5.238   1.315 -0.1687  0.5576 -0.0105
   11CHTO   H39 4591   4.411   5.330   1.323  0.0470  0.7503 -1.5675
   11CHTO    O9 4592   3.968   5.074   1.318 -0.3709 -0.2658 -0.0196
   11CHTO   C13 4593   4.008   5.179   1.202  0.5913  0.0044 -0.3685
   11CHTO   H26 4594   4.098   5.239   1.229  0.1184  1.0767 -1.1290
   11CHTO   C11 4595   3.886   5.272   1.162 -0.6364 -0.3688  0.9909
   11CHTO   H24 4596   3.862   5.334   1.250 -1.1831 -1.2527  1.4755
   11CHTO    O8 4597   3.780   5.188   1.133  0.4352  0.0275 -0.2363
   11CHTO    H3 4598   3.703   5.232   1.101  1.3423  2.2986  0.5492
   11CHTO    C9 4599   3.929   5.376   1.054 -0.0834  0.8435 -0.5310
   11CHTO   H22 4600   3.983   5.452   1.112 -0.6447 -0.4491  1.7301
   11CHTO    N2 4601   3.814   5.453   1.000 -0.3723  0.3773 -0.0937
   11CHTO   H10 4602   3.847   5.555   1.012  1.1537  0.3064 -3.2350
   11CHTO   H11 4603   3.735   5.436   1.071  1.5273 -2.5112  1.4136
   11CHTO    C7 4604   4.019   5.313   0.948  0.2025  0.6499 -0.3666
   11CHTO   H20 4605   4.123   5.339   0.976  0.4456  0.6440 -1.2467
   11CHTO    O4 4606   4.005   5.167   0.945 -0.1871 -0.1874 -0.1104
   11CHTO   C14 4607   4.054   5.106   1.066  0.7577 -0.1240 -0.4633
   11CHTO   H27 4608   4.164   5.116   1.067  0.8414 -1.0250 -0.1320
   11CHTO   C18 4609   4.018   4.954   1.077 -0.0874  0.0849  0.2249
   11CHTO   O13 4610   4.073   4.872   0.976  0.0676  0.1198 -0.2225
   11CHTO    H7 4611   4.057   4.902   0.888  2.2563 -0.0120 -0.7022
   11CHTO    O2 4612   4.013   5.362   0.796 -0.4065 -0.7786  0.4859
   11CHTO    C1 4613   4.124   5.455   0.762  0.4532 -0.2022  0.6354
   11CHTO   H14 4614   4.216   5.443   0.822  0.6804 -1.2754  0.0903
   11CHTO    C2 4615   4.084   5.607   0.772 -1.0420  0.0558  0.2694
   11CHTO   H15 4616   4.000   5.619   0.702 -0.8479  2.3164  0.3847
   11CHTO    O6 4617   4.042   5.633   0.909  0.1439 -0.0329  0.0622
   11CHTO    H1 4618   4.038   5.724   0.933 -0.2245 -0.3017  1.0671
   11CHTO    C3 4619   4.210   5.697   0.721 -0.2648 -0.8262 -0.3463
   11CHTO   H16 4620   4.296   5.674   0.786 -0.8447 -0.8347  0.4234
   11CHTO    N1 4621   4.179   5.847   0.731 -0.9430 -0.0798  0.4081
   11CHTO    H8 4622   4.088   5.867   0.676 -0.1885 -0.1338 -0.8949
   11CHTO    H9 4623   4.265   5.901   0.694  0.7971 -2.5611  0.7010
   11CHTO    C4 4624   4.261   5.649   0.578 -0.2290  0.2884  0.2984
   11CHTO   H17 4625   4.182   5.673   0.506  1.0307  4.1831  0.0564
   11CHTO    O1 4626   4.288   5.509   0.582  0.9432 -0.0314 -0.3318
   11CHTO    C5 4627   4.172   5.424   0.614 -0.5403  0.6708  0.6458
   11CHTO   H18 4628   4.085   5.447   0.551  0.0727 -1.5560 -1.0630
   11CHTO   C16 4629   4.193   5.279   0.594 -0.0770 -0.9992 -0.5122
   11CHTO   O11 4630   4.302   5.231   0.669 -0.0951  0.5397 -0.5433
   11CHTO    H5 4631   4.384   5.237   0.624  0.2635  0.6034  0.1040
   11CHTO    O3 4632   4.391   5.706   0.553  0.3125 -0.6285  0.1013
   11CHTO    C6 4633   4.431   5.703   0.410 -0.0223  0.5787 -0.7070
   11CHTO   H19 4634   4.381   5.622   0.358  0.4504 -0.7578  0.8598
   11CHTO    C8 4635   4.407   5.841   0.350 -0.1833 -0.4543 -0.4614
   11CHTO   H21 4636   4.438   5.914   0.425 -0.2897  0.2085 -1.0541
   11CHTO    O7 4637   4.264   5.843   0.330 -0.9142  0.6802  0.3054
   11CHTO    H2 4638   4.233   5.930   0.310 -1.2366  0.5144  0.0843
   11CHTO   C12 4639   4.489   5.860   0.219  0.0155  0.2659 -0.4548
   11CHTO   H25 4640   4.445   5.794   0.141  0.5177 -0.8026  0.1519
   11CHTO    N3 4641   4.478   5.996   0.162 -0.0610  0.6936 -0.2647
   11CHTO   H12 4642   4.571   6.021   0.113  2.1824  0.1318  3.4969
   11CHTO   H13 4643   4.460   6.069   0.240  1.2899 -0.4568  1.1572
   11CHTO   C15 4644   4.637   5.819   0.244 -0.7953 -0.4211  0.2669
   11CHTO   H28 4645   4.685   5.882   0.319 -1.6183 -0.3700  0.7542
   11CHTO   O10 4646   4.737   5.810   0.129  0.0600 -0.4622  0.0149
   11CHTO    H4 4647   4.671   5.806   0.062 -0.9403  1.0799  0.8764
   11CHTO    O5 4648   4.650   5.681   0.289  0.9741  0.2631 -0.5074
   11CHTO   C10 4649   4.584   5.661   0.420 -0.6307  0.3069 -0.3212
   11CHTO   H23 4650   4.625   5.735   0.489  0.0930 -1.4669  1.1839
   11CHTO   C17 4651   4.614   5.523   0.478  0.5434  0.3217 -0.1786
   11CHTO   O12 4652   4.753   5.502   0.498  0.1836 -0.5150  0.1082
   11CHTO    H6 4653   4.780   5.413   0.515 -0.0050 -0.5659  0.1360
   12CHTO  H203 4654   5.482   1.967   0.262  1.3668  0.5529  1.1223
   12CHTO   O82 4655   5.504   1.879   0.239 -0.3627  0.5392 -0.6222
   12CHTO  C123 4656   5.446   1.787   0.326  0.1332 -0.7866  0.3195
   12CHTO  H227 4657   5.451   1.832   0.427 -1.4811 -0.4625  0.2717
   12CHTO   O77 4658   5.313   1.777   0.274  0.1511 -0.0718 -0.1877
   12CHTO  C118 4659   5.227   1.692   0.359 -0.8551  0.6213 -0.8774
   12CHTO  H222 4660   5.224   1.715   0.466  0.8412  2.4766 -1.2051
   12CHTO  C125 4661   5.079   1.696   0.304  0.3675 -0.0404  0.5967
   12CHTO   O84 4662   4.986   1.642   0.398 -0.0280  0.2318 -0.1015
   12CHTO  H205 4663   4.954   1.559   0.371  0.0128  0.2505 -0.2070
   12CHTO  C114 4664   5.271   1.542   0.344 -1.1392  0.3003  0.0374
   12CHTO  H218 4665   5.251   1.514   0.240  1.5740  0.0492 -0.4650
   12CHTO  C116 4666   5.423   1.531   0.376 -0.1312 -0.1153 -0.0986
   12CHTO  H220 4667   5.434   1.524   0.486  0.5458 -0.6307 -0.2021
   12CHTO   O79 4668   5.474   1.400   0.342 -0.0885 -0.4023 -0.1102
   12CHTO  H201 4669   5.568   1.398   0.337 -0.0137 -1.2132  1.2967
   12CHTO  C120 4670   5.511   1.650   0.317 -0.8535 -0.1035  0.1584
   12CHTO  H224 4671   5.526   1.621   0.211  1.7235 -0.8716  0.6929
   12CHTO   N21 4672   5.646   1.653   0.374  0.2345 -0.5816 -0.4462
   12CHTO  H211 4673   5.685   1.754   0.376 -1.0542 -0.0849 -0.3485
   12CHTO  H212 4674   5.659   1.600   0.467  3.5027  0.4794 -0.2430
   12CHTO   O75 4675   5.195   1.461   0.435  0.1092 -0.5070  0.0168
   12CHTO  C112 4676   5.168   1.323   0.388  0.6659 -0.3343  0.5420
   12CHTO  H216 4677   5.260   1.275   0.352  0.3870  0.4593 -1.3093
   12CHTO   O73 4678   5.070   1.335   0.286 -0.4957 -0.2125  0.1301
   12CHTO  C113 4679   5.030   1.213   0.230 -0.3515  0.3657 -0.2605
   12CHTO  H217 4680   5.116   1.157   0.186 -0.8330 -1.1276  0.6719
   12CHTO  C124 4681   4.938   1.251   0.113 -0.1589 -0.3672 -0.0125
   12CHTO   O83 4682   5.008   1.284  -0.003 -0.2817 -0.1438  0.0771
   12CHTO  H204 4683   4.946   1.307  -0.069 -1.5088  1.2594  1.6803
   12CHTO  C109 4684   4.950   1.138   0.339 -0.4109  0.1235  0.1972
   12CHTO  H213 4685   4.858   1.194   0.358 -0.3176  0.0093  0.9903
   12CHTO  C110 4686   5.051   1.109   0.457 -0.0048  0.2132  0.7328
   12CHTO  H214 4687   5.132   1.049   0.415 -0.9959 -0.7507  0.1726
   12CHTO   O78 4688   4.987   1.030   0.564 -0.1953 -0.0104 -0.7455
   12CHTO  H200 4689   4.983   0.940   0.538 -0.2724 -0.3519  0.4115
   12CHTO  C111 4690   5.104   1.244   0.513 -0.4081  0.5743  0.4150
   12CHTO  H215 4691   5.024   1.301   0.562  0.3848  4.1595 -2.1613
   12CHTO   N19 4692   5.206   1.221   0.615 -0.6415  0.2760  0.2469
   12CHTO  H207 4693   5.159   1.148   0.679 -0.1590 -0.3933 -0.1472
   12CHTO  H208 4694   5.235   1.314   0.661 -0.3008  0.4212 -0.2479
   12CHTO   O74 4695   4.910   1.000   0.288 -0.5572 -0.0692  0.1872
   12CHTO  C115 4696   4.747   0.962   0.289 -0.3082  0.3400 -0.1262
   12CHTO  H219 4697   4.692   1.029   0.354 -0.4142 -0.9116  1.0879
   12CHTO   O76 4698   4.674   0.973   0.132  0.2241 -0.0880 -0.1413
   12CHTO  C122 4699   4.706   0.862   0.048 -0.1638  0.4530 -0.2971
   12CHTO  H226 4700   4.811   0.863   0.020 -0.4096 -0.3932 -1.3234
   12CHTO  C126 4701   4.630   0.887  -0.087 -0.3748 -0.1769 -0.1464
   12CHTO   O85 4702   4.693   0.823  -0.198 -0.1305  0.6373  0.9031
   12CHTO  H206 4703   4.689   0.873  -0.278  2.2257  0.5195  0.6739
   12CHTO  C121 4704   4.665   0.719   0.118 -0.8387  0.3442  0.6980
   12CHTO  H225 4705   4.569   0.683   0.075  0.0571  1.3763 -2.2865
   12CHTO   O81 4706   4.752   0.613   0.074  0.5524 -0.4619  0.0022
   12CHTO  H202 4707   4.760   0.540   0.133 -0.1322  1.6874  2.8581
   12CHTO  C119 4708   4.646   0.727   0.277 -0.1357 -0.5840  0.0997
   12CHTO  H223 4709   4.549   0.768   0.307  1.3776  1.5827  2.2961
   12CHTO  C117 4710   4.745   0.816   0.354  0.2888  0.1628 -0.6205
   12CHTO  H221 4711   4.846   0.774   0.353 -0.0050 -0.5498 -0.5839
   12CHTO   N20 4712   4.712   0.833   0.499  0.8742  0.3287 -0.1221
   12CHTO  H209 4713   4.738   0.741   0.550 -2.7632  0.4486  2.0764
   12CHTO  H210 4714   4.610   0.861   0.520  0.2300 -3.8756  2.9131
   12CHTO   O80 4715   4.630   0.578   0.332  0.4453  0.1539 -0.2378
   12CHTO  C103 4716   4.490   0.495   0.319 -0.2658 -0.3919 -0.6375
   12CHTO  H190 4717   4.406   0.564   0.308 -0.2113  0.0300  1.4949
   12CHTO  C101 4718   4.486   0.391   0.198 -0.2448 -1.0961 -0.8500
   12CHTO  H188 4719   4.583   0.341   0.203 -0.5647 -1.4778  3.6848
   12CHTO   O68 4720   4.464   0.461   0.059  0.2051 -0.5610  0.0123
   12CHTO  H168 4721   4.525   0.532   0.051 -0.0926 -0.5555 -2.5558
   12CHTO   C99 4722   4.366   0.285   0.226 -0.1148 -0.4107 -0.4804
   12CHTO  H186 4723   4.269   0.337   0.213  0.3121  0.3352 -0.7138
   12CHTO   N17 4724   4.361   0.183   0.118  0.1798  0.1401 -0.0254
   12CHTO  H174 4725   4.265   0.141   0.092  0.4339 -0.0227 -0.7140
   12CHTO  H175 4726   4.438   0.108   0.129  1.0061  0.7719 -1.3615
   12CHTO   C97 4727   4.373   0.222   0.363  0.2428  1.0400 -0.1988
   12CHTO  H184 4728   4.472   0.175   0.375  0.4462  1.5560  0.1846
   12CHTO   O64 4729   4.360   0.328   0.460 -0.2751 -0.2025  0.4845
   12CHTO  C104 4730   4.470   0.421   0.457 -0.3116 -0.1897  0.1455
   12CHTO  H191 4731   4.564   0.379   0.492 -0.1241  1.5996  1.8757
   12CHTO  C108 4732   4.432   0.519   0.564  0.2120 -0.0551  0.0284
   12CHTO   O71 4733   4.302   0.586   0.557 -0.4256  0.7355  0.2284
   12CHTO  H171 4734   4.308   0.655   0.493 -0.5700  1.0582  0.5640
   12CHTO   O62 4735   4.250   0.149   0.393 -0.1800  0.0657 -0.4289
   12CHTO   C91 4736   4.277   0.019   0.444 -0.1639  0.1729 -0.0456
   12CHTO  H178 4737   4.377  -0.001   0.406  0.5295  0.3483  1.6068
   12CHTO   C92 4738   4.167  -0.082   0.396  0.5943 -0.0164  0.5014
   12CHTO  H179 4739   4.073  -0.069   0.452  0.4861  0.2622  0.2614
   12CHTO   O66 4740   4.137  -0.066   0.254  0.3550 -0.7723 -0.0175
   12CHTO  H166 4741   4.072   0.001   0.247  0.1867 -0.8862  0.4120
   12CHTO   C93 4742   4.215  -0.231   0.435 -0.4188 -0.1080 -0.3510
   12CHTO  H180 4743   4.291  -0.268   0.365 -1.9462  0.1296 -2.1517
   12CHTO   N16 4744   4.110  -0.330   0.414 -0.7223  0.0515 -0.2453
   12CHTO  H172 4745   4.148  -0.431   0.402 -0.2802  0.2637 -0.6840
   12CHTO  H173 4746   4.049  -0.332   0.503  2.3401 -2.1275  1.9288
   12CHTO   C94 4747   4.264  -0.242   0.584 -0.0384 -0.4228  0.9649
   12CHTO  H181 4748   4.185  -0.231   0.659  0.9899 -0.6957  2.0890
   12CHTO   O61 4749   4.353  -0.138   0.603  0.0528  0.1821 -0.3380
   12CHTO   C95 4750   4.296  -0.010   0.596  0.2847 -0.1041  0.1289
   12CHTO  H182 4751   4.199  -0.002   0.646 -1.5463 -1.4801 -3.0781
   12CHTO  C106 4752   4.392   0.070   0.674  0.3088 -0.3450 -0.2363
   12CHTO   O69 4753   4.520   0.089   0.620  0.5227 -0.6506  0.2414
   12CHTO  H169 4754   4.569   0.010   0.606  1.7770  0.4498 -1.7021
   12CHTO   O63 4755   4.356  -0.365   0.600  0.2892 -0.1179  0.0144
   12CHTO   C96 4756   4.407  -0.396   0.769  0.1248  0.2032 -0.4155
   12CHTO  H183 4757   4.379  -0.304   0.821  1.7398  0.1732  0.5662
   12CHTO   C98 4758   4.561  -0.419   0.771  0.2245  0.1832  0.5137
   12CHTO  H185 4759   4.574  -0.494   0.691 -0.3732  2.6057 -1.9355
   12CHTO   O67 4760   4.636  -0.311   0.724 -0.2239  0.0690 -0.0806
   12CHTO  H167 4761   4.631  -0.241   0.786  1.3356 -0.0393  0.1752
   12CHTO  C102 4762   4.605  -0.476   0.919  0.2442  0.0105 -0.4785
   12CHTO  H189 4763   4.570  -0.399   0.990 -0.6141  0.9019 -1.8452
   12CHTO   N18 4764   4.748  -0.501   0.949 -0.0838 -0.1811 -0.2785
   12CHTO  H176 4765   4.780  -0.580   0.882 -0.8891 -0.9789  0.2599
   12CHTO  H177 4766   4.808  -0.413   0.937 -1.8113  0.9861 -0.5084
   12CHTO  C105 4767   4.515  -0.601   0.951 -0.2091 -0.3753 -0.5077
   12CHTO  H192 4768   4.546  -0.686   0.890  0.4456 -0.5547  0.0603
   12CHTO   O65 4769   4.374  -0.572   0.945 -1.0739  0.6591 -0.2013
   12CHTO  C100 4770   4.323  -0.514   0.820 -0.1112  1.0125 -0.2748
   12CHTO  H187 4771   4.322  -0.601   0.753  2.4586  1.7257 -1.3005
   12CHTO  C107 4772   4.171  -0.484   0.831 -0.0766  0.7701 -0.4980
   12CHTO   O70 4773   4.087  -0.588   0.885  0.0443  0.2088 -0.0577
   12CHTO  H170 4774   4.119  -0.611   0.970 -0.6775 -0.1117  0.1383
   12CHTO   O57 4775   4.549  -0.651   1.104  0.0606  0.0005 -0.7695
   12CHTO   C85 4776   4.531  -0.576   1.227  0.8896 -0.4493 -0.3436
   12CHTO  H157 4777   4.451  -0.500   1.213  1.0428 -0.7626 -3.1857
   12CHTO   C83 4778   4.655  -0.499   1.271  0.0645 -0.0412  0.5859
   12CHTO  H155 4779   4.665  -0.414   1.203  1.3317 -0.1251  0.6565
   12CHTO   O56 4780   4.772  -0.578   1.269 -0.1133  0.2529  0.1002
   12CHTO  H135 4781   4.764  -0.664   1.304 -0.9976  0.0164 -0.6805
   12CHTO   C81 4782   4.627  -0.437   1.414  0.0999  0.3092 -0.4787
   12CHTO  H153 4783   4.530  -0.387   1.409 -0.1621  0.0812  2.0392
   12CHTO   N14 4784   4.722  -0.329   1.449 -0.6506 -0.0455  0.3665
   12CHTO  H141 4785   4.695  -0.290   1.545  1.3737  1.0145  0.5511
   12CHTO  H142 4786   4.823  -0.363   1.458 -0.3043 -0.1684 -3.1900
   12CHTO   C79 4787   4.612  -0.553   1.517 -0.3952 -0.1397 -0.8819
   12CHTO  H151 4788   4.588  -0.511   1.614  0.4572  0.4018 -0.8990
   12CHTO   O52 4789   4.498  -0.634   1.483 -0.1411  0.3629 -0.0803
   12CHTO   C86 4790   4.497  -0.685   1.346  0.5101 -0.5265  0.0121
   12CHTO  H158 4791   4.569  -0.769   1.343 -0.5005 -1.3637 -2.3974
   12CHTO   C90 4792   4.361  -0.756   1.329  1.2646 -0.0996 -0.0428
   12CHTO   O60 4793   4.251  -0.669   1.349  0.0204 -0.5792  0.3986
   12CHTO  H138 4794   4.179  -0.720   1.380  0.0620 -0.2718  0.9977
   12CHTO   O50 4795   4.732  -0.629   1.551  0.4492  0.1802  0.4469
   12CHTO   C73 4796   4.784  -0.730   1.642  0.0077  0.0799  0.0581
   12CHTO  H145 4797   4.708  -0.794   1.689 -1.1429  0.5532 -1.1166
   12CHTO   C74 4798   4.848  -0.646   1.760 -0.5021 -0.3067  0.7333
   12CHTO  H146 4799   4.771  -0.582   1.807 -1.0987  1.8105 -2.9578
   12CHTO   O54 4800   4.889  -0.735   1.870  0.0448  0.5717  0.5281
   12CHTO  H133 4801   4.825  -0.727   1.939  0.8162 -2.1124  1.6017
   12CHTO   C75 4802   4.963  -0.559   1.691  0.2493  0.8964 -0.1890
   12CHTO  H147 4803   4.922  -0.497   1.609  0.8912 -1.9398 -2.7449
   12CHTO   N13 4804   5.029  -0.459   1.777 -0.1445 -0.0152  0.3789
   12CHTO  H139 4805   4.982  -0.456   1.874  2.6537  0.7939  1.7718
   12CHTO  H140 4806   5.132  -0.485   1.796  0.0293  1.3924  1.4593
   12CHTO   C76 4807   5.070  -0.657   1.624 -0.0717 -0.5781 -0.1022
   12CHTO  H148 4808   5.114  -0.725   1.697 -0.1276  1.0915  1.5160
   12CHTO   O49 4809   5.004  -0.734   1.517 -0.0842 -0.5326 -0.2320
   12CHTO   C77 4810   4.888  -0.812   1.560  0.2355 -0.2836 -0.9584
   12CHTO  H149 4811   4.923  -0.891   1.625 -1.5037 -1.0909 -0.9754
   12CHTO   C88 4812   4.826  -0.873   1.434 -0.3032 -0.1139 -0.5934
   12CHTO   O58 4813   4.700  -0.941   1.469  0.1007  0.5632 -0.2519
   12CHTO  H136 4814   4.653  -0.958   1.389  1.2741  3.3823 -1.5760
   12CHTO   O51 4815   5.187  -0.565   1.545 -0.0843 -0.3648  0.1008
   12CHTO   C78 4816   5.279  -0.637   1.443 -0.1362  0.1298 -0.4293
   12CHTO  H150 4817   5.229  -0.711   1.377 -1.1929  1.1305 -0.7749
   12CHTO   C80 4818   5.387  -0.710   1.527  0.7974 -0.1183  0.8454
   12CHTO  H152 4819   5.447  -0.635   1.583 -0.1090  0.4865  1.0050
   12CHTO   O55 4820   5.325  -0.808   1.616 -0.6693 -0.2581 -0.2737
   12CHTO  H134 4821   5.372  -0.887   1.635 -1.2229 -0.9792 -1.8563
   12CHTO   C84 4822   5.496  -0.778   1.441  0.1533  0.7149 -0.7062
   12CHTO  H156 4823   5.438  -0.862   1.401 -0.7018 -0.1463  2.2185
   12CHTO   N15 4824   5.607  -0.846   1.519 -0.6088  0.0682 -0.3566
   12CHTO  H143 4825   5.635  -0.775   1.594 -0.7806  0.5844 -0.7819
   12CHTO  H144 4826   5.572  -0.935   1.567 -1.1263  0.6633  0.3925
   12CHTO   C87 4827   5.555  -0.677   1.340  0.2953  0.6508  0.4360
   12CHTO  H159 4828   5.618  -0.597   1.378 -0.0262  1.8101 -1.3608
   12CHTO   O53 4829   5.438  -0.612   1.260  0.8079  0.5089 -0.0017
   12CHTO   C82 4830   5.358  -0.535   1.353  0.5190  0.6468 -0.0668
   12CHTO  H154 4831   5.424  -0.475   1.416  3.3906 -3.3876  0.9674
   12CHTO   C89 4832   5.255  -0.438   1.281 -1.4894  0.0703 -0.5636
   12CHTO   O59 4833   5.186  -0.346   1.361  0.3897 -0.6915 -0.0690
   12CHTO  H137 4834   5.197  -0.256   1.339 -0.5148  0.0872  2.4785
   12CHTO   O45 4835   5.651  -0.760   1.224  0.0865  0.5202  0.1771
   12CHTO   C67 4836   5.718  -0.686   1.121  0.1703  0.8306 -0.5481
   12CHTO  H124 4837   5.796  -0.750   1.080  1.1143  1.4577  0.2507
   12CHTO   C65 4838   5.609  -0.654   1.011 -0.2215 -0.1066  0.1629
   12CHTO  H122 4839   5.512  -0.662   1.060 -0.0650 -1.8193  0.2210
   12CHTO   O44 4840   5.622  -0.758   0.908 -0.0908  0.0647 -0.4106
   12CHTO  H102 4841   5.539  -0.796   0.888 -0.3314 -1.4781  3.0665
   12CHTO   C63 4842   5.617  -0.502   0.960 -0.8317  0.3017  0.9202
   12CHTO  H120 4843   5.581  -0.438   1.041 -1.3941  1.6702 -0.3983
   12CHTO   N11 4844   5.533  -0.466   0.838  0.1881  0.4617  0.3972
   12CHTO  H108 4845   5.588  -0.510   0.757 -1.5191 -0.3868 -0.3086
   12CHTO  H109 4846   5.433  -0.503   0.846  0.3251  0.3118  1.5601
   12CHTO   C61 4847   5.769  -0.470   0.933  0.2396 -0.2460  0.2828
   12CHTO  H118 4848   5.771  -0.366   0.897  0.1725  0.4464  2.2162
   12CHTO   O40 4849   5.847  -0.472   1.059 -0.1793 -0.4467 -0.3350
   12CHTO   C68 4850   5.798  -0.554   1.174  0.4206  0.3473 -0.2801
   12CHTO  H125 4851   5.740  -0.479   1.232  0.1578 -1.5625  2.0071
   12CHTO   C72 4852   5.916  -0.591   1.260 -0.0615  0.0542  0.6141
   12CHTO   O48 4853   5.989  -0.477   1.296  0.5336 -0.1028 -0.4075
   12CHTO  H105 4854   6.056  -0.475   1.230  0.0398  0.1942 -0.9018
   12CHTO   O38 4855   5.833  -0.554   0.834  0.0191  0.1862 -0.7075
   12CHTO   C55 4856   5.932  -0.496   0.753  0.2337 -0.3833 -0.8373
   12CHTO  H112 4857   5.972  -0.407   0.803  1.7017 -2.0675  1.0778
   12CHTO   C56 4858   5.878  -0.471   0.604  0.1286  0.3000  0.2891
   12CHTO  H113 4859   5.859  -0.564   0.549 -0.3265  0.0747  0.8249
   12CHTO   O42 4860   5.755  -0.398   0.610 -0.1808  0.0124 -0.0479
   12CHTO  H100 4861   5.754  -0.331   0.544  0.1075  1.0932  1.0310
   12CHTO   C57 4862   5.981  -0.396   0.524 -0.0850 -0.4824  0.7050
   12CHTO  H114 4863   5.993  -0.298   0.570 -0.0483  1.0606 -2.3923
   12CHTO   N10 4864   5.944  -0.370   0.381 -0.2857 -0.8606 -0.7014
   12CHTO  H106 4865   5.838  -0.351   0.371  0.3732  2.9797 -1.2199
   12CHTO  H107 4866   5.997  -0.282   0.346 -0.4985 -0.1152  0.8077
   12CHTO   C58 4867   6.118  -0.473   0.530  0.5329 -0.1671 -0.0270
   12CHTO  H115 4868   6.108  -0.565   0.469  2.0708  0.3787 -1.1178
   12CHTO   O37 4869   6.159  -0.499   0.668  0.6412 -0.5963  0.2559
   12CHTO   C59 4870   6.058  -0.584   0.734  0.3696 -0.0415  0.6549
   12CHTO  H116 4871   6.047  -0.678   0.679  0.5353  0.5659 -0.4322
   12CHTO   C70 4872   6.123  -0.625   0.870  0.3002 -0.2429  0.2449
   12CHTO   O46 4873   6.087  -0.759   0.912 -0.2967  0.0264 -0.3138
   12CHTO  H103 4874   6.062  -0.760   1.003 -0.3841 -0.2680 -0.3417
   12CHTO   O39 4875   6.242  -0.370   0.462  0.2203  0.8457  0.0328
   12CHTO   C60 4876   6.369  -0.444   0.459 -0.2069 -0.2120  0.1226
   12CHTO  H117 4877   6.344  -0.540   0.503 -1.3248 -0.6842 -1.5005
   12CHTO   C62 4878   6.418  -0.470   0.313  0.1607 -0.5314 -0.6730
   12CHTO  H119 4879   6.335  -0.507   0.250 -1.1044  0.2110  0.5179
   12CHTO   O43 4880   6.462  -0.339   0.266  0.7008 -0.1886 -0.2951
   12CHTO  H101 4881   6.392  -0.300   0.218 -1.5334 -3.0137  0.5179
   12CHTO   C66 4882   6.541  -0.565   0.322 -0.0396 -0.5576  0.2611
   12CHTO  H123 4883   6.512  -0.657   0.372 -1.1738 -1.0069 -1.2308
   12CHTO   N12 4884   6.606  -0.599   0.193 -0.4234 -0.9912 -0.2997
   12CHTO  H110 4885   6.575  -0.699   0.166 -0.1206 -0.8836 -1.0640
   12CHTO  H111 4886   6.583  -0.526   0.116 -1.1278  0.1763  0.9799
   12CHTO   C69 4887   6.654  -0.518   0.423  0.2065 -0.0092  0.5511
   12CHTO  H126 4888   6.706  -0.428   0.383  0.0963  0.5805  1.7326
   12CHTO   O41 4889   6.584  -0.469   0.555 -0.2482 -0.2446 -0.4511
   12CHTO   C64 4890   6.478  -0.376   0.548 -0.5560  0.3697  0.7170
   12CHTO  H121 4891   6.513  -0.283   0.500 -1.1459  2.1987  3.6827
   12CHTO   C71 4892   6.434  -0.347   0.688  0.1484  0.0520  0.4562
   12CHTO   O47 4893   6.324  -0.260   0.688  1.1212 -0.4130  0.2195
   12CHTO  H104 4894   6.341  -0.187   0.744 -1.9487  0.0238  0.6805
   12CHTO   O34 4895   6.761  -0.643   0.448  0.8108  0.1998 -0.4966
   12CHTO   C49 4896   6.814  -0.713   0.582  0.4289 -0.5194  0.1195
   12CHTO   H91 4897   6.882  -0.647   0.636 -1.4187 -0.3392  2.3217
   12CHTO   C47 4898   6.897  -0.838   0.539  0.5593 -0.1219 -0.6406
   12CHTO   H89 4899   6.937  -0.879   0.634  0.0642 -0.6639 -0.6592
   12CHTO   O33 4900   7.002  -0.804   0.451  0.2239 -0.2607 -0.3064
   12CHTO   H70 4901   6.975  -0.739   0.388 -0.7814  1.7551  2.1180
   12CHTO   C45 4902   6.800  -0.942   0.459 -0.1691  0.4032  0.8469
   12CHTO   H87 4903   6.800  -0.918   0.352 -3.8870  1.6770  1.0424
   12CHTO    N8 4904   6.862  -1.081   0.472  0.1083  0.1781  0.4383
   12CHTO   H75 4905   6.854  -1.114   0.574 -1.2970  0.7547  0.5328
   12CHTO   H76 4906   6.808  -1.156   0.415  1.6716  0.6817 -1.7606
   12CHTO   C43 4907   6.654  -0.937   0.527  0.3814 -0.1493  0.1553
   12CHTO   H85 4908   6.602  -0.859   0.471  3.2706 -0.6043 -3.3658
   12CHTO   O29 4909   6.664  -0.903   0.665  0.4137 -0.3950 -0.1813
   12CHTO   C50 4910   6.711  -0.768   0.677  0.0120 -0.8089 -0.6903
   12CHTO   H92 4911   6.615  -0.717   0.661  0.2977 -0.5701 -1.6436
   12CHTO   C54 4912   6.756  -0.735   0.821  0.2489  0.0862 -0.6039
   12CHTO   O36 4913   6.874  -0.803   0.854  0.2461 -0.3068 -0.2483
   12CHTO   H72 4914   6.884  -0.815   0.946  0.5153 -3.7202 -0.6552
   12CHTO   O27 4915   6.570  -1.055   0.503  0.0701  0.1083  0.1906
   12CHTO   C37 4916   6.443  -1.100   0.561  0.0856  0.0203 -0.2979
   12CHTO   H79 4917   6.403  -1.181   0.498  2.2242 -0.8109 -0.6056
   12CHTO   C38 4918   6.463  -1.148   0.708 -0.3777 -0.0650  0.1757
   12CHTO   H80 4919   6.510  -1.068   0.767 -1.9127  0.1138  1.1953
   12CHTO   O31 4920   6.557  -1.258   0.707  0.3999  0.3498  0.6642
   12CHTO   H68 4921   6.649  -1.243   0.706  0.6012 -0.9589 -0.3265
   12CHTO   C39 4922   6.323  -1.179   0.767  1.1882 -0.0080 -0.3041
   12CHTO   H81 4923   6.284  -1.253   0.696  0.3923  1.2576 -1.2212
   12CHTO    N7 4924   6.325  -1.231   0.912 -0.7536 -0.4414 -0.6402
   12CHTO   H73 4925   6.252  -1.308   0.929 -0.2426 -1.0585 -1.2323
   12CHTO   H74 4926   6.427  -1.259   0.933 -0.5602  0.3486 -0.4787
   12CHTO   C40 4927   6.224  -1.052   0.760 -1.3593 -0.4388 -0.6610
   12CHTO   H82 4928   6.260  -0.970   0.821 -0.9555 -0.1741 -1.2503
   12CHTO   O26 4929   6.216  -1.016   0.624 -0.0315 -0.5604 -0.1540
   12CHTO   C41 4930   6.345  -0.979   0.564 -0.2620 -0.0002  0.1333
   12CHTO   H83 4931   6.399  -0.890   0.600 -0.4481  0.3082 -0.3414
   12CHTO   C52 4932   6.324  -0.938   0.420 -0.0398  0.0803  0.1099
   12CHTO   O35 4933   6.286  -0.783   0.407  0.0339  0.2347 -0.0454
   12CHTO   H71 4934   6.254  -0.775   0.319  0.1849 -0.2803 -0.1472
   12CHTO   O28 4935   6.102  -1.075   0.821  0.6225  0.1842 -0.6375
   12CHTO   C42 4936   5.983  -1.151   0.781 -0.3023  0.2893  0.0477
   12CHTO   H84 4937   6.003  -1.251   0.819  1.0873  0.9776  1.1477
   12CHTO   C44 4938   5.949  -1.164   0.626 -0.5703  0.3132  0.4589
   12CHTO   H86 4939   5.960  -1.065   0.582 -1.0888  0.4183  0.5586
   12CHTO   O32 4940   6.056  -1.240   0.570 -0.2856 -0.5724  0.5118
   12CHTO   H69 4941   6.118  -1.185   0.526  2.1695 -4.2159 -0.8387
   12CHTO   C48 4942   5.803  -1.209   0.589  0.4494 -0.3883 -0.3398
   12CHTO   H90 4943   5.803  -1.314   0.616 -0.0847 -0.6908 -1.4921
   12CHTO    N9 4944   5.774  -1.197   0.442  0.4903  0.7578  0.7495
   12CHTO   H77 4945   5.841  -1.136   0.384  1.0515 -0.1984  0.3856
   12CHTO   H78 4946   5.764  -1.295   0.397 -0.9761  2.2664 -2.3534
   12CHTO   C51 4947   5.701  -1.134   0.687 -0.1745  0.1950 -0.2583
   12CHTO   H93 4948   5.697  -1.029   0.659  0.0391 -0.0735 -1.3287
   12CHTO   O30 4949   5.738  -1.153   0.816  0.4341 -0.0256  0.1372
   12CHTO   C46 4950   5.868  -1.095   0.861 -0.0476 -0.0749 -0.1460
   12CHTO   H88 4951   5.873  -0.989   0.837  0.2300  0.0888  0.6140
   12CHTO   C53 4952   5.868  -1.112   1.016 -0.2703 -0.4892  0.0584
   12CHTO   O72 4953   5.747  -1.061   1.069 -0.4290 -0.4530 -0.2038
   12CHTO  H199 4954   5.740  -0.967   1.066  1.1419 -0.2579  1.5798
   12CHTO   O22 4955   5.566  -1.191   0.672  0.1385 -0.4192 -0.1137
   12CHTO   C31 4956   5.449  -1.111   0.723  0.0772 -0.3196  0.0344
   12CHTO   H59 4957   5.359  -1.164   0.687 -0.2386  0.0408  0.3023
   12CHTO   C29 4958   5.445  -1.112   0.880 -0.1537 -0.4457  0.4685
   12CHTO   H57 4959   5.539  -1.061   0.906 -0.7373  0.4357  0.8604
   12CHTO   O21 4960   5.454  -1.245   0.934 -0.0376 -0.1349 -0.2510
   12CHTO   H37 4961   5.470  -1.308   0.866  0.0962 -1.0890  0.6563
   12CHTO   C27 4962   5.317  -1.030   0.936  0.2515  0.2289 -0.5499
   12CHTO   H55 4963   5.228  -1.092   0.920  0.5597 -0.5929  0.7736
   12CHTO    N5 4964   5.335  -1.011   1.086  0.2953 -0.3082 -0.0844
   12CHTO   H43 4965   5.261  -0.939   1.119  1.4276  0.8090  0.0317
   12CHTO   H44 4966   5.436  -0.979   1.105  0.3981  0.8258 -2.3466
   12CHTO   C25 4967   5.294  -0.892   0.847  0.3428  0.3337 -0.9913
   12CHTO   H53 4968   5.366  -0.815   0.880 -0.9535  0.4330  1.7884
   12CHTO   O17 4969   5.304  -0.918   0.703 -0.0463 -0.1276  0.2656
   12CHTO   C32 4970   5.436  -0.970   0.665  0.5497 -0.6721 -0.1837
   12CHTO   H60 4971   5.516  -0.908   0.707 -2.0280  1.7923  1.2583
   12CHTO   C36 4972   5.439  -0.970   0.508 -0.8880  0.0012 -0.6251
   12CHTO   O25 4973   5.409  -0.847   0.436 -0.2108  0.3960 -0.3117
   12CHTO   H40 4974   5.317  -0.833   0.429 -0.3555  1.2780  2.5202
   12CHTO   O15 4975   5.151  -0.842   0.876 -0.2986 -0.0748  0.0736
   12CHTO   C19 4976   5.020  -0.798   0.824 -0.5905  0.0850 -0.0740
   12CHTO   H47 4977   5.004  -0.706   0.883  1.8902  0.0316  0.7590
   12CHTO   C20 4978   5.028  -0.756   0.670 -0.3067  0.5017  0.0938
   12CHTO   H48 4979   5.067  -0.838   0.608 -0.9582  0.1165  0.1816
   12CHTO   O19 4980   5.124  -0.648   0.662  0.2229  0.2327 -0.6416
   12CHTO   H35 4981   5.081  -0.573   0.698 -0.7998 -1.3153  1.5120
   12CHTO   C21 4982   4.891  -0.710   0.616 -0.2097  0.1220 -0.5622
   12CHTO   H49 4983   4.868  -0.615   0.663 -0.0673  0.1379 -0.5216
   12CHTO    N4 4984   4.894  -0.692   0.469 -0.1014  0.4261 -0.1145
   12CHTO   H41 4985   4.950  -0.770   0.421  0.1769  0.8603 -0.5056
   12CHTO   H42 4986   4.945  -0.598   0.455  1.9138 -0.7184 -0.5616
   12CHTO   C22 4987   4.787  -0.812   0.666 -0.5878 -0.4946 -0.7795
   12CHTO   H50 4988   4.800  -0.907   0.614 -1.3855 -1.0720  0.0745
   12CHTO   O14 4989   4.788  -0.831   0.812 -0.1476  0.4778 -0.0831
   12CHTO   C23 4990   4.905  -0.892   0.862 -0.6378  0.2351  0.2589
   12CHTO   H51 4991   4.917  -0.993   0.820 -2.9363 -0.2099  0.5819
   12CHTO   C34 4992   4.898  -0.925   1.014  0.4280  0.1526  0.4431
   12CHTO   O23 4993   4.797  -1.017   1.047 -0.1854  0.2584 -0.1421
   12CHTO   H38 4994   4.821  -1.062   1.126 -0.4944 -0.3640 -0.3950
   12CHTO   O16 4995   4.652  -0.764   0.656  0.2561 -0.1177  0.2529
   12CHTO   C24 4996   4.528  -0.879   0.578  0.6990  0.3826  0.1275
   12CHTO   H52 4997   4.569  -0.974   0.545 -3.8784 -0.8770 -2.2776
   12CHTO   C26 4998   4.469  -0.821   0.453 -0.2539  0.4530 -0.2861
   12CHTO   H54 4999   4.436  -0.717   0.475 -1.0200 -0.0947  1.2329
   12CHTO   O20 5000   4.569  -0.807   0.357  0.1115  0.1888 -0.7629
   12CHTO   H36 5001   4.621  -0.731   0.371 -1.3750  0.7610  2.0099
   12CHTO   C30 5002   4.341  -0.896   0.402 -0.2678  0.1310  0.1440
   12CHTO   H58 5003   4.377  -0.988   0.354  2.4868  1.0410  0.3516
   12CHTO    N6 5004   4.264  -0.820   0.299 -0.6470  0.0472  0.2023
   12CHTO   H45 5005   4.287  -0.868   0.206 -1.1175 -2.0397  1.1469
   12CHTO   H46 5006   4.295  -0.717   0.289 -1.4924  0.0212 -3.3066
   12CHTO   C33 5007   4.250  -0.936   0.519  0.2138 -0.1742 -0.1624
   12CHTO   H61 5008   4.203  -0.844   0.557  2.3937  1.1950 -0.6862
   12CHTO   O18 5009   4.319  -0.992   0.625  0.3902  0.0788  0.1446
   12CHTO   C28 5010   4.419  -0.904   0.682 -0.2009  0.7839  0.9962
   12CHTO   H56 5011   4.370  -0.807   0.692 -0.6700  1.0618 -3.2264
   12CHTO   C35 5012   4.465  -0.968   0.812  0.2396  0.1722 -0.3125
   12CHTO   O24 5013   4.348  -0.987   0.892 -0.2059 -0.4647  0.2993
   12CHTO   H39 5014   4.320  -0.907   0.931 -0.9321 -0.2748 -0.6052
   12CHTO    O9 5015   4.144  -1.026   0.472 -0.2249  0.3193 -0.4960
   12CHTO   C13 5016   4.200  -1.170   0.458 -0.3204 -0.3141  0.3683
   12CHTO   H26 5017   4.310  -1.170   0.451 -0.5163 -0.5109 -3.6870
   12CHTO   C11 5018   4.135  -1.225   0.323  0.2723 -0.0341 -0.6919
   12CHTO   H24 5019   4.177  -1.165   0.241 -3.2300  2.7753 -0.5483
   12CHTO    O8 5020   3.999  -1.202   0.320 -0.1103 -0.7005  0.3886
   12CHTO    H3 5021   3.958  -1.225   0.402 -0.0298  0.5526  0.7799
   12CHTO    C9 5022   4.174  -1.373   0.303  0.2355  0.0310  0.0635
   12CHTO   H22 5023   4.284  -1.372   0.308  0.2779 -2.3611  0.0069
   12CHTO    N2 5024   4.151  -1.436   0.163  0.0288 -0.4164  0.3900
   12CHTO   H10 5025   4.196  -1.533   0.148  0.9072 -0.1536  1.2882
   12CHTO   H11 5026   4.184  -1.368   0.086 -0.6142  1.2794  1.5928
   12CHTO    C7 5027   4.123  -1.454   0.421 -0.1427  0.2669 -0.0125
   12CHTO   H20 5028   4.170  -1.554   0.412  1.8258  0.9425  2.2506
   12CHTO    O4 5029   4.166  -1.403   0.550 -0.5490  0.1524  0.2269
   12CHTO   C14 5030   4.169  -1.264   0.586 -0.1122 -0.9298  0.0284
   12CHTO   H27 5031   4.249  -1.255   0.663 -0.1262  0.8513 -0.1513
   12CHTO   C18 5032   4.038  -1.226   0.648  0.4659 -0.7754  0.0345
   12CHTO   O13 5033   4.026  -1.309   0.767 -0.4785 -0.1178  0.2432
   12CHTO    H7 5034   3.958  -1.373   0.756 -1.0817  0.3187  1.3873
   12CHTO    O2 5035   3.960  -1.476   0.418 -0.4334 -0.5124  0.6743
   12CHTO    C1 5036   3.900  -1.555   0.516 -0.1324 -0.5509 -0.8618
   12CHTO   H14 5037   3.930  -1.520   0.617  0.5339  1.2450 -1.6592
   12CHTO    C2 5038   3.942  -1.701   0.502  0.2704  0.9933  0.3988
   12CHTO   H15 5039   3.923  -1.719   0.395  0.1188 -0.8190  0.7141
   12CHTO    O6 5040   4.083  -1.719   0.533  0.0162  0.3432  0.3297
   12CHTO    H1 5041   4.111  -1.805   0.508  0.6839  1.4878 -3.0311
   12CHTO    C3 5042   3.855  -1.795   0.602 -0.4124  0.6876  0.5915
   12CHTO   H16 5043   3.894  -1.788   0.704 -2.9490  2.6010  1.4852
   12CHTO    N1 5044   3.860  -1.943   0.558 -0.0203 -0.1551 -0.4714
   12CHTO    H8 5045   3.900  -1.985   0.649  0.3106  1.4297  0.1334
   12CHTO    H9 5046   3.924  -1.950   0.472  2.6834  0.2359  1.4481
   12CHTO    C4 5047   3.702  -1.754   0.617 -0.8706 -1.1757  0.2876
   12CHTO   H17 5048   3.649  -1.791   0.529 -0.8382  1.4500 -0.8910
   12CHTO    O1 5049   3.691  -1.609   0.619  0.2950  0.0280  0.5897
   12CHTO    C5 5050   3.741  -1.542   0.500  0.2606  0.4847 -0.1831
   12CHTO   H18 5051   3.700  -1.590   0.411  0.7402 -0.7525  0.2523
   12CHTO   C16 5052   3.682  -1.391   0.507  0.3491  0.2513 -0.8331
   12CHTO   O11 5053   3.744  -1.305   0.414  0.8177  0.0547  0.1991
   12CHTO    H5 5054   3.679  -1.284   0.350  1.1756 -0.9345 -0.5147
   12CHTO    O3 5055   3.650  -1.803   0.742  0.0463 -0.8138 -0.2312
   12CHTO    C6 5056   3.513  -1.843   0.753  0.2234  0.1964  0.5121
   12CHTO   H19 5057   3.452  -1.793   0.679  0.2244  0.8028  0.9243
   12CHTO    C8 5058   3.507  -1.995   0.739  0.5189 -0.2852  0.1201
   12CHTO   H21 5059   3.585  -2.037   0.803  0.3975 -1.5840 -0.5804
   12CHTO    O7 5060   3.547  -2.021   0.601  0.5053 -0.0752  0.3137
   12CHTO    H2 5061   3.477  -2.024   0.539  0.8237 -0.0233 -0.0565
   12CHTO   C12 5062   3.362  -2.056   0.768 -0.8853  0.2547 -0.6706
   12CHTO   H25 5063   3.300  -2.017   0.685  3.0076  0.7517 -3.4839
   12CHTO    N3 5064   3.349  -2.197   0.750  0.2664  0.3969 -0.0459
   12CHTO   H12 5065   3.324  -2.216   0.646 -1.3370 -0.2039  0.4465
   12CHTO   H13 5066   3.443  -2.247   0.768  0.5513 -0.3193 -3.1479
   12CHTO   C15 5067   3.312  -1.998   0.911 -0.0198  0.3040 -0.0255
   12CHTO   H28 5068   3.365  -2.040   0.996 -0.4032  1.7959  0.9861
   12CHTO   O10 5069   3.168  -2.023   0.927  0.6261  0.3529  0.1920
   12CHTO    H4 5070   3.141  -1.988   1.010 -2.2988 -0.8472 -0.2111
   12CHTO    O5 5071   3.327  -1.853   0.907  0.2832  0.0803 -0.4678
   12CHTO   C10 5072   3.464  -1.801   0.895  0.2233  0.5733 -0.2485
   12CHTO   H23 5073   3.533  -1.845   0.967  0.6738  1.1419 -0.3274
   12CHTO   C17 5074   3.454  -1.649   0.909 -0.4161  0.2654 -0.3411
   12CHTO   O12 5075   3.426  -1.602   1.038 -0.1507  0.0670 -0.6839
   12CHTO    H6 5076   3.390  -1.515   1.036  2.1220  1.0477 -0.6128
   13CHTO  H203 5077   7.147   4.438   1.865 -1.2734 -0.1440  0.8851
   13CHTO   O82 5078   7.191   4.458   1.945  0.7788 -0.4653 -0.1122
   13CHTO  C123 5079   7.099   4.528   2.039 -0.4772 -0.3321  0.2419
   13CHTO  H227 5080   7.159   4.596   2.101  1.3419 -1.0473 -0.6957
   13CHTO   O77 5081   6.995   4.601   1.962 -0.2881 -0.4238 -0.4927
   13CHTO  C118 5082   6.923   4.694   2.050 -0.1835 -0.4465 -0.1439
   13CHTO  H222 5083   6.991   4.759   2.107  0.5077 -0.9509 -0.3737
   13CHTO  C125 5084   6.824   4.782   1.959 -0.6140 -0.4367  0.2876
   13CHTO   O84 5085   6.898   4.880   1.882  0.6698  0.1690 -0.1077
   13CHTO  H205 5086   6.926   4.828   1.809 -1.1711 -0.4528 -0.3998
   13CHTO  C114 5087   6.835   4.606   2.145 -0.0082 -0.1369 -0.4925
   13CHTO  H218 5088   6.767   4.547   2.084  0.7716  0.8020 -2.3362
   13CHTO  C116 5089   6.923   4.509   2.223  0.3817 -0.3936 -0.3711
   13CHTO  H220 5090   6.995   4.565   2.286  0.2899 -0.0502 -0.5684
   13CHTO   O79 5091   6.835   4.434   2.307 -0.1176 -0.3053 -0.0285
   13CHTO  H201 5092   6.831   4.486   2.384  1.1768 -0.4237  0.1377
   13CHTO  C120 5093   7.023   4.422   2.130 -0.0307  0.3683 -0.6465
   13CHTO  H224 5094   6.957   4.353   2.074 -1.9656 -0.5042  2.5955
   13CHTO   N21 5095   7.117   4.345   2.214 -0.2779  0.1580 -0.2137
   13CHTO  H211 5096   7.213   4.332   2.166  0.7425 -0.2814  1.9128
   13CHTO  H212 5097   7.070   4.249   2.229  1.3881 -0.8086 -1.1140
   13CHTO   O75 5098   6.765   4.706   2.223  0.0041  0.4270  0.2170
   13CHTO  C112 5099   6.596   4.673   2.258 -0.0241  0.4671 -0.7974
   13CHTO  H216 5100   6.577   4.568   2.228 -1.6256  0.0403  1.5329
   13CHTO   O73 5101   6.517   4.766   2.179  0.0188 -0.0283 -0.0306
   13CHTO  C113 5102   6.382   4.743   2.179  0.4074 -0.4084  0.1873
   13CHTO  H217 5103   6.360   4.645   2.132 -2.4025 -1.1119  2.8481
   13CHTO  C124 5104   6.315   4.848   2.094 -0.0850  0.6575 -0.4232
   13CHTO   O83 5105   6.332   4.828   1.956  0.4052 -0.4970  0.1343
   13CHTO  H204 5106   6.368   4.907   1.920 -3.0596  0.2632 -1.8777
   13CHTO  C109 5107   6.325   4.754   2.323  0.0451 -0.1531 -0.0853
   13CHTO  H213 5108   6.342   4.860   2.349  0.9806  0.2981 -2.3681
   13CHTO  C110 5109   6.404   4.662   2.423 -0.2230  0.2182 -0.2329
   13CHTO  H214 5110   6.383   4.556   2.411  1.8499 -0.2265 -0.0610
   13CHTO   O78 5111   6.357   4.703   2.552  0.1056  0.1848  0.2187
   13CHTO  H200 5112   6.421   4.691   2.620 -0.8841 -1.6725  0.8622
   13CHTO  C111 5113   6.561   4.681   2.412 -0.4312 -0.1839  0.3137
   13CHTO  H215 5114   6.585   4.782   2.448 -0.8950  0.0147  0.0760
   13CHTO   N19 5115   6.642   4.593   2.497 -0.1288  0.0321  0.6602
   13CHTO  H207 5116   6.710   4.530   2.442 -2.4619 -1.1131 -1.0359
   13CHTO  H208 5117   6.675   4.646   2.585 -0.9032  2.4637 -0.4854
   13CHTO   O74 5118   6.182   4.713   2.326 -0.4079  0.0835  0.6896
   13CHTO  C115 5119   6.060   4.840   2.302 -0.3392  0.4575 -0.3287
   13CHTO  H219 5120   6.109   4.934   2.275 -0.3593  0.3411 -0.7669
   13CHTO   O76 5121   5.973   4.809   2.192 -0.3632  0.6632 -0.0546
   13CHTO  C122 5122   5.863   4.890   2.160 -0.2923 -0.3552  0.0805
   13CHTO  H226 5123   5.803   4.833   2.089  1.4626  0.0444 -1.7603
   13CHTO  C126 5124   5.895   5.031   2.093 -0.1286 -0.2753 -0.4763
   13CHTO   O85 5125   5.949   5.005   1.962  0.0935  0.1992  0.5168
   13CHTO  H206 5126   5.887   4.973   1.899  0.6024 -0.9869  0.5913
   13CHTO  C121 5127   5.777   4.916   2.290  0.0154  0.2602 -0.1283
   13CHTO  H225 5128   5.699   4.991   2.265  0.0826 -0.4812 -2.6252
   13CHTO   O81 5129   5.705   4.801   2.329 -0.1229  0.0195 -0.4364
   13CHTO  H202 5130   5.654   4.760   2.262  0.6248  0.0941 -1.0616
   13CHTO  C119 5131   5.864   4.960   2.413  0.6218 -0.3875  0.7988
   13CHTO  H223 5132   5.905   5.057   2.383 -2.1868  0.6308  0.0929
   13CHTO  C117 5133   5.984   4.868   2.439 -0.3868  0.9007 -0.1806
   13CHTO  H221 5134   5.961   4.771   2.484 -2.0151 -0.2295 -3.2289
   13CHTO   N20 5135   6.086   4.928   2.524  0.3567  0.5423 -0.2188
   13CHTO  H209 5136   6.125   5.023   2.491  1.8426  0.6261  1.6789
   13CHTO  H210 5137   6.145   4.863   2.587  0.0458  1.0187  0.5711
   13CHTO   O80 5138   5.779   5.002   2.559  0.2452 -0.0776 -0.1119
   13CHTO  C103 5139   5.706   5.169   2.568 -0.4904 -0.5088 -0.0022
   13CHTO  H190 5140   5.687   5.185   2.674 -2.1695  1.3996 -0.5756
   13CHTO  C101 5141   5.777   5.292   2.499 -0.4113  0.1335 -0.1395
   13CHTO  H188 5142   5.817   5.267   2.401 -0.3249 -0.0178 -0.0654
   13CHTO   O68 5143   5.889   5.321   2.585 -0.2732 -0.0175  0.5227
   13CHTO  H168 5144   5.955   5.374   2.544  0.5936 -1.7623 -0.3532
   13CHTO   C99 5145   5.681   5.422   2.486  0.4271 -0.0710 -0.3338
   13CHTO  H186 5146   5.638   5.436   2.587  0.3748  1.8676 -0.5952
   13CHTO   N17 5147   5.751   5.547   2.437 -0.2857 -0.1460  0.1778
   13CHTO  H174 5148   5.833   5.570   2.503  0.1304  0.5563 -0.5700
   13CHTO  H175 5149   5.796   5.522   2.343  2.6592 -0.5255  1.6369
   13CHTO   C97 5150   5.565   5.376   2.398  0.2819  0.1190  0.0738
   13CHTO  H184 5151   5.595   5.347   2.297 -0.4472 -2.4176  0.5497
   13CHTO   O64 5152   5.499   5.269   2.464  0.0295 -0.3124 -0.1509
   13CHTO  C104 5153   5.565   5.145   2.494  0.0863  0.3474 -0.5522
   13CHTO  H191 5154   5.577   5.076   2.411  0.1824 -1.2026  0.7082
   13CHTO  C108 5155   5.469   5.076   2.593 -0.2910 -0.3788 -0.9196
   13CHTO   O71 5156   5.504   4.941   2.619 -0.8862 -0.3038  0.3550
   13CHTO  H171 5157   5.557   4.929   2.696 -0.5388  1.8196  0.4595
   13CHTO   O62 5158   5.467   5.473   2.380 -0.0464  0.4009 -0.2116
   13CHTO   C91 5159   5.359   5.444   2.286  0.7840 -0.1037  0.4731
   13CHTO  H178 5160   5.357   5.338   2.260 -2.7817  0.1609 -0.6139
   13CHTO   C92 5161   5.377   5.511   2.151 -0.0904  0.1435 -0.3494
   13CHTO  H179 5162   5.370   5.620   2.164  0.1745  0.0434  0.7158
   13CHTO   O66 5163   5.507   5.475   2.093  0.8181  0.3191 -0.7704
   13CHTO  H166 5164   5.517   5.382   2.094  1.4303  0.3867 -0.4826
   13CHTO   C93 5165   5.258   5.455   2.058 -0.2382 -0.2804 -0.5135
   13CHTO  H180 5166   5.273   5.348   2.037  0.0935 -0.7091  1.7960
   13CHTO   N16 5167   5.258   5.518   1.924 -0.1642  0.2682 -0.1571
   13CHTO  H172 5168   5.352   5.503   1.874 -0.2147  1.9309 -0.7865
   13CHTO  H173 5169   5.235   5.623   1.927 -1.1898  0.0412  0.3164
   13CHTO   C94 5170   5.113   5.467   2.124  0.1619 -0.9101 -0.5633
   13CHTO  H181 5171   5.081   5.571   2.130 -0.9102 -1.3205  1.0572
   13CHTO   O61 5172   5.119   5.411   2.253  0.4499 -0.0782 -0.7971
   13CHTO   C95 5173   5.216   5.469   2.341  0.1190  0.1081 -0.1499
   13CHTO  H182 5174   5.199   5.577   2.347 -0.6470  0.0231 -0.8695
   13CHTO  C106 5175   5.183   5.411   2.480  0.5754 -0.3042  0.3754
   13CHTO   O69 5176   5.225   5.277   2.496  0.0689  0.2454 -0.5684
   13CHTO  H169 5177   5.252   5.269   2.586  0.0768  1.7143 -0.4340
   13CHTO   O63 5178   4.990   5.369   2.030  0.0916  0.5516 -0.0915
   13CHTO   C96 5179   4.840   5.408   2.080  0.4573  0.5564  0.2628
   13CHTO  H183 5180   4.765   5.357   2.019 -1.0953 -2.4660  4.4059
   13CHTO   C98 5181   4.798   5.556   2.083 -0.3236 -0.5072 -0.1482
   13CHTO  H185 5182   4.872   5.610   2.144 -0.1385 -1.5566  0.5758
   13CHTO   O67 5183   4.820   5.607   1.950  0.1724  0.1281 -0.3974
   13CHTO  H167 5184   4.811   5.700   1.951  0.4193  0.1505  0.3929
   13CHTO  C102 5185   4.653   5.575   2.138  0.0821 -0.6330 -0.4945
   13CHTO  H189 5186   4.587   5.521   2.069 -0.6767 -1.0929  0.5769
   13CHTO   N18 5187   4.602   5.713   2.126 -0.0954 -0.2648 -0.1141
   13CHTO  H176 5188   4.505   5.714   2.079  1.2246 -1.1019 -2.9247
   13CHTO  H177 5189   4.661   5.780   2.065  2.3063 -1.2658  1.0591
   13CHTO  C105 5190   4.642   5.510   2.276  0.1447 -0.4601 -0.1280
   13CHTO  H192 5191   4.703   5.565   2.348  0.5831 -1.1450  0.0328
   13CHTO   O65 5192   4.687   5.372   2.279  0.4374 -0.4150  0.4633
   13CHTO  C100 5193   4.819   5.348   2.226  1.4026 -0.1820  0.7849
   13CHTO  H187 5194   4.885   5.394   2.301  0.8348 -0.6301  1.5654
   13CHTO  C107 5195   4.848   5.202   2.223  0.6103  0.2131 -0.4829
   13CHTO   O70 5196   4.857   5.152   2.359 -0.1135 -0.0411 -0.7207
   13CHTO  H170 5197   4.776   5.116   2.391  1.1069 -1.6911  0.6576
   13CHTO   O57 5198   4.475   5.542   2.333 -0.1887  0.1533  0.2103
   13CHTO   C85 5199   4.359   5.479   2.276  0.6077  0.6215  0.3883
   13CHTO  H157 5200   4.386   5.446   2.173 -1.5681 -0.9968  0.3001
   13CHTO   C83 5201   4.239   5.585   2.254  0.4626 -0.3351 -0.1679
   13CHTO  H155 5202   4.276   5.665   2.190 -2.2958 -0.5981 -2.1364
   13CHTO   O56 5203   4.221   5.653   2.383 -0.5553 -0.2158 -0.0296
   13CHTO  H135 5204   4.290   5.716   2.392 -0.6756  0.1858 -1.6961
   13CHTO   C81 5205   4.113   5.518   2.193 -0.2704 -0.0433  0.0819
   13CHTO  H153 5206   4.131   5.479   2.092 -2.3797 -1.5990  0.2837
   13CHTO   N14 5207   4.013   5.622   2.160 -0.2012 -0.1867 -0.2738
   13CHTO  H141 5208   3.939   5.580   2.095 -1.2277 -0.1616  0.8627
   13CHTO  H142 5209   3.968   5.636   2.256 -0.6789  0.2670 -0.5561
   13CHTO   C79 5210   4.066   5.397   2.284 -0.1975  0.4056  0.0678
   13CHTO  H151 5211   3.990   5.342   2.229 -0.8567  0.4585  0.9143
   13CHTO   O52 5212   4.170   5.294   2.313 -0.2030  0.7255 -0.1147
   13CHTO   C86 5213   4.297   5.353   2.361  0.4046 -1.5326  0.4328
   13CHTO  H158 5214   4.285   5.384   2.467 -0.2057  1.5767 -0.4887
   13CHTO   C90 5215   4.399   5.242   2.361  0.3302 -0.1359 -0.4336
   13CHTO   O60 5216   4.413   5.172   2.240 -0.0025 -0.1559  0.1562
   13CHTO  H138 5217   4.500   5.141   2.220  0.2067 -0.7304  1.8897
   13CHTO   O50 5218   4.009   5.430   2.410  0.3228  0.8397  0.1475
   13CHTO   C73 5219   3.905   5.361   2.485  0.0269  0.6248 -0.1062
   13CHTO  H145 5220   3.877   5.270   2.430 -1.2563 -0.3956  2.1612
   13CHTO   C74 5221   3.784   5.461   2.503  0.9745 -0.6574 -1.0101
   13CHTO  H146 5222   3.744   5.494   2.406  1.4652  1.8420 -0.4052
   13CHTO   O54 5223   3.678   5.384   2.563  0.2310 -0.3668 -0.6348
   13CHTO  H133 5224   3.596   5.428   2.551  0.9434  0.8717 -1.0467
   13CHTO   C75 5225   3.835   5.581   2.592  0.4089  0.3244  0.2247
   13CHTO  H147 5226   3.918   5.630   2.539  1.2411 -1.5062 -0.1891
   13CHTO   N13 5227   3.725   5.685   2.610 -0.0367  0.1738 -0.2208
   13CHTO  H139 5228   3.732   5.737   2.516 -0.2707 -0.1436 -0.4133
   13CHTO  H140 5229   3.632   5.633   2.624  0.1816 -1.1583 -3.2772
   13CHTO   C76 5230   3.881   5.531   2.735 -0.5950 -0.0835  0.6621
   13CHTO  H148 5231   3.792   5.488   2.782 -1.3522  0.2487 -0.4598
   13CHTO   O49 5232   3.985   5.431   2.721  0.3046 -0.1374  0.6184
   13CHTO   C77 5233   3.944   5.325   2.632  0.0571 -0.3077 -0.2971
   13CHTO  H149 5234   3.867   5.268   2.684  0.8315  0.5848  1.9008
   13CHTO   C88 5235   4.061   5.229   2.623  0.0261  0.3976 -0.6107
   13CHTO   O58 5236   4.089   5.178   2.748  0.0176  0.0288  0.1236
   13CHTO  H136 5237   4.143   5.103   2.730  0.0712 -0.1205  0.8697
   13CHTO   O51 5238   3.938   5.645   2.843 -0.1432  0.1544  0.2143
   13CHTO   C78 5239   4.106   5.674   2.863 -0.1524  0.1313  0.2328
   13CHTO  H150 5240   4.125   5.766   2.922 -2.8190 -0.0110  1.3786
   13CHTO   C80 5241   4.171   5.687   2.724 -0.0381  0.2992  0.3804
   13CHTO  H152 5242   4.146   5.602   2.658  1.4058 -0.1958  0.4645
   13CHTO   O55 5243   4.122   5.812   2.677 -0.1399 -0.2712 -0.1175
   13CHTO  H134 5244   4.180   5.840   2.609  1.2623  1.3695  1.7110
   13CHTO   C84 5245   4.328   5.691   2.749  0.5646 -0.7265  0.2998
   13CHTO  H156 5246   4.345   5.778   2.813 -1.1182  1.8971 -2.6738
   13CHTO   N15 5247   4.408   5.715   2.622 -0.5293  0.4874 -0.2866
   13CHTO  H143 5248   4.501   5.665   2.638 -1.9903 -2.9671 -1.9366
   13CHTO  H144 5249   4.422   5.820   2.608 -0.0342  0.9059  3.0501
   13CHTO   C87 5250   4.369   5.563   2.822 -0.4155 -0.0722  0.2007
   13CHTO  H159 5251   4.331   5.476   2.769 -1.8806 -0.2574  1.5069
   13CHTO   O53 5252   4.301   5.570   2.959  0.0422  0.2774  0.6889
   13CHTO   C82 5253   4.164   5.551   2.944  0.0482 -0.3073  0.4456
   13CHTO  H154 5254   4.149   5.452   2.902 -0.9310 -0.7074  1.6854
   13CHTO   C89 5255   4.114   5.548   3.089  0.6436 -0.4162  0.0441
   13CHTO   O59 5256   4.143   5.449   3.181 -0.0820 -0.2543 -0.1423
   13CHTO  H137 5257   4.062   5.402   3.187  0.3927 -0.9957  0.5831
   13CHTO   O45 5258   4.525   5.551   2.846 -0.0396 -0.1877  0.5347
   13CHTO   C67 5259   4.583   5.420   2.827 -0.7374  0.5809 -0.0096
   13CHTO  H124 5260   4.521   5.357   2.764  0.5320 -0.9746  0.2484
   13CHTO   C65 5261   4.726   5.425   2.766 -0.0652  0.7582  0.0340
   13CHTO  H122 5262   4.709   5.479   2.673 -0.7688 -0.3618 -0.4918
   13CHTO   O44 5263   4.764   5.296   2.722  0.0300  0.4799 -0.0191
   13CHTO  H102 5264   4.735   5.273   2.636 -1.5057  0.7902  0.3995
   13CHTO   C63 5265   4.821   5.503   2.859  0.2072  0.3023  0.1299
   13CHTO  H120 5266   4.768   5.588   2.902  1.3965  0.3861  1.4975
   13CHTO   N11 5267   4.941   5.569   2.799  0.6164  0.0971  0.7453
   13CHTO  H108 5268   5.033   5.528   2.834  0.7088  0.1446  0.5554
   13CHTO  H109 5269   4.949   5.561   2.693 -1.4550  1.3597  0.4478
   13CHTO   C61 5270   4.849   5.407   2.979 -0.2585  0.1278 -0.7024
   13CHTO  H118 5271   4.906   5.465   3.054  1.7860  0.1152 -2.2122
   13CHTO   O40 5272   4.724   5.378   3.035  0.0076 -0.0295 -0.3403
   13CHTO   C68 5273   4.594   5.338   2.966  0.0036  0.1073  0.7031
   13CHTO  H125 5274   4.499   5.367   3.016  0.0921  1.9077 -0.1238
   13CHTO   C72 5275   4.586   5.187   2.954 -0.3728 -0.0505  0.3345
   13CHTO   O48 5276   4.465   5.146   2.887  0.5294  0.8450 -0.1514
   13CHTO  H105 5277   4.417   5.099   2.953 -2.8000  1.3305 -2.1057
   13CHTO   O38 5278   4.917   5.287   2.946 -0.0909 -0.3249 -0.3520
   13CHTO   C55 5279   4.993   5.218   3.054 -0.0174  0.0399  0.1817
   13CHTO  H112 5280   5.020   5.119   3.016  0.0519 -0.5923  1.8225
   13CHTO   C56 5281   4.919   5.208   3.200  0.7147  0.2701  0.0817
   13CHTO  H113 5282   4.874   5.304   3.228 -0.9188 -0.1911 -0.8977
   13CHTO   O42 5283   4.809   5.114   3.188 -0.4442 -0.1318 -0.6460
   13CHTO  H100 5284   4.730   5.138   3.232  0.2906 -0.0085  0.6430
   13CHTO   C57 5285   5.024   5.167   3.311  0.4760 -0.0629  0.8398
   13CHTO  H114 5286   5.040   5.061   3.289  0.6058  0.1535 -0.0774
   13CHTO   N10 5287   4.967   5.179   3.448  0.0905  0.3168  0.3718
   13CHTO  H106 5288   4.900   5.263   3.443  0.5494  0.6404 -0.5711
   13CHTO  H107 5289   4.915   5.087   3.470  2.2381 -1.1203 -0.3496
   13CHTO   C58 5290   5.149   5.251   3.296 -0.6230 -0.4167  0.3514
   13CHTO  H115 5291   5.126   5.359   3.305  0.1346 -0.1874 -0.5172
   13CHTO   O37 5292   5.211   5.222   3.169  0.1896 -0.3986 -0.0917
   13CHTO   C59 5293   5.141   5.278   3.063 -0.2331 -0.0106  0.0973
   13CHTO  H116 5294   5.135   5.387   3.076 -0.4617  0.0097 -0.1952
   13CHTO   C70 5295   5.215   5.244   2.930  0.1180  0.4237 -0.5985
   13CHTO   O46 5296   5.164   5.307   2.811 -0.3364 -0.7322  0.0895
   13CHTO  H103 5297   5.225   5.297   2.741 -0.7922 -1.4031 -0.2210
   13CHTO   O39 5298   5.262   5.216   3.403  0.1838 -0.9183  0.2127
   13CHTO   C60 5299   5.364   5.326   3.410  0.3870  0.8819  0.2650
   13CHTO  H117 5300   5.361   5.384   3.318 -0.8313  0.6010  0.1180
   13CHTO   C62 5301   5.327   5.429   3.516 -0.1077 -0.3330  0.1845
   13CHTO  H119 5302   5.220   5.450   3.493 -0.3142 -1.6221 -0.1040
   13CHTO   O43 5303   5.331   5.368   3.643 -0.3649 -0.2498  0.0167
   13CHTO  H101 5304   5.292   5.432   3.700 -0.2688 -1.0807  1.0135
   13CHTO   C66 5305   5.439   5.549   3.498  1.6470 -0.2535  0.1484
   13CHTO  H123 5306   5.427   5.603   3.404 -1.2512 -0.2448  0.5017
   13CHTO   N12 5307   5.418   5.663   3.588 -0.1206 -0.2927 -0.0766
   13CHTO  H110 5308   5.344   5.729   3.545  1.4844  1.2673 -0.5326
   13CHTO  H111 5309   5.510   5.714   3.612 -0.0733 -1.1246  1.5518
   13CHTO   C69 5310   5.580   5.491   3.501  0.4876  0.2257 -0.0779
   13CHTO  H126 5311   5.592   5.459   3.606  0.3245  1.5629  0.3644
   13CHTO   O41 5312   5.594   5.363   3.397 -0.0991 -0.5696 -0.3763
   13CHTO   C64 5313   5.505   5.270   3.428  0.3279 -0.2218  0.7572
   13CHTO  H121 5314   5.517   5.236   3.533 -1.9088  2.4560  1.9499
   13CHTO   C71 5315   5.535   5.154   3.324  0.2106  0.2419  0.1599
   13CHTO   O47 5316   5.667   5.102   3.346 -0.9063  0.6027 -0.2381
   13CHTO  H104 5317   5.711   5.091   3.264 -1.2168  0.5066 -0.3901
   13CHTO   O34 5318   5.692   5.595   3.473 -1.0623 -0.2834  0.1279
   13CHTO   C49 5319   5.842   5.589   3.461  0.4920  0.3043  0.8835
   13CHTO   H91 5320   5.867   5.490   3.423 -1.4186 -1.0066  2.9340
   13CHTO   C47 5321   5.903   5.626   3.602 -0.3145 -0.4724 -0.1294
   13CHTO   H89 5322   6.011   5.610   3.583 -0.0762 -1.8143  2.1926
   13CHTO   O33 5323   5.861   5.537   3.702 -0.2061  0.3591  0.6168
   13CHTO   H70 5324   5.774   5.553   3.735 -1.4428  0.2170 -2.3838
   13CHTO   C45 5325   5.875   5.777   3.649 -0.0826  0.3547 -1.2472
   13CHTO   H87 5326   5.779   5.766   3.701  0.9616 -0.4065  0.5419
   13CHTO    N8 5327   5.984   5.807   3.746  0.3138  0.4538  0.1425
   13CHTO   H75 5328   6.005   5.718   3.804  0.9880  0.4984 -0.0301
   13CHTO   H76 5329   6.071   5.848   3.697 -0.4366  0.9482 -0.7875
   13CHTO   C43 5330   5.856   5.865   3.514 -0.4819 -0.1955  0.1632
   13CHTO   H85 5331   5.751   5.860   3.486 -0.8793  1.7555  1.1685
   13CHTO   O29 5332   5.943   5.808   3.415  0.0096  0.7372 -0.3857
   13CHTO   C50 5333   5.908   5.680   3.358  0.3997  0.1044 -0.0531
   13CHTO   H92 5334   5.832   5.707   3.284 -1.3105 -1.7762  0.9738
   13CHTO   C54 5335   6.035   5.616   3.300  0.6487  0.2839 -0.3032
   13CHTO   O36 5336   6.097   5.697   3.200 -0.1314 -0.4892  0.0578
   13CHTO   H72 5337   6.168   5.654   3.157 -1.0770 -1.8906 -0.1356
   13CHTO   O27 5338   5.882   6.000   3.532  0.4145 -0.7648  0.6451
   13CHTO   C37 5339   5.789   6.111   3.531  0.4694 -0.1749 -0.9862
   13CHTO   H79 5340   5.694   6.070   3.493  0.1233  1.3257 -1.8160
   13CHTO   C38 5341   5.763   6.163   3.677 -0.2927 -0.3742 -0.3223
   13CHTO   H80 5342   5.862   6.184   3.721 -0.3356  0.2946 -0.5495
   13CHTO   O31 5343   5.696   6.054   3.742 -0.2941 -0.2090 -0.1339
   13CHTO   H68 5344   5.706   6.047   3.834 -0.7501  2.1224  0.1349
   13CHTO   C39 5345   5.673   6.287   3.678 -0.7964 -0.5468  0.3229
   13CHTO   H81 5346   5.577   6.259   3.635 -2.3761  2.0957  1.9528
   13CHTO    N7 5347   5.649   6.338   3.810  0.1766  0.5684  0.2926
   13CHTO   H73 5348   5.630   6.259   3.881 -0.0083  1.6714  1.4933
   13CHTO   H74 5349   5.571   6.412   3.810  0.4446  0.8563  0.2409
   13CHTO   C40 5350   5.738   6.398   3.585  0.2332 -0.0090 -0.2159
   13CHTO   H82 5351   5.835   6.423   3.628  0.5350  0.5827 -1.2016
   13CHTO   O26 5352   5.753   6.342   3.450  0.4460 -0.3420 -0.0923
   13CHTO   C41 5353   5.843   6.222   3.442  0.7392 -0.7052 -0.4448
   13CHTO   H83 5354   5.946   6.240   3.476  0.0103 -0.4629  1.7637
   13CHTO   C52 5355   5.857   6.184   3.295 -0.3883 -0.2712  0.2978
   13CHTO   O35 5356   5.945   6.295   3.233  0.3230  0.7493 -0.3090
   13CHTO   H71 5357   5.993   6.257   3.161  0.3134 -1.3121  0.7423
   13CHTO   O28 5358   5.665   6.525   3.565 -0.2156 -0.1940 -0.5671
   13CHTO   C42 5359   5.730   6.644   3.504 -0.2738 -0.7215  0.5953
   13CHTO   H84 5360   5.814   6.599   3.450 -1.8792 -1.9712 -0.9530
   13CHTO   C44 5361   5.786   6.747   3.602 -0.3898  0.3295  0.2991
   13CHTO   H86 5362   5.705   6.774   3.670 -1.7917 -0.1743 -1.1489
   13CHTO   O32 5363   5.896   6.697   3.676 -0.4481 -0.1124 -0.0300
   13CHTO   H69 5364   5.869   6.639   3.745  0.1351  1.3429  1.4281
   13CHTO   C48 5365   5.828   6.884   3.533  0.3853  0.1474  0.0663
   13CHTO   H90 5366   5.925   6.874   3.485  0.8910 -0.1399  1.1330
   13CHTO    N9 5367   5.856   6.992   3.634  0.5714 -0.4311 -0.0967
   13CHTO   H77 5368   5.873   7.087   3.584  2.1224  0.2622  1.6995
   13CHTO   H78 5369   5.941   6.969   3.697  0.1171 -2.7490 -0.3001
   13CHTO   C51 5370   5.723   6.921   3.426 -0.0126 -0.6653 -0.7413
   13CHTO   H93 5371   5.627   6.942   3.472  0.5020 -0.1097  0.0985
   13CHTO   O30 5372   5.719   6.823   3.329 -0.3123  0.4665  0.2348
   13CHTO   C46 5373   5.638   6.709   3.394  0.9660  0.0944 -0.5494
   13CHTO   H88 5374   5.543   6.742   3.435  2.3089  1.4030  1.5783
   13CHTO   C53 5375   5.613   6.615   3.286 -0.3536 -0.0023 -0.4675
   13CHTO   O72 5376   5.494   6.657   3.221  0.7779 -0.1243 -0.2342
   13CHTO  H199 5377   5.418   6.639   3.272 -0.0034 -0.5808 -1.5172
   13CHTO   O22 5378   5.766   7.025   3.343 -0.1196  0.0284 -0.5885
   13CHTO   C31 5379   5.670   7.101   3.266 -0.9164  0.4175  0.2696
   13CHTO   H59 5380   5.728   7.148   3.185 -2.7004  0.6327 -0.9152
   13CHTO   C29 5381   5.549   7.027   3.196  0.1790 -0.2476 -0.0752
   13CHTO   H57 5382   5.493   6.971   3.272 -1.4354  3.0398  1.2898
   13CHTO   O21 5383   5.596   6.934   3.100 -0.1646  0.4323 -0.3359
   13CHTO   H37 5384   5.628   6.858   3.145  0.5642  0.9468  0.0240
   13CHTO   C27 5385   5.449   7.137   3.134  0.2140  0.7248 -0.2419
   13CHTO   H55 5386   5.501   7.196   3.057  1.8609 -1.2582 -0.6888
   13CHTO    N5 5387   5.328   7.077   3.078  0.4379  0.1317 -0.2502
   13CHTO   H43 5388   5.328   7.092   2.971 -0.3547  0.1129 -0.2590
   13CHTO   H44 5389   5.324   6.971   3.095  0.6954 -0.3153 -2.7506
   13CHTO   C25 5390   5.408   7.246   3.248 -0.4798  0.4880 -0.2723
   13CHTO   H53 5391   5.348   7.202   3.329  1.9182  1.3311  2.0559
   13CHTO   O17 5392   5.532   7.306   3.302 -0.3042 -0.2886  0.5602
   13CHTO   C32 5393   5.629   7.216   3.364  0.7097 -0.1084  0.2888
   13CHTO   H60 5394   5.575   7.167   3.445  1.3010 -1.4259 -0.0903
   13CHTO   C36 5395   5.748   7.307   3.407 -0.1521 -0.1894  0.0858
   13CHTO   O25 5396   5.838   7.334   3.298  0.0139  0.5676  0.4089
   13CHTO   H40 5397   5.875   7.420   3.295  1.3063  0.0013 -2.5096
   13CHTO   O15 5398   5.325   7.372   3.186 -0.1890  0.3320 -0.5872
   13CHTO   C19 5399   5.217   7.439   3.263  0.5482  1.2151 -0.2187
   13CHTO   H47 5400   5.247   7.417   3.367  0.2141  1.4724 -0.0685
   13CHTO   C20 5401   5.217   7.593   3.254  0.1057 -0.3255  0.2604
   13CHTO   H48 5402   5.208   7.627   3.150 -2.4350 -0.7345  0.3024
   13CHTO   O19 5403   5.341   7.643   3.305 -0.2087  0.2369  0.1275
   13CHTO   H35 5404   5.380   7.701   3.242  0.7087 -1.1372 -0.6027
   13CHTO   C21 5405   5.095   7.660   3.327  0.0089 -0.1078  0.3813
   13CHTO   H49 5406   5.103   7.642   3.434  2.0706  1.0163  0.4568
   13CHTO    N4 5407   5.085   7.805   3.315 -0.7611 -0.6002  0.4751
   13CHTO   H41 5408   5.050   7.835   3.217  3.3457  4.2964  0.3233
   13CHTO   H42 5409   5.022   7.843   3.394 -0.6623  0.6903 -0.0530
   13CHTO   C22 5410   4.966   7.582   3.276  0.1619  0.8436 -0.5577
   13CHTO   H50 5411   4.954   7.591   3.169 -0.4632 -0.2285 -0.5885
   13CHTO   O14 5412   4.983   7.441   3.315  0.3501 -0.1524  0.5780
   13CHTO   C23 5413   5.082   7.369   3.245 -0.0474 -0.8626 -0.1755
   13CHTO   H51 5414   5.058   7.353   3.139 -0.0662  0.2020 -0.3353
   13CHTO   C34 5415   5.093   7.232   3.315  0.0630 -0.4611 -0.6848
   13CHTO   O23 5416   4.969   7.162   3.315  0.0638 -0.4789  0.1152
   13CHTO   H38 5417   4.967   7.106   3.391  1.6777  0.5247  0.9288
   13CHTO   O16 5418   4.846   7.620   3.347  0.1576  0.3541  0.1345
   13CHTO   C24 5419   4.718   7.636   3.253  0.1599  0.5118 -0.7480
   13CHTO   H52 5420   4.741   7.646   3.146  0.1437 -0.7054 -0.8757
   13CHTO   C26 5421   4.647   7.764   3.296  0.2375  0.4070  0.4818
   13CHTO   H54 5422   4.668   7.774   3.405  1.0539  0.0035  0.3625
   13CHTO   O20 5423   4.712   7.865   3.222  0.7742 -0.1290 -0.2854
   13CHTO   H36 5424   4.766   7.921   3.275  0.2775  0.1046 -0.0306
   13CHTO   C30 5425   4.490   7.777   3.267  0.0723  0.4528 -0.0765
   13CHTO   H58 5426   4.475   7.814   3.164 -3.3994 -1.2228 -0.2244
   13CHTO    N6 5427   4.436   7.890   3.347  0.7536  0.1281  0.2228
   13CHTO   H45 5428   4.345   7.858   3.396  0.8069 -0.2112  0.1038
   13CHTO   H46 5429   4.409   7.978   3.291 -1.8605  0.9627  2.6851
   13CHTO   C33 5430   4.420   7.641   3.293  0.1105 -0.0713 -0.4752
   13CHTO   H61 5431   4.424   7.615   3.400  1.8358  0.6183 -0.3453
   13CHTO   O18 5432   4.489   7.538   3.215  0.2858 -0.1868  0.4819
   13CHTO   C28 5433   4.621   7.514   3.269 -0.8241 -0.0448 -0.5571
   13CHTO   H56 5434   4.615   7.498   3.377  2.1788  0.2271 -0.3129
   13CHTO   C35 5435   4.687   7.399   3.195  0.0311  0.0407  0.1531
   13CHTO   O24 5436   4.625   7.279   3.232 -0.0150 -0.4563 -0.2028
   13CHTO   H39 5437   4.554   7.261   3.174  0.2158 -0.7848 -0.3784
   13CHTO    O9 5438   4.281   7.643   3.263  0.1573  0.1055 -0.6062
   13CHTO   C13 5439   4.199   7.543   3.347 -0.5185 -0.5614 -0.2510
   13CHTO   H26 5440   4.271   7.479   3.403  0.9691 -1.0446 -2.6238
   13CHTO   C11 5441   4.119   7.455   3.241 -0.0994 -0.2067  0.5322
   13CHTO   H24 5442   4.194   7.404   3.179 -0.0135  0.5595  0.0080
   13CHTO    O8 5443   4.039   7.538   3.154  0.1270  0.4439 -0.0786
   13CHTO    H3 5444   3.989   7.487   3.093  2.3797 -1.3079 -0.5070
   13CHTO    C9 5445   4.037   7.348   3.317 -0.9095  0.5182 -0.1494
   13CHTO   H22 5446   4.115   7.279   3.352 -0.6169  1.2819  0.7048
   13CHTO    N2 5447   3.949   7.270   3.229  0.4752  0.1878 -0.1523
   13CHTO   H10 5448   3.859   7.322   3.198 -0.8429 -0.5749  2.2432
   13CHTO   H11 5449   3.928   7.169   3.260 -0.5315  0.3149 -0.4000
   13CHTO    C7 5450   3.956   7.405   3.441  0.0476 -0.1933  0.5850
   13CHTO   H20 5451   4.012   7.367   3.529  1.3348  2.7119  1.0749
   13CHTO    O4 5452   3.961   7.550   3.443  0.2249  0.8706  0.0441
   13CHTO   C14 5453   4.093   7.601   3.453 -0.2706  0.0308  0.1761
   13CHTO   H27 5454   4.140   7.583   3.552  0.5302 -0.0027 -0.2063
   13CHTO   C18 5455   4.072   7.759   3.447 -0.6935  0.0191  0.2673
   13CHTO   O13 5456   4.007   7.798   3.566 -0.4590  0.6629  0.2843
   13CHTO    H7 5457   3.978   7.886   3.554 -0.0140  0.9009  0.9161
   13CHTO    O2 5458   3.781   7.350   3.466  0.3503 -0.1893 -0.2168
   13CHTO    C1 5459   3.756   7.353   3.608  0.9513 -0.3406 -0.2349
   13CHTO   H14 5460   3.846   7.392   3.661  0.7091  0.9985 -0.7757
   13CHTO    C2 5461   3.724   7.213   3.666 -0.3353  0.4190 -0.8499
   13CHTO   H15 5462   3.629   7.187   3.618  0.5917 -1.7799 -1.5777
   13CHTO    O6 5463   3.833   7.126   3.622  0.5002  0.2166  0.1263
   13CHTO    H1 5464   3.842   7.108   3.531 -0.5652  0.4056 -0.0248
   13CHTO    C3 5465   3.722   7.233   3.820 -0.7109  0.0173 -0.3380
   13CHTO   H16 5466   3.822   7.269   3.848 -0.2672  0.1576 -2.0432
   13CHTO    N1 5467   3.684   7.105   3.880 -0.3483  0.3727 -0.9206
   13CHTO    H8 5468   3.742   7.019   3.850  0.4397 -0.8073  3.6780
   13CHTO    H9 5469   3.580   7.083   3.865 -0.9519  2.8317 -0.6198
   13CHTO    C4 5470   3.616   7.348   3.861 -0.2045 -0.0991 -0.0225
   13CHTO   H17 5471   3.518   7.302   3.877 -0.2988  0.2980  0.5547
   13CHTO    O1 5472   3.612   7.465   3.777  0.3017  0.2712  0.5722
   13CHTO    C5 5473   3.633   7.446   3.637 -0.0906 -0.3111  0.6099
   13CHTO   H18 5474   3.539   7.403   3.603 -1.4567  0.8524  2.8219
   13CHTO   C16 5475   3.650   7.582   3.566 -0.6068 -0.6220  0.3357
   13CHTO   O11 5476   3.740   7.664   3.650 -0.5952  0.1230  0.1877
   13CHTO    H5 5477   3.803   7.690   3.585 -0.2473  0.5914  0.7069
   13CHTO    O3 5478   3.649   7.403   3.988 -0.4361 -0.1432 -0.3413
   13CHTO    C6 5479   3.540   7.435   4.084  0.1644  0.5192 -0.3963
   13CHTO   H19 5480   3.440   7.418   4.044 -1.2244  2.7421  2.0046
   13CHTO    C8 5481   3.558   7.348   4.215  0.1554  0.3099 -0.6329
   13CHTO   H21 5482   3.655   7.370   4.259  0.4057 -0.9526 -0.5219
   13CHTO    O7 5483   3.538   7.207   4.170  0.0965 -0.0837  0.2748
   13CHTO    H2 5484   3.447   7.190   4.153  0.1082  1.1522 -1.0746
   13CHTO   C12 5485   3.456   7.401   4.327 -0.1079  0.0747  0.6771
   13CHTO   H25 5486   3.355   7.388   4.283  0.1576  0.1138  0.0577
   13CHTO    N3 5487   3.463   7.313   4.450 -0.1409  0.2854  0.8558
   13CHTO   H12 5488   3.366   7.284   4.489 -0.2343 -1.5097 -0.6051
   13CHTO   H13 5489   3.520   7.359   4.528 -0.5808  1.8890  0.2424
   13CHTO   C15 5490   3.471   7.552   4.356 -0.9339 -0.0152 -0.6196
   13CHTO   H28 5491   3.569   7.573   4.399 -0.5535  1.8647 -2.3143
   13CHTO   O10 5492   3.378   7.617   4.443  0.3208 -0.2310 -0.8960
   13CHTO    H4 5493   3.369   7.570   4.523 -1.5715  0.6107 -0.5948
   13CHTO    O5 5494   3.450   7.616   4.228 -0.1968  0.2729  0.6737
   13CHTO   C10 5495   3.548   7.585   4.128 -0.5467  0.1055  0.4127
   13CHTO   H23 5496   3.648   7.605   4.166 -0.7115  0.2655  0.7633
   13CHTO   C17 5497   3.523   7.679   4.010  0.9228 -0.4147 -0.9096
   13CHTO   O12 5498   3.648   7.712   3.941  0.4533  0.1183  0.3845
   13CHTO    H6 5499   3.647   7.804   3.921 -0.9969  0.0286 -0.0220
   14CHTO  H203 5500   6.031   4.676   0.307  2.1003  0.7293 -0.9909
   14CHTO   O82 5501   5.998   4.650   0.223  0.0221 -0.0354  0.0388
   14CHTO  C123 5502   5.890   4.731   0.189  0.9424 -0.2590  0.8070
   14CHTO  H227 5503   5.929   4.833   0.183  1.0725 -0.3539  0.0447
   14CHTO   O77 5504   5.845   4.683   0.059  0.3028  0.1528 -0.2068
   14CHTO  C118 5505   5.736   4.747  -0.000 -0.6398  0.1757 -0.0748
   14CHTO  H222 5506   5.750   4.853  -0.026 -1.4874 -0.6858 -4.6036
   14CHTO  C125 5507   5.715   4.671  -0.139 -0.6172  0.4929 -0.5664
   14CHTO   O84 5508   5.842   4.664  -0.208  0.1782 -0.1652  0.4777
   14CHTO  H205 5509   5.815   4.643  -0.295 -0.5708  0.7676  0.4808
   14CHTO  C114 5510   5.612   4.729   0.087  0.3210  0.1376 -0.3348
   14CHTO  H218 5511   5.586   4.624   0.099  0.4460  0.2667  1.1632
   14CHTO  C116 5512   5.639   4.773   0.229 -0.5397  0.1340 -1.0624
   14CHTO  H220 5513   5.654   4.883   0.235 -0.2546  0.2024 -2.8592
   14CHTO   O79 5514   5.524   4.738   0.308  0.2443  0.3181 -0.7000
   14CHTO  H201 5515   5.455   4.787   0.267 -0.6015 -0.0487  0.2602
   14CHTO  C120 5516   5.770   4.712   0.292 -0.3669  0.2390 -0.2949
   14CHTO  H224 5517   5.738   4.606   0.294 -1.7038  0.6572  1.5535
   14CHTO   N21 5518   5.806   4.750   0.433  0.8467  0.3550 -0.3015
   14CHTO  H211 5519   5.840   4.852   0.444  1.5251  0.3300 -2.0459
   14CHTO  H212 5520   5.884   4.688   0.475  2.3091  1.4514 -1.3495
   14CHTO   O75 5521   5.514   4.802   0.017  0.2630  0.1190  0.1926
   14CHTO  C112 5522   5.368   4.730   0.007  0.6956 -0.2087  0.2621
   14CHTO  H216 5523   5.354   4.650   0.081  3.1154 -1.2809 -0.3710
   14CHTO   O73 5524   5.357   4.677  -0.123 -0.9074  0.9831 -0.1186
   14CHTO  C113 5525   5.226   4.625  -0.168  0.5658 -0.1978  0.2768
   14CHTO  H217 5526   5.209   4.532  -0.111  1.1147  0.2710  1.2238
   14CHTO  C124 5527   5.245   4.583  -0.311  0.0561 -0.5547 -0.3270
   14CHTO   O83 5528   5.322   4.470  -0.349  0.3683  0.0995  0.2765
   14CHTO  H204 5529   5.273   4.402  -0.391  1.9883  0.1509 -1.7767
   14CHTO  C109 5530   5.111   4.731  -0.144 -0.6784 -0.0889 -0.2342
   14CHTO  H213 5531   5.135   4.814  -0.212  0.3518  0.3210  0.6074
   14CHTO  C110 5532   5.116   4.778   0.002  0.4940  0.3264 -0.4733
   14CHTO  H214 5533   5.090   4.696   0.070 -2.4151  1.5389 -0.0567
   14CHTO   O78 5534   5.007   4.870   0.017 -1.0583  0.5231  0.1415
   14CHTO  H200 5535   4.972   4.852   0.102 -0.4592  0.6794  0.4199
   14CHTO  C111 5536   5.257   4.834   0.038 -0.0180  0.0387 -0.2940
   14CHTO  H215 5537   5.276   4.916  -0.033 -1.4208  2.8518  2.4371
   14CHTO   N19 5538   5.272   4.895   0.173 -0.2943  0.1636  0.4857
   14CHTO  H207 5539   5.172   4.923   0.205  0.5145  2.7672  0.8043
   14CHTO  H208 5540   5.308   4.821   0.243  0.6530 -0.3272 -0.5208
   14CHTO   O74 5541   4.976   4.680  -0.176 -0.2136  0.1480 -0.0042
   14CHTO  C115 5542   4.903   4.775  -0.264 -0.2422  0.3640  0.2503
   14CHTO  H219 5543   4.945   4.875  -0.252  0.5142 -0.1364  1.9422
   14CHTO   O76 5544   4.922   4.735  -0.417  0.7358  0.5246 -0.0897
   14CHTO  C122 5545   4.859   4.607  -0.450 -0.2022 -0.0555  0.2255
   14CHTO  H226 5546   4.911   4.520  -0.411 -2.0962 -1.8880 -1.2313
   14CHTO  C126 5547   4.864   4.593  -0.600  0.3762 -0.6515  0.9599
   14CHTO   O85 5548   4.805   4.474  -0.644 -0.3110 -0.3027 -0.0047
   14CHTO  H206 5549   4.723   4.492  -0.684 -0.2220  0.5597  0.1929
   14CHTO  C121 5550   4.707   4.595  -0.406 -1.1927 -1.1205 -0.4664
   14CHTO  H225 5551   4.634   4.571  -0.486 -0.6177 -2.5214 -0.5891
   14CHTO   O81 5552   4.699   4.482  -0.318  0.3087 -0.3103 -0.4732
   14CHTO  H202 5553   4.738   4.406  -0.356 -0.3114 -0.1948 -1.3599
   14CHTO  C119 5554   4.666   4.730  -0.342  0.8782 -0.7403  0.2467
   14CHTO  H223 5555   4.681   4.812  -0.412  0.9831  0.8433  2.0867
   14CHTO  C117 5556   4.747   4.765  -0.218  0.2265  0.1802  0.3748
   14CHTO  H221 5557   4.738   4.689  -0.140  3.3850  0.5184  1.1146
   14CHTO   N20 5558   4.708   4.894  -0.149 -0.0786 -0.7169 -0.4504
   14CHTO  H209 5559   4.737   4.966  -0.225  3.7226 -1.2935  0.3422
   14CHTO  H210 5560   4.770   4.930  -0.068 -1.1222  1.5437 -0.6061
   14CHTO   O80 5561   4.514   4.732  -0.329 -0.3233  0.0086  0.4571
   14CHTO  C103 5562   4.431   4.828  -0.412  0.4793  0.3760  0.1139
   14CHTO  H190 5563   4.470   4.929  -0.409 -0.8379  0.8944 -0.0389
   14CHTO  C101 5564   4.401   4.784  -0.561 -0.0471 -0.5978 -0.1310
   14CHTO  H188 5565   4.374   4.679  -0.566 -0.7398 -0.5151  1.6341
   14CHTO   O68 5566   4.522   4.808  -0.644 -0.3357 -0.3788 -0.4932
   14CHTO  H168 5567   4.551   4.897  -0.643  1.3375 -0.8700  3.5130
   14CHTO   C99 5568   4.275   4.871  -0.629  0.0185  0.6454 -0.1218
   14CHTO  H186 5569   4.308   4.977  -0.629  2.3215 -0.0249 -1.8573
   14CHTO   N17 5570   4.235   4.835  -0.772  0.3971  0.7866  0.0397
   14CHTO  H174 5571   4.318   4.778  -0.811 -0.2136  1.0779 -1.7312
   14CHTO  H175 5572   4.140   4.786  -0.782 -0.0503  1.8173 -0.9497
   14CHTO   C97 5573   4.155   4.862  -0.533  0.3220 -1.2206  0.0794
   14CHTO  H184 5574   4.126   4.756  -0.529 -0.9609 -0.8666  0.3710
   14CHTO   O64 5575   4.191   4.913  -0.409 -0.1533  0.2908 -0.2551
   14CHTO  C104 5576   4.286   4.829  -0.337 -0.0394 -0.3902  0.3647
   14CHTO  H191 5577   4.253   4.726  -0.326 -0.3945 -0.4571 -1.1789
   14CHTO  C108 5578   4.286   4.887  -0.196 -0.3545  0.7275 -0.5487
   14CHTO   O71 5579   4.355   5.012  -0.194  0.5650 -0.0205 -0.2813
   14CHTO  H171 5580   4.327   5.057  -0.117 -2.1237  0.2584 -1.3855
   14CHTO   O62 5581   4.040   4.940  -0.575 -0.2438 -0.6142 -0.5467
   14CHTO   C91 5582   3.908   4.892  -0.541 -0.5030 -0.1234  0.7964
   14CHTO  H178 5583   3.920   4.803  -0.479  0.4422  0.6538  1.7466
   14CHTO   C92 5584   3.826   4.847  -0.671  0.8481 -0.4402  0.0003
   14CHTO  H179 5585   3.885   4.785  -0.740 -0.7757 -1.9562 -0.0597
   14CHTO   O66 5586   3.701   4.777  -0.639 -0.0146  0.3403 -0.1247
   14CHTO  H166 5587   3.628   4.833  -0.657  0.6595  0.7299 -1.7765
   14CHTO   C93 5588   3.784   4.976  -0.752 -0.4003  0.4178 -0.3446
   14CHTO  H180 5589   3.699   4.955  -0.818 -2.2583 -0.0587  2.1224
   14CHTO   N16 5590   3.891   5.018  -0.844  0.1512 -0.0739 -0.0019
   14CHTO  H172 5591   3.986   5.042  -0.799  0.8218 -2.1892 -0.2125
   14CHTO  H173 5592   3.856   5.097  -0.909 -2.2528 -2.0470 -1.1995
   14CHTO   C94 5593   3.736   5.093  -0.653  0.5743  0.4403  0.0575
   14CHTO  H181 5594   3.815   5.167  -0.637  2.3872 -0.7995 -2.8059
   14CHTO   O61 5595   3.698   5.036  -0.527 -0.1008  0.2515 -0.1388
   14CHTO   C95 5596   3.810   4.986  -0.456 -0.1475 -0.6871 -0.5776
   14CHTO  H182 5597   3.876   5.070  -0.435  1.1913 -1.2731 -2.2774
   14CHTO  C106 5598   3.768   4.927  -0.318  0.5786 -0.8245 -0.0712
   14CHTO   O69 5599   3.866   4.858  -0.245  0.2530  0.4775 -0.4588
   14CHTO  H169 5600   3.883   4.774  -0.282 -1.3635  0.4776 -1.2606
   14CHTO   O63 5601   3.603   5.170  -0.718  0.0882  0.1945 -0.1440
   14CHTO   C96 5602   3.569   5.325  -0.677  0.1758  0.1225  0.3742
   14CHTO  H183 5603   3.620   5.349  -0.584  0.3532 -0.6578  0.4828
   14CHTO   C98 5604   3.424   5.361  -0.659  0.4159  0.2551 -0.0118
   14CHTO  H185 5605   3.363   5.335  -0.747 -2.3694  1.9680  1.3556
   14CHTO   O67 5606   3.383   5.274  -0.552 -0.1842 -0.2609  0.2660
   14CHTO  H167 5607   3.399   5.184  -0.573  1.0208  0.5444 -2.5215
   14CHTO  C102 5608   3.409   5.514  -0.621  0.2720 -0.4025  0.4124
   14CHTO  H189 5609   3.457   5.525  -0.523  0.7785  0.5374  0.0649
   14CHTO   N18 5610   3.267   5.560  -0.600 -0.0945 -0.4920  0.6248
   14CHTO  H176 5611   3.218   5.511  -0.517  0.6799 -0.4304  1.1235
   14CHTO  H177 5612   3.265   5.668  -0.591 -1.7049 -0.2446 -2.1366
   14CHTO  C105 5613   3.490   5.607  -0.711 -0.2289  0.1381 -0.1722
   14CHTO  H192 5614   3.431   5.623  -0.801 -1.7145  0.0476  0.7670
   14CHTO   O65 5615   3.617   5.555  -0.746  0.1649 -0.3965  0.2031
   14CHTO  C100 5616   3.622   5.419  -0.786 -0.4698  0.3404 -0.2807
   14CHTO  H187 5617   3.571   5.418  -0.884  1.6743 -1.3162 -1.4416
   14CHTO  C107 5618   3.767   5.396  -0.837  0.3353 -0.3191  0.2973
   14CHTO   O70 5619   3.797   5.488  -0.935 -0.1729 -0.1521  0.1480
   14CHTO  H170 5620   3.816   5.572  -0.899  0.4609 -0.8271  1.4046
   14CHTO   O57 5621   3.509   5.758  -0.615 -0.1881  0.5442 -0.1803
   14CHTO   C85 5622   3.528   5.893  -0.674  0.4292 -0.1010 -0.9904
   14CHTO  H157 5623   3.436   5.909  -0.733 -0.9425  0.6212  1.2636
   14CHTO   C83 5624   3.656   5.892  -0.768  0.4665 -0.2419  0.9753
   14CHTO  H155 5625   3.643   5.812  -0.841  1.5389  1.0436 -0.6582
   14CHTO   O56 5626   3.769   5.854  -0.687 -0.5450  0.6061 -1.1811
   14CHTO  H135 5627   3.846   5.832  -0.736  0.7562 -0.6233  1.3260
   14CHTO   C81 5628   3.652   6.028  -0.851 -0.1307 -0.2425  0.4847
   14CHTO  H153 5629   3.551   6.036  -0.889 -1.4704 -2.9502  3.2616
   14CHTO   N14 5630   3.749   6.028  -0.963 -0.1433  0.4501  0.2017
   14CHTO  H141 5631   3.694   6.023  -1.054 -0.4206 -0.6494  0.4245
   14CHTO  H142 5632   3.816   6.111  -0.968  1.9798 -1.3322 -2.0241
   14CHTO   C79 5633   3.673   6.140  -0.740 -0.1309  0.2391  0.1809
   14CHTO  H151 5634   3.662   6.235  -0.793 -1.5865  0.5840  1.0718
   14CHTO   O52 5635   3.568   6.139  -0.637  0.2922 -0.2502 -0.2507
   14CHTO   C86 5636   3.548   6.010  -0.564 -0.3933  0.3363  0.2699
   14CHTO  H158 5637   3.636   5.990  -0.501 -0.9732 -0.0754  0.9529
   14CHTO   C90 5638   3.422   6.016  -0.472 -0.8466 -0.0268  0.8249
   14CHTO   O60 5639   3.444   6.122  -0.372 -0.1844 -0.2270 -0.4503
   14CHTO  H138 5640   3.459   6.205  -0.413  0.6369  0.4766  1.2200
   14CHTO   O50 5641   3.803   6.132  -0.678 -0.0909 -0.3366 -0.6266
   14CHTO   C73 5642   3.881   6.210  -0.586  0.0462  0.5023  0.4367
   14CHTO  H145 5643   3.832   6.208  -0.488  0.5781 -0.8989  0.6894
   14CHTO   C74 5644   3.901   6.352  -0.642  0.0335  0.3277  0.3450
   14CHTO  H146 5645   3.797   6.383  -0.659 -0.6783 -2.1204 -0.0173
   14CHTO   O54 5646   3.948   6.435  -0.539 -0.1252  0.3108 -0.0655
   14CHTO  H133 5647   3.886   6.434  -0.469  2.1406  1.1222  2.0071
   14CHTO   C75 5648   3.985   6.348  -0.774  0.1039  0.5165  0.1152
   14CHTO  H147 5649   3.928   6.294  -0.850  1.5783  0.5380 -1.0192
   14CHTO   N13 5650   3.999   6.478  -0.839 -0.2005  0.0726 -0.5123
   14CHTO  H139 5651   3.924   6.543  -0.798 -0.1082 -0.8012  1.0462
   14CHTO  H140 5652   4.097   6.523  -0.830  0.3108 -1.2097  0.4050
   14CHTO   C76 5653   4.122   6.269  -0.750  0.5190 -0.3545  0.3259
   14CHTO  H148 5654   4.188   6.336  -0.696 -1.3853  0.5434  1.5929
   14CHTO   O49 5655   4.106   6.146  -0.671 -0.1916  0.3255 -0.0720
   14CHTO   C77 5656   4.020   6.151  -0.563 -0.6662  0.4598  0.4185
   14CHTO  H149 5657   4.062   6.205  -0.478 -0.6603 -0.9953  1.3597
   14CHTO   C88 5658   4.007   6.005  -0.514  0.0450 -0.3582  0.0042
   14CHTO   O58 5659   4.122   5.962  -0.461  0.2370  0.0888  0.1759
   14CHTO  H136 5660   4.136   5.869  -0.468 -0.4733 -0.1454  1.6925
   14CHTO   O51 5661   4.192   6.227  -0.886  0.5722 -0.5270  0.0415
   14CHTO   C78 5662   4.349   6.220  -0.897 -0.3307 -0.1330 -0.0784
   14CHTO  H150 5663   4.391   6.251  -0.799 -0.7671 -0.3928  0.1860
   14CHTO   C80 5664   4.396   6.317  -1.007 -0.8315  0.2697 -0.1726
   14CHTO  H152 5665   4.346   6.281  -1.100  1.8645 -3.6353 -0.2437
   14CHTO   O55 5666   4.357   6.446  -0.974  0.3453  0.2105 -0.5401
   14CHTO  H134 5667   4.288   6.483  -1.026 -1.1476 -1.0735  0.4954
   14CHTO   C84 5668   4.550   6.320  -1.023 -0.2965  0.7105  0.0890
   14CHTO  H156 5669   4.596   6.375  -0.941  2.2157 -2.6202  1.0659
   14CHTO   N15 5670   4.588   6.406  -1.149  0.5498 -0.6688 -0.1647
   14CHTO  H143 5671   4.569   6.510  -1.138 -1.7430 -0.9201 -1.5302
   14CHTO  H144 5672   4.689   6.385  -1.177  1.1454  0.7082  0.9055
   14CHTO   C87 5673   4.605   6.175  -1.023 -0.9376  0.6821 -0.5125
   14CHTO  H159 5674   4.592   6.133  -1.123  0.9845  1.3921 -1.0926
   14CHTO   O53 5675   4.531   6.084  -0.907 -0.0371  0.4422 -0.1373
   14CHTO   C82 5676   4.391   6.073  -0.927  0.7645 -0.8582  0.3395
   14CHTO  H154 5677   4.355   6.048  -1.027  0.1904  2.3335 -0.3058
   14CHTO   C89 5678   4.335   5.963  -0.831 -0.4385  0.1442 -0.2952
   14CHTO   O59 5679   4.202   5.923  -0.867 -0.2055  0.3299 -0.8357
   14CHTO  H137 5680   4.176   5.895  -0.953  0.1132 -0.2004 -0.7541
   14CHTO   O45 5681   4.768   6.174  -1.017 -0.0969  0.1834 -0.1481
   14CHTO   C67 5682   4.825   6.045  -1.007 -0.5133 -0.0923  0.4318
   14CHTO  H124 5683   4.761   5.975  -0.953 -1.1693  0.9598  1.0218
   14CHTO   C65 5684   4.843   5.990  -1.154 -0.2557 -0.3199  0.0601
   14CHTO  H122 5685   4.752   6.004  -1.212  0.6209 -1.1081 -1.5385
   14CHTO   O44 5686   4.866   5.846  -1.142  0.5868  0.3160  0.7737
   14CHTO  H102 5687   4.937   5.821  -1.087  1.6592  1.9181  0.1456
   14CHTO   C63 5688   4.954   6.060  -1.233  0.1711 -0.0284  0.3181
   14CHTO  H120 5689   4.929   6.165  -1.242  1.8401  0.3021 -0.7726
   14CHTO   N11 5690   4.963   6.019  -1.379  0.0216  0.1016  0.2039
   14CHTO  H108 5691   5.003   5.920  -1.391  1.2253  0.6187 -0.0792
   14CHTO  H109 5692   4.867   6.013  -1.424 -0.5332  3.2579  0.8841
   14CHTO   C61 5693   5.087   6.049  -1.156 -0.1595 -0.1787 -0.2231
   14CHTO  H118 5694   5.157   6.118  -1.207 -1.2646 -0.0178 -1.5512
   14CHTO   O40 5695   5.076   6.084  -1.019 -0.8702  0.0502  0.4051
   14CHTO   C68 5696   4.964   6.049  -0.935 -0.7620  0.5636  0.2109
   14CHTO  H125 5697   4.960   6.121  -0.849 -1.5498 -0.6832  1.2302
   14CHTO   C72 5698   5.008   5.908  -0.873 -0.5721  0.4483  0.3741
   14CHTO   O48 5699   4.928   5.875  -0.765  0.1046 -0.1367  0.4593
   14CHTO  H105 5700   4.986   5.899  -0.696  0.3953 -0.6730  0.4037
   14CHTO   O38 5701   5.146   5.915  -1.154  0.1211  0.7265 -0.3985
   14CHTO   C55 5702   5.278   5.888  -1.208  0.2398 -0.3155 -0.2732
   14CHTO  H112 5703   5.318   5.979  -1.255  0.1177  1.3318  2.6530
   14CHTO   C56 5704   5.283   5.756  -1.297  0.5973 -0.4690 -0.0461
   14CHTO  H113 5705   5.239   5.671  -1.243  0.8377 -0.5938 -0.0458
   14CHTO   O42 5706   5.195   5.771  -1.414 -0.6307 -0.0996  0.2159
   14CHTO  H100 5707   5.107   5.791  -1.390 -0.1014  0.6902  1.5516
   14CHTO   C57 5708   5.424   5.716  -1.345  0.4408  0.0174 -0.2054
   14CHTO  H114 5709   5.455   5.794  -1.415 -1.4114  1.6474  0.7401
   14CHTO   N10 5710   5.429   5.584  -1.413 -0.0305 -0.6387 -0.2271
   14CHTO  H106 5711   5.359   5.511  -1.375  0.5171 -1.3976 -0.6577
   14CHTO  H107 5712   5.416   5.587  -1.520 -1.2157 -0.5567 -0.0869
   14CHTO   C58 5713   5.519   5.725  -1.224  0.4208 -0.6925 -0.1922
   14CHTO  H115 5714   5.491   5.641  -1.157 -1.8697  0.6509  0.6036
   14CHTO   O37 5715   5.500   5.847  -1.144 -0.0624 -0.0197 -0.4840
   14CHTO   C59 5716   5.370   5.871  -1.087  1.3353  0.2284 -0.1229
   14CHTO  H116 5717   5.329   5.784  -1.035  0.7619 -1.9607 -4.0526
   14CHTO   C70 5718   5.403   5.992  -0.995  0.2733  0.6257 -0.0646
   14CHTO   O46 5719   5.490   5.952  -0.888  0.3334  0.0565 -0.3293
   14CHTO  H103 5720   5.454   5.992  -0.811  2.4193  1.5327 -0.0717
   14CHTO   O39 5721   5.691   5.730  -1.262  0.3794 -0.6942  0.7496
   14CHTO   C60 5722   5.778   5.668  -1.160 -0.3756  0.0866 -0.1267
   14CHTO  H117 5723   5.735   5.680  -1.060  0.4782  1.4118  0.0834
   14CHTO   C62 5724   5.793   5.513  -1.189  0.1174 -0.3766 -0.7091
   14CHTO  H119 5725   5.700   5.470  -1.145 -0.4122  0.9727 -0.4654
   14CHTO   O43 5726   5.816   5.494  -1.329 -0.2531  0.0130  0.9033
   14CHTO  H101 5727   5.736   5.500  -1.379  0.8660  0.0264 -0.9368
   14CHTO   C66 5728   5.908   5.451  -1.096 -0.4990 -0.7258  0.1307
   14CHTO  H123 5729   5.881   5.470  -0.992  0.5645  1.6393  0.0209
   14CHTO   N12 5730   5.904   5.300  -1.109  0.0337  0.0890  0.1089
   14CHTO  H110 5731   5.986   5.251  -1.059  0.1947  0.8299  0.5736
   14CHTO  H111 5732   5.809   5.255  -1.086 -0.4576  1.2653  0.3915
   14CHTO   C69 5733   6.043   5.517  -1.113 -0.4630 -0.6047 -0.2373
   14CHTO  H126 5734   6.087   5.506  -1.215  0.9051 -0.0673  0.2880
   14CHTO   O41 5735   6.018   5.690  -1.074  0.9847 -0.0679  0.2782
   14CHTO   C64 5736   5.910   5.754  -1.161  0.2156 -0.2962 -0.3460
   14CHTO  H121 5737   5.942   5.755  -1.267  3.4894  1.9193  0.5748
   14CHTO   C71 5738   5.895   5.898  -1.121  0.3436  0.5239  0.0283
   14CHTO   O47 5739   6.016   5.969  -1.133 -0.0241  0.1497 -0.4185
   14CHTO  H104 5740   6.088   5.934  -1.084 -0.8714  0.6934  1.2485
   14CHTO   O34 5741   6.138   5.455  -1.004  0.1359  0.1139  0.6572
   14CHTO   C49 5742   6.316   5.474  -1.045  0.1654 -0.4565  0.0814
   14CHTO   H91 5743   6.337   5.409  -1.129 -0.2532 -0.1606 -0.2552
   14CHTO   C47 5744   6.385   5.416  -0.918 -0.6077 -0.4641  0.3579
   14CHTO   H89 5745   6.493   5.398  -0.935 -0.5267  0.7024 -0.4374
   14CHTO   O33 5746   6.322   5.292  -0.890  0.7674 -0.5413  0.3188
   14CHTO   H70 5747   6.352   5.253  -0.811 -0.0019 -2.5341 -0.3412
   14CHTO   C45 5748   6.364   5.513  -0.789 -0.3308  0.0898  0.5430
   14CHTO   H87 5749   6.284   5.466  -0.730 -1.4814  1.9294  0.4747
   14CHTO    N8 5750   6.489   5.512  -0.712  0.8744 -0.2275  0.1593
   14CHTO   H75 5751   6.482   5.425  -0.649 -0.4412  0.3335  0.8069
   14CHTO   H76 5752   6.487   5.596  -0.644  1.9347  0.3812 -0.5520
   14CHTO   C43 5753   6.286   5.648  -0.828 -0.0943  0.0009  0.1136
   14CHTO   H85 5754   6.180   5.625  -0.843  0.3864 -1.4401 -1.2370
   14CHTO   O29 5755   6.345   5.712  -0.945 -0.2181  0.2782  0.5555
   14CHTO   C50 5756   6.345   5.627  -1.066 -0.5069 -0.1695 -0.2188
   14CHTO   H92 5757   6.266   5.669  -1.131 -0.8394  0.3646  0.5167
   14CHTO   C54 5758   6.473   5.656  -1.147  0.0592  0.4068 -0.1907
   14CHTO   O36 5759   6.486   5.788  -1.198  0.4148 -0.1124  0.2473
   14CHTO   H72 5760   6.532   5.837  -1.133  1.0657 -1.9327  1.1946
   14CHTO   O27 5761   6.280   5.742  -0.723 -0.0001  0.4373 -0.9718
   14CHTO   C37 5762   6.188   5.839  -0.669  0.4585 -0.1650  0.1788
   14CHTO   H79 5763   6.242   5.913  -0.608 -1.3878  1.7564 -0.4308
   14CHTO   C38 5764   6.115   5.924  -0.779  0.4249 -0.5726 -0.5158
   14CHTO   H80 5765   6.041   5.862  -0.832 -0.9241  0.1599  0.4713
   14CHTO   O31 5766   6.211   5.973  -0.868  0.4239  0.1423  0.1942
   14CHTO   H68 5767   6.238   5.902  -0.922 -1.4589 -0.0182 -0.5701
   14CHTO   C39 5768   6.038   6.037  -0.704  0.9783 -0.0350 -0.0974
   14CHTO   H81 5769   6.108   6.098  -0.647  1.0333  0.3742 -0.5994
   14CHTO    N7 5770   5.970   6.137  -0.797 -0.7833  0.1118 -0.5600
   14CHTO   H73 5771   6.031   6.154  -0.885 -1.8065 -1.9211 -1.6994
   14CHTO   H74 5772   5.960   6.231  -0.746  3.7537  1.6311 -2.2369
   14CHTO   C40 5773   5.937   5.973  -0.598  0.4406  0.6604 -0.3564
   14CHTO   H82 5774   5.853   5.928  -0.652 -1.0385  2.5728  0.2798
   14CHTO   O26 5775   6.004   5.875  -0.511 -0.3746  0.3219 -0.0669
   14CHTO   C41 5776   6.078   5.774  -0.583  0.7000 -0.5283 -0.2628
   14CHTO   H83 5777   6.002   5.721  -0.643  0.1356  0.2784 -0.2610
   14CHTO   C52 5778   6.144   5.661  -0.495 -0.8481 -0.2290  0.1713
   14CHTO   O35 5779   6.223   5.699  -0.409 -0.6488  0.4529  0.0660
   14CHTO   H71 5780   6.302   5.649  -0.420 -1.3956 -0.3349 -1.9243
   14CHTO   O28 5781   5.884   6.067  -0.509  0.2988  0.3851 -0.0993
   14CHTO   C42 5782   5.752   6.064  -0.453  0.1085  0.4705 -0.1297
   14CHTO   H84 5783   5.755   6.157  -0.396  0.1985 -0.1886  0.9613
   14CHTO   C44 5784   5.714   5.950  -0.355  0.8514 -0.1892  0.4676
   14CHTO   H86 5785   5.749   5.857  -0.400  2.4670  0.4027  0.4443
   14CHTO   O32 5786   5.800   5.969  -0.247 -0.2814 -0.1714  0.0151
   14CHTO   H69 5787   5.787   5.899  -0.186 -1.6940 -1.8364 -2.1357
   14CHTO   C48 5788   5.565   5.936  -0.303  0.8025 -0.1339 -0.2302
   14CHTO   H90 5789   5.548   6.019  -0.235  1.2104  0.4829 -0.8743
   14CHTO    N9 5790   5.553   5.808  -0.227  0.5877 -0.0499  0.2151
   14CHTO   H77 5791   5.451   5.776  -0.239  0.6428 -0.0995 -0.1272
   14CHTO   H78 5792   5.622   5.731  -0.257 -0.5701 -1.6694  1.5887
   14CHTO   C51 5793   5.470   5.948  -0.423 -0.1892  0.4071  0.1621
   14CHTO   H93 5794   5.485   5.864  -0.491  1.8374 -0.7077  1.9219
   14CHTO   O30 5795   5.503   6.072  -0.477  0.1285 -0.2807 -0.4079
   14CHTO   C46 5796   5.633   6.074  -0.556 -0.0034  0.0281 -0.1015
   14CHTO   H88 5797   5.629   5.993  -0.629  0.9741 -0.7589  0.7056
   14CHTO   C53 5798   5.651   6.211  -0.627 -0.3744  0.0948 -0.0026
   14CHTO   O72 5799   5.553   6.236  -0.729 -0.1803 -0.0768  0.2548
   14CHTO  H199 5800   5.577   6.300  -0.794 -0.9973 -0.1281 -0.1046
   14CHTO   O22 5801   5.335   5.966  -0.371 -0.4195  0.0595  0.1911
   14CHTO   C31 5802   5.209   5.975  -0.446 -0.1879  0.9506  0.1345
   14CHTO   H59 5803   5.214   5.915  -0.540 -2.9209  1.3676 -0.3170
   14CHTO   C29 5804   5.103   5.914  -0.355 -0.0087  0.9210 -0.1411
   14CHTO   H57 5805   5.094   5.973  -0.262  2.1860  1.1778 -0.0558
   14CHTO   O21 5806   5.150   5.789  -0.292 -0.7774 -0.1434 -0.0317
   14CHTO   H37 5807   5.081   5.742  -0.251  0.4720 -3.1189 -1.1688
   14CHTO   C27 5808   4.960   5.901  -0.419  0.3794 -0.1666  0.3784
   14CHTO   H55 5809   4.967   5.833  -0.505 -0.4371 -1.0211  0.9860
   14CHTO    N5 5810   4.853   5.844  -0.330  0.6541  0.1411  0.6386
   14CHTO   H43 5811   4.782   5.776  -0.376  0.8247  1.5830 -1.8147
   14CHTO   H44 5812   4.792   5.919  -0.283 -0.6211 -0.0701 -0.6823
   14CHTO   C25 5813   4.918   6.048  -0.470 -0.3233  0.6317  0.0758
   14CHTO   H53 5814   4.894   6.113  -0.385  0.6934  1.6350 -0.3945
   14CHTO   O17 5815   5.029   6.101  -0.553  0.4960 -0.2985  0.6538
   14CHTO   C32 5816   5.154   6.114  -0.484  0.4763 -0.0065  0.0023
   14CHTO   H60 5817   5.145   6.172  -0.393  1.5089  0.2091 -0.0225
   14CHTO   C36 5818   5.238   6.193  -0.591  0.4382  0.1896 -0.0328
   14CHTO   O25 5819   5.249   6.138  -0.723 -0.4313 -0.1556 -0.3584
   14CHTO   H40 5820   5.313   6.188  -0.770  0.4713 -2.4947 -1.7296
   14CHTO   O15 5821   4.789   6.032  -0.560 -0.2896 -0.3743  0.0172
   14CHTO   C19 5822   4.671   6.121  -0.570 -0.2245 -0.1098 -0.4723
   14CHTO   H47 5823   4.615   6.093  -0.661 -1.5942 -0.8929  0.6042
   14CHTO   C20 5824   4.561   6.102  -0.460  0.0580  0.3944  0.1849
   14CHTO   H48 5825   4.597   6.130  -0.360  2.2001  3.8311 -1.4599
   14CHTO   O19 5826   4.535   5.964  -0.468  0.4264 -0.1860 -0.0603
   14CHTO   H35 5827   4.491   5.941  -0.388  2.3244  2.3061  1.7894
   14CHTO   C21 5828   4.433   6.192  -0.488 -0.6603 -0.6072  0.3790
   14CHTO   H49 5829   4.386   6.165  -0.582  2.6727  1.0322 -1.8957
   14CHTO    N4 5830   4.333   6.188  -0.383  0.1178 -0.1968  0.5872
   14CHTO   H41 5831   4.358   6.253  -0.301  1.8115  2.1391 -1.6742
   14CHTO   H42 5832   4.306   6.090  -0.348 -0.7504  0.2375  1.1327
   14CHTO   C22 5833   4.483   6.338  -0.525  0.4612 -0.5754 -0.5165
   14CHTO   H50 5834   4.524   6.376  -0.431 -0.6005 -2.4466  0.7312
   14CHTO   O14 5835   4.583   6.332  -0.633  0.1493 -0.4027 -0.0758
   14CHTO   C23 5836   4.702   6.266  -0.594 -0.2785 -0.4043  0.2024
   14CHTO   H51 5837   4.744   6.316  -0.506  1.2479 -1.1289 -0.1092
   14CHTO   C34 5838   4.813   6.291  -0.698 -0.1976  0.1496  0.6322
   14CHTO   O23 5839   4.847   6.426  -0.711 -0.6446 -0.3055  0.1373
   14CHTO   H38 5840   4.855   6.461  -0.624 -0.7615  2.7930 -1.0159
   14CHTO   O16 5841   4.370   6.420  -0.576  0.7160 -0.7172  0.5389
   14CHTO   C24 5842   4.384   6.584  -0.580  0.4567 -0.4830  0.0292
   14CHTO   H52 5843   4.312   6.626  -0.651  2.2483  0.5942 -1.1793
   14CHTO   C26 5844   4.525   6.638  -0.616  0.3779  0.0133 -0.2035
   14CHTO   H54 5845   4.597   6.604  -0.539 -0.5914  0.3320  0.8454
   14CHTO   O20 5846   4.542   6.593  -0.753  0.7905  0.2774 -0.1878
   14CHTO   H36 5847   4.631   6.602  -0.779  1.6474 -0.7929  2.1878
   14CHTO   C30 5848   4.522   6.792  -0.604 -0.3226 -0.1791  0.6574
   14CHTO   H58 5849   4.447   6.836  -0.671  0.6513  1.3803  0.5591
   14CHTO    N6 5850   4.656   6.841  -0.649  0.0380 -0.0285 -1.0622
   14CHTO   H45 5851   4.676   6.806  -0.749  1.3368  0.2745 -0.9142
   14CHTO   H46 5852   4.739   6.810  -0.586 -0.6228  0.9645  0.3343
   14CHTO   C33 5853   4.480   6.837  -0.462 -0.9203 -0.8068  0.2694
   14CHTO   H61 5854   4.555   6.794  -0.393  0.3443  0.0821 -0.5165
   14CHTO   O18 5855   4.353   6.784  -0.426 -0.1201  0.4124  0.1789
   14CHTO   C28 5856   4.338   6.640  -0.445 -0.2426 -0.0373  0.2753
   14CHTO   H56 5857   4.399   6.591  -0.369  0.6901 -0.9381 -1.0229
   14CHTO   C35 5858   4.191   6.603  -0.424 -0.1518 -0.4848  0.4704
   14CHTO   O24 5859   4.152   6.624  -0.284  0.0360 -0.1320  0.5105
   14CHTO   H39 5860   4.116   6.709  -0.268  1.7888  0.9097 -0.9282
   14CHTO    O9 5861   4.487   6.978  -0.442 -0.1369 -0.3411 -0.3862
   14CHTO   C13 5862   4.484   7.018  -0.305  0.3064 -0.5358 -0.5404
   14CHTO   H26 5863   4.435   6.940  -0.244 -2.0089  0.6069 -0.8777
   14CHTO   C11 5864   4.406   7.160  -0.299  0.2241  0.4226 -0.7549
   14CHTO   H24 5865   4.298   7.144  -0.309 -0.2980  2.2221  1.4114
   14CHTO    O8 5866   4.445   7.249  -0.410  0.3739  0.2381 -0.1901
   14CHTO    H3 5867   4.529   7.287  -0.393  0.7623  0.2473 -2.0582
   14CHTO    C9 5868   4.427   7.219  -0.154 -0.2251  0.2686 -0.0590
   14CHTO   H22 5869   4.400   7.132  -0.092 -0.0576  0.2959  0.0514
   14CHTO    N2 5870   4.328   7.321  -0.122  0.1609  0.6370  0.7668
   14CHTO   H10 5871   4.260   7.267  -0.057  0.9519 -0.8693  0.3638
   14CHTO   H11 5872   4.274   7.349  -0.211  0.3694  1.4294  0.8867
   14CHTO    C7 5873   4.580   7.256  -0.136 -0.4555 -0.2655 -0.3286
   14CHTO   H20 5874   4.596   7.315  -0.044 -1.0768 -0.0194 -0.3759
   14CHTO    O4 5875   4.658   7.134  -0.143 -0.3191 -0.4138 -0.2040
   14CHTO   C14 5876   4.633   7.036  -0.250 -0.5591 -0.1817 -0.2305
   14CHTO   H27 5877   4.663   6.943  -0.198  0.0658  1.2078  1.9802
   14CHTO   C18 5878   4.737   7.073  -0.362  0.6458  0.4342 -0.1181
   14CHTO   O13 5879   4.844   6.983  -0.364 -0.1136  0.7589 -0.2528
   14CHTO    H7 5880   4.915   7.018  -0.314  0.6971  2.0299 -2.2172
   14CHTO    O2 5881   4.625   7.362  -0.278 -0.3862  0.2440  0.5006
   14CHTO    C1 5882   4.717   7.469  -0.240 -0.0221  0.1952 -0.5490
   14CHTO   H14 5883   4.764   7.509  -0.332 -0.2418  0.8603 -0.3759
   14CHTO    C2 5884   4.834   7.439  -0.139 -0.4877  0.3912 -0.0989
   14CHTO   H15 5885   4.791   7.406  -0.043  2.3135 -3.5518 -0.0650
   14CHTO    O6 5886   4.903   7.329  -0.204 -0.0002  0.0419 -0.4030
   14CHTO    H1 5887   4.866   7.247  -0.178 -0.0747  0.0510 -0.4812
   14CHTO    C3 5888   4.920   7.571  -0.118 -0.1040  0.2184  0.3304
   14CHTO   H16 5889   4.978   7.596  -0.208 -1.5168  0.7351 -0.4505
   14CHTO    N1 5890   5.022   7.550  -0.007  0.5944  0.3467  0.6212
   14CHTO    H8 5891   5.077   7.638   0.024 -0.1916  0.9200  0.4201
   14CHTO    H9 5892   4.961   7.524   0.078 -0.7769 -0.1324 -0.4924
   14CHTO    C4 5893   4.830   7.695  -0.093 -0.0517 -0.6022 -0.3761
   14CHTO   H17 5894   4.794   7.697   0.010 -3.8792  0.7674 -1.6462
   14CHTO    O1 5895   4.720   7.711  -0.183  0.2808  0.4817  0.1054
   14CHTO    C5 5896   4.635   7.596  -0.177  0.3882  0.0537  0.4340
   14CHTO   H18 5897   4.604   7.570  -0.076  1.0304 -1.4093  0.2683
   14CHTO   C16 5898   4.517   7.622  -0.273  0.5032 -0.1370 -0.2065
   14CHTO   O11 5899   4.424   7.709  -0.206 -0.2629  0.1998  0.3616
   14CHTO    H5 5900   4.352   7.730  -0.262  1.3808 -0.5023 -2.1108
   14CHTO    O3 5901   4.908   7.811  -0.115  0.2713 -0.6481 -0.0808
   14CHTO    C6 5902   4.870   7.944  -0.068  0.1251 -1.1123  0.2049
   14CHTO   H19 5903   4.767   7.952  -0.032 -0.2654 -0.6952 -0.9966
   14CHTO    C8 5904   4.968   7.994   0.048  0.2153 -0.1819  0.5296
   14CHTO   H21 5905   5.069   7.995   0.006  0.0059  0.3646  0.0286
   14CHTO    O7 5906   4.967   7.895   0.151  0.3676  0.1793  0.0829
   14CHTO    H2 5907   4.931   7.814   0.121  0.5539 -0.2118  0.8883
   14CHTO   C12 5908   4.920   8.131   0.093  0.2739 -0.6655  1.1396
   14CHTO   H25 5909   4.820   8.112   0.139 -0.4235 -0.6813 -0.3559
   14CHTO    N3 5910   5.006   8.191   0.201 -0.9426  0.1505 -0.0755
   14CHTO   H12 5911   5.107   8.199   0.162 -0.5164 -0.6272  0.8464
   14CHTO   H13 5912   4.972   8.288   0.235 -1.2117  0.6003 -1.5892
   14CHTO   C15 5913   4.901   8.226  -0.035 -0.7821 -0.5655 -0.3278
   14CHTO   H28 5914   4.997   8.248  -0.082 -0.8044 -2.7394 -1.4452
   14CHTO   O10 5915   4.835   8.357   0.006 -0.2697  0.3347  0.4505
   14CHTO    H4 5916   4.750   8.352   0.044 -0.6721 -0.3880 -0.5500
   14CHTO    O5 5917   4.825   8.164  -0.132  0.2515 -0.4247  0.5534
   14CHTO   C10 5918   4.875   8.042  -0.185  0.5487 -0.1190 -1.2678
   14CHTO   H23 5919   4.981   8.049  -0.210  1.2707 -1.7088  1.2270
   14CHTO   C17 5920   4.787   8.001  -0.300 -0.4652  0.8072 -0.7156
   14CHTO   O12 5921   4.845   7.894  -0.371  0.0274  0.6284  0.0192
   14CHTO    H6 5922   4.849   7.819  -0.315  0.2659  1.1118  0.6517
   15CHTO  H203 5923   5.430   5.201   2.222  0.3946 -0.3502  0.7280
   15CHTO   O82 5924   5.486   5.181   2.150 -0.2713 -0.1394  0.1373
   15CHTO  C123 5925   5.425   5.069   2.081  0.0637 -0.1891 -0.3808
   15CHTO  H227 5926   5.329   5.099   2.036 -0.6939 -1.5834  0.3008
   15CHTO   O77 5927   5.527   5.036   1.981 -0.6205  0.1871  0.3207
   15CHTO  C118 5928   5.498   4.914   1.908 -0.3798 -0.0916  0.6977
   15CHTO  H222 5929   5.402   4.922   1.855 -0.2028  2.4097  0.6783
   15CHTO  C125 5930   5.610   4.911   1.797 -0.0793  0.0823 -0.1839
   15CHTO   O84 5931   5.555   4.848   1.683  0.1365  0.0718  0.0546
   15CHTO  H205 5932   5.617   4.790   1.645 -2.4438 -3.4874  0.9989
   15CHTO  C114 5933   5.488   4.786   1.996 -0.1302  0.0267  0.1574
   15CHTO  H218 5934   5.585   4.774   2.044  0.3463  0.4278 -0.7076
   15CHTO  C116 5935   5.390   4.801   2.111 -0.3517  0.0980  0.2061
   15CHTO  H220 5936   5.286   4.804   2.073 -1.3207 -0.5353  2.6752
   15CHTO   O79 5937   5.406   4.696   2.210 -0.4319 -0.6592  0.9329
   15CHTO  H201 5938   5.331   4.711   2.264 -1.7652 -0.4719 -0.9111
   15CHTO  C120 5939   5.406   4.945   2.181  0.2913  1.2524 -0.5781
   15CHTO  H224 5940   5.499   4.941   2.241  1.4070  0.6068 -2.3132
   15CHTO   N21 5941   5.295   4.968   2.279  0.0968 -0.5672 -0.3062
   15CHTO  H211 5942   5.326   5.037   2.356 -2.6414  1.2439 -0.7437
   15CHTO  H212 5943   5.209   5.005   2.225 -2.5247 -1.7621  2.8572
   15CHTO   O75 5944   5.465   4.682   1.898  0.3874 -0.0775 -0.0370
   15CHTO  C112 5945   5.553   4.536   1.942  0.2696 -0.1690 -0.8262
   15CHTO  H216 5946   5.518   4.497   2.039  2.0558 -1.7420 -0.7922
   15CHTO   O73 5947   5.695   4.561   1.946 -0.1115  0.4302  0.6534
   15CHTO  C113 5948   5.779   4.448   1.994  0.6734 -0.1473 -0.4479
   15CHTO  H217 5949   5.747   4.411   2.093  2.9894 -2.0995 -0.3691
   15CHTO  C124 5950   5.927   4.488   2.017  0.1151 -0.4602  0.3979
   15CHTO   O83 5951   5.983   4.526   1.888 -0.3863  0.1693 -0.2083
   15CHTO  H204 5952   6.011   4.615   1.901  0.3700 -0.0139 -0.5598
   15CHTO  C109 5953   5.769   4.339   1.880  0.1530  0.9418 -0.4441
   15CHTO  H213 5954   5.803   4.392   1.789 -0.0127  2.0681  0.1423
   15CHTO  C110 5955   5.615   4.292   1.869 -0.0101  0.8390 -0.1166
   15CHTO  H214 5956   5.585   4.242   1.961  3.1970 -1.6788 -0.3222
   15CHTO   O78 5957   5.603   4.191   1.763  0.7208 -0.0989 -0.2084
   15CHTO  H200 5958   5.585   4.232   1.680  0.1927  3.1236  1.4109
   15CHTO  C111 5959   5.530   4.416   1.835  0.2390  0.2009 -0.0334
   15CHTO  H215 5960   5.568   4.458   1.741  0.7583 -2.4800 -1.0734
   15CHTO   N19 5961   5.389   4.391   1.816  0.2364 -0.1938 -0.2983
   15CHTO  H207 5962   5.373   4.387   1.710 -0.0592 -0.1713 -0.2536
   15CHTO  H208 5963   5.347   4.311   1.875 -0.6727 -0.0429 -0.7272
   15CHTO   O74 5964   5.853   4.220   1.906  0.5697  0.0195  0.4953
   15CHTO  C115 5965   5.918   4.158   1.760 -0.5058 -0.5108 -0.0358
   15CHTO  H219 5966   5.841   4.135   1.688  0.3048 -0.9213 -0.7829
   15CHTO   O76 5967   6.005   4.262   1.688  0.0383  0.2209  0.1389
   15CHTO  C122 5968   6.144   4.245   1.668 -0.3790 -0.0376  0.0460
   15CHTO  H226 5969   6.191   4.277   1.761 -1.2745 -0.3305  0.6116
   15CHTO  C126 5970   6.194   4.339   1.560 -0.8118 -0.4232 -0.5254
   15CHTO   O85 5971   6.328   4.318   1.513 -0.2344 -0.0447 -0.4006
   15CHTO  H206 5972   6.367   4.394   1.475  0.9796 -0.5760 -0.2204
   15CHTO  C121 5973   6.177   4.094   1.634 -0.4168  0.2676  0.2527
   15CHTO  H225 5974   6.206   4.081   1.528  1.2822  0.8826  0.6159
   15CHTO   O81 5975   6.297   4.053   1.708 -0.4082  0.6662  0.2362
   15CHTO  H202 5976   6.316   4.101   1.787  1.3963 -1.9659  1.4525
   15CHTO  C119 5977   6.063   3.985   1.670  0.1685  0.1069 -0.1696
   15CHTO  H223 5978   5.991   3.993   1.588  0.7194 -1.2308 -0.8027
   15CHTO  C117 5979   5.989   4.029   1.796 -0.4664 -0.3149 -0.6090
   15CHTO  H221 5980   6.048   4.060   1.882 -2.6224  1.1577  0.3882
   15CHTO   N20 5981   5.893   3.924   1.840 -0.0715 -0.0391 -1.0649
   15CHTO  H209 5982   5.928   3.823   1.850  3.1442  1.0795 -0.5807
   15CHTO  H210 5983   5.801   3.945   1.787 -0.6185 -0.7580 -0.4146
   15CHTO   O80 5984   6.105   3.838   1.656 -0.1220  0.5405 -0.1767
   15CHTO  C103 5985   6.010   3.722   1.607  0.0195  0.1070  0.5755
   15CHTO  H190 5986   5.932   3.691   1.676 -0.0313 -2.0582 -0.4315
   15CHTO  C101 5987   5.940   3.740   1.467 -0.3553 -1.0880  0.0871
   15CHTO  H188 5988   6.015   3.758   1.390  0.9136 -2.2218  1.0259
   15CHTO   O68 5989   5.824   3.860   1.470 -0.2664  0.3604 -0.3803
   15CHTO  H168 5990   5.863   3.945   1.462 -1.4987  0.9610 -0.1015
   15CHTO   C99 5991   5.871   3.607   1.428  0.6160 -0.2219  0.2658
   15CHTO  H186 5992   5.801   3.576   1.509  0.5501 -2.8490 -0.7541
   15CHTO   N17 5993   5.787   3.608   1.300  0.6580 -0.5447 -0.2163
   15CHTO  H174 5994   5.837   3.543   1.229 -0.6436 -0.6805 -1.0180
   15CHTO  H175 5995   5.683   3.583   1.312  1.2622 -2.8804  0.3708
   15CHTO   C97 5996   5.981   3.493   1.422  0.2260 -0.0147 -0.2503
   15CHTO  H184 5997   6.049   3.513   1.337  0.6503 -0.6330 -0.0557
   15CHTO   O64 5998   6.054   3.480   1.541  0.6923  0.4409 -0.3690
   15CHTO  C104 5999   6.109   3.602   1.594  0.2036  0.3569 -0.3848
   15CHTO  H191 6000   6.194   3.631   1.531  0.4469  1.3074  0.3747
   15CHTO  C108 6001   6.161   3.578   1.736  0.5418  0.2764 -0.3645
   15CHTO   O71 6002   6.277   3.499   1.742  0.1347 -0.2925  0.0090
   15CHTO  H171 6003   6.356   3.546   1.720  0.2992 -0.8763 -0.6812
   15CHTO   O62 6004   5.921   3.359   1.401  0.0815  0.1523  0.4314
   15CHTO   C91 6005   6.000   3.281   1.304  0.3439  0.4207 -0.0638
   15CHTO  H178 6006   6.038   3.350   1.229 -0.8229  1.0598 -0.0885
   15CHTO   C92 6007   5.900   3.201   1.221 -0.1194 -0.1280  0.6657
   15CHTO  H179 6008   5.817   3.265   1.189  1.8324  1.5080 -1.2757
   15CHTO   O66 6009   5.964   3.156   1.096 -0.0707  0.6108  0.1356
   15CHTO  H166 6010   6.044   3.109   1.111  0.3801  0.5152 -2.3277
   15CHTO   C93 6011   5.842   3.071   1.289 -0.2121 -0.0027  0.2535
   15CHTO  H180 6012   5.820   3.005   1.204 -0.3492 -1.1273  1.1346
   15CHTO   N16 6013   5.716   3.087   1.369  0.3253  0.1363  0.9483
   15CHTO  H172 6014   5.640   3.016   1.341  0.2050  0.7808 -0.4025
   15CHTO  H173 6015   5.678   3.188   1.360  0.6088  0.2436  0.9496
   15CHTO   C94 6016   5.954   3.004   1.376  0.3202 -0.2106 -0.3758
   15CHTO  H181 6017   5.950   3.029   1.482  2.9821  0.8304 -0.4768
   15CHTO   O61 6018   6.086   3.053   1.337 -0.3735  0.3626 -0.6690
   15CHTO   C95 6019   6.113   3.187   1.358  0.4771  0.0126 -0.6822
   15CHTO  H182 6020   6.129   3.203   1.465 -1.3705  4.5479 -0.9869
   15CHTO  C106 6021   6.249   3.223   1.286  0.0133  0.4682 -0.2743
   15CHTO   O69 6022   6.279   3.364   1.324 -0.0640  0.1243  0.8242
   15CHTO  H169 6023   6.349   3.401   1.273  0.7012 -3.3406 -0.7889
   15CHTO   O63 6024   5.946   2.852   1.338 -0.2507  0.3851 -0.6112
   15CHTO   C96 6025   6.038   2.757   1.449  0.0513  0.3579 -0.3885
   15CHTO  H183 6026   6.032   2.801   1.548  1.2474 -0.8203  0.2318
   15CHTO   C98 6027   6.186   2.743   1.411  0.1201  0.0952  0.6967
   15CHTO  H185 6028   6.192   2.733   1.301 -0.0183  0.6883  0.6345
   15CHTO   O67 6029   6.257   2.864   1.439  0.7504 -0.4779 -0.0735
   15CHTO  H167 6030   6.261   2.886   1.530  2.3499  0.3351 -0.3003
   15CHTO  C102 6031   6.255   2.616   1.486  0.0796  0.0283  0.9299
   15CHTO  H189 6032   6.268   2.639   1.593  1.8770  0.2075  0.6833
   15CHTO   N18 6033   6.395   2.577   1.447  0.1697  0.2286 -0.5360
   15CHTO  H176 6034   6.396   2.475   1.412 -0.7441 -0.1891  0.6101
   15CHTO  H177 6035   6.429   2.641   1.367  0.5180  1.9152  0.9127
   15CHTO  C105 6036   6.159   2.496   1.473 -0.5472  0.3208  1.3049
   15CHTO  H192 6037   6.133   2.480   1.368  1.5082 -0.9009  0.9466
   15CHTO   O65 6038   6.039   2.530   1.538  0.9656 -0.1169  0.6312
   15CHTO  C100 6039   5.963   2.619   1.451 -0.1164 -0.2676  0.4125
   15CHTO  H187 6040   5.942   2.578   1.351 -3.0882  0.6826  0.5878
   15CHTO  C107 6041   5.812   2.646   1.516  0.4260 -0.0346  0.0466
   15CHTO   O70 6042   5.753   2.522   1.557 -0.2228 -0.4723  0.5138
   15CHTO  H170 6043   5.702   2.526   1.636 -0.5369  2.8648  0.2005
   15CHTO   O57 6044   6.222   2.361   1.537  0.7249 -0.0032  0.5929
   15CHTO   C85 6045   6.195   2.308   1.671  0.2387 -0.1597  0.3410
   15CHTO  H157 6046   6.181   2.393   1.742 -0.1119 -1.2662  1.6192
   15CHTO   C83 6047   6.326   2.235   1.716  0.0137  0.4298  0.4024
   15CHTO  H155 6048   6.405   2.310   1.709  1.2343 -0.9066 -0.4527
   15CHTO   O56 6049   6.359   2.144   1.609  0.2226 -1.1989  0.0856
   15CHTO  H135 6050   6.293   2.084   1.578 -0.7824  0.5479 -1.2820
   15CHTO   C81 6051   6.316   2.176   1.859  0.3192 -0.0950  0.5306
   15CHTO  H153 6052   6.301   2.258   1.930  0.4306  0.6023 -0.2449
   15CHTO   N14 6053   6.442   2.113   1.909 -0.0593  0.1256  0.0398
   15CHTO  H141 6054   6.455   2.117   2.015 -0.0733  0.4255  0.0320
   15CHTO  H142 6055   6.462   2.014   1.874  1.3863  0.3625  0.1532
   15CHTO   C79 6056   6.188   2.079   1.868 -0.1789 -0.0668  0.0316
   15CHTO  H151 6057   6.172   2.057   1.974 -2.1130 -1.5971 -0.5401
   15CHTO   O52 6058   6.070   2.151   1.824  0.6217  1.1093  0.4755
   15CHTO   C86 6059   6.082   2.201   1.683  0.4354  0.2408  0.1770
   15CHTO  H158 6060   6.106   2.112   1.622 -1.1947  0.0282 -0.1507
   15CHTO   C90 6061   5.954   2.246   1.629 -0.0173 -0.4657  0.0525
   15CHTO   O60 6062   5.870   2.137   1.590  0.4438 -0.1759  0.0086
   15CHTO  H138 6063   5.844   2.088   1.666 -4.3885  1.2576 -0.5661
   15CHTO   O50 6064   6.208   1.960   1.789  0.1550  0.3418 -0.5453
   15CHTO   C73 6065   6.128   1.843   1.778  0.3452 -0.3925 -1.0500
   15CHTO  H145 6066   6.025   1.870   1.748  0.0118  0.8375  1.0901
   15CHTO   C74 6067   6.107   1.766   1.916 -0.0177 -0.2134 -0.0237
   15CHTO  H146 6068   6.046   1.826   1.985  0.3928 -1.3689  1.3731
   15CHTO   O54 6069   6.021   1.649   1.898  0.3360  0.1233 -0.2143
   15CHTO  H133 6070   6.031   1.576   1.957  1.5820 -1.1060 -1.8878
   15CHTO   C75 6071   6.251   1.724   1.979  0.2665 -0.1175 -0.5824
   15CHTO  H147 6072   6.308   1.818   1.989  0.1727  0.1299 -2.2720
   15CHTO   N13 6073   6.253   1.664   2.110  0.6899 -0.7212 -0.1718
   15CHTO  H139 6074   6.349   1.658   2.160  0.1689  0.2263  0.9626
   15CHTO  H140 6075   6.210   1.566   2.100  0.6921 -0.7327 -0.0649
   15CHTO   C76 6076   6.330   1.632   1.871  0.4614 -0.8043 -0.0641
   15CHTO  H148 6077   6.289   1.531   1.871 -1.6917  0.0327  0.7036
   15CHTO   O49 6078   6.314   1.695   1.734 -0.0524  0.0670 -0.2786
   15CHTO   C77 6079   6.191   1.736   1.681 -0.4779  0.6186  0.6422
   15CHTO  H149 6080   6.126   1.649   1.669  2.8964 -1.7290 -1.6421
   15CHTO   C88 6081   6.208   1.796   1.537  0.2307 -0.5382  0.2492
   15CHTO   O58 6082   6.074   1.829   1.497  0.6706 -0.3415 -0.0443
   15CHTO  H136 6083   6.061   1.805   1.407 -0.4126  1.2979 -0.3305
   15CHTO   O51 6084   6.482   1.627   1.901 -0.2388 -0.2006  0.5412
   15CHTO   C78 6085   6.585   1.537   1.818  0.6197  0.2331  0.0483
   15CHTO  H150 6086   6.556   1.518   1.713  3.7767  1.3974 -1.1065
   15CHTO   C80 6087   6.606   1.407   1.899  0.1692  0.6635  0.3777
   15CHTO  H152 6088   6.602   1.429   2.008  1.6866  1.9810  0.1921
   15CHTO   O55 6089   6.496   1.317   1.883 -0.1228 -0.1990 -0.0348
   15CHTO  H134 6090   6.487   1.300   1.791 -0.4961  2.8121 -0.6221
   15CHTO   C84 6091   6.739   1.335   1.860 -0.8496  0.6200  0.4855
   15CHTO  H156 6092   6.726   1.300   1.757 -1.0769  1.3576  0.2575
   15CHTO   N15 6093   6.778   1.219   1.943 -0.3833  0.2554 -0.4762
   15CHTO  H143 6094   6.704   1.190   2.015 -1.7743  3.7493 -0.4316
   15CHTO  H144 6095   6.796   1.138   1.875 -0.8190  0.2534 -0.5906
   15CHTO   C87 6096   6.852   1.442   1.857 -0.4434  0.4238  0.1377
   15CHTO  H159 6097   6.857   1.484   1.957 -1.5883 -0.5286  0.6048
   15CHTO   O53 6098   6.819   1.541   1.753  0.0042  0.5834  0.4423
   15CHTO   C82 6099   6.712   1.619   1.808  0.0903  0.5179  0.2538
   15CHTO  H154 6100   6.734   1.663   1.905  2.0841 -1.2187  0.6076
   15CHTO   C89 6101   6.674   1.734   1.711  0.3761 -0.3126 -0.8029
   15CHTO   O59 6102   6.604   1.840   1.779 -0.1865  0.1912  0.8398
   15CHTO  H137 6103   6.623   1.841   1.870  2.0827  0.0642  0.3892
   15CHTO   O45 6104   7.003   1.383   1.822  0.0606  0.5927 -0.8449
   15CHTO   C67 6105   7.104   1.484   1.843 -0.6450 -0.4101  0.8255
   15CHTO  H124 6106   7.058   1.578   1.874  1.7624  0.5486  1.5734
   15CHTO   C65 6107   7.203   1.437   1.963 -0.3105  0.6060  0.1137
   15CHTO  H122 6108   7.217   1.329   1.953  0.8763  0.9880 -2.8231
   15CHTO   O44 6109   7.125   1.466   2.082 -0.1175 -0.1025  0.0011
   15CHTO  H102 6110   7.155   1.416   2.155 -2.4772  1.1018  1.8849
   15CHTO   C63 6111   7.353   1.489   1.943 -0.1430  0.1889 -0.0072
   15CHTO  H120 6112   7.402   1.426   1.869 -0.3309 -0.8568  0.7423
   15CHTO   N11 6113   7.440   1.471   2.061  0.5218  0.6162 -0.0725
   15CHTO  H108 6114   7.544   1.481   2.035  0.4902  1.7469  0.1875
   15CHTO  H109 6115   7.415   1.382   2.115  2.0333  1.5388  2.2327
   15CHTO   C61 6116   7.349   1.622   1.861 -0.0705  0.3037 -0.0429
   15CHTO  H118 6117   7.454   1.651   1.845  0.7191 -2.4368 -0.0949
   15CHTO   O40 6118   7.291   1.620   1.726  0.1983 -0.0656  0.6439
   15CHTO   C68 6119   7.198   1.516   1.708 -0.0748 -0.2114  0.0359
   15CHTO  H125 6120   7.242   1.421   1.672  2.0251  1.4890 -2.0629
   15CHTO   C72 6121   7.107   1.563   1.594 -0.1149  0.0089 -0.6134
   15CHTO   O48 6122   7.176   1.605   1.475  0.3755 -0.3332 -0.7310
   15CHTO  H105 6123   7.116   1.585   1.405 -0.3511 -2.6981  0.5238
   15CHTO   O38 6124   7.277   1.721   1.942  0.5655  0.1901  0.2875
   15CHTO   C55 6125   7.310   1.857   1.919 -0.0034  0.1907  0.1053
   15CHTO  H112 6126   7.358   1.873   1.822 -0.9241  0.3755 -0.3218
   15CHTO   C56 6127   7.406   1.903   2.038  0.4562  0.4426  0.4283
   15CHTO  H113 6128   7.357   1.879   2.134 -0.2040 -1.0890 -0.2740
   15CHTO   O42 6129   7.520   1.823   2.039 -0.4548  0.1822 -0.2305
   15CHTO  H100 6130   7.557   1.840   1.954 -0.6827  0.4409 -0.2812
   15CHTO   C57 6131   7.437   2.060   2.012  0.1629  0.3782  0.1616
   15CHTO  H114 6132   7.505   2.061   1.927 -1.1573  2.5150 -0.8916
   15CHTO   N10 6133   7.497   2.126   2.126 -0.4052  0.8032 -0.3838
   15CHTO  H106 6134   7.460   2.227   2.121 -1.0325  0.6418  0.9906
   15CHTO  H107 6135   7.462   2.080   2.217 -1.1363  1.1903 -0.4623
   15CHTO   C58 6136   7.309   2.139   1.973  0.0445 -0.5491  0.5006
   15CHTO  H115 6137   7.248   2.155   2.065  1.2496 -0.2326  1.2560
   15CHTO   O37 6138   7.219   2.078   1.883 -0.0657  0.6702  0.0755
   15CHTO   C59 6139   7.181   1.940   1.918 -0.2534 -0.4552  0.4348
   15CHTO  H116 6140   7.125   1.935   2.011  0.8771  0.9511  1.2034
   15CHTO   C70 6141   7.087   1.892   1.804 -1.0643  0.3337  0.1679
   15CHTO   O46 6142   6.955   1.936   1.811 -0.1701 -0.2982  0.1904
   15CHTO  H103 6143   6.892   1.911   1.876 -1.2359  0.2064 -0.6495
   15CHTO   O39 6144   7.359   2.293   1.902 -0.3564  0.4585  0.4650
   15CHTO   C60 6145   7.314   2.313   1.773 -1.0241 -0.2228 -0.1895
   15CHTO  H117 6146   7.331   2.217   1.724  0.7402 -0.7378  1.3710
   15CHTO   C62 6147   7.166   2.363   1.787  0.3484 -0.2779  0.0061
   15CHTO  H119 6148   7.123   2.292   1.861 -0.1976 -1.1931 -1.1811
   15CHTO   O43 6149   7.150   2.491   1.851 -0.3138  0.1925  0.8440
   15CHTO  H101 6150   7.162   2.559   1.788 -0.2477 -0.3150  0.2995
   15CHTO   C66 6151   7.102   2.359   1.636 -0.2826  0.0284 -0.3161
   15CHTO  H123 6152   7.131   2.266   1.585  1.9692  1.6998 -2.2183
   15CHTO   N12 6153   6.951   2.380   1.636 -0.5848  0.0339  0.3558
   15CHTO  H110 6154   6.927   2.396   1.740  0.2162  1.9964  0.2781
   15CHTO  H111 6155   6.917   2.470   1.586 -1.5862  0.6663  2.1276
   15CHTO   C69 6156   7.180   2.463   1.552  0.0324 -0.8830 -0.0839
   15CHTO  H126 6157   7.157   2.565   1.590 -0.8510 -1.3291  0.6056
   15CHTO   O41 6158   7.346   2.429   1.562 -0.6284 -0.6694 -0.5443
   15CHTO   C64 6159   7.401   2.421   1.696 -0.5826  0.4373  0.0148
   15CHTO  H121 6160   7.376   2.515   1.749  0.3995  2.0024 -2.2571
   15CHTO   C71 6161   7.548   2.378   1.696 -0.8008 -0.0301 -0.5446
   15CHTO   O47 6162   7.576   2.266   1.618 -0.0624 -0.1343 -0.3363
   15CHTO  H104 6163   7.562   2.292   1.529 -2.0009  2.8958  0.7814
   15CHTO   O34 6164   7.147   2.464   1.406 -0.1410 -0.4190  0.3488
   15CHTO   C49 6165   7.067   2.502   1.271  0.6449 -0.2065 -0.0593
   15CHTO   H91 6166   7.091   2.435   1.188  0.4988  1.9426 -1.8800
   15CHTO   C47 6167   7.110   2.645   1.227 -0.1730 -0.3413 -0.0399
   15CHTO   H89 6168   7.064   2.658   1.127  1.9366 -0.3746 -1.0469
   15CHTO   O33 6169   7.252   2.653   1.210 -0.0200  0.4539  0.0633
   15CHTO   H70 6170   7.289   2.599   1.143  1.8856 -0.6610  1.9505
   15CHTO   C45 6171   7.038   2.751   1.331  0.1250  0.0269  0.4143
   15CHTO   H87 6172   7.063   2.716   1.432 -0.9442 -1.4364  0.1871
   15CHTO    N8 6173   7.089   2.887   1.305  1.2230 -0.8080 -0.4989
   15CHTO   H75 6174   7.196   2.890   1.313  1.0228  0.5004  1.9832
   15CHTO   H76 6175   7.072   2.928   1.206  1.7186  2.8036  0.8406
   15CHTO   C43 6176   6.879   2.739   1.307 -0.1312 -0.4784 -0.0137
   15CHTO   H85 6177   6.831   2.813   1.370  3.2504  5.3127 -3.8044
   15CHTO   O29 6178   6.829   2.604   1.329  0.8172  0.0212  0.3314
   15CHTO   C50 6179   6.906   2.491   1.280 -0.6368 -0.3699  0.0259
   15CHTO   H92 6180   6.893   2.402   1.344  0.8712 -0.5590  0.0905
   15CHTO   C54 6181   6.843   2.438   1.145  0.0346 -0.5976  0.0580
   15CHTO   O36 6182   6.710   2.393   1.171  0.0641  0.1156 -0.6955
   15CHTO   H72 6183   6.669   2.355   1.096  0.9206 -2.9871  0.3233
   15CHTO   O27 6184   6.847   2.775   1.174 -0.7051  0.3695  0.0054
   15CHTO   C37 6185   6.729   2.785   1.088 -1.0512  0.0569 -0.2744
   15CHTO   H79 6186   6.715   2.682   1.049  1.7073 -0.6935  0.6279
   15CHTO   C38 6187   6.606   2.838   1.163  0.0282  0.4094  0.1956
   15CHTO   H80 6188   6.631   2.933   1.213 -0.0169 -0.1836  1.3716
   15CHTO   O31 6189   6.567   2.748   1.266  0.0071 -0.0959 -0.6439
   15CHTO   H68 6190   6.636   2.732   1.327  0.3746 -1.9962 -1.5125
   15CHTO   C39 6191   6.487   2.868   1.069  0.2996  0.3324 -0.1913
   15CHTO   H81 6192   6.451   2.770   1.040 -1.0287  1.0915 -1.1657
   15CHTO    N7 6193   6.370   2.934   1.137 -0.1504  0.4415  0.2715
   15CHTO   H73 6194   6.283   2.930   1.072  0.0710 -0.4243  0.0267
   15CHTO   H74 6195   6.340   2.890   1.231 -1.0022 -0.7020 -0.5122
   15CHTO   C40 6196   6.530   2.942   0.937  0.0154  0.0612  1.0737
   15CHTO   H82 6197   6.544   3.046   0.964 -0.5666 -0.3418  2.9988
   15CHTO   O26 6198   6.646   2.881   0.878  0.0923 -0.5175  0.2181
   15CHTO   C41 6199   6.759   2.871   0.966 -0.7875  0.2010  0.3780
   15CHTO   H83 6200   6.788   2.973   0.995  0.7236 -0.5226  1.5001
   15CHTO   C52 6201   6.877   2.817   0.881 -0.2378 -0.2334  0.1524
   15CHTO   O35 6202   7.015   2.875   0.936 -0.0680 -0.1366 -0.0828
   15CHTO   H71 6203   7.079   2.836   0.880 -0.5628 -1.3407  0.1697
   15CHTO   O28 6204   6.429   2.942   0.839 -0.4240  0.7446  0.0635
   15CHTO   C42 6205   6.404   3.040   0.744  0.3733 -0.5907  0.1979
   15CHTO   H84 6206   6.357   2.982   0.665  0.4677 -0.0520 -0.2565
   15CHTO   C44 6207   6.535   3.112   0.675  0.1024  0.4133  0.1110
   15CHTO   H86 6208   6.602   3.155   0.749 -0.2512 -1.5446  1.6153
   15CHTO   O32 6209   6.610   3.002   0.613  0.3197  0.1670  0.1935
   15CHTO   H69 6210   6.545   2.959   0.560  1.6307 -1.4587 -0.1368
   15CHTO   C48 6211   6.504   3.217   0.564 -0.1816 -0.5298  0.1698
   15CHTO   H90 6212   6.472   3.155   0.480 -0.3007  0.1502 -0.2974
   15CHTO    N9 6213   6.626   3.300   0.528  0.1208 -0.0378  0.2066
   15CHTO   H77 6214   6.678   3.252   0.445  0.4047  2.0969 -0.8904
   15CHTO   H78 6215   6.603   3.400   0.496  1.4953 -0.4459 -2.2329
   15CHTO   C51 6216   6.384   3.316   0.599  0.0799  0.7913 -0.1869
   15CHTO   H93 6217   6.420   3.390   0.670  1.3447 -0.8138  0.8912
   15CHTO   O30 6218   6.277   3.238   0.662 -0.1652 -0.3363  0.3213
   15CHTO   C46 6219   6.299   3.142   0.777 -0.7740  0.0314 -0.0343
   15CHTO   H88 6220   6.342   3.197   0.862 -0.3826 -0.6356  0.2068
   15CHTO   C53 6221   6.162   3.075   0.799 -0.2612 -0.7509 -0.4115
   15CHTO   O72 6222   6.066   3.170   0.823 -0.0005  1.2513  0.0806
   15CHTO  H199 6223   5.997   3.149   0.762 -0.2794 -0.6907  1.0022
   15CHTO   O22 6224   6.342   3.380   0.476  0.0010  0.6140  0.3277
   15CHTO   C31 6225   6.293   3.516   0.465  1.0176 -0.4962 -0.8413
   15CHTO   H59 6226   6.274   3.530   0.356 -3.0333 -0.5281 -0.2077
   15CHTO   C29 6227   6.153   3.531   0.537  0.1249 -0.1310 -0.7844
   15CHTO   H57 6228   6.169   3.508   0.643  0.5664 -0.5324 -0.9359
   15CHTO   O21 6229   6.059   3.435   0.486  0.7359 -0.8044  0.2815
   15CHTO   H37 6230   5.981   3.428   0.538 -0.0571 -2.7420 -1.0896
   15CHTO   C27 6231   6.096   3.677   0.524 -0.5165 -1.1774  0.4888
   15CHTO   H55 6232   6.081   3.695   0.417  0.7763 -0.9714  0.3286
   15CHTO    N5 6233   5.974   3.707   0.604  0.0110  0.3170  0.4037
   15CHTO   H43 6234   5.982   3.706   0.712 -0.2216 -0.7995  0.4170
   15CHTO   H44 6235   5.927   3.799   0.571  0.1599 -0.4933 -2.2246
   15CHTO   C25 6236   6.213   3.768   0.570 -0.5892  0.0187  0.7643
   15CHTO   H53 6237   6.240   3.737   0.672  2.8352  1.3107  0.3160
   15CHTO   O17 6238   6.334   3.750   0.486  0.5765 -0.2279 -0.3167
   15CHTO   C32 6239   6.396   3.619   0.499  0.7718  1.0203 -0.6228
   15CHTO   H60 6240   6.426   3.606   0.603 -0.4097 -1.3910 -0.5509
   15CHTO   C36 6241   6.515   3.638   0.405  0.5032 -0.3155 -1.5400
   15CHTO   O25 6242   6.617   3.710   0.469  0.0045 -0.5219 -0.9638
   15CHTO   H40 6243   6.656   3.652   0.532 -1.2802 -0.5185 -0.1359
   15CHTO   O15 6244   6.179   3.930   0.583 -0.5311  0.1306 -0.1511
   15CHTO   C19 6245   6.216   4.068   0.618  0.3424 -0.0627 -0.4358
   15CHTO   H47 6246   6.298   4.088   0.548  1.2186 -1.3759  0.2011
   15CHTO   C20 6247   6.092   4.167   0.591 -0.3430  0.2025  0.3936
   15CHTO   H48 6248   6.003   4.140   0.648 -0.7295 -0.2615 -0.4137
   15CHTO   O19 6249   6.061   4.165   0.448  0.1847 -0.2054 -0.0034
   15CHTO   H35 6250   5.979   4.207   0.430 -0.5046 -2.3850 -2.2372
   15CHTO   C21 6251   6.124   4.319   0.634 -0.1109  0.5192 -0.9149
   15CHTO   H49 6252   6.195   4.359   0.562  0.2102  1.9364  0.1795
   15CHTO    N4 6253   6.003   4.404   0.631 -0.0415  0.1399  0.3263
   15CHTO   H41 6254   6.036   4.506   0.645  0.6642  0.1551 -1.3066
   15CHTO   H42 6255   5.946   4.380   0.719 -0.7581  1.7551  0.3145
   15CHTO   C22 6256   6.201   4.320   0.770 -0.6286  0.7933 -0.0946
   15CHTO   H50 6257   6.129   4.298   0.849 -0.9820 -0.2365 -0.6818
   15CHTO   O14 6258   6.313   4.226   0.768  0.8062  0.3415 -0.3254
   15CHTO   C23 6259   6.281   4.086   0.756 -0.7001 -0.0225 -0.4375
   15CHTO   H51 6260   6.211   4.060   0.837 -1.1114  1.0864 -0.4181
   15CHTO   C34 6261   6.424   4.013   0.769  0.1285 -0.0167  0.0516
   15CHTO   O23 6262   6.411   3.878   0.799 -0.3061 -0.4784  0.2947
   15CHTO   H38 6263   6.369   3.873   0.883 -0.0427  3.1262  0.7301
   15CHTO   O16 6264   6.282   4.441   0.783 -0.2353  0.3836  0.1232
   15CHTO   C24 6265   6.286   4.499   0.901 -0.5577 -0.5457  0.1017
   15CHTO   H52 6266   6.223   4.451   0.976 -0.5889  0.0291  0.4489
   15CHTO   C26 6267   6.232   4.648   0.911  0.2380 -0.1381  0.0234
   15CHTO   H54 6268   6.297   4.714   0.849  0.2752  0.0672  0.2759
   15CHTO   O20 6269   6.093   4.647   0.862  0.0198  0.4808  0.4735
   15CHTO   H36 6270   6.062   4.734   0.847  0.7447  0.8912  1.2976
   15CHTO   C30 6271   6.238   4.708   1.058 -0.5195  0.6766 -0.7933
   15CHTO   H58 6272   6.165   4.649   1.115 -0.1194 -0.1420 -1.1104
   15CHTO    N6 6273   6.192   4.846   1.064  0.3991 -0.8759  0.2131
   15CHTO   H45 6274   6.179   4.889   1.163  0.8520  0.3876 -0.2619
   15CHTO   H46 6275   6.094   4.848   1.020 -0.4208 -2.1163  1.9459
   15CHTO   C33 6276   6.389   4.697   1.111 -0.2604  0.3404  0.2703
   15CHTO   H61 6277   6.464   4.755   1.056 -0.5349 -0.3319 -0.8216
   15CHTO   O18 6278   6.421   4.561   1.097 -0.5741  0.1891  0.1950
   15CHTO   C28 6279   6.435   4.505   0.964  0.5079  0.9331  0.2164
   15CHTO   H56 6280   6.504   4.552   0.895  0.2274  0.5174 -0.3598
   15CHTO   C35 6281   6.501   4.365   0.983  0.3865  0.5156  0.1741
   15CHTO   O24 6282   6.412   4.260   1.020 -0.0597 -0.1357  0.2270
   15CHTO   H39 6283   6.470   4.192   1.051 -0.1494  0.2031  1.1412
   15CHTO    O9 6284   6.405   4.739   1.252  0.4601  0.2813  0.4614
   15CHTO   C13 6285   6.544   4.813   1.309 -0.3496  0.4563 -0.0472
   15CHTO   H26 6286   6.525   4.921   1.321 -1.9788 -0.0261  2.0766
   15CHTO   C11 6287   6.661   4.790   1.206 -0.7787  0.4806 -0.1209
   15CHTO   H24 6288   6.627   4.844   1.116  0.2099  2.3981  0.6201
   15CHTO    O8 6289   6.680   4.647   1.177 -0.0757  0.0021 -0.0703
   15CHTO    H3 6290   6.595   4.612   1.160 -0.2014 -0.4119  1.3758
   15CHTO    C9 6291   6.789   4.859   1.260 -0.6866  0.4458 -0.0249
   15CHTO   H22 6292   6.762   4.964   1.279  0.0029  0.1291  2.9954
   15CHTO    N2 6293   6.908   4.855   1.166 -0.1067  0.0407 -0.4680
   15CHTO   H10 6294   6.996   4.802   1.200  0.0735 -1.0053 -2.5281
   15CHTO   H11 6295   6.880   4.832   1.065  1.8245 -1.8686 -0.6158
   15CHTO    C7 6296   6.823   4.794   1.405  0.1512 -0.7287 -0.5080
   15CHTO   H20 6297   6.896   4.864   1.449  2.4503 -1.5652 -2.9058
   15CHTO    O4 6298   6.710   4.798   1.499 -0.1372 -0.0392 -0.0859
   15CHTO   C14 6299   6.576   4.763   1.451  0.0918  0.6286  0.4705
   15CHTO   H27 6300   6.517   4.813   1.531  0.0695  0.8486  0.3189
   15CHTO   C18 6301   6.561   4.610   1.475 -0.1722 -0.6231 -0.2767
   15CHTO   O13 6302   6.589   4.583   1.611 -0.0644 -0.1517  0.3274
   15CHTO    H7 6303   6.528   4.624   1.669  0.3761 -1.6767  1.9153
   15CHTO    O2 6304   6.894   4.636   1.390  0.1019 -0.2717 -0.2430
   15CHTO    C1 6305   6.959   4.589   1.508 -0.2574  0.6998 -0.6335
   15CHTO   H14 6306   6.894   4.606   1.596  0.9910 -0.2127  0.4829
   15CHTO    C2 6307   7.109   4.649   1.523 -0.1938  0.3057 -0.0988
   15CHTO   H15 6308   7.151   4.636   1.423  1.3480 -0.1279  0.5844
   15CHTO    O6 6309   7.094   4.788   1.556 -0.1277  0.0791  1.0712
   15CHTO    H1 6310   7.175   4.824   1.588 -0.1151  2.9402 -1.9573
   15CHTO    C3 6311   7.194   4.562   1.627 -0.1268  0.3803  0.0685
   15CHTO   H16 6312   7.141   4.583   1.721 -0.5952  2.6864 -0.6618
   15CHTO    N1 6313   7.340   4.598   1.626 -0.7131  0.2156 -0.3087
   15CHTO    H8 6314   7.393   4.527   1.687 -0.7359  1.0134  0.6453
   15CHTO    H9 6315   7.370   4.588   1.523  0.3173 -1.8330  0.1586
   15CHTO    C4 6316   7.175   4.409   1.602  0.1093  0.6249 -0.0829
   15CHTO   H17 6317   7.229   4.380   1.512  0.4521  2.2358 -0.4126
   15CHTO    O1 6318   7.035   4.376   1.604  0.1565  0.2685 -0.3966
   15CHTO    C5 6319   6.972   4.433   1.490  0.0512 -0.1694  0.0861
   15CHTO   H18 6320   7.025   4.420   1.396 -1.2884 -1.1726 -0.5367
   15CHTO   C16 6321   6.837   4.373   1.477 -0.7706  0.3784 -0.0601
   15CHTO   O11 6322   6.831   4.235   1.445  0.4454  0.1067  0.4536
   15CHTO    H5 6323   6.875   4.187   1.512 -2.5457 -2.9894  0.3131
   15CHTO    O3 6324   7.224   4.329   1.714 -0.0270 -0.0231 -0.6880
   15CHTO    C6 6325   7.271   4.193   1.700  0.2092  0.0828 -1.2497
   15CHTO   H19 6326   7.228   4.138   1.616 -0.0423 -1.8918  0.1302
   15CHTO    C8 6327   7.428   4.177   1.695  0.3961 -0.2451 -0.5710
   15CHTO   H21 6328   7.471   4.239   1.774  0.4721 -1.7232  0.5583
   15CHTO    O7 6329   7.465   4.234   1.570 -0.4765  0.4397  0.5375
   15CHTO    H2 6330   7.436   4.177   1.501  0.9753  0.5783 -0.2172
   15CHTO   C12 6331   7.470   4.025   1.706  0.1415 -0.2057 -0.0432
   15CHTO   H25 6332   7.421   3.968   1.624 -2.8255  1.0923  0.7532
   15CHTO    N3 6333   7.615   4.009   1.698  0.0360 -0.6629  0.6013
   15CHTO   H12 6334   7.647   4.043   1.601  0.1818 -0.0648  0.8546
   15CHTO   H13 6335   7.669   4.067   1.772  0.8773  0.9774 -1.2703
   15CHTO   C15 6336   7.416   3.963   1.843 -0.0833  0.2836  0.4557
   15CHTO   H28 6337   7.453   4.001   1.938 -1.0539 -0.8934  1.3257
   15CHTO   O10 6338   7.428   3.786   1.847 -0.5512  0.0285 -0.2501
   15CHTO    H4 6339   7.424   3.762   1.937 -0.7224  0.8271 -0.0403
   15CHTO    O5 6340   7.272   3.969   1.845 -0.1621 -0.3262  0.4328
   15CHTO   C10 6341   7.230   4.112   1.833  0.5525 -0.0990 -0.0717
   15CHTO   H23 6342   7.264   4.160   1.925  2.6143  0.4905 -1.1194
   15CHTO   C17 6343   7.081   4.110   1.848  0.1910 -0.6948 -0.1566
   15CHTO   O12 6344   7.020   4.043   1.739  0.0508 -0.0446  0.0842
   15CHTO    H6 6345   7.023   4.100   1.664 -0.8956  1.6048  1.2463
   16CHTO  H203 6346   5.450   4.467   0.606 -0.0889 -2.8071  1.9017
   16CHTO   O82 6347   5.417   4.527   0.670  0.3976 -0.2193 -0.1644
   16CHTO  C123 6348   5.468   4.521   0.805  0.5279 -0.3458  0.5135
   16CHTO  H227 6349   5.403   4.575   0.875  0.8900  1.5689 -0.5914
   16CHTO   O77 6350   5.468   4.375   0.838 -0.2953 -0.6182  0.3317
   16CHTO  C118 6351   5.544   4.336   0.957  0.0702  0.2650  0.4334
   16CHTO  H222 6352   5.499   4.373   1.051  0.7995 -1.8336  1.6455
   16CHTO  C125 6353   5.552   4.176   0.957 -0.0956  0.1519  0.1057
   16CHTO   O84 6354   5.554   4.118   1.087  0.3078 -0.1328  0.6248
   16CHTO  H205 6355   5.586   4.030   1.079  0.3540 -0.1274  0.7501
   16CHTO  C114 6356   5.683   4.395   0.956 -0.0721  0.5555 -0.3003
   16CHTO  H218 6357   5.729   4.370   0.860 -1.3168  0.9069 -1.0042
   16CHTO  C116 6358   5.676   4.550   0.959 -0.2082  0.3861 -0.9171
   16CHTO  H220 6359   5.616   4.586   1.045 -0.0402 -0.0659 -0.6092
   16CHTO   O79 6360   5.814   4.595   0.969 -0.3371 -0.1457 -0.3288
   16CHTO  H201 6361   5.818   4.682   1.005  1.3333 -0.4639  0.3021
   16CHTO  C120 6362   5.612   4.588   0.822 -0.0257  0.3106  0.0260
   16CHTO  H224 6363   5.687   4.554   0.748 -0.4017 -0.2689 -0.0944
   16CHTO   N21 6364   5.615   4.732   0.800 -0.0416 -0.0512 -0.2598
   16CHTO  H211 6365   5.527   4.765   0.746 -0.0850 -0.8093 -0.6682
   16CHTO  H212 6366   5.706   4.769   0.757 -1.0488  1.3464 -1.2203
   16CHTO   O75 6367   5.762   4.334   1.062 -0.3362 -0.3783 -0.4068
   16CHTO  C112 6368   5.886   4.253   1.029  0.3791  0.1746  0.3610
   16CHTO  H216 6369   5.935   4.292   0.939 -0.8354 -1.3762 -1.0185
   16CHTO   O73 6370   5.842   4.112   1.003 -0.0315 -0.4974 -0.5027
   16CHTO  C113 6371   5.946   4.016   0.972  0.0250 -0.2625 -0.3666
   16CHTO  H217 6372   5.994   4.053   0.879  2.1419 -2.1417 -0.0548
   16CHTO  C124 6373   5.896   3.880   0.930 -0.1335  0.1047  0.2953
   16CHTO   O83 6374   5.809   3.807   1.021 -0.0114 -0.5043 -0.3073
   16CHTO  H204 6375   5.844   3.827   1.105 -0.2821 -0.5793 -0.1773
   16CHTO  C109 6376   6.055   4.000   1.084 -0.1833  0.5548 -0.3419
   16CHTO  H213 6377   6.010   3.946   1.169  0.5130 -0.4632 -0.6056
   16CHTO  C110 6378   6.106   4.142   1.121 -0.5041 -0.0602  0.7463
   16CHTO  H214 6379   6.167   4.172   1.036 -0.4568 -1.2607  0.3511
   16CHTO   O78 6380   6.200   4.138   1.232  0.3016  0.3512  0.1420
   16CHTO  H200 6381   6.199   4.216   1.284  0.3411 -0.4022  1.2792
   16CHTO  C111 6382   5.988   4.243   1.147  0.4809 -0.1402 -0.4048
   16CHTO  H215 6383   5.936   4.202   1.235 -0.2563  0.1292 -0.7103
   16CHTO   N19 6384   6.033   4.378   1.184  0.5821  0.4569  0.1161
   16CHTO  H207 6385   6.133   4.385   1.142  0.2376 -0.6432 -0.9022
   16CHTO  H208 6386   6.035   4.407   1.288 -0.7532  1.3666 -0.1078
   16CHTO   O74 6387   6.175   3.920   1.045  0.0209  0.1034  0.0824
   16CHTO  C115 6388   6.202   3.803   1.142  0.1051 -0.1027 -0.0698
   16CHTO  H219 6389   6.159   3.824   1.240 -0.0644  2.4293 -0.6529
   16CHTO   O76 6390   6.124   3.655   1.090 -0.1770 -0.2537 -0.0021
   16CHTO  C122 6391   6.209   3.601   0.983 -0.5659 -0.2231 -0.0030
   16CHTO  H226 6392   6.206   3.669   0.898  1.2954  0.5716  0.5377
   16CHTO  C126 6393   6.141   3.469   0.938 -0.0364  0.6547 -0.4393
   16CHTO   O85 6394   6.014   3.484   0.881  0.2292 -0.1848 -0.3884
   16CHTO  H206 6395   6.011   3.465   0.789  1.7834 -3.6291  0.1857
   16CHTO  C121 6396   6.365   3.581   1.016 -0.4679 -0.1235 -0.4296
   16CHTO  H225 6397   6.371   3.471   1.031 -2.9650  0.1628  3.6521
   16CHTO   O81 6398   6.452   3.638   0.916  0.4276  0.7858  0.2904
   16CHTO  H202 6399   6.399   3.657   0.841  0.7004  1.4344  0.2554
   16CHTO  C119 6400   6.399   3.640   1.156  0.0367 -0.4420 -0.1385
   16CHTO  H223 6401   6.347   3.585   1.235  0.2596  0.2930  0.5285
   16CHTO  C117 6402   6.359   3.796   1.157  0.4887  0.5021  0.2404
   16CHTO  H221 6403   6.399   3.862   1.080 -0.4045 -0.0853 -0.7436
   16CHTO   N20 6404   6.406   3.857   1.289  0.4852  0.3519  0.8530
   16CHTO  H209 6405   6.476   3.937   1.271  3.4342 -2.3343 -0.0890
   16CHTO  H210 6406   6.321   3.898   1.342 -1.6438 -2.6589 -0.0735
   16CHTO   O80 6407   6.557   3.616   1.193  0.3839 -0.4676 -0.8834
   16CHTO  C103 6408   6.613   3.472   1.241 -0.4991 -0.0155 -0.0773
   16CHTO  H190 6409   6.531   3.400   1.235 -0.8579  0.5227 -1.7585
   16CHTO  C101 6410   6.729   3.413   1.162  0.0466  0.0859 -0.1253
   16CHTO  H188 6411   6.809   3.486   1.174  1.3272 -0.6453 -3.5929
   16CHTO   O68 6412   6.683   3.396   1.012  0.7072  0.5176  0.4962
   16CHTO  H168 6413   6.735   3.325   0.977  0.7535  0.5056  0.5908
   16CHTO   C99 6414   6.770   3.269   1.228 -0.5737  0.1788  0.2081
   16CHTO  H186 6415   6.689   3.194   1.219 -0.2358 -0.1951  0.2957
   16CHTO   N17 6416   6.885   3.198   1.169 -0.0265  0.2220  0.1704
   16CHTO  H174 6417   6.859   3.187   1.065 -0.8132 -0.1967  0.4082
   16CHTO  H175 6418   6.980   3.250   1.171 -0.4836  1.0597  0.6192
   16CHTO   C97 6419   6.795   3.284   1.383  0.3270  0.1880  0.3346
   16CHTO  H184 6420   6.885   3.343   1.406  2.1125 -1.7208 -1.5287
   16CHTO   O64 6421   6.673   3.338   1.441  0.4369  0.2555  0.2085
   16CHTO  C104 6422   6.656   3.474   1.393 -0.5216 -0.5318  0.3317
   16CHTO  H191 6423   6.740   3.543   1.404  0.0942 -0.7809 -2.3220
   16CHTO  C108 6424   6.539   3.534   1.475  0.0856  0.6041 -0.5184
   16CHTO   O71 6425   6.567   3.530   1.613 -0.3486  0.7719  0.0829
   16CHTO  H171 6426   6.633   3.590   1.642  0.9511 -1.8577  2.8188
   16CHTO   O62 6427   6.798   3.153   1.452  0.4286 -0.0049  0.4411
   16CHTO   C91 6428   6.798   3.131   1.595 -0.1181  0.1120  0.3427
   16CHTO  H178 6429   6.768   3.219   1.652  1.2235  1.5530 -1.1197
   16CHTO   C92 6430   6.952   3.103   1.636 -0.1177 -0.4996 -0.6222
   16CHTO  H179 6431   7.002   3.027   1.574 -1.3300 -2.8799  1.2038
   16CHTO   O66 6432   7.026   3.229   1.615  0.0529 -0.3844 -0.1416
   16CHTO  H166 6433   7.073   3.223   1.533 -0.7693 -0.4156 -0.6168
   16CHTO   C93 6434   6.962   3.055   1.789 -0.1584 -0.0476  0.1221
   16CHTO  H180 6435   6.947   3.142   1.854 -0.8910  1.0999 -1.5404
   16CHTO   N16 6436   7.100   3.011   1.826  0.2670 -0.5427 -0.1347
   16CHTO  H172 6437   7.133   3.071   1.910  0.8611 -0.1391 -0.6506
   16CHTO  H173 6438   7.178   3.017   1.752  1.7868  0.4165  1.5075
   16CHTO   C94 6439   6.853   2.949   1.826  0.6362 -0.2062  0.5097
   16CHTO  H181 6440   6.871   2.852   1.780 -0.9991 -0.9658  1.4119
   16CHTO   O61 6441   6.723   2.994   1.785  0.0823 -0.3510  0.3877
   16CHTO   C95 6442   6.708   3.011   1.646  0.2575  0.1033  0.6021
   16CHTO  H182 6443   6.743   2.923   1.593 -1.6718  0.3549 -1.1293
   16CHTO  C106 6444   6.561   3.045   1.619 -0.3971  0.9726  0.2155
   16CHTO   O69 6445   6.480   2.923   1.643 -0.5078  0.2390 -0.6199
   16CHTO  H169 6446   6.471   2.883   1.559  2.5495  2.4030 -2.0848
   16CHTO   O63 6447   6.856   2.933   1.996 -0.3330  0.1507  0.6088
   16CHTO   C96 6448   6.714   2.867   2.055 -0.3116  0.8474  0.0895
   16CHTO  H183 6449   6.738   2.839   2.157 -0.0518 -0.6385 -0.3795
   16CHTO   C98 6450   6.673   2.740   1.973  0.5608  0.3889 -0.1614
   16CHTO  H185 6451   6.678   2.769   1.867 -0.1478 -0.9314 -0.5642
   16CHTO   O67 6452   6.772   2.638   1.990 -0.1988 -0.1057 -0.1796
   16CHTO  H167 6453   6.855   2.679   1.975 -0.9921  0.9837 -1.7090
   16CHTO  C102 6454   6.519   2.692   2.000 -1.0150 -0.3082  0.1412
   16CHTO  H189 6455   6.519   2.658   2.105  0.0561 -1.1536 -0.1268
   16CHTO   N18 6456   6.478   2.571   1.924  0.2084  0.3752  0.3507
   16CHTO  H176 6457   6.475   2.598   1.819  0.7166  2.3544  0.8299
   16CHTO  H177 6458   6.377   2.545   1.952  0.6540 -1.1657  0.5625
   16CHTO  C105 6459   6.430   2.819   1.986 -0.3523 -0.0769  0.2610
   16CHTO  H192 6460   6.447   2.867   1.890  0.6448  1.4879  1.1901
   16CHTO   O65 6461   6.466   2.915   2.084  0.1330  0.5090  0.5695
   16CHTO  C100 6462   6.595   2.976   2.069 -0.4345  0.1038 -0.2743
   16CHTO  H187 6463   6.593   3.044   1.982  2.1107 -0.1736 -0.5933
   16CHTO  C107 6464   6.609   3.080   2.187 -0.7971  0.1503 -0.2172
   16CHTO   O70 6465   6.606   3.017   2.320  0.7997 -0.2826  0.0350
   16CHTO  H170 6466   6.621   3.088   2.380  1.6134 -1.3522  1.1199
   16CHTO   O57 6467   6.281   2.788   2.000 -0.1186 -0.1996  0.4992
   16CHTO   C85 6468   6.192   2.843   1.897  0.8770  0.0534  0.4706
   16CHTO  H157 6469   6.252   2.828   1.805  1.3812 -3.0961  1.2495
   16CHTO   C83 6470   6.161   3.002   1.900 -0.3692 -0.5432  0.3767
   16CHTO  H155 6471   6.253   3.060   1.897  0.0883 -1.2995 -0.2512
   16CHTO   O56 6472   6.100   3.029   2.029  0.3194 -0.2090 -0.7158
   16CHTO  H135 6473   6.074   3.119   2.022  0.3936 -0.0776  0.4780
   16CHTO   C81 6474   6.065   3.042   1.780 -0.2411  0.5758 -0.0520
   16CHTO  H153 6475   6.108   3.016   1.684 -1.4050 -2.2243  0.1371
   16CHTO   N14 6476   6.049   3.190   1.777 -0.1893 -0.0309 -0.0567
   16CHTO  H141 6477   5.947   3.219   1.772 -1.0967 -3.0629 -0.0833
   16CHTO  H142 6478   6.100   3.242   1.855  1.7703  1.1939 -2.0807
   16CHTO   C79 6479   5.930   2.954   1.783 -0.2116 -0.4698  0.0913
   16CHTO  H151 6480   5.885   2.971   1.685  2.3212  0.8421 -0.8913
   16CHTO   O52 6481   5.953   2.816   1.795 -0.0389  0.1959 -0.2839
   16CHTO   C86 6482   6.059   2.761   1.890 -0.4232  0.1107 -0.4010
   16CHTO  H158 6483   6.003   2.759   1.986  0.8781 -0.4360  0.3691
   16CHTO   C90 6484   6.078   2.615   1.856 -0.2654 -0.1265 -0.1842
   16CHTO   O60 6485   5.973   2.519   1.884 -0.0614 -0.0437  0.4853
   16CHTO  H138 6486   5.989   2.456   1.816 -0.4260 -0.4931  0.8178
   16CHTO   O50 6487   5.835   2.995   1.887  0.4652 -0.2655  0.2473
   16CHTO   C73 6488   5.712   2.943   1.935 -0.6280  0.3716 -0.4882
   16CHTO  H145 6489   5.715   2.834   1.947 -0.9659  0.2146 -1.7232
   16CHTO   C74 6490   5.594   2.966   1.827 -0.3467 -0.5059  0.1686
   16CHTO  H146 6491   5.625   2.916   1.733  0.7530  0.5513 -0.0420
   16CHTO   O54 6492   5.477   2.903   1.868  0.6386 -0.6218  0.5415
   16CHTO  H133 6493   5.429   2.968   1.916  1.4873  2.8435 -3.0493
   16CHTO   C75 6494   5.582   3.122   1.805  1.0428  0.8746  0.0473
   16CHTO  H147 6495   5.681   3.164   1.787  0.1052  2.8684 -0.6027
   16CHTO   N13 6496   5.481   3.166   1.706  0.5970  0.3656 -0.5261
   16CHTO  H139 6497   5.486   3.264   1.661  1.6708  0.4210 -0.2809
   16CHTO  H140 6498   5.382   3.128   1.727  0.9991 -1.4499 -1.7472
   16CHTO   C76 6499   5.535   3.182   1.948 -0.0294 -0.1761  0.6278
   16CHTO  H148 6500   5.436   3.146   1.976  0.0452 -0.4551  0.5337
   16CHTO   O49 6501   5.633   3.144   2.045  0.4931  0.4748  0.4567
   16CHTO   C77 6502   5.672   3.012   2.065 -0.5651 -0.6680  0.3750
   16CHTO  H149 6503   5.594   2.952   2.113 -0.8564 -1.2794 -0.8330
   16CHTO   C88 6504   5.786   3.009   2.169  0.0325  0.1909  0.2814
   16CHTO   O58 6505   5.766   3.043   2.283  0.2134  0.1319  0.4597
   16CHTO  H136 6506   5.710   2.991   2.336 -0.8026  1.1196  0.3852
   16CHTO   O51 6507   5.538   3.360   1.958 -0.0592  0.3384  0.4746
   16CHTO   C78 6508   5.542   3.429   2.112  0.3208 -0.8010  0.0974
   16CHTO  H150 6509   5.575   3.350   2.182 -0.4537 -2.1237 -1.0073
   16CHTO   C80 6510   5.415   3.490   2.162  0.3773 -0.7541  0.2690
   16CHTO  H152 6511   5.394   3.577   2.096 -0.6196 -0.8637  0.4367
   16CHTO   O55 6512   5.300   3.397   2.145 -0.5343  0.1490 -0.2807
   16CHTO  H134 6513   5.319   3.318   2.191 -0.0170  0.8909  0.7910
   16CHTO   C84 6514   5.440   3.550   2.309 -0.0547 -0.1038 -0.0267
   16CHTO  H156 6515   5.484   3.476   2.376 -0.9228 -0.8600 -0.2790
   16CHTO   N15 6516   5.324   3.602   2.380 -0.2275 -0.3864  0.7553
   16CHTO  H143 6517   5.357   3.664   2.461  1.5815 -0.6052  0.2035
   16CHTO  H144 6518   5.276   3.667   2.309  0.2292 -0.6924  0.1681
   16CHTO   C87 6519   5.559   3.654   2.295 -0.1502  0.6861  0.5915
   16CHTO  H159 6520   5.524   3.728   2.223 -1.7265 -1.5275 -1.0147
   16CHTO   O53 6521   5.683   3.582   2.245 -0.1029  0.2125 -0.2592
   16CHTO   C82 6522   5.663   3.529   2.112 -0.3107 -0.2537 -0.5111
   16CHTO  H154 6523   5.646   3.605   2.035 -2.2970  0.2052  0.3425
   16CHTO   C89 6524   5.792   3.447   2.075  0.5853 -0.3420  0.6161
   16CHTO   O59 6525   5.902   3.535   2.043  0.1504 -0.4410 -0.2657
   16CHTO  H137 6526   5.938   3.562   2.125 -1.9898 -2.1663  1.2935
   16CHTO   O45 6527   5.595   3.728   2.433  0.1082 -0.2245  0.5530
   16CHTO   C67 6528   5.682   3.832   2.414 -0.6002  0.3022  0.3361
   16CHTO  H124 6529   5.755   3.805   2.338 -2.8201 -1.2724 -1.2932
   16CHTO   C65 6530   5.618   3.962   2.359 -0.0538 -0.0721  0.0685
   16CHTO  H122 6531   5.513   3.962   2.387  0.2247 -0.5226  1.1427
   16CHTO   O44 6532   5.620   3.968   2.213  0.1901 -0.3972 -0.3274
   16CHTO  H102 6533   5.705   3.987   2.178  0.5185 -1.2886 -0.0349
   16CHTO   C63 6534   5.681   4.096   2.428  0.0993 -0.2121 -0.3368
   16CHTO  H120 6535   5.643   4.103   2.530 -1.3556 -2.1265 -0.7074
   16CHTO   N11 6536   5.647   4.229   2.370 -0.1149 -0.0752  0.3897
   16CHTO  H108 6537   5.682   4.309   2.432  0.3633  0.6252 -0.7745
   16CHTO  H109 6538   5.699   4.223   2.277  0.8207  1.3304  0.8124
   16CHTO   C61 6539   5.837   4.083   2.440 -0.0859  0.7424 -0.2674
   16CHTO  H118 6540   5.889   4.173   2.479  1.2371  1.1351 -2.8582
   16CHTO   O40 6541   5.874   3.968   2.532  0.1187 -0.4335  0.3363
   16CHTO   C68 6542   5.774   3.864   2.543 -0.1458 -0.2257  0.8551
   16CHTO  H125 6543   5.700   3.894   2.620  0.1058  1.0220  0.6178
   16CHTO   C72 6544   5.844   3.731   2.592 -0.2819  0.3674  0.5305
   16CHTO   O48 6545   5.749   3.649   2.651  0.7380  0.0632  0.2357
   16CHTO  H105 6546   5.721   3.695   2.728 -1.3738  1.4341 -1.3114
   16CHTO   O38 6547   5.899   4.049   2.315 -0.1328  0.2440 -0.0041
   16CHTO   C55 6548   6.042   4.068   2.316 -0.0781  0.5219  0.1591
   16CHTO  H112 6549   6.081   4.071   2.419 -0.0986 -1.0052  0.2283
   16CHTO   C56 6550   6.073   4.209   2.239  0.1632  0.1302 -0.1890
   16CHTO  H113 6551   6.022   4.215   2.141  0.7650  1.7113 -0.4048
   16CHTO   O42 6552   6.018   4.324   2.307 -0.0930 -0.0989  0.0182
   16CHTO  H100 6553   5.926   4.308   2.301 -0.2380 -0.2006  2.2935
   16CHTO   C57 6554   6.228   4.236   2.220  0.1164 -0.4674 -0.4915
   16CHTO  H114 6555   6.270   4.233   2.320  0.6830 -0.3777 -0.7267
   16CHTO   N10 6556   6.269   4.352   2.138 -0.7289 -0.0543  0.2573
   16CHTO  H106 6557   6.195   4.431   2.137 -0.2305  0.4862  2.1665
   16CHTO  H107 6558   6.310   4.337   2.040  2.0669  1.4330  1.1632
   16CHTO   C58 6559   6.281   4.107   2.150  0.4138 -0.1423 -0.6242
   16CHTO  H115 6560   6.248   4.103   2.044  0.1255 -2.1012 -0.4650
   16CHTO   O37 6561   6.252   3.982   2.226  0.7357  0.2966  0.1082
   16CHTO   C59 6562   6.114   3.952   2.236  0.1837 -0.5501  0.1621
   16CHTO  H116 6563   6.067   3.933   2.140  0.5415  2.3148 -0.6183
   16CHTO   C70 6564   6.113   3.816   2.306 -0.1971 -0.6706 -0.2219
   16CHTO   O46 6565   6.142   3.702   2.224 -0.4851  0.0031 -0.0080
   16CHTO  H103 6566   6.137   3.619   2.267 -0.9323  0.4669  0.8484
   16CHTO   O39 6567   6.430   4.103   2.130  0.3614 -0.0272  0.6721
   16CHTO   C60 6568   6.491   4.020   2.028 -0.4672 -0.1675  0.1946
   16CHTO  H117 6569   6.417   3.953   1.986 -0.4817  1.0231 -1.7217
   16CHTO   C62 6570   6.557   4.101   1.909 -0.1389 -0.2336  0.1452
   16CHTO  H119 6571   6.469   4.153   1.867 -0.0202  0.3831  0.6573
   16CHTO   O43 6572   6.648   4.196   1.963  0.2157  0.2010  0.3630
   16CHTO  H101 6573   6.667   4.261   1.898  0.9075 -0.0500  0.3108
   16CHTO   C66 6574   6.618   3.993   1.804 -0.9138  0.0715  0.3571
   16CHTO  H123 6575   6.538   3.929   1.766 -1.0770  0.0675  0.7003
   16CHTO   N12 6576   6.671   4.062   1.686  0.5100  0.5701  0.5634
   16CHTO  H110 6577   6.587   4.078   1.620  0.2311 -0.7625  0.5771
   16CHTO  H111 6578   6.743   3.999   1.636 -0.5839  0.6995 -1.2231
   16CHTO   C69 6579   6.716   3.905   1.884 -0.0596  0.4576 -0.2580
   16CHTO  H126 6580   6.800   3.957   1.933 -0.1954  2.6407 -2.2932
   16CHTO   O41 6581   6.639   3.836   1.988  0.3610  0.1476  0.6443
   16CHTO   C64 6582   6.597   3.927   2.091 -0.2249 -0.4294  0.5305
   16CHTO  H121 6583   6.676   3.992   2.136 -1.2759  0.1534  1.5780
   16CHTO   C71 6584   6.536   3.847   2.211  0.2722 -0.3994  0.1455
   16CHTO   O47 6585   6.628   3.763   2.280 -0.2476  0.1479 -0.3947
   16CHTO  H104 6586   6.604   3.674   2.261 -0.5061 -0.2366  1.6082
   16CHTO   O34 6587   6.775   3.789   1.797 -0.1873  0.0504 -0.1222
   16CHTO   C49 6588   6.912   3.705   1.829  0.3198 -0.0700  0.3099
   16CHTO   H91 6589   6.978   3.739   1.749 -0.8850 -1.0081 -1.1168
   16CHTO   C47 6590   6.876   3.556   1.804  0.4140  0.0142 -0.3865
   16CHTO   H89 6591   6.963   3.491   1.825  0.3754 -0.2534 -1.0537
   16CHTO   O33 6592   6.838   3.536   1.669  0.0231 -0.5620 -0.7539
   16CHTO   H70 6593   6.920   3.546   1.625  0.6432 -2.4489 -0.0497
   16CHTO   C45 6594   6.772   3.520   1.921  0.0655  0.2342  0.6847
   16CHTO   H87 6595   6.685   3.587   1.914 -0.8706 -1.1474 -1.5805
   16CHTO    N8 6596   6.725   3.378   1.897 -0.4191 -0.5116  0.0264
   16CHTO   H75 6597   6.815   3.322   1.915  0.9160  1.5082 -0.2349
   16CHTO   H76 6598   6.648   3.353   1.969  1.2197  0.7329  2.2625
   16CHTO   C43 6599   6.843   3.532   2.068  0.1673  0.0495  0.8542
   16CHTO   H85 6600   6.768   3.511   2.145  0.1463 -0.0741  0.7993
   16CHTO   O29 6601   6.897   3.664   2.081 -0.5503 -0.3550  0.4175
   16CHTO   C50 6602   6.971   3.724   1.972 -0.0860  0.0637 -0.3700
   16CHTO   H92 6603   6.964   3.831   1.994 -1.4190  0.0336 -0.6223
   16CHTO   C54 6604   7.130   3.691   1.976  0.2191  0.7929 -0.3965
   16CHTO   O36 6605   7.186   3.694   2.107  0.1274 -0.2873 -0.6943
   16CHTO   H72 6606   7.279   3.693   2.097  0.0263  0.1823 -1.6509
   16CHTO   O27 6607   6.956   3.442   2.089 -0.3930 -0.3820 -0.2063
   16CHTO   C37 6608   7.039   3.367   2.188  0.8272  0.2972  1.0596
   16CHTO   H79 6609   7.113   3.432   2.238 -0.7347  1.6461  1.6557
   16CHTO   C38 6610   6.942   3.317   2.298 -0.2205 -0.2641  0.0046
   16CHTO   H80 6611   6.862   3.263   2.246 -0.5808 -1.1083  1.4379
   16CHTO   O31 6612   6.875   3.423   2.364 -0.3120 -0.4147  0.1018
   16CHTO   H68 6613   6.812   3.391   2.425  0.0369 -0.2304  0.5644
   16CHTO   C39 6614   6.999   3.214   2.402  0.0461 -1.2545  1.0287
   16CHTO   H81 6615   7.065   3.270   2.468 -1.2258  0.3429  0.9743
   16CHTO    N7 6616   6.895   3.151   2.491  0.0231 -0.0960 -0.0614
   16CHTO   H73 6617   6.851   3.070   2.436  0.7710 -0.4879 -0.0906
   16CHTO   H74 6618   6.931   3.127   2.590  3.2985  0.9084 -0.9175
   16CHTO   C40 6619   7.099   3.117   2.329 -0.7463 -0.0979 -0.0775
   16CHTO   H82 6620   7.032   3.046   2.281  0.1176  0.2780 -1.8656
   16CHTO   O26 6621   7.181   3.183   2.233 -0.2018 -0.5442 -0.5455
   16CHTO   C41 6622   7.114   3.253   2.125 -0.0409  0.5763 -0.1479
   16CHTO   H83 6623   7.051   3.178   2.074 -0.0167  0.1998  0.3634
   16CHTO   C52 6624   7.220   3.310   2.025 -0.3656  0.0150  0.3437
   16CHTO   O35 6625   7.321   3.205   1.992  0.3825  0.3484 -0.1421
   16CHTO   H71 6626   7.407   3.242   1.998  1.4360 -2.1096  0.3474
   16CHTO   O28 6627   7.175   3.049   2.431 -0.4705 -0.5201  0.2743
   16CHTO   C42 6628   7.211   2.901   2.408  0.1382  0.4685  0.6727
   16CHTO   H84 6629   7.299   2.892   2.471  1.2260  0.2406 -0.8699
   16CHTO   C44 6630   7.254   2.867   2.260 -0.9148  0.2787 -0.1646
   16CHTO   H86 6631   7.180   2.900   2.187 -0.3219  2.8323  0.3483
   16CHTO   O32 6632   7.365   2.954   2.244 -0.3945  0.2508  0.4779
   16CHTO   H69 6633   7.379   2.965   2.152  0.5526  0.3036  0.6243
   16CHTO   C48 6634   7.297   2.720   2.230  0.6739 -0.1221 -0.2511
   16CHTO   H90 6635   7.385   2.698   2.290  0.1836 -1.4913 -0.0001
   16CHTO    N9 6636   7.346   2.695   2.085 -0.3068 -0.2032  0.2241
   16CHTO   H77 6637   7.264   2.726   2.023 -1.1864 -1.5091  0.7009
   16CHTO   H78 6638   7.378   2.592   2.077  0.1717 -0.0819  0.5172
   16CHTO   C51 6639   7.180   2.625   2.281 -0.0728 -0.0965  0.0429
   16CHTO   H93 6640   7.091   2.656   2.227  0.5241 -1.3056 -1.6758
   16CHTO   O30 6641   7.165   2.646   2.420 -0.6731 -0.1969  0.2651
   16CHTO   C46 6642   7.106   2.792   2.454 -0.0710  0.3019 -0.2223
   16CHTO   H88 6643   7.017   2.807   2.393 -0.4996  0.0652  0.3369
   16CHTO   C53 6644   7.075   2.813   2.604 -0.6321 -0.5254 -0.1804
   16CHTO   O72 6645   6.983   2.714   2.649  0.0913 -0.3954 -0.0358
   16CHTO  H199 6646   7.022   2.669   2.721  0.2364 -2.3286 -1.2733
   16CHTO   O22 6647   7.201   2.487   2.258  0.0763 -0.4177 -0.3178
   16CHTO   C31 6648   7.089   2.390   2.280 -0.4091  0.5641  0.5638
   16CHTO   H59 6649   7.017   2.446   2.342 -0.1006  1.1570  0.3941
   16CHTO   C29 6650   7.016   2.353   2.146  0.0663 -0.1506  0.3204
   16CHTO   H57 6651   7.084   2.307   2.074 -0.7048  0.8629 -1.0802
   16CHTO   O21 6652   6.982   2.475   2.077  0.1673  0.2316 -0.0310
   16CHTO   H37 6653   6.896   2.461   2.043  0.8684  2.0435 -2.7211
   16CHTO   C27 6654   6.894   2.257   2.168 -0.2026  0.2603  0.1785
   16CHTO   H55 6655   6.816   2.311   2.223 -0.0665  0.7020 -0.0676
   16CHTO    N5 6656   6.838   2.201   2.042 -0.5767  0.9935  0.6291
   16CHTO   H43 6657   6.833   2.275   1.964 -1.0630 -0.3284 -0.6057
   16CHTO   H44 6658   6.905   2.125   2.007 -0.8319  1.3742 -0.6885
   16CHTO   C25 6659   6.954   2.137   2.247  0.0871  0.1050 -0.0799
   16CHTO   H53 6660   7.017   2.080   2.178 -0.4076  0.0580 -0.4945
   16CHTO   O17 6661   7.018   2.172   2.369 -0.2934 -0.5773  0.1632
   16CHTO   C32 6662   7.131   2.259   2.351 -0.1418 -1.0678 -0.1001
   16CHTO   H60 6663   7.204   2.208   2.288 -1.5226  0.0305 -2.6532
   16CHTO   C36 6664   7.200   2.284   2.491  0.0970  0.0133 -0.1956
   16CHTO   O25 6665   7.132   2.380   2.573  0.2950 -0.2658 -0.4561
   16CHTO   H40 6666   7.039   2.370   2.577  0.4588 -1.3105  1.1606
   16CHTO   O15 6667   6.842   2.024   2.302 -0.6497  0.0209 -0.2140
   16CHTO   C19 6668   6.741   1.990   2.398  0.1590  0.5719 -0.1930
   16CHTO   H47 6669   6.752   1.883   2.421  0.7891  0.6561 -0.1002
   16CHTO   C20 6670   6.752   2.074   2.528 -0.1791 -0.6582 -0.0166
   16CHTO   H48 6671   6.771   2.180   2.507 -1.1484 -0.3159  0.8231
   16CHTO   O19 6672   6.872   2.032   2.594 -0.3121  0.2693 -0.2965
   16CHTO   H35 6673   6.897   2.107   2.643 -0.4716  0.1836 -0.0828
   16CHTO   C21 6674   6.624   2.051   2.622 -0.0623  0.4628 -0.1343
   16CHTO   H49 6675   6.630   1.951   2.664 -0.2534  1.1396  1.5263
   16CHTO    N4 6676   6.632   2.149   2.730  0.1494 -0.2058 -0.6355
   16CHTO   H41 6677   6.558   2.130   2.805  1.8418  0.3850  1.2369
   16CHTO   H42 6678   6.729   2.133   2.775 -0.8791  0.8653  2.1003
   16CHTO   C22 6679   6.495   2.059   2.546  0.2100 -0.1897  1.1500
   16CHTO   H50 6680   6.476   2.163   2.516  0.3019 -0.5655 -0.2499
   16CHTO   O14 6681   6.498   1.969   2.436  0.5408 -0.2695 -0.4416
   16CHTO   C23 6682   6.598   1.995   2.335  0.8189  0.6583 -0.0057
   16CHTO   H51 6683   6.574   2.094   2.293 -3.0070 -1.0704 -2.2106
   16CHTO   C34 6684   6.591   1.909   2.211 -0.2803 -0.5056  0.0138
   16CHTO   O23 6685   6.594   1.770   2.238 -0.5254  0.3388 -0.0255
   16CHTO   H38 6686   6.604   1.725   2.156  0.4730 -0.3966  0.4823
   16CHTO   O16 6687   6.383   2.019   2.624  0.3470  0.0565 -0.3457
   16CHTO   C24 6688   6.254   2.077   2.577 -0.0600  0.1232  0.0976
   16CHTO   H52 6689   6.267   2.125   2.480  1.2161  0.6785  0.5363
   16CHTO   C26 6690   6.212   2.179   2.685  0.6590 -0.5273 -0.3037
   16CHTO   H54 6691   6.215   2.131   2.785 -0.8521  0.4737  0.2269
   16CHTO   O20 6692   6.313   2.283   2.683 -0.0715  0.1306  0.3333
   16CHTO   H36 6693   6.268   2.358   2.649 -0.3742  0.2417  0.9592
   16CHTO   C30 6694   6.070   2.228   2.657  0.7235 -0.2264  0.1924
   16CHTO   H58 6695   6.064   2.278   2.559  1.1558 -0.9427 -0.2026
   16CHTO    N6 6696   6.019   2.331   2.759 -0.2734 -0.1757  0.3157
   16CHTO   H45 6697   6.095   2.330   2.836  0.0122 -0.4384  0.0343
   16CHTO   H46 6698   5.923   2.309   2.804 -0.9934 -0.0260 -1.1244
   16CHTO   C33 6699   5.970   2.110   2.645 -0.1877 -0.2810  1.0215
   16CHTO   H61 6700   5.975   2.054   2.740  0.7352  0.4109  1.3952
   16CHTO   O18 6701   6.020   2.031   2.533 -0.1048 -0.4737 -0.5490
   16CHTO   C28 6702   6.143   1.964   2.562  0.2010  0.8399 -0.6058
   16CHTO   H56 6703   6.137   1.906   2.654 -0.7168  1.0319 -0.5408
   16CHTO   C35 6704   6.173   1.872   2.441 -0.0429 -0.6329 -0.8824
   16CHTO   O24 6705   6.280   1.783   2.479  0.1423 -0.1803 -0.2688
   16CHTO   H39 6706   6.255   1.727   2.550  0.1491  0.2978  0.1174
   16CHTO    O9 6707   5.831   2.157   2.619 -0.3300  0.4173  0.9848
   16CHTO   C13 6708   5.725   2.096   2.721 -0.1734  0.1257  0.7769
   16CHTO   H26 6709   5.755   2.128   2.823 -2.3786  2.0128  0.8687
   16CHTO   C11 6710   5.718   1.938   2.702  0.1377  0.5807  1.1743
   16CHTO   H24 6711   5.809   1.889   2.739  1.1047  2.7236  1.7110
   16CHTO    O8 6712   5.712   1.908   2.562  0.1137 -0.0105 -0.1632
   16CHTO    H3 6713   5.751   1.971   2.505  0.9363  0.3696  0.8094
   16CHTO    C9 6714   5.601   1.884   2.787 -0.0698 -0.1794  0.0103
   16CHTO   H22 6715   5.618   1.920   2.889 -1.1716 -1.2694  0.5991
   16CHTO    N2 6716   5.612   1.732   2.801  0.1619  0.0957 -0.1945
   16CHTO   H10 6717   5.533   1.671   2.760  1.0221 -0.7861 -0.5621
   16CHTO   H11 6718   5.652   1.715   2.900  0.3277 -2.5027 -0.6746
   16CHTO    C7 6719   5.466   1.942   2.733 -0.1850  0.3758  0.1554
   16CHTO   H20 6720   5.422   1.973   2.830  0.6124 -1.4514  1.1317
   16CHTO    O4 6721   5.479   2.065   2.659 -0.2500 -0.0718  0.5341
   16CHTO   C14 6722   5.579   2.162   2.701  0.3995  0.5801  0.1355
   16CHTO   H27 6723   5.541   2.192   2.801  0.2134  0.6913  0.0319
   16CHTO   C18 6724   5.581   2.287   2.611  0.5055  0.3015 -0.3809
   16CHTO   O13 6725   5.455   2.350   2.625  0.5450  0.3066  0.1598
   16CHTO    H7 6726   5.439   2.431   2.580 -1.6915  1.1399  2.3335
   16CHTO    O2 6727   5.379   1.825   2.633  0.2285 -0.2886 -0.0320
   16CHTO    C1 6728   5.236   1.832   2.627  0.1056 -0.5332 -0.4238
   16CHTO   H14 6729   5.196   1.755   2.558 -0.7516  1.0211 -1.6976
   16CHTO    C2 6730   5.181   1.960   2.578 -0.1375 -0.3305  0.0003
   16CHTO   H15 6731   5.217   2.036   2.649 -1.8288  1.1468 -0.6535
   16CHTO    O6 6732   5.235   1.992   2.445 -0.8127 -0.0799  0.4844
   16CHTO    H1 6733   5.209   2.076   2.412 -1.8117 -0.3058  0.6680
   16CHTO    C3 6734   5.023   1.953   2.585 -0.5808  0.4882  0.6247
   16CHTO   H16 6735   5.001   1.870   2.516  2.2097 -0.1159  0.4057
   16CHTO    N1 6736   4.946   2.075   2.532  0.0605 -0.0156 -0.0243
   16CHTO    H8 6737   4.956   2.093   2.426 -0.5528 -0.2685 -0.1231
   16CHTO    H9 6738   4.974   2.164   2.587  1.5573 -0.3501 -0.2198
   16CHTO    C4 6739   4.971   1.903   2.728 -0.1175 -0.2081 -0.4500
   16CHTO   H17 6740   5.003   1.974   2.804  0.5646 -0.6417 -0.3206
   16CHTO    O1 6741   5.038   1.779   2.759  0.2917  0.4385  0.3390
   16CHTO    C5 6742   5.177   1.791   2.771  0.1093 -0.7916  0.6831
   16CHTO   H18 6743   5.191   1.876   2.838  0.4759  0.0289 -0.4161
   16CHTO   C16 6744   5.228   1.664   2.836 -0.2167 -0.3218  0.2551
   16CHTO   O11 6745   5.207   1.550   2.753  0.2143 -0.2208  0.3214
   16CHTO    H5 6746   5.116   1.529   2.757 -0.2885  1.7851 -0.2860
   16CHTO    O3 6747   4.829   1.881   2.739 -0.0908  0.0882 -0.4281
   16CHTO    C6 6748   4.762   1.855   2.860 -0.1482 -0.1246 -0.1457
   16CHTO   H19 6749   4.825   1.824   2.943 -0.9142 -0.3097  0.3685
   16CHTO    C8 6750   4.685   1.983   2.898  0.5342 -0.4391  0.2222
   16CHTO   H21 6751   4.608   1.996   2.823  0.8013  1.3369  0.2353
   16CHTO    O7 6752   4.779   2.102   2.897  0.0553  0.6789  0.1697
   16CHTO    H2 6753   4.756   2.144   2.817 -1.9772 -1.2995 -0.3320
   16CHTO   C12 6754   4.614   1.952   3.042  0.0001 -0.2523  0.6020
   16CHTO   H25 6755   4.696   1.932   3.115  0.0645 -1.7934  0.1095
   16CHTO    N3 6756   4.544   2.066   3.099 -0.6833 -0.2066  0.0904
   16CHTO   H12 6757   4.456   2.092   3.042 -0.4728  0.1509 -0.0731
   16CHTO   H13 6758   4.616   2.145   3.115  1.4903 -1.7215 -1.8045
   16CHTO   C15 6759   4.519   1.819   3.028 -0.0929  0.5002  0.5157
   16CHTO   H28 6760   4.433   1.844   2.967  0.4179  2.4167  0.5444
   16CHTO   O10 6761   4.479   1.761   3.148 -0.1119  0.0715 -0.2627
   16CHTO    H4 6762   4.400   1.712   3.136 -0.4719  0.5181  0.2116
   16CHTO    O5 6763   4.595   1.712   2.973 -0.5214 -0.4827  0.4794
   16CHTO   C10 6764   4.660   1.738   2.845  0.2622 -0.3263 -0.5735
   16CHTO   H23 6765   4.574   1.755   2.781  0.1272 -2.2772 -0.9335
   16CHTO   C17 6766   4.737   1.619   2.786 -0.5906  0.0105  0.1588
   16CHTO   O12 6767   4.764   1.640   2.650  0.8349  0.6388 -0.9241
   16CHTO    H6 6768   4.700   1.690   2.604 -0.4514  0.2828  0.4574
   17CHTO  H203 6769   4.272   4.688   0.701 -0.1761  1.7510  0.2787
   17CHTO   O82 6770   4.366   4.693   0.703 -0.0507 -0.3279  0.0908
   17CHTO  C123 6771   4.408   4.824   0.732  1.1057 -0.2097  0.7687
   17CHTO  H227 6772   4.331   4.894   0.696  0.1133 -1.5881  0.1645
   17CHTO   O77 6773   4.408   4.813   0.880 -0.1926 -0.4423 -0.8324
   17CHTO  C118 6774   4.460   4.931   0.949 -0.6491 -0.0224 -0.1653
   17CHTO  H222 6775   4.388   5.013   0.929 -1.7805 -0.8939  0.2774
   17CHTO  C125 6776   4.458   4.899   1.104 -0.6803 -0.4073  0.3402
   17CHTO   O84 6777   4.332   4.865   1.151 -0.0158 -0.1943 -0.4617
   17CHTO  H205 6778   4.315   4.915   1.229  0.2584 -1.5268  0.4717
   17CHTO  C114 6779   4.605   4.965   0.904  0.3557 -0.0247 -0.2664
   17CHTO  H218 6780   4.671   4.884   0.934  0.0510 -0.0012  0.4696
   17CHTO  C116 6781   4.613   4.971   0.748  0.0801 -0.4045 -0.2398
   17CHTO  H220 6782   4.561   5.063   0.714  0.8997  0.3297  0.4808
   17CHTO   O79 6783   4.755   4.991   0.720  0.5229 -0.2113 -0.4620
   17CHTO  H201 6784   4.769   5.025   0.634  4.1177  1.4203  0.6915
   17CHTO  C120 6785   4.551   4.852   0.668  0.0942 -0.2006  0.2175
   17CHTO  H224 6786   4.615   4.762   0.684 -0.7386 -1.0482 -1.1146
   17CHTO   N21 6787   4.542   4.878   0.525  0.6211  0.0184 -1.0993
   17CHTO  H211 6788   4.627   4.851   0.465  0.2799 -1.9743 -0.7249
   17CHTO  H212 6789   4.510   4.980   0.508  2.9521  1.4899  2.7439
   17CHTO   O75 6790   4.642   5.092   0.974  0.3800 -0.0777 -0.1671
   17CHTO  C112 6791   4.650   5.249   0.899 -0.3115 -0.0684 -0.2535
   17CHTO  H216 6792   4.616   5.243   0.794 -1.0795  0.8015 -0.0646
   17CHTO   O73 6793   4.787   5.290   0.908  0.3455  0.1937 -0.2102
   17CHTO  C113 6794   4.809   5.411   0.837  0.1645  0.2814  0.1116
   17CHTO  H217 6795   4.768   5.404   0.733 -1.1639 -1.1815  0.6995
   17CHTO  C124 6796   4.960   5.447   0.832 -0.3173  0.2800  0.5175
   17CHTO   O83 6797   5.017   5.457   0.968  0.4181 -0.4324  0.5798
   17CHTO  H204 6798   5.101   5.498   0.965  0.6849 -1.0278 -2.4679
   17CHTO  C109 6799   4.731   5.531   0.893 -0.2228 -0.4658  0.6218
   17CHTO  H213 6800   4.781   5.557   0.987 -0.4877  1.6909  0.2091
   17CHTO  C110 6801   4.574   5.498   0.901  0.2336  0.3750 -0.2065
   17CHTO  H214 6802   4.544   5.487   0.796 -2.0966 -0.9132  0.5750
   17CHTO   O78 6803   4.503   5.608   0.963  0.1346  0.9602  0.1492
   17CHTO  H200 6804   4.409   5.606   0.964  0.1397  0.9861  1.8506
   17CHTO  C111 6805   4.557   5.361   0.971  0.1657 -0.1187  0.2428
   17CHTO  H215 6806   4.579   5.369   1.079 -0.6382  4.3917  0.1901
   17CHTO   N19 6807   4.423   5.311   0.960 -0.5046 -0.4762 -0.1798
   17CHTO  H207 6808   4.411   5.219   1.016  1.0271 -0.7501 -0.2725
   17CHTO  H208 6809   4.396   5.312   0.856 -0.8313  0.4133 -0.0885
   17CHTO   O74 6810   4.750   5.644   0.799  0.0587  0.1898 -0.3256
   17CHTO  C115 6811   4.729   5.796   0.861  0.5924 -0.0094  0.7283
   17CHTO  H219 6812   4.622   5.813   0.876  0.2359 -0.2902 -1.3685
   17CHTO   O76 6813   4.796   5.809   1.017  0.2190  0.3158 -0.1078
   17CHTO  C122 6814   4.940   5.809   1.010  0.1118 -0.6470  0.1199
   17CHTO  H226 6815   4.960   5.715   0.957 -0.4038 -1.1179  0.7565
   17CHTO  C126 6816   4.987   5.792   1.162 -0.9719  0.8824 -0.0432
   17CHTO   O85 6817   4.939   5.667   1.221  0.0383 -0.2800 -0.3868
   17CHTO  H206 6818   4.865   5.698   1.269  1.2229  2.9222 -0.4892
   17CHTO  C121 6819   5.003   5.929   0.922  0.2940 -0.0373 -0.0549
   17CHTO  H225 6820   5.050   6.007   0.986 -2.0189  1.0370  0.4040
   17CHTO   O81 6821   5.109   5.865   0.851  0.2784  0.3203  0.7433
   17CHTO  H202 6822   5.187   5.916   0.862 -0.5060  1.8111 -0.2686
   17CHTO  C119 6823   4.896   6.002   0.834  0.1891 -0.1368 -0.5278
   17CHTO  H223 6824   4.834   6.053   0.907  0.9612 -0.0197  0.0532
   17CHTO  C117 6825   4.793   5.903   0.759 -1.1908  0.1104 -0.5566
   17CHTO  H221 6826   4.845   5.850   0.678  0.4957  2.2496 -0.9200
   17CHTO   N20 6827   4.683   5.966   0.685  0.6425  0.0736 -0.0179
   17CHTO  H209 6828   4.717   6.033   0.606 -1.1895 -0.6561 -1.4406
   17CHTO  H210 6829   4.611   5.895   0.648  0.5978 -0.1542  0.5129
   17CHTO   O80 6830   4.941   6.117   0.738 -0.0175 -0.3795 -0.1989
   17CHTO  C103 6831   5.002   6.245   0.805 -0.4596 -0.1903 -0.1620
   17CHTO  H190 6832   4.976   6.245   0.910 -0.9511  0.2975 -0.2797
   17CHTO  C101 6833   5.155   6.274   0.781  0.4466  0.8402 -0.2055
   17CHTO  H188 6834   5.188   6.249   0.680  0.4654  1.3833 -0.3341
   17CHTO   O68 6835   5.221   6.187   0.857 -0.2857  0.0597  0.4695
   17CHTO  H168 6836   5.293   6.142   0.816 -0.0267 -1.0172  2.0317
   17CHTO   C99 6837   5.202   6.429   0.800 -0.9529 -0.1714 -0.8023
   17CHTO  H186 6838   5.197   6.453   0.908  0.9565 -0.9700 -0.5232
   17CHTO   N17 6839   5.350   6.457   0.757  0.2837 -0.6214 -0.3405
   17CHTO  H174 6840   5.378   6.549   0.806 -0.0109 -0.9222  0.4113
   17CHTO  H175 6841   5.412   6.376   0.792 -0.3841 -0.7844  0.4962
   17CHTO   C97 6842   5.097   6.513   0.732 -0.5831 -0.6082  0.7806
   17CHTO  H184 6843   5.104   6.482   0.627  1.0885  1.1700  0.3269
   17CHTO   O64 6844   4.970   6.489   0.787 -0.3010 -0.1650  0.0388
   17CHTO  C104 6845   4.915   6.363   0.747  0.2957  0.3995  0.1735
   17CHTO  H191 6846   4.912   6.353   0.638 -2.1094  3.8392 -0.1712
   17CHTO  C108 6847   4.767   6.354   0.789  0.0967  0.3935 -0.0520
   17CHTO   O71 6848   4.674   6.419   0.701  0.4845 -0.1759  0.0001
   17CHTO  H171 6849   4.674   6.391   0.611  1.0374 -0.5491  0.1096
   17CHTO   O62 6850   5.126   6.652   0.756 -0.1674 -0.3213 -0.6544
   17CHTO   C91 6851   5.084   6.745   0.659 -0.2496 -0.3629  0.0019
   17CHTO  H178 6852   5.036   6.690   0.579 -0.8552 -0.4138  0.3919
   17CHTO   C92 6853   5.207   6.813   0.594  0.2464  0.7845 -0.4854
   17CHTO  H179 6854   5.288   6.739   0.582 -0.1444  0.1498  0.6825
   17CHTO   O66 6855   5.162   6.859   0.467 -0.0243 -0.8238 -0.1309
   17CHTO  H166 6856   5.147   6.952   0.469  0.4213 -0.7178 -1.2219
   17CHTO   C93 6857   5.276   6.932   0.678 -0.6897 -0.4819  0.3259
   17CHTO  H180 6858   5.318   7.008   0.611  0.0397 -1.2569 -0.1037
   17CHTO   N16 6859   5.384   6.881   0.759 -0.1801  0.9060 -0.4716
   17CHTO  H172 6860   5.448   6.955   0.803 -0.9964  0.4456  1.5497
   17CHTO  H173 6861   5.347   6.815   0.837  2.4379 -0.7811 -0.5928
   17CHTO   C94 6862   5.164   7.004   0.771 -0.0749  0.1840 -0.1461
   17CHTO  H181 6863   5.170   6.974   0.875 -1.1852  2.3644  0.5790
   17CHTO   O61 6864   5.033   6.992   0.717 -0.1999  0.0222  0.3548
   17CHTO   C95 6865   4.975   6.858   0.713 -0.6785  0.3941 -0.3981
   17CHTO  H182 6866   4.949   6.828   0.815 -0.6214 -1.0281 -0.7992
   17CHTO  C106 6867   4.842   6.860   0.627  0.2196  0.3321 -0.5604
   17CHTO   O69 6868   4.775   6.729   0.622 -0.1653 -0.3681  0.4741
   17CHTO  H169 6869   4.727   6.724   0.541 -0.3228 -0.2350  0.5585
   17CHTO   O63 6870   5.201   7.159   0.756 -0.1264 -0.4518  0.7796
   17CHTO   C96 6871   5.123   7.246   0.860  0.7198 -0.9639  0.2833
   17CHTO  H183 6872   5.065   7.179   0.924 -0.0756 -0.5880 -0.0314
   17CHTO   C98 6873   5.030   7.348   0.806  0.5902 -0.6523 -0.0285
   17CHTO  H185 6874   5.091   7.411   0.739  0.6760 -1.1095 -0.3838
   17CHTO   O67 6875   4.935   7.284   0.715 -0.0114 -0.3344 -0.0975
   17CHTO  H167 6876   4.866   7.343   0.693  1.4591  1.4244 -0.1299
   17CHTO  C102 6877   4.963   7.443   0.917 -0.5044  0.2800 -0.2557
   17CHTO  H189 6878   4.892   7.380   0.973  0.8062  0.4208  1.6324
   17CHTO   N18 6879   4.889   7.563   0.868 -0.4315 -0.0165  0.8981
   17CHTO  H176 6880   4.898   7.578   0.761 -0.0601 -0.7313  0.8225
   17CHTO  H177 6881   4.916   7.649   0.927  2.5997 -1.0314  1.1215
   17CHTO  C105 6882   5.066   7.482   1.028  0.0240  0.0639  0.5328
   17CHTO  H192 6883   5.134   7.555   0.984  0.8695 -1.1642 -0.2440
   17CHTO   O65 6884   5.161   7.381   1.070 -0.6503 -0.4438  0.4068
   17CHTO  C100 6885   5.227   7.320   0.960  0.5800  0.0344  0.7545
   17CHTO  H187 6886   5.279   7.396   0.900  0.9965  0.7601  2.0094
   17CHTO  C107 6887   5.331   7.233   1.014  0.7759 -0.3908 -0.1300
   17CHTO   O70 6888   5.398   7.286   1.126  0.3515 -0.1561 -0.2342
   17CHTO  H170 6889   5.454   7.218   1.158 -0.0222 -0.4326 -0.1611
   17CHTO   O57 6890   5.015   7.540   1.148 -0.0196  0.3657 -0.1806
   17CHTO   C85 6891   5.019   7.678   1.175  0.3654 -0.7840  0.3744
   17CHTO  H157 6892   5.023   7.735   1.080 -0.7313  0.9562  1.3446
   17CHTO   C83 6893   5.160   7.716   1.234  0.2783  0.0729  0.1491
   17CHTO  H155 6894   5.238   7.684   1.165 -0.5568  0.6336 -1.0683
   17CHTO   O56 6895   5.200   7.630   1.342  0.1060  0.2524 -0.3068
   17CHTO  H135 6896   5.289   7.648   1.364 -0.6621  2.1956  1.4136
   17CHTO   C81 6897   5.168   7.871   1.263 -0.4723  0.0482  0.2550
   17CHTO  H153 6898   5.154   7.920   1.166 -2.4654 -2.3205 -0.7079
   17CHTO   N14 6899   5.303   7.908   1.299 -0.5292 -0.2498  0.7434
   17CHTO  H141 6900   5.376   7.837   1.267 -0.6802 -0.2918  0.4891
   17CHTO  H142 6901   5.319   7.999   1.245 -4.2397 -1.0973 -1.9676
   17CHTO   C79 6902   5.063   7.919   1.364 -0.7047  0.7495 -0.7626
   17CHTO  H151 6903   5.062   8.028   1.363 -3.3695  0.7754  0.1950
   17CHTO   O52 6904   4.930   7.877   1.324 -0.1358 -0.1847  0.1238
   17CHTO   C86 6905   4.914   7.738   1.279 -0.7482 -0.3918  0.0917
   17CHTO  H158 6906   4.922   7.682   1.375  0.5069  1.5193  1.1587
   17CHTO   C90 6907   4.770   7.722   1.235 -0.6693  0.8427 -0.8637
   17CHTO   O60 6908   4.732   7.597   1.159  0.6906  0.0346 -0.3150
   17CHTO  H138 6909   4.656   7.560   1.199 -1.2507  2.5892 -1.4194
   17CHTO   O50 6910   5.079   7.876   1.506 -0.3645  0.2194  0.2158
   17CHTO   C73 6911   5.077   7.871   1.652 -0.4818 -0.0586 -0.1019
   17CHTO  H145 6912   5.045   7.969   1.693 -0.1429 -0.4393  1.0904
   17CHTO   C74 6913   5.224   7.841   1.716  0.0671  0.6883  0.3051
   17CHTO  H146 6914   5.289   7.920   1.676 -0.5090  0.3597 -1.3111
   17CHTO   O54 6915   5.212   7.841   1.858 -0.3219 -0.5458  0.0977
   17CHTO  H133 6916   5.292   7.864   1.902 -0.3673  0.0543 -0.1175
   17CHTO   C75 6917   5.266   7.699   1.663 -0.4472  0.1448  0.0516
   17CHTO  H147 6918   5.276   7.702   1.553 -1.5240  0.3268 -0.0379
   17CHTO   N13 6919   5.396   7.649   1.714 -0.3000 -0.0637 -0.2262
   17CHTO  H139 6920   5.406   7.609   1.813 -0.6514  1.0312  0.2552
   17CHTO  H140 6921   5.474   7.722   1.694  0.0091 -0.3709 -0.1541
   17CHTO   C76 6922   5.153   7.582   1.681  0.4904  0.5347  1.0694
   17CHTO  H148 6923   5.145   7.546   1.784  1.1584 -0.9944  0.5986
   17CHTO   O49 6924   5.025   7.634   1.631  0.3470 -0.3751 -0.4152
   17CHTO   C77 6925   4.981   7.758   1.697  0.2937 -0.4679  0.0312
   17CHTO  H149 6926   4.985   7.747   1.805  0.4638 -1.8884 -0.1136
   17CHTO   C88 6927   4.838   7.800   1.656 -0.5956  0.5413 -0.7081
   17CHTO   O58 6928   4.737   7.707   1.728 -0.0581  0.1419  0.8229
   17CHTO  H136 6929   4.654   7.751   1.729 -0.5074 -0.6360 -0.1479
   17CHTO   O51 6930   5.192   7.454   1.581  0.2407 -0.0420 -0.3953
   17CHTO   C78 6931   5.109   7.327   1.623  0.3552  0.7845  0.1090
   17CHTO  H150 6932   5.011   7.364   1.659  0.4803  2.6771 -1.4215
   17CHTO   C80 6933   5.171   7.233   1.731 -0.7161  0.5016 -0.0623
   17CHTO  H152 6934   5.274   7.206   1.698 -0.4846  1.4311 -0.1184
   17CHTO   O55 6935   5.192   7.310   1.853  0.6622 -0.0343 -0.5806
   17CHTO  H134 6936   5.221   7.260   1.928  1.1451  0.3191 -0.5313
   17CHTO   C84 6937   5.077   7.106   1.752  0.1677 -0.2235 -0.6182
   17CHTO  H156 6938   4.977   7.143   1.772 -0.9305 -1.3442 -3.6672
   17CHTO   N15 6939   5.128   7.023   1.866 -0.1013 -0.8111  0.4832
   17CHTO  H143 6940   5.040   7.003   1.924 -0.0248  0.5462  1.0741
   17CHTO  H144 6941   5.199   7.078   1.924  0.5606 -1.9654  0.7918
   17CHTO   C87 6942   5.067   7.030   1.616  0.4836  0.4464 -0.2962
   17CHTO  H159 6943   5.167   7.006   1.580  0.8911 -0.9758  1.6992
   17CHTO   O53 6944   5.009   7.120   1.527  0.6693  0.3636  0.3666
   17CHTO   C82 6945   5.078   7.243   1.493 -0.5737  0.2281  0.3951
   17CHTO  H154 6946   5.168   7.220   1.437  0.1555  2.3161  0.6520
   17CHTO   C89 6947   4.985   7.330   1.403  0.3575 -0.1553  0.4516
   17CHTO   O59 6948   4.986   7.270   1.273 -0.2129  0.4113  0.2711
   17CHTO  H137 6949   4.988   7.337   1.208 -0.8274 -0.3286 -0.5092
   17CHTO   O45 6950   4.953   6.893   1.641 -0.2117  0.3644 -0.5771
   17CHTO   C67 6951   4.813   6.921   1.670 -0.7728  0.2032  0.0437
   17CHTO  H124 6952   4.809   6.985   1.758  1.4025  0.4459 -0.0086
   17CHTO   C65 6953   4.722   6.986   1.550 -0.2171  0.5142  0.2623
   17CHTO  H122 6954   4.790   6.994   1.465  0.7045 -0.7146  0.8654
   17CHTO   O44 6955   4.677   7.116   1.589 -0.2566  0.2225 -0.1174
   17CHTO  H102 6956   4.590   7.125   1.557 -0.2141 -0.6522 -0.5047
   17CHTO   C63 6957   4.613   6.885   1.491  0.2039  0.8141 -0.4140
   17CHTO  H120 6958   4.663   6.796   1.453  0.9565  0.8091  0.5710
   17CHTO   N11 6959   4.526   6.930   1.382  0.7580 -0.5692  0.4869
   17CHTO  H108 6960   4.551   6.887   1.287  1.1065 -0.8641  0.7084
   17CHTO  H109 6961   4.421   6.935   1.404  0.7147  1.6288 -0.0733
   17CHTO   C61 6962   4.536   6.818   1.611 -0.2647 -0.2126  0.2911
   17CHTO  H118 6963   4.508   6.716   1.578 -0.2222 -0.1701  0.1245
   17CHTO   O40 6964   4.618   6.795   1.738  0.1294 -0.1274 -0.5120
   17CHTO   C68 6965   4.759   6.779   1.721 -0.4444 -0.6346 -0.3272
   17CHTO  H125 6966   4.761   6.694   1.650 -1.5912 -0.4024 -0.6535
   17CHTO   C72 6967   4.819   6.732   1.852  0.3234 -0.2717 -0.0092
   17CHTO   O48 6968   4.793   6.598   1.885  0.0571  0.0218 -0.1956
   17CHTO  H105 6969   4.874   6.560   1.915 -0.4795 -2.1427 -1.3813
   17CHTO   O38 6970   4.422   6.892   1.651 -0.3799  0.3902  0.4268
   17CHTO   C55 6971   4.317   6.831   1.730 -1.1041  0.7778  0.6144
   17CHTO  H112 6972   4.360   6.742   1.779 -2.7763  0.4527  1.5298
   17CHTO   C56 6973   4.193   6.804   1.645 -0.0067  1.1442  0.3378
   17CHTO  H113 6974   4.147   6.890   1.594 -1.7215  0.4903  0.7364
   17CHTO   O42 6975   4.233   6.707   1.542  0.3221  0.1473 -0.1078
   17CHTO  H100 6976   4.160   6.703   1.483  0.1783  0.3548  0.0577
   17CHTO   C57 6977   4.081   6.748   1.741 -0.2516  0.5138 -0.0422
   17CHTO  H114 6978   4.115   6.658   1.793 -0.1110  0.8851  0.5099
   17CHTO   N10 6979   3.955   6.709   1.671 -0.3177  0.0879 -0.1699
   17CHTO  H106 6980   3.977   6.666   1.575  0.2554 -2.3785  1.0146
   17CHTO  H107 6981   3.883   6.789   1.662 -1.9284 -1.4764 -1.4486
   17CHTO   C58 6982   4.058   6.853   1.844 -0.1203  0.2004  0.1790
   17CHTO  H115 6983   4.017   6.944   1.795  1.2829 -0.9014 -3.1947
   17CHTO   O37 6984   4.166   6.880   1.921  0.1379 -0.0041  0.0579
   17CHTO   C59 6985   4.268   6.935   1.839 -0.2519  0.7394 -0.3376
   17CHTO  H116 6986   4.238   7.030   1.795 -1.6647  0.0624 -0.8604
   17CHTO   C70 6987   4.386   6.957   1.930  0.1988 -0.3374 -0.6208
   17CHTO   O46 6988   4.359   7.072   2.012  0.4383  0.0336  0.3542
   17CHTO  H103 6989   4.307   7.137   1.969 -0.1004 -0.0159  0.9187
   17CHTO   O39 6990   3.953   6.798   1.947  0.2231 -0.8709  0.0877
   17CHTO   C60 6991   3.853   6.895   1.995 -0.3001  0.2885 -0.1296
   17CHTO  H117 6992   3.884   6.997   1.970 -1.2439  0.2804 -1.3832
   17CHTO   C62 6993   3.708   6.870   1.925  0.1015  0.1872  0.9605
   17CHTO  H119 6994   3.723   6.874   1.815 -1.8737 -2.9981  0.5451
   17CHTO   O43 6995   3.661   6.744   1.967 -0.0627  0.0504 -0.4057
   17CHTO  H101 6996   3.567   6.735   1.969  0.0488 -1.3562 -0.3761
   17CHTO   C66 6997   3.615   6.997   1.967 -0.1346 -0.5915  0.0095
   17CHTO  H123 6998   3.654   7.091   1.927  2.4776 -1.5200  0.2828
   17CHTO   N12 6999   3.486   7.002   1.902 -0.0536  0.3850  0.6588
   17CHTO  H110 7000   3.477   7.089   1.838  1.1951  2.7935  3.6587
   17CHTO  H111 7001   3.451   6.908   1.860 -0.6172  1.4762 -1.3604
   17CHTO   C69 7002   3.614   7.006   2.123 -0.3738 -0.4532  0.0403
   17CHTO  H126 7003   3.545   6.929   2.165 -1.1780 -0.2489 -0.8887
   17CHTO   O41 7004   3.757   7.001   2.189 -0.1666  0.3236  0.6785
   17CHTO   C64 7005   3.842   6.891   2.152 -0.1005  0.8966 -0.0015
   17CHTO  H121 7006   3.785   6.799   2.177  1.6220 -0.3218 -0.4845
   17CHTO   C71 7007   3.977   6.900   2.227 -0.1078  0.4292  0.0863
   17CHTO   O47 7008   3.964   6.909   2.371  0.2245 -0.8539  0.9627
   17CHTO  H104 7009   3.985   6.825   2.406 -3.9768 -1.8511  1.3788
   17CHTO   O34 7010   3.547   7.135   2.165 -0.4827  0.2669 -0.2626
   17CHTO   C49 7011   3.487   7.250   2.262  0.1779  0.7424  1.0372
   17CHTO   H91 7012   3.571   7.319   2.259  0.6164  0.1376 -2.3937
   17CHTO   C47 7013   3.437   7.184   2.395 -0.4191 -0.0015 -0.7126
   17CHTO   H89 7014   3.410   7.269   2.460  1.6646  1.6276 -1.9136
   17CHTO   O33 7015   3.546   7.116   2.461 -0.5220  0.0506 -0.3918
   17CHTO   H70 7016   3.521   7.056   2.528 -0.9847  0.0625 -0.5532
   17CHTO   C45 7017   3.320   7.077   2.363  0.2085 -0.2446  0.4412
   17CHTO   H87 7018   3.357   6.976   2.339  0.6908  0.0866 -0.2536
   17CHTO    N8 7019   3.233   7.066   2.485  0.1030  0.4327 -0.2513
   17CHTO   H75 7020   3.295   7.042   2.570  0.3856 -1.8709 -1.0630
   17CHTO   H76 7021   3.191   7.163   2.504 -0.1231  0.4795 -0.9550
   17CHTO   C43 7022   3.242   7.118   2.222  0.1246 -1.0025 -0.2695
   17CHTO   H85 7023   3.312   7.073   2.152 -0.5407 -2.3762 -0.0682
   17CHTO   O29 7024   3.234   7.262   2.206  0.1832 -0.1680 -0.2557
   17CHTO   C50 7025   3.364   7.323   2.195  0.1684 -0.4816  0.2499
   17CHTO   H92 7026   3.388   7.324   2.088 -2.1912 -1.0980 -0.3003
   17CHTO   C54 7027   3.365   7.474   2.230 -0.6395  0.1562  0.1166
   17CHTO   O36 7028   3.314   7.492   2.361  0.4684 -0.7546 -0.1668
   17CHTO   H72 7029   3.342   7.572   2.400 -1.0476  0.1745 -0.9444
   17CHTO   O27 7030   3.117   7.061   2.196 -0.2014 -0.3098 -0.4685
   17CHTO   C37 7031   3.041   6.975   2.111  0.2909 -0.2327  0.2264
   17CHTO   H79 7032   2.936   6.981   2.144  1.0183  2.0001  2.2744
   17CHTO   C38 7033   3.066   7.042   1.969  0.2087 -0.2742  0.2356
   17CHTO   H80 7034   3.175   7.052   1.956  0.2622 -0.3039  0.6567
   17CHTO   O31 7035   3.009   7.174   1.974  0.0680 -0.3866  0.5800
   17CHTO   H68 7036   3.048   7.221   1.903 -2.5324 -0.1465 -0.7586
   17CHTO   C39 7037   3.005   6.961   1.851 -0.5662 -0.2663 -0.0546
   17CHTO   H81 7038   2.896   6.963   1.851 -0.6259 -2.0993  1.5363
   17CHTO    N7 7039   3.048   7.019   1.716 -0.3317  0.6147  0.2931
   17CHTO   H73 7040   3.022   7.123   1.699  2.4788  1.3903  0.5892
   17CHTO   H74 7041   3.155   7.016   1.709 -0.3847 -1.6620  0.2691
   17CHTO   C40 7042   3.040   6.808   1.870  0.0899 -0.3055  0.3932
   17CHTO   H82 7043   3.148   6.796   1.854  0.0602  0.8133 -0.7178
   17CHTO   O26 7044   3.001   6.755   1.999  0.4301 -0.5100 -0.2097
   17CHTO   C41 7045   3.074   6.819   2.110 -0.1906 -0.1296 -0.6916
   17CHTO   H83 7046   3.181   6.796   2.101  0.3203  1.9397 -0.2541
   17CHTO   C52 7047   3.021   6.760   2.245  0.0889 -0.3318  0.4619
   17CHTO   O35 7048   3.099   6.802   2.353  0.1451  0.3181  0.2012
   17CHTO   H71 7049   3.061   6.877   2.394 -0.5296 -0.5109  1.1242
   17CHTO   O28 7050   2.965   6.722   1.787  0.0527  0.3724  0.4415
   17CHTO   C42 7051   3.022   6.592   1.744  0.6497 -0.0792 -0.3880
   17CHTO   H84 7052   2.939   6.558   1.682 -0.3412  0.2511  0.7393
   17CHTO   C44 7053   3.036   6.480   1.856  0.0560 -0.5720 -0.1625
   17CHTO   H86 7054   3.097   6.523   1.936  3.1911 -2.6518 -1.3076
   17CHTO   O32 7055   2.906   6.468   1.914  0.1878  0.5980 -1.1048
   17CHTO   H69 7056   2.889   6.377   1.932  0.0302  0.1472 -3.3893
   17CHTO   C48 7057   3.107   6.343   1.816  0.1964  0.2552  0.4017
   17CHTO   H90 7058   3.043   6.287   1.747 -2.6470  1.6944  1.7735
   17CHTO    N9 7059   3.125   6.251   1.928  0.0353 -0.0480  0.0724
   17CHTO   H77 7060   3.187   6.296   2.003  1.1980 -0.4272 -0.6542
   17CHTO   H78 7061   3.026   6.221   1.960  0.2598 -1.4427 -0.5025
   17CHTO   C51 7062   3.245   6.381   1.734 -0.2058  0.1149  0.7091
   17CHTO   H93 7063   3.308   6.443   1.798 -0.1397  1.0126 -0.2109
   17CHTO   O30 7064   3.194   6.453   1.622  0.0319 -0.5565  0.0534
   17CHTO   C46 7065   3.150   6.602   1.659  0.1719  1.1367  0.1289
   17CHTO   H88 7066   3.232   6.645   1.717  1.5655 -0.9965 -0.2075
   17CHTO   C53 7067   3.129   6.694   1.535 -0.5185  0.2750  0.1278
   17CHTO   O72 7068   3.258   6.732   1.483  0.0484 -0.0287  0.1322
   17CHTO  H199 7069   3.248   6.762   1.395  2.1619 -1.5498 -0.6764
   17CHTO   O22 7070   3.313   6.265   1.682  0.1194 -0.2114  0.0855
   17CHTO   C31 7071   3.436   6.271   1.609  0.0991  0.4109  0.0240
   17CHTO   H59 7072   3.422   6.362   1.548  0.6843  0.7904  0.4490
   17CHTO   C29 7073   3.566   6.287   1.684 -0.1258  0.3388  0.3071
   17CHTO   H57 7074   3.582   6.192   1.737 -0.0956 -0.9330 -1.9420
   17CHTO   O21 7075   3.555   6.395   1.776 -0.1951 -0.3080 -0.2064
   17CHTO   H37 7076   3.604   6.376   1.853  1.8550  0.2322 -1.3459
   17CHTO   C27 7077   3.689   6.316   1.594 -1.4086 -0.0623  0.0463
   17CHTO   H55 7078   3.682   6.415   1.547 -1.9923 -0.1074  0.0420
   17CHTO    N5 7079   3.817   6.322   1.668 -0.2211  0.2365 -0.1247
   17CHTO   H43 7080   3.892   6.332   1.591  1.8585 -0.5843  1.7053
   17CHTO   H44 7081   3.833   6.233   1.728  1.7910 -0.3122 -1.4071
   17CHTO   C25 7082   3.686   6.208   1.473 -0.4932 -0.7604 -0.2294
   17CHTO   H53 7083   3.734   6.111   1.491  1.0851 -0.0158 -0.3773
   17CHTO   O17 7084   3.548   6.186   1.420  0.0218 -0.4392 -0.5662
   17CHTO   C32 7085   3.446   6.152   1.509  0.4060 -0.0322  0.1125
   17CHTO   H60 7086   3.477   6.062   1.564  3.0750  0.5078 -0.4243
   17CHTO   C36 7087   3.312   6.120   1.431 -0.0738 -0.5619 -0.4761
   17CHTO   O25 7088   3.343   6.013   1.333  0.9871 -0.4551  0.2875
   17CHTO   H40 7089   3.294   6.028   1.254  1.9964 -1.0036 -0.4399
   17CHTO   O15 7090   3.768   6.277   1.358  0.2767 -0.1813 -0.5341
   17CHTO   C19 7091   3.776   6.403   1.282  0.3558 -0.1942 -0.0976
   17CHTO   H47 7092   3.806   6.366   1.183  1.2305  1.0551 -0.3116
   17CHTO   C20 7093   3.647   6.491   1.272  0.5331  0.5624 -0.0136
   17CHTO   H48 7094   3.590   6.490   1.366 -0.2168 -0.2062 -0.4719
   17CHTO   O19 7095   3.563   6.440   1.175  0.2544  0.5770 -0.1214
   17CHTO   H35 7096   3.574   6.348   1.161  0.5871  0.2872  1.8157
   17CHTO   C21 7097   3.661   6.650   1.234 -0.1018  0.0945  0.3194
   17CHTO   H49 7098   3.676   6.666   1.127 -2.1472 -0.3541 -0.0668
   17CHTO    N4 7099   3.541   6.732   1.271 -0.4326  0.6480  0.1727
   17CHTO   H41 7100   3.568   6.800   1.351  0.2859  2.5284 -1.6040
   17CHTO   H42 7101   3.449   6.678   1.287  0.5180 -0.9835  0.2305
   17CHTO   C22 7102   3.789   6.698   1.298  0.0394 -0.2603  0.0600
   17CHTO   H50 7103   3.774   6.703   1.406 -2.1846  1.7033 -0.2905
   17CHTO   O14 7104   3.902   6.608   1.275 -0.3103  0.0783 -0.2219
   17CHTO   C23 7105   3.890   6.484   1.338 -0.0466  0.1000  0.0728
   17CHTO   H51 7106   3.878   6.502   1.446 -1.5128 -1.3546  0.1682
   17CHTO   C34 7107   4.026   6.415   1.301  0.7508 -0.3245 -0.2186
   17CHTO   O23 7108   4.043   6.285   1.359  0.3274 -0.4001  0.2612
   17CHTO   H38 7109   4.134   6.270   1.378 -0.1583  0.4135  3.4834
   17CHTO   O16 7110   3.823   6.824   1.241  0.1226  0.4332  0.3677
   17CHTO   C24 7111   3.931   6.907   1.333 -0.3003 -0.0935 -0.7719
   17CHTO   H52 7112   3.958   6.848   1.420  0.4260  1.0434 -0.2064
   17CHTO   C26 7113   3.860   7.036   1.383 -1.1085 -0.4198 -0.8295
   17CHTO   H54 7114   3.840   7.101   1.295  2.3784 -0.5739 -1.7945
   17CHTO   O20 7115   3.744   6.987   1.452 -0.0719  0.4217  0.1029
   17CHTO   H36 7116   3.676   7.048   1.475 -1.0022 -0.3217 -0.6056
   17CHTO   C30 7117   3.951   7.121   1.475 -1.0218 -0.5257  0.3996
   17CHTO   H58 7118   3.977   7.057   1.560  1.3125  0.8167  0.7617
   17CHTO    N6 7119   3.884   7.240   1.526  0.0696 -0.0666  0.8109
   17CHTO   H45 7120   3.789   7.252   1.475  0.9790  0.3673 -0.8053
   17CHTO   H46 7121   3.870   7.230   1.633  0.2000 -0.0326  0.8313
   17CHTO   C33 7122   4.089   7.141   1.413  0.0431  0.2378 -0.0868
   17CHTO   H61 7123   4.077   7.215   1.332 -0.9667 -0.6180 -0.7139
   17CHTO   O18 7124   4.145   7.023   1.357  0.0770 -0.6714 -0.0289
   17CHTO   C28 7125   4.064   6.951   1.262  0.2682  0.3085  0.1159
   17CHTO   H56 7126   4.041   7.022   1.182 -1.8498 -0.5467 -0.0724
   17CHTO   C35 7127   4.143   6.837   1.212 -0.3692  0.1602  0.1809
   17CHTO   O24 7128   4.253   6.891   1.128  0.1095  0.0244  0.3474
   17CHTO   H39 7129   4.294   6.817   1.088  1.2906 -0.2569  2.0428
   17CHTO    O9 7130   4.183   7.203   1.501  0.8143 -0.5549 -0.4043
   17CHTO   C13 7131   4.285   7.304   1.419 -0.0891 -0.5586 -0.3709
   17CHTO   H26 7132   4.300   7.258   1.319 -1.8318 -1.0410 -0.4202
   17CHTO   C11 7133   4.425   7.323   1.503 -0.8628  0.1180 -0.0507
   17CHTO   H24 7134   4.472   7.224   1.504 -0.2995  0.3857  0.9750
   17CHTO    O8 7135   4.396   7.354   1.644 -0.6166 -0.1827 -0.6894
   17CHTO    H3 7136   4.483   7.355   1.679 -0.5334  3.5799 -0.7933
   17CHTO    C9 7137   4.520   7.433   1.441  0.4314 -0.1826  0.3729
   17CHTO   H22 7138   4.541   7.392   1.341 -0.2654 -2.2109  1.0137
   17CHTO    N2 7139   4.651   7.443   1.511  1.0256 -0.2708  0.3213
   17CHTO   H10 7140   4.694   7.344   1.513 -1.0514 -1.1743  1.2187
   17CHTO   H11 7141   4.658   7.489   1.608  0.1394  0.2238  0.1486
   17CHTO    C7 7142   4.441   7.574   1.426 -0.5385 -0.4300 -0.0340
   17CHTO   H20 7143   4.506   7.630   1.355  0.1140 -1.9413 -0.6545
   17CHTO    O4 7144   4.315   7.560   1.364  0.2261  0.2110  0.7793
   17CHTO   C14 7145   4.226   7.450   1.391  0.6212  0.0803 -0.3063
   17CHTO   H27 7146   4.161   7.453   1.302 -3.0632  3.1770  2.2916
   17CHTO   C18 7147   4.136   7.488   1.517 -0.5980 -0.2386  0.2974
   17CHTO   O13 7148   4.058   7.608   1.503  0.5812  0.8586  0.2824
   17CHTO    H7 7149   4.010   7.622   1.582  1.4938 -1.5996  1.3055
   17CHTO    O2 7150   4.437   7.648   1.542  0.2623  0.0788  0.3984
   17CHTO    C1 7151   4.386   7.782   1.540 -0.1735  1.0916 -0.1777
   17CHTO   H14 7152   4.286   7.775   1.492  1.5221  0.9182 -3.7944
   17CHTO    C2 7153   4.471   7.870   1.448 -0.0268 -1.6500 -0.2852
   17CHTO   H15 7154   4.575   7.836   1.457  0.3293 -0.1685  1.3124
   17CHTO    O6 7155   4.429   7.860   1.309  0.3094  0.1055 -0.8748
   17CHTO    H1 7156   4.400   7.773   1.290 -0.1793  0.5865 -2.3589
   17CHTO    C3 7157   4.474   8.024   1.487 -0.1723 -0.2365  0.5718
   17CHTO   H16 7158   4.383   8.062   1.439  0.3865 -1.1010 -1.2250
   17CHTO    N1 7159   4.594   8.101   1.432  0.4998  0.1405 -0.0882
   17CHTO    H8 7160   4.655   8.043   1.365 -0.1688 -1.5307  0.7132
   17CHTO    H9 7161   4.567   8.195   1.386  0.5667  0.6476  0.8878
   17CHTO    C4 7162   4.452   8.048   1.640 -0.0245 -0.2370  0.4072
   17CHTO   H17 7163   4.543   8.028   1.696  0.4482  0.1805 -0.2093
   17CHTO    O1 7164   4.345   7.969   1.694  0.0243  0.6273 -0.1345
   17CHTO    C5 7165   4.379   7.831   1.686 -0.6452 -0.0325  0.3560
   17CHTO   H18 7166   4.471   7.808   1.740 -1.4525  1.1816  2.3005
   17CHTO   C16 7167   4.264   7.760   1.761  0.3638 -0.5251  0.1820
   17CHTO   O11 7168   4.258   7.806   1.902 -0.1784  0.1083  0.2054
   17CHTO    H5 7169   4.336   7.810   1.953  0.1468  0.7803 -0.3311
   17CHTO    O3 7170   4.400   8.180   1.662 -0.8182 -0.2654 -0.0651
   17CHTO    C6 7171   4.427   8.256   1.788 -0.3425 -0.5759 -0.1999
   17CHTO   H19 7172   4.356   8.337   1.801  1.9409  1.5276 -0.3568
   17CHTO    C8 7173   4.414   8.180   1.927 -0.1725  0.5293  0.2821
   17CHTO   H21 7174   4.481   8.093   1.925  0.1667  0.7994 -1.3186
   17CHTO    O7 7175   4.279   8.140   1.938 -0.8803 -0.1988  0.3157
   17CHTO    H2 7176   4.235   8.190   2.004 -2.0000 -1.7556  0.7889
   17CHTO   C12 7177   4.457   8.277   2.039 -0.1261 -0.0659  0.5780
   17CHTO   H25 7178   4.390   8.364   2.024 -0.0779 -0.2145 -0.5945
   17CHTO    N3 7179   4.430   8.214   2.174  0.0108  0.2939 -0.7943
   17CHTO   H12 7180   4.450   8.108   2.165 -0.5067 -0.0909  2.1102
   17CHTO   H13 7181   4.487   8.254   2.257 -0.0499  1.8134 -1.4705
   17CHTO   C15 7182   4.600   8.324   2.017 -0.6272 -0.7728  0.4804
   17CHTO   H28 7183   4.669   8.241   2.004  2.1004  1.6070 -1.0830
   17CHTO   O10 7184   4.652   8.444   2.114  0.3372  0.0931  0.4629
   17CHTO    H4 7185   4.595   8.516   2.128  1.2861  0.6505  1.5558
   17CHTO    O5 7186   4.602   8.394   1.893  0.5352 -0.3994 -0.7680
   17CHTO   C10 7187   4.565   8.326   1.776 -0.2650  0.4676 -0.1370
   17CHTO   H23 7188   4.638   8.248   1.753  0.1898  0.9110 -0.2134
   17CHTO   C17 7189   4.567   8.424   1.657 -0.6395 -0.0636 -0.0988
   17CHTO   O12 7190   4.492   8.546   1.682 -0.4730  0.1398  0.1247
   17CHTO    H6 7191   4.506   8.600   1.607  1.7170  0.6212  0.8156
   18CHTO  H203 7192   5.403   7.406   2.112 -1.4541  0.8966  1.1395
   18CHTO   O82 7193   5.476   7.461   2.134 -0.0536 -0.5896  0.3317
   18CHTO  C123 7194   5.562   7.516   2.037 -0.1580  0.2743  1.0266
   18CHTO  H227 7195   5.510   7.525   1.940  0.1637 -0.7480  0.7458
   18CHTO   O77 7196   5.600   7.645   2.087  0.7518 -0.4066 -0.3814
   18CHTO  C118 7197   5.661   7.737   1.995 -0.3814 -0.6250 -0.6839
   18CHTO  H222 7198   5.582   7.750   1.920 -0.8756 -0.7312 -0.1858
   18CHTO  C125 7199   5.683   7.869   2.069 -0.0063  0.0218  0.1630
   18CHTO   O84 7200   5.774   7.959   2.017  0.4295 -0.4286 -0.1775
   18CHTO  H205 7201   5.860   7.946   2.053 -0.3609  1.4482  2.5222
   18CHTO  C114 7202   5.790   7.673   1.932  0.6405 -0.4044  0.1901
   18CHTO  H218 7203   5.868   7.681   2.008  0.8117 -1.3604  0.1252
   18CHTO  C116 7204   5.775   7.520   1.897  0.6128 -0.7126  0.3920
   18CHTO  H220 7205   5.725   7.523   1.799  0.4724  0.7291  0.4867
   18CHTO   O79 7206   5.904   7.467   1.874  0.4810 -0.0784  0.3561
   18CHTO  H201 7207   5.896   7.379   1.905  0.5499 -0.4091 -0.5581
   18CHTO  C120 7208   5.690   7.433   2.007 -0.1428  0.0866 -0.1394
   18CHTO  H224 7209   5.752   7.417   2.097  1.2901  1.7722 -0.8056
   18CHTO   N21 7210   5.666   7.301   1.948 -0.6077  0.2738 -0.1474
   18CHTO  H211 7211   5.578   7.257   1.994 -0.2112 -0.8966 -0.4885
   18CHTO  H212 7212   5.748   7.238   1.981 -1.4307 -0.8652 -0.2348
   18CHTO   O75 7213   5.818   7.755   1.813  0.1350  0.4079  0.0919
   18CHTO  C112 7214   5.985   7.775   1.798  0.3166  0.3007 -0.4226
   18CHTO  H216 7215   6.036   7.699   1.860  2.0051  1.6184 -0.1487
   18CHTO   O73 7216   6.012   7.909   1.844  0.2409 -0.4652  0.4913
   18CHTO  C113 7217   6.148   7.955   1.816  0.0069  0.8981  0.2423
   18CHTO  H217 7218   6.225   7.900   1.874  0.0710 -0.2747 -0.9287
   18CHTO  C124 7219   6.139   8.098   1.867 -0.3148 -0.6423 -0.8509
   18CHTO   O83 7220   6.097   8.118   2.007 -0.6529  0.1343  0.3545
   18CHTO  H204 7221   6.112   8.040   2.057 -1.4345  0.0639  0.4860
   18CHTO  C109 7222   6.165   7.951   1.662 -0.5024  0.7112 -0.0400
   18CHTO  H213 7223   6.079   8.004   1.620 -0.8964  0.6000  0.6143
   18CHTO  C110 7224   6.166   7.801   1.608  0.1890 -0.0055 -0.5650
   18CHTO  H214 7225   6.240   7.740   1.659 -0.0629  0.6505  0.5972
   18CHTO   O78 7226   6.190   7.790   1.468 -0.0679 -0.1249  0.4564
   18CHTO  H200 7227   6.280   7.805   1.448  0.2034 -1.9763  0.1350
   18CHTO  C111 7228   6.018   7.749   1.645 -0.0947 -0.6800 -0.2279
   18CHTO  H215 7229   5.945   7.803   1.583  1.2518  1.1467 -0.2806
   18CHTO   N19 7230   6.001   7.607   1.612 -0.1627 -0.0923 -0.1266
   18CHTO  H207 7231   6.076   7.544   1.656  0.5270 -1.1427 -2.7348
   18CHTO  H208 7232   6.013   7.594   1.505  0.2156 -0.2284 -0.0654
   18CHTO   O74 7233   6.290   8.024   1.620  0.8645  0.7135 -0.4849
   18CHTO  C115 7234   6.279   8.095   1.466  0.1001  0.8230  0.2458
   18CHTO  H219 7235   6.197   8.052   1.409 -0.8355  1.5038  1.0624
   18CHTO   O76 7236   6.233   8.264   1.472  0.3281  0.2304 -0.3709
   18CHTO  C122 7237   6.257   8.360   1.369  0.0569 -0.2182 -0.8355
   18CHTO  H226 7238   6.271   8.456   1.419 -2.0225 -0.1823 -0.2675
   18CHTO  C126 7239   6.135   8.388   1.279 -0.2474  0.0424 -0.2495
   18CHTO   O85 7240   6.073   8.271   1.215  0.0682  0.1994 -0.5049
   18CHTO  H206 7241   6.147   8.219   1.191  1.1518  0.5292  1.8778
   18CHTO  C121 7242   6.390   8.331   1.279 -0.0696  0.1507  1.0876
   18CHTO  H225 7243   6.372   8.391   1.187  2.0154 -1.6375 -0.5445
   18CHTO   O81 7244   6.503   8.378   1.349 -0.0038 -0.0670  0.2696
   18CHTO  H202 7245   6.580   8.345   1.307  0.7159  0.0223  1.4849
   18CHTO  C119 7246   6.407   8.181   1.245 -0.3823 -0.5646 -0.2989
   18CHTO  H223 7247   6.312   8.143   1.207 -1.2878 -0.3111  1.6227
   18CHTO  C117 7248   6.416   8.098   1.385  0.3898 -0.4203  0.1578
   18CHTO  H221 7249   6.480   8.150   1.456 -1.3756  2.0475  0.0502
   18CHTO   N20 7250   6.474   7.964   1.370 -0.5456 -0.2860 -0.0034
   18CHTO  H209 7251   6.399   7.899   1.328 -2.5227  0.0234  2.8578
   18CHTO  H210 7252   6.532   7.920   1.450 -1.1047 -0.3644  0.3615
   18CHTO   O80 7253   6.507   8.152   1.120 -0.6164 -0.0849  0.3593
   18CHTO  C103 7254   6.450   8.092   0.982 -0.0945  0.0351  0.6250
   18CHTO  H190 7255   6.527   8.097   0.905  0.8149 -1.9814  1.3802
   18CHTO  C101 7256   6.399   7.942   0.993 -0.0536  0.0763  0.2418
   18CHTO  H188 7257   6.340   7.929   1.084  0.5206 -1.9201  0.3545
   18CHTO   O68 7258   6.525   7.845   1.004  0.6944 -0.0977 -0.0964
   18CHTO  H168 7259   6.561   7.833   0.919  2.4839 -0.9828  0.7432
   18CHTO   C99 7260   6.309   7.900   0.868 -0.3283 -0.0134  0.3388
   18CHTO  H186 7261   6.380   7.888   0.783 -0.6881 -0.6907  0.1356
   18CHTO   N17 7262   6.241   7.768   0.890 -0.4702  0.1600 -0.4699
   18CHTO  H174 7263   6.251   7.730   0.991  0.7581 -2.2340 -1.4327
   18CHTO  H175 7264   6.268   7.692   0.817 -0.2528 -0.0101 -0.2122
   18CHTO   C97 7265   6.202   8.005   0.825  0.2361 -0.7239  0.0207
   18CHTO  H184 7266   6.132   8.002   0.910  0.9298  1.1171  0.6914
   18CHTO   O64 7267   6.265   8.134   0.816 -0.7127  0.1671  0.2560
   18CHTO  C104 7268   6.330   8.186   0.931 -0.2376  0.0759 -0.5952
   18CHTO  H191 7269   6.263   8.200   1.016  1.7822  0.4712  0.9688
   18CHTO  C108 7270   6.382   8.322   0.900 -0.8628 -0.4848 -0.0090
   18CHTO   O71 7271   6.277   8.419   0.893  0.4735 -0.0397  0.1259
   18CHTO  H171 7272   6.232   8.424   0.811  0.6791  1.7811  0.1215
   18CHTO   O62 7273   6.141   7.974   0.695 -0.3908  0.2459 -0.1954
   18CHTO   C91 7274   6.003   8.016   0.680  0.1767 -0.0974 -0.3324
   18CHTO  H178 7275   5.957   8.044   0.775 -0.8853  1.1108 -1.1822
   18CHTO   C92 7276   5.922   7.883   0.626  0.1122 -0.4107 -0.7297
   18CHTO  H179 7277   5.957   7.863   0.524 -0.6737 -2.6648 -0.5896
   18CHTO   O66 7278   5.952   7.771   0.714  0.0915  0.1301 -0.1057
   18CHTO  H166 7279   6.020   7.719   0.675  1.0144 -0.0221  1.6699
   18CHTO   C93 7280   5.759   7.929   0.616 -0.4047 -0.3773  0.3872
   18CHTO  H180 7281   5.715   7.939   0.716 -0.8592 -2.5147  0.4287
   18CHTO   N16 7282   5.674   7.822   0.564 -0.3330 -0.3121  0.5243
   18CHTO  H172 7283   5.725   7.729   0.581 -1.1123 -0.8571 -0.0973
   18CHTO  H173 7284   5.579   7.833   0.614  0.4863 -0.7650  2.2391
   18CHTO   C94 7285   5.745   8.065   0.538 -0.1389  0.9135  0.0040
   18CHTO  H181 7286   5.761   8.051   0.431 -0.5301 -1.8871  0.2709
   18CHTO   O61 7287   5.832   8.162   0.595 -0.0713  0.4489  0.8931
   18CHTO   C95 7288   5.973   8.128   0.590  0.1406 -0.3681 -0.1403
   18CHTO  H182 7289   5.989   8.098   0.486 -0.8564  0.7340 -0.6269
   18CHTO  C106 7290   6.065   8.254   0.624  0.3203 -0.6996 -0.1128
   18CHTO   O69 7291   6.013   8.328   0.728 -0.3474  0.2254 -0.3759
   18CHTO  H169 7292   5.940   8.381   0.700 -0.6101  0.0052 -0.1127
   18CHTO   O63 7293   5.609   8.121   0.560 -0.2996  0.1485 -0.0728
   18CHTO   C96 7294   5.563   8.200   0.423  0.6448 -0.2421  0.1583
   18CHTO  H183 7295   5.594   8.140   0.338 -1.8220 -0.1570 -0.8557
   18CHTO   C98 7296   5.635   8.345   0.413 -0.4801 -0.2513  0.0966
   18CHTO  H185 7297   5.740   8.330   0.442 -1.1231 -1.8700  1.6523
   18CHTO   O67 7298   5.643   8.397   0.277 -0.1356 -0.2597 -0.4639
   18CHTO  H167 7299   5.702   8.469   0.262  0.3976 -0.3839  0.9594
   18CHTO  C102 7300   5.566   8.460   0.496 -0.4221 -0.0230 -0.1317
   18CHTO  H189 7301   5.623   8.550   0.470 -0.8709 -0.1658 -1.6742
   18CHTO   N18 7302   5.576   8.459   0.637  0.2536  0.2710 -0.3885
   18CHTO  H176 7303   5.653   8.388   0.662  0.3693  0.2921 -0.6885
   18CHTO  H177 7304   5.590   8.559   0.675 -0.0939 -0.3832  1.5093
   18CHTO  C105 7305   5.407   8.464   0.455  0.0830  0.9591  0.0851
   18CHTO  H192 7306   5.346   8.464   0.545  0.3183  1.0530  0.2448
   18CHTO   O65 7307   5.359   8.343   0.389  0.1432  0.0734  0.0145
   18CHTO  C100 7308   5.410   8.214   0.427  0.2040  0.6494 -0.2517
   18CHTO  H187 7309   5.375   8.195   0.530 -1.1746 -2.3685 -1.1979
   18CHTO  C107 7310   5.328   8.104   0.342 -0.0459 -0.1373  0.4296
   18CHTO   O70 7311   5.380   7.971   0.337  0.2952 -0.3975  0.5618
   18CHTO  H170 7312   5.469   7.974   0.306  0.7173 -3.0332  1.4500
   18CHTO   O57 7313   5.383   8.602   0.372  0.6905  0.0080  0.1321
   18CHTO   C85 7314   5.268   8.674   0.329  0.3322  0.5945  0.7214
   18CHTO  H157 7315   5.297   8.768   0.278 -1.1598  0.2003 -0.8886
   18CHTO   C83 7316   5.194   8.738   0.454  0.2727 -0.3507  0.2846
   18CHTO  H155 7317   5.264   8.812   0.494  0.0284  0.1496 -0.2018
   18CHTO   O56 7318   5.162   8.646   0.560 -0.5482  0.6313  0.0067
   18CHTO  H135 7319   5.198   8.665   0.645  1.8171  2.5740 -1.3461
   18CHTO   C81 7320   5.065   8.807   0.407  0.0847 -0.3634  0.2444
   18CHTO  H153 7321   5.095   8.884   0.335 -0.3321 -0.3561  0.0799
   18CHTO   N14 7322   5.000   8.892   0.514  0.3332  0.1140  0.5438
   18CHTO  H141 7323   5.006   8.994   0.483 -0.9312 -0.3009 -1.1875
   18CHTO  H142 7324   5.044   8.878   0.610  0.9036 -0.6968  0.1793
   18CHTO   C79 7325   4.967   8.705   0.332 -0.1617 -0.7492  0.2877
   18CHTO  H151 7326   4.881   8.763   0.299  1.8016  1.8740 -0.3435
   18CHTO   O52 7327   5.035   8.663   0.216 -0.0572  0.0453  0.1857
   18CHTO   C86 7328   5.164   8.595   0.242 -1.0225  0.3096 -0.3664
   18CHTO  H158 7329   5.142   8.502   0.299 -0.6144  1.4361  1.6702
   18CHTO   C90 7330   5.222   8.559   0.105  0.0589  0.6891  0.1472
   18CHTO   O60 7331   5.137   8.457   0.052 -0.3799 -0.9566  0.2123
   18CHTO  H138 7332   5.186   8.418  -0.017  0.7438  0.3573  0.2379
   18CHTO   O50 7333   4.916   8.602   0.417 -0.2484  0.1046 -0.3350
   18CHTO   C73 7334   4.827   8.499   0.448  1.0972 -0.0950 -0.3056
   18CHTO  H145 7335   4.836   8.420   0.372 -0.9258  0.1539 -0.8346
   18CHTO   C74 7336   4.683   8.562   0.449  0.5551 -0.4382  0.5723
   18CHTO  H146 7337   4.658   8.610   0.352 -0.9781 -1.8996  0.2187
   18CHTO   O54 7338   4.589   8.457   0.461 -0.2700 -0.0883  0.2231
   18CHTO  H133 7339   4.607   8.405   0.538  1.3792 -1.8222 -1.3018
   18CHTO   C75 7340   4.676   8.668   0.573 -0.0414 -0.4271  0.2830
   18CHTO  H147 7341   4.736   8.758   0.552 -0.3933 -0.5634 -1.4053
   18CHTO   N13 7342   4.542   8.726   0.585 -0.3266 -0.7762  0.3930
   18CHTO  H139 7343   4.461   8.658   0.561 -1.3450  0.9988 -1.3131
   18CHTO  H140 7344   4.522   8.758   0.686  0.2702 -3.7879  1.5073
   18CHTO   C76 7345   4.738   8.604   0.710  0.2758  0.4941  0.9954
   18CHTO  H148 7346   4.666   8.527   0.737  1.6608 -0.9565  0.6161
   18CHTO   O49 7347   4.864   8.532   0.683  0.3739 -0.1475  0.1686
   18CHTO   C77 7348   4.863   8.435   0.588 -0.4540 -0.4833 -0.2995
   18CHTO  H149 7349   4.786   8.362   0.614  0.3112 -1.9364 -2.0025
   18CHTO   C88 7350   4.996   8.366   0.587  0.5306 -0.5432  0.4855
   18CHTO   O58 7351   5.005   8.244   0.514  0.4417 -0.0663  0.3193
   18CHTO  H136 7352   4.988   8.177   0.577  1.6518 -0.6059  0.0786
   18CHTO   O51 7353   4.768   8.717   0.819 -0.7515 -0.2269  0.0942
   18CHTO   C78 7354   4.769   8.644   0.973  0.2413 -0.3551 -0.2099
   18CHTO  H150 7355   4.763   8.534   0.963  1.6373 -0.4695  0.0726
   18CHTO   C80 7356   4.659   8.699   1.064  0.5108 -0.1238 -0.7438
   18CHTO  H152 7357   4.674   8.807   1.083 -1.5977  0.2820 -1.2543
   18CHTO   O55 7358   4.534   8.679   1.001 -0.3056  0.0521 -0.0936
   18CHTO  H134 7359   4.462   8.707   1.054 -1.6597 -1.1086 -1.2884
   18CHTO   C84 7360   4.666   8.626   1.202 -0.1537 -0.0722 -0.2077
   18CHTO  H156 7361   4.676   8.520   1.178  0.1011 -0.6979  2.5205
   18CHTO   N15 7362   4.551   8.650   1.289 -0.0957  0.3215  0.5469
   18CHTO  H143 7363   4.474   8.692   1.227  0.5301  1.5975  0.6104
   18CHTO  H144 7364   4.522   8.561   1.341  1.6276 -1.3774 -1.3603
   18CHTO   C87 7365   4.798   8.680   1.269  0.6938 -0.1482  0.0053
   18CHTO  H159 7366   4.800   8.789   1.266  0.1286 -0.1637 -1.0736
   18CHTO   O53 7367   4.918   8.632   1.168 -0.3037  0.4785  0.0328
   18CHTO   C82 7368   4.908   8.663   1.029  0.0380  0.1996  0.6030
   18CHTO  H154 7369   4.937   8.766   1.011 -0.5417  0.2784  0.1087
   18CHTO   C89 7370   5.010   8.576   0.952  1.0089  0.6197 -0.5428
   18CHTO   O59 7371   5.149   8.603   0.974  0.1552 -0.0040 -0.4368
   18CHTO  H137 7372   5.153   8.695   0.991 -0.0631  0.4966 -3.0089
   18CHTO   O45 7373   4.832   8.623   1.428  0.0146  0.1542 -0.0616
   18CHTO   C67 7374   4.976   8.606   1.447  0.7831 -0.2816  0.0975
   18CHTO  H124 7375   5.023   8.562   1.360  4.0120 -1.9168  2.5387
   18CHTO   C65 7376   5.039   8.751   1.478 -0.0898 -0.0260 -0.6175
   18CHTO  H122 7377   4.954   8.807   1.518  0.3485 -0.3717  0.8295
   18CHTO   O44 7378   5.068   8.807   1.344  0.0677 -0.2331  0.2006
   18CHTO  H102 7379   5.109   8.746   1.286  0.8419  2.5744 -2.3675
   18CHTO   C63 7380   5.148   8.751   1.586  0.7396 -0.4927 -0.4550
   18CHTO  H120 7381   5.103   8.746   1.686  0.9310  0.4344 -0.3180
   18CHTO   N11 7382   5.229   8.880   1.600  0.1969  0.3530  0.2890
   18CHTO  H108 7383   5.290   8.877   1.688 -1.0569  0.0585  1.1560
   18CHTO  H109 7384   5.297   8.887   1.517  1.2850 -0.8659  1.0648
   18CHTO   C61 7385   5.230   8.613   1.571 -0.6814 -0.5246  0.2366
   18CHTO  H118 7386   5.305   8.621   1.651 -0.5372  1.4685 -0.0743
   18CHTO   O40 7387   5.145   8.494   1.600 -0.3878  0.0143 -0.0383
   18CHTO   C68 7388   5.002   8.506   1.567 -0.4035 -0.4387 -0.5434
   18CHTO  H125 7389   4.957   8.533   1.665  2.0715 -0.3843  0.6163
   18CHTO   C72 7390   4.948   8.366   1.536 -0.5377 -0.4907  0.8227
   18CHTO   O48 7391   4.937   8.269   1.641  0.5083 -0.0316  0.4579
   18CHTO  H105 7392   5.017   8.253   1.687  1.0860  0.3490 -0.4066
   18CHTO   O38 7393   5.287   8.605   1.436 -0.5816  0.0153  0.1420
   18CHTO   C55 7394   5.415   8.539   1.421  0.9766  0.7708  0.2904
   18CHTO  H112 7395   5.440   8.470   1.502  3.1215 -0.2568 -1.2014
   18CHTO   C56 7396   5.530   8.646   1.390  0.6465 -0.2207  0.0469
   18CHTO  H113 7397   5.498   8.692   1.295  3.3480  1.6621 -0.0139
   18CHTO   O42 7398   5.525   8.758   1.483 -0.0972  0.2286 -0.0377
   18CHTO  H100 7399   5.602   8.810   1.472 -0.2580  0.2845 -0.9053
   18CHTO   C57 7400   5.662   8.565   1.382  0.2607 -0.6293  0.3985
   18CHTO  H114 7401   5.667   8.528   1.484  1.5046  2.0591  1.3525
   18CHTO   N10 7402   5.783   8.640   1.369  0.0520  0.2696  0.6095
   18CHTO  H106 7403   5.770   8.738   1.412 -0.7403  0.1184  0.7109
   18CHTO  H107 7404   5.864   8.591   1.421  1.7486  2.5539  0.2034
   18CHTO   C58 7405   5.658   8.441   1.283 -0.2456 -0.4827 -0.0558
   18CHTO  H115 7406   5.677   8.475   1.179  0.3080 -1.0372 -0.1326
   18CHTO   O37 7407   5.536   8.370   1.282 -0.6472  0.1997  0.0742
   18CHTO   C59 7408   5.412   8.442   1.299  0.8073  0.6547  1.2073
   18CHTO  H116 7409   5.386   8.509   1.218 -1.7076  1.6096  2.7306
   18CHTO   C70 7410   5.294   8.344   1.312  0.2347  1.2001 -0.0057
   18CHTO   O46 7411   5.321   8.247   1.419  0.0748  0.6601 -0.1778
   18CHTO  H103 7412   5.385   8.181   1.404 -0.9589 -0.3781 -0.1683
   18CHTO   O39 7413   5.780   8.350   1.334  0.2142 -0.0623  0.4319
   18CHTO   C60 7414   5.748   8.263   1.450  0.1408 -0.2491  0.3342
   18CHTO  H117 7415   5.673   8.307   1.516 -1.2026 -0.5115 -1.0144
   18CHTO   C62 7416   5.696   8.130   1.412  0.7417 -0.2046  0.1331
   18CHTO  H119 7417   5.614   8.159   1.342  0.2793  0.9647  1.1437
   18CHTO   O43 7418   5.797   8.065   1.335  0.1555 -0.3219 -0.0951
   18CHTO  H101 7419   5.846   8.004   1.387 -0.0051 -1.9245 -1.7746
   18CHTO   C66 7420   5.631   8.053   1.546  0.0004  0.0844  0.2658
   18CHTO  H123 7421   5.533   8.094   1.566 -0.5860  0.0767 -2.4762
   18CHTO   N12 7422   5.609   7.912   1.520  0.0158  0.2412  0.3694
   18CHTO  H110 7423   5.554   7.898   1.428 -2.1424 -0.7820  1.7844
   18CHTO  H111 7424   5.542   7.871   1.594  0.5850 -0.0504  0.7241
   18CHTO   C69 7425   5.732   8.077   1.669  0.2934 -0.4345 -0.3649
   18CHTO  H126 7426   5.748   7.993   1.739  1.3210  0.4850  0.5231
   18CHTO   O41 7427   5.878   8.124   1.622  0.1136 -0.6953  0.1859
   18CHTO   C64 7428   5.881   8.253   1.530  0.1618  0.4048  0.0678
   18CHTO  H121 7429   5.971   8.257   1.464  0.3969  1.9789  0.4649
   18CHTO   C71 7430   5.899   8.376   1.620  0.1782  0.7748 -0.2516
   18CHTO   O47 7431   6.033   8.425   1.606  0.6336  0.2920  0.0733
   18CHTO  H104 7432   6.037   8.514   1.635  2.5214  0.1735  0.2065
   18CHTO   O34 7433   5.669   8.187   1.751  0.5881  0.5031 -0.3979
   18CHTO   C49 7434   5.629   8.209   1.878  0.2878  0.1269 -0.4828
   18CHTO   H91 7435   5.703   8.155   1.937  1.7157  1.1249 -1.3332
   18CHTO   C47 7436   5.482   8.155   1.889 -0.1387 -0.6086  0.0467
   18CHTO   H89 7437   5.460   8.157   1.997  1.1097  0.8663  0.2921
   18CHTO   O33 7438   5.488   8.022   1.839 -0.6462 -0.3163 -0.1045
   18CHTO   H70 7439   5.417   7.968   1.868 -0.2338 -0.3354  0.8810
   18CHTO   C45 7440   5.377   8.253   1.807 -0.1012 -0.0939  0.0489
   18CHTO   H87 7441   5.412   8.259   1.703 -1.2951  2.6786 -0.2370
   18CHTO    N8 7442   5.237   8.197   1.815 -0.1496  0.4616 -0.2390
   18CHTO   H75 7443   5.167   8.263   1.864  1.0221  1.0355  0.6964
   18CHTO   H76 7444   5.209   8.175   1.713 -3.1085 -0.0383  0.6357
   18CHTO   C43 7445   5.384   8.406   1.859  0.5017  0.0153 -0.4060
   18CHTO   H85 7446   5.330   8.461   1.783 -3.7856 -1.5727  1.3307
   18CHTO   O29 7447   5.522   8.444   1.863  0.0647 -0.4633  0.1343
   18CHTO   C50 7448   5.627   8.361   1.917 -0.0108 -0.4149 -0.5938
   18CHTO   H92 7449   5.715   8.404   1.867  0.2454 -0.7744 -0.4566
   18CHTO   C54 7450   5.667   8.378   2.067 -0.5376  0.1481 -0.1110
   18CHTO   O36 7451   5.779   8.299   2.111  0.1072 -0.0266  0.3539
   18CHTO   H72 7452   5.757   8.224   2.161 -1.2025 -0.2556 -0.5351
   18CHTO   O27 7453   5.321   8.420   1.987 -0.0994  0.4782  0.1137
   18CHTO   C37 7454   5.265   8.524   2.067  0.2828  0.1619 -0.3929
   18CHTO   H79 7455   5.267   8.505   2.175  1.4543  0.8587 -0.2864
   18CHTO   C38 7456   5.344   8.653   2.042  0.5558 -0.4138  0.0882
   18CHTO   H80 7457   5.357   8.668   1.934  1.9119 -2.6106 -0.0818
   18CHTO   O31 7458   5.471   8.628   2.107  0.0353 -0.5497  0.3048
   18CHTO   H68 7459   5.522   8.706   2.113 -2.3940  1.2913 -2.0112
   18CHTO   C39 7460   5.281   8.774   2.104 -0.7670 -0.1828 -0.6202
   18CHTO   H81 7461   5.287   8.753   2.210 -1.1929 -0.6034 -0.6794
   18CHTO    N7 7462   5.360   8.900   2.072 -0.0742  0.9654  0.3784
   18CHTO   H73 7463   5.297   8.987   2.059 -1.9011  0.0226  2.5613
   18CHTO   H74 7464   5.430   8.921   2.151 -1.5857  2.0559  1.4473
   18CHTO   C40 7465   5.126   8.779   2.053 -0.3971 -0.0373 -0.0590
   18CHTO   H82 7466   5.114   8.798   1.947  2.1437  0.6704 -0.2452
   18CHTO   O26 7467   5.058   8.659   2.091 -0.6662 -0.4018  0.6890
   18CHTO   C41 7468   5.117   8.546   2.022 -0.2821  0.5249  0.2056
   18CHTO   H83 7469   5.109   8.569   1.914 -0.9552  0.7536  0.2983
   18CHTO   C52 7470   5.019   8.427   2.032 -0.1543  0.1206 -0.0833
   18CHTO   O35 7471   4.889   8.458   1.974 -0.2640 -0.1758  0.2262
   18CHTO   H71 7472   4.913   8.491   1.889  2.4571  1.5370  1.5923
   18CHTO   O28 7473   5.054   8.876   2.130  0.4524 -0.0273 -0.1801
   18CHTO   C42 7474   4.914   8.902   2.105 -0.0346  0.1525 -0.4029
   18CHTO   H84 7475   4.911   9.008   2.131 -0.1702 -0.1478  0.8815
   18CHTO   C44 7476   4.826   8.837   2.205 -0.4415 -0.2665  1.1115
   18CHTO   H86 7477   4.838   8.729   2.192 -2.4671 -0.3146 -0.5611
   18CHTO   O32 7478   4.876   8.870   2.335 -0.2076  0.5501  0.2093
   18CHTO   H69 7479   4.911   8.790   2.370 -0.2950 -1.3183 -3.6762
   18CHTO   C48 7480   4.671   8.876   2.186 -1.3759 -0.1597  0.5385
   18CHTO   H90 7481   4.671   8.982   2.210  2.1554  0.0854 -0.2471
   18CHTO    N9 7482   4.581   8.802   2.282 -0.6934  0.1803  0.3701
   18CHTO   H77 7483   4.617   8.703   2.305  1.7094  1.3383  1.8179
   18CHTO   H78 7484   4.474   8.810   2.275 -0.6714  1.7051  1.4523
   18CHTO   C51 7485   4.629   8.849   2.038  0.8167  0.3671 -0.8088
   18CHTO   H93 7486   4.644   8.743   2.016  2.1783 -0.0385  1.9016
   18CHTO   O30 7487   4.712   8.935   1.956 -0.2827  0.6295 -0.7485
   18CHTO   C46 7488   4.849   8.883   1.958  0.0903  0.4328 -0.6129
   18CHTO   H88 7489   4.851   8.779   1.926 -0.8501  0.0489  0.5683
   18CHTO   C53 7490   4.911   8.952   1.837  0.6701  0.1282 -0.8560
   18CHTO   O72 7491   4.849   8.902   1.714  0.7422 -0.0380  0.0779
   18CHTO  H199 7492   4.891   8.936   1.638  2.6019 -0.1345  1.0368
   18CHTO   O22 7493   4.497   8.893   2.001 -0.1069 -0.1783  0.3690
   18CHTO   C31 7494   4.411   8.821   1.910  1.4071 -0.6806 -0.3421
   18CHTO   H59 7495   4.468   8.745   1.852  0.4307 -1.7079  0.0355
   18CHTO   C29 7496   4.296   8.749   1.979 -0.1306 -0.2786  0.0231
   18CHTO   H57 7497   4.245   8.834   2.025  0.0085  0.4664 -1.1763
   18CHTO   O21 7498   4.349   8.671   2.082  0.3413 -0.1203 -0.2753
   18CHTO   H37 7499   4.374   8.589   2.044  0.4033 -0.6642  0.9307
   18CHTO   C27 7500   4.195   8.685   1.881 -0.8369  0.4976 -0.4953
   18CHTO   H55 7501   4.248   8.605   1.826  0.2788  0.4683  0.6028
   18CHTO    N5 7502   4.075   8.625   1.946 -0.5457 -0.1958  0.4778
   18CHTO   H43 7503   4.012   8.689   2.005  0.5481  1.4253 -0.0877
   18CHTO   H44 7504   4.083   8.527   1.992 -0.0659 -0.8230 -0.8865
   18CHTO   C25 7505   4.156   8.789   1.767 -0.3062 -0.4164 -0.2118
   18CHTO   H53 7506   4.112   8.880   1.809  1.6683 -0.3423  1.8056
   18CHTO   O17 7507   4.276   8.832   1.710 -0.5255 -0.8061  0.5607
   18CHTO   C32 7508   4.354   8.910   1.804  0.3971 -0.1541 -0.1784
   18CHTO   H60 7509   4.295   8.986   1.855  0.2102 -2.3363  2.9757
   18CHTO   C36 7510   4.454   8.986   1.712 -0.4255 -0.3456 -0.1653
   18CHTO   O25 7511   4.499   9.110   1.769 -0.2170 -0.1373 -0.0185
   18CHTO   H40 7512   4.581   9.111   1.814 -0.3711 -0.1997  0.2696
   18CHTO   O15 7513   4.059   8.729   1.654  0.2622 -0.0767 -0.0019
   18CHTO   C19 7514   4.070   8.706   1.509  0.4217 -0.5851 -0.3040
   18CHTO   H47 7515   3.968   8.721   1.470 -0.1243 -2.8489  0.1728
   18CHTO   C20 7516   4.164   8.810   1.426 -0.3364 -0.7901 -0.3313
   18CHTO   H48 7517   4.266   8.814   1.465 -1.6939  0.0256  3.3914
   18CHTO   O19 7518   4.118   8.941   1.455  0.2007 -0.2084 -0.3402
   18CHTO   H35 7519   4.125   8.948   1.548 -1.0047 -0.3360 -0.2344
   18CHTO   C21 7520   4.154   8.782   1.274 -0.3091 -0.6270  0.8544
   18CHTO   H49 7521   4.050   8.798   1.244 -0.1342  0.7409  0.9467
   18CHTO    N4 7522   4.237   8.871   1.188  0.0386  0.3265  0.2946
   18CHTO   H41 7523   4.239   8.851   1.082 -1.1917 -0.6917  0.4645
   18CHTO   H42 7524   4.337   8.868   1.230  0.9553  0.8159 -1.7939
   18CHTO   C22 7525   4.188   8.627   1.253 -0.4930 -0.2172  0.0232
   18CHTO   H50 7526   4.294   8.616   1.275 -0.5725 -1.4368 -0.1381
   18CHTO   O14 7527   4.108   8.543   1.339 -0.6746 -0.1462  0.3642
   18CHTO   C23 7528   4.115   8.565   1.478 -0.0031 -0.0365 -0.0045
   18CHTO   H51 7529   4.220   8.548   1.505 -0.4054 -4.0062 -0.7288
   18CHTO   C34 7530   4.034   8.462   1.561  0.0079  0.2137 -0.0428
   18CHTO   O23 7531   4.115   8.340   1.575  0.3306  0.0358  0.0710
   18CHTO   H38 7532   4.143   8.310   1.491  0.0810  0.2121 -0.0757
   18CHTO   O16 7533   4.159   8.580   1.117 -0.0994 -0.4767  0.0424
   18CHTO   C24 7534   4.298   8.450   1.049  0.8845 -0.8193  0.5155
   18CHTO   H52 7535   4.399   8.480   1.076  0.2389  1.3561  0.6006
   18CHTO   C26 7536   4.286   8.444   0.892  0.1288  1.0648 -0.5715
   18CHTO   H54 7537   4.183   8.414   0.864 -0.0151  0.9210  0.0949
   18CHTO   O20 7538   4.305   8.583   0.867  0.3798 -0.0529 -0.1944
   18CHTO   H36 7539   4.391   8.616   0.885 -0.6964  1.1970  3.0653
   18CHTO   C30 7540   4.390   8.350   0.832  0.1401  0.9515  0.2012
   18CHTO   H58 7541   4.489   8.398   0.843  0.4840  0.5598 -1.0679
   18CHTO    N6 7542   4.372   8.332   0.687  0.9238  0.2222  0.2678
   18CHTO   H45 7543   4.464   8.357   0.637  0.9622 -1.1535 -0.3602
   18CHTO   H46 7544   4.345   8.230   0.664 -0.9447  0.7833 -0.0758
   18CHTO   C33 7545   4.405   8.210   0.905  0.1283  0.3588 -0.3502
   18CHTO   H61 7546   4.324   8.139   0.884  1.1006 -0.9080  0.1100
   18CHTO   O18 7547   4.407   8.228   1.047 -0.0815 -0.3714  0.3091
   18CHTO   C28 7548   4.289   8.304   1.099  0.3863 -0.6623 -0.3626
   18CHTO   H56 7549   4.195   8.262   1.063 -0.4971 -0.2367  1.3938
   18CHTO   C35 7550   4.306   8.290   1.254  0.5535 -0.2035 -0.2162
   18CHTO   O24 7551   4.421   8.353   1.304 -0.8086 -0.5857  0.1248
   18CHTO   H39 7552   4.404   8.445   1.300  0.1248 -0.2681  2.5305
   18CHTO    O9 7553   4.526   8.150   0.858 -0.3823 -0.3875 -0.4593
   18CHTO   C13 7554   4.640   8.096   0.937  0.4810 -0.5645  0.7892
   18CHTO   H26 7555   4.580   8.036   1.008 -2.1372 -2.0868 -2.5730
   18CHTO   C11 7556   4.735   8.210   0.997 -0.5523 -0.8081 -0.0145
   18CHTO   H24 7557   4.673   8.266   1.069 -1.4588 -0.8856 -0.7336
   18CHTO    O8 7558   4.769   8.302   0.890 -0.4298 -0.1341  0.6066
   18CHTO    H3 7559   4.854   8.305   0.849  0.8543 -1.7575  3.0496
   18CHTO    C9 7560   4.857   8.153   1.074  0.1181  0.0051  0.2154
   18CHTO   H22 7561   4.815   8.089   1.153  0.6062  0.8418  1.1560
   18CHTO    N2 7562   4.933   8.262   1.148 -0.1260 -0.1573 -0.3869
   18CHTO   H10 7563   4.865   8.323   1.205 -0.0567  1.4752 -1.9937
   18CHTO   H11 7564   5.004   8.208   1.208 -0.2699 -0.8358 -0.8230
   18CHTO    C7 7565   4.932   8.057   0.978  0.2306 -0.1083 -0.3341
   18CHTO   H20 7566   5.001   8.004   1.047 -2.3952  0.1576  2.6474
   18CHTO    O4 7567   4.838   7.960   0.921 -0.5666  0.4679  0.1340
   18CHTO   C14 7568   4.726   7.992   0.843  0.8807  0.3577 -1.0416
   18CHTO   H27 7569   4.669   7.899   0.823 -1.4459  1.8018 -1.2755
   18CHTO   C18 7570   4.763   8.052   0.701 -0.0599 -0.1723  0.7963
   18CHTO   O13 7571   4.651   8.098   0.624  0.1607 -0.1129  0.6353
   18CHTO    H7 7572   4.636   8.030   0.561  0.3707  0.3727  0.0632
   18CHTO    O2 7573   5.017   8.128   0.870  0.2282  0.8871  0.3085
   18CHTO    C1 7574   5.141   8.066   0.836  0.1837  0.6895  0.1252
   18CHTO   H14 7575   5.159   8.096   0.730 -0.5572 -0.7290 -0.4140
   18CHTO    C2 7576   5.143   7.900   0.843 -0.0127 -0.6661 -0.0862
   18CHTO   H15 7577   5.106   7.866   0.940  0.5150  1.9767  1.0943
   18CHTO    O6 7578   5.049   7.855   0.746 -0.2329 -0.1681 -0.4606
   18CHTO    H1 7579   4.972   7.900   0.775 -0.8282 -0.5580 -1.4031
   18CHTO    C3 7580   5.290   7.856   0.806 -0.1382  0.4846  0.0190
   18CHTO   H16 7581   5.313   7.890   0.704  1.9414  0.6690  0.5232
   18CHTO    N1 7582   5.303   7.709   0.813 -0.1341 -0.0822  0.2195
   18CHTO    H8 7583   5.310   7.674   0.915  1.1279  0.7289  0.4257
   18CHTO    H9 7584   5.387   7.670   0.757  0.9517 -1.5716  2.7875
   18CHTO    C4 7585   5.384   7.932   0.908 -0.2127  0.3807 -0.3095
   18CHTO   H17 7586   5.353   7.903   1.008 -1.3445  1.2639 -0.4015
   18CHTO    O1 7587   5.370   8.078   0.886  0.2429  0.0338  0.3646
   18CHTO    C5 7588   5.246   8.130   0.927 -0.8857 -0.7423  0.3407
   18CHTO   H18 7589   5.222   8.111   1.031 -0.9966  2.7107  1.0080
   18CHTO   C16 7590   5.250   8.285   0.901  0.2146 -0.1318 -0.4543
   18CHTO   O11 7591   5.270   8.315   0.766 -0.0473 -0.6571 -0.6146
   18CHTO    H5 7592   5.192   8.293   0.719  0.0052  0.2845 -1.1450
   18CHTO    O3 7593   5.525   7.911   0.885 -0.1068  0.0030  0.1177
   18CHTO    C6 7594   5.618   7.923   0.992 -0.0574 -0.1144 -0.9657
   18CHTO   H19 7595   5.572   7.929   1.091 -0.8957 -2.4398 -1.1671
   18CHTO    C8 7596   5.697   7.792   0.985 -0.5638 -0.3365 -0.4346
   18CHTO   H21 7597   5.728   7.773   0.881 -2.9881 -2.7257 -0.7838
   18CHTO    O7 7598   5.622   7.681   1.032  0.3758 -0.1989 -0.4177
   18CHTO    H2 7599   5.550   7.656   0.978 -0.7279 -0.2608  1.0371
   18CHTO   C12 7600   5.841   7.801   1.064 -0.2489  0.1630 -0.2953
   18CHTO   H25 7601   5.817   7.794   1.172  0.1728  1.3539 -0.1147
   18CHTO    N3 7602   5.930   7.684   1.027 -0.2803  0.3516  0.1754
   18CHTO   H12 7603   5.886   7.593   1.066 -0.3577 -0.7896 -2.4636
   18CHTO   H13 7604   5.939   7.675   0.920  0.6377 -1.4233  0.3793
   18CHTO   C15 7605   5.901   7.939   1.039  0.6496  0.1944 -0.0994
   18CHTO   H28 7606   5.945   7.941   0.939 -0.7126 -1.4630 -0.7604
   18CHTO   O10 7607   6.007   7.976   1.150 -0.6802  0.6960  0.3440
   18CHTO    H4 7608   6.058   8.050   1.123 -0.5489 -0.3120 -2.3112
   18CHTO    O5 7609   5.808   8.047   1.066  0.0113  0.1973 -0.0297
   18CHTO   C10 7610   5.700   8.056   0.975  0.2134  0.3462 -1.6362
   18CHTO   H23 7611   5.739   8.070   0.874  1.7985  1.0059 -0.9613
   18CHTO   C17 7612   5.609   8.179   1.004  0.2920  0.2366  0.0798
   18CHTO   O12 7613   5.682   8.297   0.979  0.0746 -0.2160 -0.0778
   18CHTO    H6 7614   5.669   8.353   1.053  0.7150 -0.8159  0.5009
   19CHTO  H203 7615   4.849   9.985   0.319  2.1119 -0.0878  1.4764
   19CHTO   O82 7616   4.902   9.934   0.261  0.1232 -0.3894 -0.1523
   19CHTO  C123 7617   4.839   9.823   0.191  0.2018  0.3085  0.6931
   19CHTO  H227 7618   4.766   9.866   0.121 -1.3546  0.8015  2.5613
   19CHTO   O77 7619   4.948   9.772   0.118 -0.1687  0.7871 -0.0220
   19CHTO  C118 7620   4.918   9.666   0.027 -0.0357 -0.1074  0.0635
   19CHTO  H222 7621   4.838   9.699  -0.041 -0.9115 -0.4744  0.8967
   19CHTO  C125 7622   5.050   9.631  -0.061 -0.0823  0.0886 -0.1254
   19CHTO   O84 7623   5.157   9.577   0.015 -0.6885  0.0825 -0.2722
   19CHTO  H205 7624   5.184   9.646   0.073 -1.0700  0.9510 -1.1275
   19CHTO  C114 7625   4.864   9.543   0.104  0.7826  0.6815 -0.5657
   19CHTO  H218 7626   4.936   9.515   0.182 -2.4169  0.5433  2.4401
   19CHTO  C116 7627   4.740   9.588   0.196 -0.0016  0.0164 -0.8632
   19CHTO  H220 7628   4.652   9.626   0.140 -0.2664  0.1357 -0.3709
   19CHTO   O79 7629   4.686   9.477   0.267  0.4853  0.4001  0.3106
   19CHTO  H201 7630   4.719   9.479   0.355 -0.0565 -1.3794  0.5783
   19CHTO  C120 7631   4.784   9.709   0.287  0.3318  0.9435 -0.2534
   19CHTO  H224 7632   4.864   9.674   0.356 -1.1241  1.3256  1.6776
   19CHTO   N21 7633   4.674   9.758   0.379 -0.3552 -0.2108  0.2500
   19CHTO  H211 7634   4.677   9.864   0.400  0.4123 -0.2559  0.3576
   19CHTO  H212 7635   4.685   9.712   0.476  3.2432  1.0800  0.5379
   19CHTO   O75 7636   4.843   9.449   0.001  0.2073 -0.2789  0.2092
   19CHTO  C112 7637   4.898   9.315   0.028 -0.3036  0.1075 -0.2889
   19CHTO  H216 7638   4.892   9.296   0.136 -2.5747 -0.0706 -0.4293
   19CHTO   O73 7639   5.034   9.318  -0.023  0.4940 -0.5083 -0.1044
   19CHTO  C113 7640   5.093   9.193  -0.006 -0.5354  0.3336  0.4275
   19CHTO  H217 7641   5.075   9.163   0.099 -0.2261  2.3034  1.0646
   19CHTO  C124 7642   5.245   9.210  -0.021  0.5461 -0.4516 -0.1359
   19CHTO   O83 7643   5.313   9.080  -0.015 -0.3600 -0.1209  0.2686
   19CHTO  H204 7644   5.271   9.035   0.057 -0.5433 -1.7866 -0.8487
   19CHTO  C109 7645   5.033   9.091  -0.105  0.3062  0.3898 -0.9469
   19CHTO  H213 7646   5.050   9.129  -0.206  0.8346  0.0550 -0.9868
   19CHTO  C110 7647   4.879   9.074  -0.070 -0.6041  0.6607 -0.2904
   19CHTO  H214 7648   4.871   9.016   0.022  1.0792  1.9436  0.6857
   19CHTO   O78 7649   4.809   8.997  -0.177 -0.2991 -0.2184  0.2016
   19CHTO  H200 7650   4.715   8.998  -0.167 -0.9095  1.8557 -4.5329
   19CHTO  C111 7651   4.809   9.211  -0.050 -0.1057 -0.0159 -0.2978
   19CHTO  H215 7652   4.800   9.264  -0.146  0.8113  0.5045 -0.1029
   19CHTO   N19 7653   4.669   9.200   0.008 -0.0976  0.1946 -0.7555
   19CHTO  H207 7654   4.662   9.153   0.105 -2.6821  2.6915  0.3174
   19CHTO  H208 7655   4.601   9.147  -0.057 -0.0537  0.2827 -0.8736
   19CHTO   O74 7656   5.093   8.955  -0.092  0.2938  0.4237  0.2076
   19CHTO  C115 7657   5.104   8.881  -0.239 -0.4066  0.1827  0.3519
   19CHTO  H219 7658   5.029   8.917  -0.310 -0.7084 -2.0949 -0.5143
   19CHTO   O76 7659   5.241   8.901  -0.305  0.4725  0.0725  0.1521
   19CHTO  C122 7660   5.347   8.830  -0.264 -0.2337 -0.4724 -0.4232
   19CHTO  H226 7661   5.364   8.834  -0.157  2.5766 -1.3900 -0.7999
   19CHTO  C126 7662   5.470   8.891  -0.337 -0.5963 -0.0175 -0.4048
   19CHTO   O85 7663   5.483   9.029  -0.300  0.0247 -0.1680 -0.0765
   19CHTO  H206 7664   5.431   9.091  -0.348  2.2053  2.3339  0.6607
   19CHTO  C121 7665   5.319   8.679  -0.301 -0.1570  0.1420 -0.4895
   19CHTO  H225 7666   5.371   8.652  -0.395  0.8229 -1.6696  0.5538
   19CHTO   O81 7667   5.371   8.602  -0.197 -0.1652 -0.2649  0.2581
   19CHTO  H202 7668   5.391   8.512  -0.212 -1.4384 -0.1718 -2.2875
   19CHTO  C119 7669   5.163   8.637  -0.311 -0.0456 -0.0751  0.0596
   19CHTO  H223 7670   5.130   8.665  -0.411  1.6645  0.9481 -0.2373
   19CHTO  C117 7671   5.071   8.729  -0.213  0.2891 -0.7069  0.1172
   19CHTO  H221 7672   5.083   8.719  -0.105 -0.3588 -2.7219  0.0286
   19CHTO   N20 7673   4.928   8.693  -0.235  0.2679 -0.2448  0.2767
   19CHTO  H209 7674   4.897   8.734  -0.330  0.2492  0.0237  0.3977
   19CHTO  H210 7675   4.883   8.758  -0.161  0.5883  0.4752 -0.1520
   19CHTO   O80 7676   5.143   8.464  -0.304  0.1177 -0.3655  0.6338
   19CHTO  C103 7677   5.161   8.379  -0.447 -0.1910 -0.3624  0.1016
   19CHTO  H190 7678   5.149   8.455  -0.524 -0.4435  2.2264  2.5760
   19CHTO  C101 7679   5.290   8.296  -0.456  0.3815  0.2186  0.0736
   19CHTO  H188 7680   5.304   8.241  -0.363  1.0196  0.3429  0.0541
   19CHTO   O68 7681   5.431   8.385  -0.485  0.8587 -0.0985 -0.3941
   19CHTO  H168 7682   5.429   8.410  -0.575  0.6354  1.3691  0.0040
   19CHTO   C99 7683   5.276   8.185  -0.573  0.2428 -0.3601  0.3051
   19CHTO  H186 7684   5.278   8.243  -0.667  1.1716  0.8739  1.0737
   19CHTO   N17 7685   5.394   8.095  -0.576  0.3971  0.1688  0.2513
   19CHTO  H174 7686   5.457   8.124  -0.658  2.1648 -1.7666  0.8946
   19CHTO  H175 7687   5.444   8.090  -0.481  0.0579 -0.9684  0.3749
   19CHTO   C97 7688   5.136   8.117  -0.566 -0.0230  0.4639  0.4271
   19CHTO  H184 7689   5.137   8.055  -0.475  1.0914 -0.6453 -0.3331
   19CHTO   O64 7690   5.024   8.213  -0.564  0.1157 -0.0420 -0.2197
   19CHTO  C104 7691   5.028   8.293  -0.447  0.3329  0.3278  0.3103
   19CHTO  H191 7692   5.032   8.224  -0.362  1.4466 -1.2235 -0.9585
   19CHTO  C108 7693   4.898   8.381  -0.440  0.3983 -0.4079 -0.0114
   19CHTO   O71 7694   4.909   8.467  -0.553 -0.2101  0.1523  0.3660
   19CHTO  H171 7695   4.825   8.499  -0.582  0.4562  0.5490 -1.1389
   19CHTO   O62 7696   5.117   8.029  -0.683  0.1418 -0.5773  0.6014
   19CHTO   C91 7697   5.026   7.921  -0.679 -0.2722  0.0616  0.2876
   19CHTO  H178 7698   4.967   7.943  -0.591 -0.4391 -0.1357  0.2239
   19CHTO   C92 7699   5.115   7.791  -0.654 -0.0928 -1.0175 -0.2097
   19CHTO  H179 7700   5.187   7.785  -0.737  1.6458  0.8394  1.1236
   19CHTO   O66 7701   5.187   7.804  -0.528 -0.1472 -0.0876  0.1326
   19CHTO  H166 7702   5.262   7.749  -0.535  0.1054  0.4455 -1.5927
   19CHTO   C93 7703   5.031   7.658  -0.653  0.2661  0.6211  0.2326
   19CHTO  H180 7704   4.986   7.652  -0.553  0.3339  0.9874  0.2866
   19CHTO   N16 7705   5.109   7.531  -0.664 -0.2281 -0.0005 -0.0288
   19CHTO  H172 7706   5.158   7.534  -0.760  0.8445 -3.4809  0.3268
   19CHTO  H173 7707   5.174   7.500  -0.583 -1.6253 -1.6553  0.5097
   19CHTO   C94 7708   4.918   7.658  -0.767  0.1409  0.7094 -0.0517
   19CHTO  H181 7709   4.955   7.633  -0.866 -1.3067 -0.8174 -0.2337
   19CHTO   O61 7710   4.851   7.782  -0.780 -0.3338 -0.4825 -0.0237
   19CHTO   C95 7711   4.937   7.897  -0.809  0.0269  0.1908 -0.2355
   19CHTO  H182 7712   4.999   7.873  -0.896 -0.8784  2.3728 -1.5226
   19CHTO  C106 7713   4.840   8.020  -0.857  0.4450  0.8101  0.6158
   19CHTO   O69 7714   4.765   8.065  -0.746  0.0209  0.3474  1.0120
   19CHTO  H169 7715   4.821   8.075  -0.672  0.2063 -0.2829  0.9639
   19CHTO   O63 7716   4.821   7.544  -0.728  0.0790 -0.3624  0.1660
   19CHTO   C96 7717   4.709   7.503  -0.833  0.0813 -0.4395  0.1666
   19CHTO  H183 7718   4.761   7.497  -0.928 -1.0477  0.6701 -0.5317
   19CHTO   C98 7719   4.588   7.608  -0.851 -0.1659 -0.5909 -0.0533
   19CHTO  H185 7720   4.623   7.712  -0.859  1.0023 -0.8353  1.5740
   19CHTO   O67 7721   4.513   7.572  -0.975 -0.0368  0.5196  0.5387
   19CHTO  H167 7722   4.555   7.617  -1.046 -0.2877 -1.2105 -0.7369
   19CHTO  C102 7723   4.485   7.609  -0.734  0.7575 -0.2634 -0.3399
   19CHTO  H189 7724   4.385   7.628  -0.775 -0.8571 -1.5508  2.8013
   19CHTO   N18 7725   4.497   7.717  -0.637 -0.1489 -0.7590 -0.2839
   19CHTO  H176 7726   4.552   7.794  -0.688  2.2327 -3.1174 -1.3821
   19CHTO  H177 7727   4.405   7.743  -0.587  0.6916 -0.0975  0.9586
   19CHTO  C105 7728   4.476   7.470  -0.663 -0.3111 -0.8930  0.6027
   19CHTO  H192 7729   4.544   7.474  -0.577 -0.1206 -0.0630  0.4236
   19CHTO   O65 7730   4.510   7.359  -0.750 -0.1150  0.2910  0.4915
   19CHTO  C100 7731   4.645   7.360  -0.794  0.3048  0.0199 -0.0934
   19CHTO  H187 7732   4.710   7.330  -0.710 -0.2551  0.8075  0.6253
   19CHTO  C107 7733   4.684   7.270  -0.901 -0.3617 -0.0563  0.1913
   19CHTO   O70 7734   4.595   7.261  -1.015  0.2825  0.2565  0.3235
   19CHTO  H170 7735   4.509   7.234  -0.987  0.1850  1.0485  0.8118
   19CHTO   O57 7736   4.334   7.457  -0.620  0.1400 -0.1268  0.6496
   19CHTO   C85 7737   4.245   7.355  -0.668 -0.0191 -0.0001 -0.8836
   19CHTO  H157 7738   4.299   7.258  -0.664  0.4302  0.3365  1.8104
   19CHTO   C83 7739   4.214   7.381  -0.815  0.1100 -0.3870  0.5503
   19CHTO  H155 7740   4.310   7.375  -0.866  0.5943  1.4057  1.2192
   19CHTO   O56 7741   4.170   7.513  -0.833 -0.1563  0.2508  0.3917
   19CHTO  H135 7742   4.225   7.563  -0.890  0.8542  1.9605  2.7789
   19CHTO   C81 7743   4.116   7.274  -0.875 -0.5654 -0.0351 -0.7783
   19CHTO  H153 7744   4.159   7.178  -0.847 -0.1405  0.3231 -0.2024
   19CHTO   N14 7745   4.114   7.287  -1.026  0.3875 -0.1860 -0.4973
   19CHTO  H141 7746   4.183   7.362  -1.058  0.6705 -0.4510 -0.5161
   19CHTO  H142 7747   4.140   7.194  -1.072 -0.9199 -0.8428  0.0694
   19CHTO   C79 7748   3.979   7.276  -0.802  0.1448 -0.5483 -0.4395
   19CHTO  H151 7749   3.925   7.188  -0.838  0.4266 -0.3213 -1.4478
   19CHTO   O52 7750   4.014   7.259  -0.656 -0.8603  1.0833  0.0454
   19CHTO   C86 7751   4.106   7.344  -0.590 -0.2956 -0.2421  0.0009
   19CHTO  H158 7752   4.054   7.442  -0.587  0.8502  0.3354  1.4130
   19CHTO   C90 7753   4.125   7.306  -0.444  0.2502 -0.6034 -0.2785
   19CHTO   O60 7754   4.015   7.321  -0.355 -0.3959 -0.0998 -0.6726
   19CHTO  H138 7755   3.978   7.407  -0.357  0.0601  0.1394  0.7944
   19CHTO   O50 7756   3.903   7.390  -0.820  0.0013 -0.1666 -0.6984
   19CHTO   C73 7757   3.764   7.417  -0.808 -0.4719 -0.1482  0.1735
   19CHTO  H145 7758   3.699   7.331  -0.785  1.8267 -1.6388  1.2587
   19CHTO   C74 7759   3.732   7.461  -0.957  0.3918 -1.0917  0.2956
   19CHTO  H146 7760   3.757   7.377  -1.023  1.5999  0.0474 -0.7124
   19CHTO   O54 7761   3.590   7.479  -0.964 -0.1690 -0.2452 -0.2931
   19CHTO  H133 7762   3.569   7.513  -1.049 -0.7753  1.6393  0.5841
   19CHTO   C75 7763   3.812   7.593  -0.997  0.5761  0.1967 -0.4476
   19CHTO  H147 7764   3.918   7.568  -1.013  0.6962  0.5243 -0.1652
   19CHTO   N13 7765   3.781   7.651  -1.130  0.4733 -0.5259  0.2785
   19CHTO  H139 7766   3.701   7.724  -1.126 -0.9446 -2.0277 -0.2669
   19CHTO  H140 7767   3.869   7.693  -1.177 -0.9680  0.1759 -1.8249
   19CHTO   C76 7768   3.803   7.702  -0.880 -0.1421 -0.1024  0.3618
   19CHTO  H148 7769   3.707   7.752  -0.894 -0.2078  0.1001  1.5060
   19CHTO   O49 7770   3.811   7.656  -0.736  0.0724 -0.1498  0.3973
   19CHTO   C77 7771   3.729   7.535  -0.708 -0.2787 -0.3905  0.3894
   19CHTO  H149 7772   3.621   7.550  -0.713 -0.3808 -1.1902  0.1523
   19CHTO   C88 7773   3.758   7.491  -0.565 -0.2569 -0.1177 -0.3668
   19CHTO   O58 7774   3.735   7.622  -0.463 -0.4256 -0.0790  0.0926
   19CHTO  H136 7775   3.752   7.597  -0.374 -0.2048  0.5943  0.2413
   19CHTO   O51 7776   3.925   7.799  -0.872  0.2176  0.2725 -0.0324
   19CHTO   C78 7777   3.894   7.938  -0.805 -0.1215  1.0326  0.0710
   19CHTO  H150 7778   3.813   7.932  -0.730  0.5348  2.0983  0.8865
   19CHTO   C80 7779   3.858   8.037  -0.915 -0.4704 -0.7753  0.3321
   19CHTO  H152 7780   3.937   8.029  -0.992 -0.3888  1.6826  0.1338
   19CHTO   O55 7781   3.742   8.000  -0.983  0.0901  0.0640  0.0241
   19CHTO  H134 7782   3.744   7.917  -1.027 -0.2252  0.0476  0.0393
   19CHTO   C84 7783   3.850   8.185  -0.858 -0.3794 -0.9034 -0.0734
   19CHTO  H156 7784   3.773   8.200  -0.783 -0.3692  1.0860 -0.4214
   19CHTO   N15 7785   3.803   8.294  -0.954 -0.3634  0.2930  0.1645
   19CHTO  H143 7786   3.696   8.297  -0.945 -0.4214 -0.2150 -0.3405
   19CHTO  H144 7787   3.824   8.264  -1.055 -0.0687 -0.2195  0.3792
   19CHTO   C87 7788   3.986   8.219  -0.781 -0.0537  0.5368  0.5913
   19CHTO  H159 7789   4.066   8.232  -0.854 -1.8004 -0.9713 -1.6716
   19CHTO   O53 7790   4.015   8.107  -0.678 -0.3678  0.0861 -0.7172
   19CHTO   C82 7791   4.027   7.977  -0.735 -0.7089  0.8291  0.2883
   19CHTO  H154 7792   4.110   7.972  -0.806 -0.6668 -0.3725  0.4139
   19CHTO   C89 7793   4.070   7.888  -0.621  0.4010  0.0807 -0.4118
   19CHTO   O59 7794   4.112   7.757  -0.667  0.1381 -0.2950  0.1739
   19CHTO  H137 7795   4.097   7.703  -0.592 -1.0321  0.5951  0.5975
   19CHTO   O45 7796   3.977   8.373  -0.714  0.3224 -0.8425  0.2742
   19CHTO   C67 7797   3.948   8.378  -0.570 -0.3382 -0.3647  0.8636
   19CHTO  H124 7798   3.966   8.278  -0.530  0.3121 -1.6630 -2.5140
   19CHTO   C65 7799   4.040   8.481  -0.499 -0.5848  0.1576  0.2591
   19CHTO  H122 7800   4.138   8.462  -0.543 -0.7288  1.6053 -0.7272
   19CHTO   O44 7801   4.044   8.447  -0.357  0.9047  0.0024  0.3670
   19CHTO  H102 7802   4.113   8.502  -0.325  2.5125 -0.9041 -1.4202
   19CHTO   C63 7803   4.005   8.622  -0.540 -0.0667 -0.2004 -0.2087
   19CHTO  H120 7804   4.009   8.628  -0.649  1.7668  0.4530 -0.1195
   19CHTO   N11 7805   4.096   8.732  -0.494 -0.2831  0.9732 -0.3872
   19CHTO  H108 7806   4.087   8.746  -0.388  1.4886 -2.4742  0.2792
   19CHTO  H109 7807   4.056   8.821  -0.538 -1.2513  0.4585 -0.5713
   19CHTO   C61 7808   3.853   8.655  -0.490 -0.1321 -0.3888 -0.3078
   19CHTO  H118 7809   3.820   8.753  -0.528 -2.9377 -1.3160 -0.3953
   19CHTO   O40 7810   3.756   8.559  -0.535 -0.5309  0.8294 -0.1121
   19CHTO   C68 7811   3.795   8.417  -0.542  1.1469 -0.7248 -0.0997
   19CHTO  H125 7812   3.732   8.381  -0.626  0.3578  0.9260 -0.2321
   19CHTO   C72 7813   3.742   8.345  -0.427  0.0299 -0.6136  0.3491
   19CHTO   O48 7814   3.600   8.341  -0.430  0.3952  0.1005 -0.3503
   19CHTO  H105 7815   3.566   8.255  -0.442 -0.5071  0.4886 -0.6120
   19CHTO   O38 7816   3.830   8.675  -0.347  0.0755 -0.1922  0.0987
   19CHTO   C55 7817   3.702   8.721  -0.298  0.6003 -0.3803  0.2249
   19CHTO  H112 7818   3.621   8.661  -0.343 -0.2118  1.5537 -0.9891
   19CHTO   C56 7819   3.674   8.880  -0.323  0.3248  0.0253  0.1202
   19CHTO  H113 7820   3.759   8.937  -0.282  2.5124 -3.1942  0.2200
   19CHTO   O42 7821   3.674   8.918  -0.464 -0.0962 -0.1040 -0.3987
   19CHTO  H100 7822   3.593   8.889  -0.500  0.4069 -1.3472 -0.5620
   19CHTO   C57 7823   3.543   8.926  -0.259 -0.3298  0.0031  0.8451
   19CHTO  H114 7824   3.459   8.888  -0.317 -0.5583 -1.7000  2.2575
   19CHTO   N10 7825   3.537   9.074  -0.246  0.1621 -0.6255 -0.1863
   19CHTO  H106 7826   3.555   9.130  -0.337 -0.0618  1.1839  0.8650
   19CHTO  H107 7827   3.588   9.120  -0.163 -0.3568  1.8536 -1.1837
   19CHTO   C58 7828   3.528   8.869  -0.112 -0.4097  0.6347  0.2324
   19CHTO  H115 7829   3.591   8.925  -0.040  1.9004 -0.0914 -1.1672
   19CHTO   O37 7830   3.561   8.729  -0.103 -0.0294 -1.1808  0.2042
   19CHTO   C59 7831   3.695   8.699  -0.143  0.3576 -0.4078  0.6258
   19CHTO  H116 7832   3.761   8.761  -0.082  1.1901  1.2077 -1.8351
   19CHTO   C70 7833   3.718   8.550  -0.104 -0.1361  0.4798 -0.3073
   19CHTO   O46 7834   3.698   8.516   0.036  0.4203 -0.3418 -0.0697
   19CHTO  H103 7835   3.612   8.541   0.066 -0.3963 -2.3851 -0.6587
   19CHTO   O39 7836   3.354   8.897  -0.073 -0.3594 -0.2115  0.0012
   19CHTO   C60 7837   3.259   8.801  -0.133  0.0909 -0.3021  0.4159
   19CHTO  H117 7838   3.294   8.770  -0.231 -1.9737  0.1936 -0.5004
   19CHTO   C62 7839   3.249   8.673  -0.042 -0.0854 -0.8158  0.3616
   19CHTO  H119 7840   3.346   8.619  -0.040  0.5601  0.3914  2.3753
   19CHTO   O43 7841   3.193   8.697   0.094  0.0179 -0.3937  0.3854
   19CHTO  H101 7842   3.172   8.786   0.112  1.4112  0.5491 -2.3532
   19CHTO   C66 7843   3.156   8.571  -0.129 -0.3482 -0.5471  0.6943
   19CHTO  H123 7844   3.210   8.545  -0.220 -1.2792 -1.3424  0.3639
   19CHTO   N12 7845   3.139   8.438  -0.055  0.3527 -0.1372  0.6559
   19CHTO  H110 7846   3.050   8.383  -0.083  0.5298 -0.2469  0.3140
   19CHTO  H111 7847   3.144   8.453   0.052 -1.1635 -3.1407  1.2278
   19CHTO   C69 7848   3.023   8.637  -0.172 -0.6201  0.0829 -0.1788
   19CHTO  H126 7849   2.965   8.654  -0.079  0.1476  1.3185  0.0928
   19CHTO   O41 7850   3.053   8.798  -0.235  0.1292  0.0587 -0.0138
   19CHTO   C64 7851   3.123   8.869  -0.158  0.1081 -0.4310  0.2218
   19CHTO  H121 7852   3.072   8.886  -0.061  1.5252 -3.0783  1.4739
   19CHTO   C71 7853   3.141   9.012  -0.226 -0.2283 -0.2533  0.0447
   19CHTO   O47 7854   3.211   9.005  -0.348  0.3212 -0.1846 -0.1780
   19CHTO  H104 7855   3.302   9.025  -0.334  0.5093  0.2234 -1.9597
   19CHTO   O34 7856   2.948   8.551  -0.270  0.4558  0.4629 -0.4981
   19CHTO   C49 7857   2.924   8.534  -0.428 -0.3241 -0.3022  0.0823
   19CHTO   H91 7858   2.826   8.578  -0.447  0.3333  1.4443  0.6204
   19CHTO   C47 7859   2.924   8.387  -0.471  0.5024 -0.7143 -0.3500
   19CHTO   H89 7860   2.882   8.382  -0.573 -0.3319  2.6309 -0.2278
   19CHTO   O33 7861   2.838   8.315  -0.378 -0.1515 -0.2699  0.2811
   19CHTO   H70 7862   2.853   8.337  -0.288 -0.0790 -1.7671  0.6540
   19CHTO   C45 7863   3.078   8.326  -0.458 -0.1953  0.6810  0.0909
   19CHTO   H87 7864   3.119   8.333  -0.356 -0.0288  1.3009 -0.0129
   19CHTO    N8 7865   3.088   8.180  -0.500 -0.3629  0.1767 -0.6012
   19CHTO   H75 7866   3.187   8.145  -0.477  0.0504  1.0933 -0.9707
   19CHTO   H76 7867   3.076   8.183  -0.608 -3.4373 -1.7802 -0.3830
   19CHTO   C43 7868   3.178   8.418  -0.541  0.3750 -0.2117  0.1564
   19CHTO   H85 7869   3.274   8.377  -0.510 -0.2763 -0.2105  2.2784
   19CHTO   O29 7870   3.167   8.560  -0.510 -0.1980  0.2031 -0.2299
   19CHTO   C50 7871   3.035   8.617  -0.508 -0.0841 -0.0628 -0.2196
   19CHTO   H92 7872   3.041   8.715  -0.459  0.3757 -0.8282  1.2753
   19CHTO   C54 7873   2.988   8.658  -0.658  0.0665  0.4448 -0.0218
   19CHTO   O36 7874   3.092   8.743  -0.721  0.2453  0.4233 -1.0041
   19CHTO   H72 7875   3.055   8.775  -0.800 -0.5953  0.6126 -0.5443
   19CHTO   O27 7876   3.174   8.397  -0.681 -0.1202  0.0992  0.3936
   19CHTO   C37 7877   3.212   8.321  -0.798  0.3282  0.4570  0.2737
   19CHTO   H79 7878   3.237   8.216  -0.776  1.5611  0.6094 -0.3686
   19CHTO   C38 7879   3.099   8.321  -0.902  0.2118 -0.0875 -0.0003
   19CHTO   H80 7880   3.069   8.426  -0.912 -1.3415 -0.2791  2.1867
   19CHTO   O31 7881   2.987   8.247  -0.849 -0.2908 -0.3358  0.0211
   19CHTO   H68 7882   2.911   8.258  -0.903  0.4044  2.9648 -0.4069
   19CHTO   C39 7883   3.142   8.269  -1.044  0.6855  0.5472 -0.2202
   19CHTO   H81 7884   3.149   8.161  -1.037 -0.3148  0.4452 -0.6934
   19CHTO    N7 7885   3.047   8.308  -1.150  0.2715  0.2669  0.3271
   19CHTO   H73 7886   3.026   8.222  -1.210 -0.1002 -0.3939  1.3917
   19CHTO   H74 7887   2.964   8.363  -1.109 -0.4286  0.1525 -0.9304
   19CHTO   C40 7888   3.286   8.321  -1.079 -0.0250 -0.6210  1.0885
   19CHTO   H82 7889   3.279   8.423  -1.116  0.4281 -0.5960  1.0691
   19CHTO   O26 7890   3.378   8.311  -0.972  0.0714 -0.0592 -0.2550
   19CHTO   C41 7891   3.342   8.384  -0.853  1.1994  0.2016 -0.7303
   19CHTO   H83 7892   3.322   8.490  -0.874 -1.3958 -0.1853 -0.3812
   19CHTO   C52 7893   3.459   8.373  -0.745 -0.5661 -0.1727 -0.0547
   19CHTO   O35 7894   3.525   8.215  -0.750  0.4997 -0.3535  0.2997
   19CHTO   H71 7895   3.576   8.208  -0.672 -1.1865 -1.5331  1.3432
   19CHTO   O28 7896   3.343   8.236  -1.180  0.3435 -0.5282 -0.3692
   19CHTO   C42 7897   3.487   8.244  -1.225  0.1599  0.0203 -1.3333
   19CHTO   H84 7898   3.546   8.241  -1.133 -1.7754  0.3313 -0.0438
   19CHTO   C44 7899   3.529   8.373  -1.303 -0.3416  0.4619  0.2590
   19CHTO   H86 7900   3.457   8.386  -1.384  1.1832 -0.8315 -1.3185
   19CHTO   O32 7901   3.518   8.486  -1.216 -0.1909  0.4531 -0.4155
   19CHTO   H69 7902   3.584   8.550  -1.236 -0.1091  0.1892 -0.9967
   19CHTO   C48 7903   3.678   8.359  -1.363  0.6087 -0.2610 -0.2473
   19CHTO   H90 7904   3.752   8.380  -1.286  1.1953 -0.1621 -0.8379
   19CHTO    N9 7905   3.703   8.475  -1.459 -0.3272  0.1837  0.1809
   19CHTO   H77 7906   3.802   8.490  -1.499 -0.4514  0.7137  0.0684
   19CHTO   H78 7907   3.627   8.468  -1.535 -1.6130 -1.2962  1.5455
   19CHTO   C51 7908   3.697   8.218  -1.423 -0.0959  0.1768 -0.2540
   19CHTO   H93 7909   3.642   8.217  -1.517  1.0477  1.2254 -0.9495
   19CHTO   O30 7910   3.654   8.114  -1.336  0.0946 -0.2833  0.1683
   19CHTO   C46 7911   3.524   8.115  -1.306 -1.4140 -0.1147  0.1812
   19CHTO   H88 7912   3.469   8.106  -1.399 -0.1854 -1.9426 -0.4003
   19CHTO   C53 7913   3.500   7.979  -1.231 -0.1764  0.0853  0.4495
   19CHTO   O72 7914   3.367   7.928  -1.242 -0.1213  0.1171  0.1002
   19CHTO  H199 7915   3.368   7.851  -1.295 -0.2571  1.7816 -2.3955
   19CHTO   O22 7916   3.839   8.204  -1.448  0.7634  0.1748  0.8341
   19CHTO   C31 7917   3.887   8.093  -1.531  0.0002 -0.7455 -0.3714
   19CHTO   H59 7918   3.806   8.017  -1.527 -1.6623  1.0414  1.1145
   19CHTO   C29 7919   3.905   8.129  -1.681 -0.4906  0.0136  0.0029
   19CHTO   H57 7920   3.968   8.218  -1.695  1.4354 -1.0365  1.6539
   19CHTO   O21 7921   3.774   8.163  -1.735  0.2500 -0.2662  0.3413
   19CHTO   H37 7922   3.776   8.233  -1.799  0.2635 -0.0987  0.5245
   19CHTO   C27 7923   3.969   8.009  -1.768  0.4363 -0.4835 -0.3674
   19CHTO   H55 7924   3.890   7.934  -1.774 -0.6784  0.6487 -0.1156
   19CHTO    N5 7925   4.002   8.059  -1.901 -0.4513  0.2143  0.3386
   19CHTO   H43 7926   3.925   8.040  -1.974 -1.9064 -2.6500  2.4980
   19CHTO   H44 7927   4.040   8.160  -1.906  0.0478 -0.0171 -0.5991
   19CHTO   C25 7928   4.091   7.954  -1.690  0.5549  0.0980  0.2003
   19CHTO   H53 7929   4.180   8.018  -1.685  0.4443  0.2049  0.8356
   19CHTO   O17 7930   4.058   7.918  -1.552 -0.2102 -0.0201 -0.3114
   19CHTO   C32 7931   4.014   8.026  -1.468  0.1979 -0.2106 -0.4915
   19CHTO   H60 7932   4.095   8.100  -1.471 -0.5841  0.6848  0.2393
   19CHTO   C36 7933   3.995   7.967  -1.325 -0.0981  0.1721  0.0020
   19CHTO   O25 7934   3.874   7.893  -1.315 -0.2158  0.4991  0.7714
   19CHTO   H40 7935   3.806   7.952  -1.341 -0.8646  0.1048  1.5825
   19CHTO   O15 7936   4.132   7.834  -1.753 -0.3924 -0.0941 -0.5248
   19CHTO   C19 7937   4.173   7.747  -1.858 -0.2148  0.5630  0.5906
   19CHTO   H47 7938   4.114   7.789  -1.940  0.7320 -0.2274 -0.5048
   19CHTO   C20 7939   4.321   7.757  -1.902  0.8889 -0.5099  0.2158
   19CHTO   H48 7940   4.390   7.744  -1.818  0.4931  1.0823  0.7988
   19CHTO   O19 7941   4.349   7.895  -1.943 -0.5058  0.1487  0.2135
   19CHTO   H35 7942   4.287   7.929  -2.004  0.9962  0.0263 -1.4181
   19CHTO   C21 7943   4.351   7.651  -2.019 -0.1188  0.5421 -0.2219
   19CHTO   H49 7944   4.287   7.672  -2.104  0.0684  0.1957 -0.4471
   19CHTO    N4 7945   4.489   7.641  -2.056 -0.0082  0.0474  0.3608
   19CHTO   H41 7946   4.504   7.724  -2.124 -0.5840 -0.7529 -0.7473
   19CHTO   H42 7947   4.555   7.651  -1.971  0.6418 -1.4276  0.0394
   19CHTO   C22 7948   4.284   7.512  -1.982 -0.3994 -0.9810  0.1742
   19CHTO   H50 7949   4.335   7.469  -1.895 -0.8932 -1.4880  0.2210
   19CHTO   O14 7950   4.146   7.523  -1.962  0.5078  0.0826 -0.1740
   19CHTO   C23 7951   4.117   7.603  -1.846 -0.6962  0.3343 -1.0135
   19CHTO   H51 7952   4.156   7.550  -1.758  0.6553  2.5263 -0.2721
   19CHTO   C34 7953   3.964   7.595  -1.831  0.0277 -0.1413  0.2331
   19CHTO   O23 7954   3.921   7.633  -1.704  0.0019  0.0797 -0.1589
   19CHTO   H38 7955   3.929   7.561  -1.645  0.5785 -0.6218 -1.0779
   19CHTO   O16 7956   4.287   7.423  -2.096  0.1350  0.2219  0.0531
   19CHTO   C24 7957   4.343   7.270  -2.070  0.1810 -0.0592 -0.0742
   19CHTO   H52 7958   4.394   7.266  -1.973 -1.3298  2.1204  0.8604
   19CHTO   C26 7959   4.440   7.232  -2.184  0.7221  0.4302 -0.0790
   19CHTO   H54 7960   4.391   7.272  -2.275 -1.5729  1.4188  1.5568
   19CHTO   O20 7961   4.570   7.290  -2.149  0.1384 -0.4145 -0.3072
   19CHTO   H36 7962   4.639   7.234  -2.179 -1.1181 -0.6329 -2.8658
   19CHTO   C30 7963   4.447   7.082  -2.200 -0.5310  0.1110  0.3958
   19CHTO   H58 7964   4.509   7.036  -2.122  0.0100 -0.5367 -0.4137
   19CHTO    N6 7965   4.519   7.053  -2.331  0.5076  0.1127  0.2740
   19CHTO   H45 7966   4.525   6.945  -2.338 -0.4641  0.1382 -0.8996
   19CHTO   H46 7967   4.621   7.089  -2.334  0.0278  1.3627 -1.3343
   19CHTO   C33 7968   4.313   7.005  -2.184 -0.7015  0.4476 -0.4406
   19CHTO   H61 7969   4.242   7.029  -2.264 -0.6637 -0.4480 -0.7502
   19CHTO   O18 7970   4.257   7.041  -2.057  0.1366  0.3275  0.2918
   19CHTO   C28 7971   4.215   7.181  -2.062  0.4704  0.0957  0.0580
   19CHTO   H56 7972   4.153   7.197  -2.151  1.3785 -0.4474 -0.6771
   19CHTO   C35 7973   4.128   7.216  -1.943 -0.2254 -0.0384 -0.9282
   19CHTO   O24 7974   4.180   7.198  -1.811  0.1632  0.6883 -0.0185
   19CHTO   H39 7975   4.178   7.281  -1.767  0.9536  1.6142 -1.6827
   19CHTO    O9 7976   4.338   6.861  -2.184 -0.1548  0.7481 -0.5042
   19CHTO   C13 7977   4.193   6.782  -2.224  0.0895 -0.0277 -0.3401
   19CHTO   H26 7978   4.146   6.835  -2.309  0.3414  0.8897  0.0878
   19CHTO   C11 7979   4.095   6.773  -2.101  0.0664  0.0297 -0.3430
   19CHTO   H24 7980   4.053   6.874  -2.085 -1.7056 -0.4681 -1.7727
   19CHTO    O8 7981   4.181   6.734  -1.990  0.6428  0.0943 -0.1029
   19CHTO    H3 7982   4.138   6.762  -1.912 -0.4843 -0.5399 -0.4883
   19CHTO    C9 7983   3.975   6.676  -2.125  0.3266  0.0764 -0.0722
   19CHTO   H22 7984   3.922   6.712  -2.214 -1.2711 -1.3132  0.2901
   19CHTO    N2 7985   3.875   6.684  -2.013 -0.3861  0.0595 -0.5319
   19CHTO   H10 7986   3.889   6.773  -1.954 -1.5138  0.2689 -0.5568
   19CHTO   H11 7987   3.770   6.667  -2.032 -0.5601  0.1448  0.3161
   19CHTO    C7 7988   4.028   6.529  -2.162  0.3033  0.7313 -0.4596
   19CHTO   H20 7989   3.937   6.485  -2.209 -0.3583  0.5839  0.9493
   19CHTO    O4 7990   4.121   6.527  -2.274 -0.1160  0.1688  0.2538
   19CHTO   C14 7991   4.224   6.634  -2.276 -0.3372  0.0783  0.0395
   19CHTO   H27 7992   4.246   6.645  -2.384 -0.1629  0.6409  0.1296
   19CHTO   C18 7993   4.355   6.576  -2.214  0.5433  0.1262 -0.0008
   19CHTO   O13 7994   4.403   6.453  -2.259  0.6337 -0.2891  0.4151
   19CHTO    H7 7995   4.485   6.434  -2.217  1.6455 -0.1476 -1.4052
   19CHTO    O2 7996   4.096   6.442  -2.051  0.2908 -0.1916  0.4160
   19CHTO    C1 7997   4.057   6.306  -2.027 -0.0596 -0.1252  0.2114
   19CHTO   H14 7998   4.055   6.246  -2.120 -0.4407  0.1100  0.0664
   19CHTO    C2 7999   3.912   6.290  -1.966 -0.3241  0.7481  0.0852
   19CHTO   H15 8000   3.902   6.355  -1.877 -2.1969  1.3736 -0.5572
   19CHTO    O6 8001   3.811   6.342  -2.058 -0.5573  0.0431 -0.9394
   19CHTO    H1 8002   3.724   6.319  -2.032  0.0904 -1.1513  0.2184
   19CHTO    C3 8003   3.880   6.140  -1.915  0.2515  0.0798  0.1252
   19CHTO   H16 8004   3.873   6.078  -2.006 -1.6612  1.2362 -0.5483
   19CHTO    N1 8005   3.749   6.125  -1.838 -0.0535  0.2453 -0.2120
   19CHTO    H8 8006   3.732   6.020  -1.820  1.1854 -0.3233 -2.1647
   19CHTO    H9 8007   3.671   6.160  -1.904 -1.8263  0.3413  1.8872
   19CHTO    C4 8008   4.002   6.082  -1.831  0.7127  0.2241 -0.5429
   19CHTO   H17 8009   4.008   6.131  -1.734 -0.4877  1.7257 -1.1970
   19CHTO    O1 8010   4.131   6.109  -1.882  0.0929  0.2689 -0.4974
   19CHTO    C5 8011   4.161   6.244  -1.929 -0.2651  0.2867 -0.6373
   19CHTO   H18 8012   4.163   6.304  -1.838  2.4627  1.5038 -1.4488
   19CHTO   C16 8013   4.299   6.247  -2.002  0.2760  0.4751  0.1138
   19CHTO   O11 8014   4.406   6.198  -1.921  0.2191  0.4710 -0.5094
   19CHTO    H5 8015   4.394   6.105  -1.920 -3.2269  0.8313 -0.9188
   19CHTO    O3 8016   3.988   5.939  -1.816  0.8419  0.4052 -0.3198
   19CHTO    C6 8017   4.004   5.890  -1.679  0.3248 -0.0686  0.2658
   19CHTO   H19 8018   4.025   5.964  -1.602 -0.5067 -1.1135  1.5208
   19CHTO    C8 8019   3.883   5.807  -1.621 -0.6930  0.1885  0.1788
   19CHTO   H21 8020   3.847   5.737  -1.697 -1.5921  0.8848 -0.0574
   19CHTO    O7 8021   3.771   5.902  -1.603 -0.4852  0.0894 -0.1755
   19CHTO    H2 8022   3.800   5.989  -1.584  0.5853  0.0692 -1.6362
   19CHTO   C12 8023   3.929   5.737  -1.484  0.5293  0.4431 -0.2446
   19CHTO   H25 8024   3.916   5.814  -1.405  4.2303  0.9967 -0.0781
   19CHTO    N3 8025   3.834   5.628  -1.454  0.4112 -0.0941 -0.1812
   19CHTO   H12 8026   3.872   5.531  -1.482 -2.6386 -1.2051 -0.7444
   19CHTO   H13 8027   3.811   5.622  -1.348 -0.3688  1.8611 -0.2225
   19CHTO   C15 8028   4.075   5.689  -1.473  0.0309  0.2694  0.2584
   19CHTO   H28 8029   4.088   5.584  -1.499  1.0148  0.3646  0.3474
   19CHTO   O10 8030   4.123   5.694  -1.331 -0.7910  0.3037  0.2861
   19CHTO    H4 8031   4.196   5.636  -1.319 -1.1443 -0.4224 -0.9983
   19CHTO    O5 8032   4.171   5.770  -1.540  0.4151 -0.2774 -0.2878
   19CHTO   C10 8033   4.136   5.797  -1.676 -0.1268  0.3046  0.2241
   19CHTO   H23 8034   4.107   5.706  -1.729 -2.2724  0.2559  1.4188
   19CHTO   C17 8035   4.258   5.856  -1.745  0.3812  0.0147  0.5503
   19CHTO   O12 8036   4.379   5.786  -1.724  0.5627 -0.2491 -0.2069
   19CHTO    H6 8037   4.445   5.830  -1.773  0.8353 -2.1422 -1.5723
   20CHTO  H203 8038   4.470   0.868   2.530  0.1213 -0.2272 -1.2670
   20CHTO   O82 8039   4.443   0.948   2.491  0.3327  0.2787 -0.3972
   20CHTO  C123 8040   4.504   0.980   2.369 -0.5079  0.3810  0.0803
   20CHTO  H227 8041   4.433   0.954   2.289 -0.6724 -0.3487  0.4568
   20CHTO   O77 8042   4.517   1.125   2.384  0.6967 -0.2598  0.3545
   20CHTO  C118 8043   4.581   1.192   2.278 -0.4933 -0.3086  0.1162
   20CHTO  H222 8044   4.529   1.168   2.185 -1.0861 -3.1962  1.1513
   20CHTO  C125 8045   4.584   1.345   2.297  0.1413  0.7058  0.0526
   20CHTO   O84 8046   4.458   1.412   2.313  0.1769  0.2608 -0.6581
   20CHTO  H205 8047   4.416   1.419   2.229 -2.3680 -0.6245  0.5037
   20CHTO  C114 8048   4.729   1.138   2.260  1.0478 -0.3873 -0.3735
   20CHTO  H218 8049   4.781   1.143   2.355  0.6001 -2.3868 -0.0008
   20CHTO  C116 8050   4.719   0.981   2.235  0.1038 -0.6543  0.1315
   20CHTO  H220 8051   4.667   0.975   2.137  1.4426  0.7102 -0.6673
   20CHTO   O79 8052   4.851   0.925   2.206 -0.0408  0.0812 -0.0707
   20CHTO  H201 8053   4.851   0.836   2.237  1.2127  0.1997  0.2914
   20CHTO  C120 8054   4.640   0.906   2.356 -0.0417  0.6536  0.2539
   20CHTO  H224 8055   4.705   0.922   2.446 -0.0383  4.6349 -0.3841
   20CHTO   N21 8056   4.627   0.761   2.324 -0.5741  0.0535  0.0733
   20CHTO  H211 8057   4.539   0.747   2.263 -0.1549  0.8220 -0.7119
   20CHTO  H212 8058   4.614   0.709   2.418  0.5045 -0.2842  0.0384
   20CHTO   O75 8059   4.799   1.204   2.157  0.1257  0.3280  0.2133
   20CHTO  C112 8060   4.957   1.228   2.185 -0.6587  0.0327 -0.0792
   20CHTO  H216 8061   5.004   1.136   2.223  2.6703  1.1263 -1.3542
   20CHTO   O73 8062   4.967   1.335   2.286  0.7137 -0.1993 -0.3483
   20CHTO  C113 8063   5.102   1.374   2.325  0.0347  0.2795 -0.1624
   20CHTO  H217 8064   5.142   1.281   2.371  0.5488  0.7754  0.4115
   20CHTO  C124 8065   5.083   1.474   2.445 -0.7324 -0.4846 -0.2540
   20CHTO   O83 8066   4.991   1.430   2.545  0.2376  0.2104 -0.4525
   20CHTO  H204 8067   4.997   1.470   2.630  1.0087 -1.1060  0.1340
   20CHTO  C109 8068   5.184   1.422   2.199  0.0759  0.4482 -0.3939
   20CHTO  H213 8069   5.129   1.505   2.154 -0.3221  0.3680 -0.0585
   20CHTO  C110 8070   5.188   1.304   2.086 -0.0216 -0.3194 -0.3735
   20CHTO  H214 8071   5.242   1.215   2.119 -1.5393  0.1049  3.4675
   20CHTO   O78 8072   5.265   1.351   1.977  0.2102 -0.2898 -0.3750
   20CHTO  H200 8073   5.251   1.290   1.907 -0.6739  0.4429 -0.8446
   20CHTO  C111 8074   5.040   1.269   2.054 -0.0527  0.5547 -0.4764
   20CHTO  H215 8075   4.994   1.357   2.006 -0.3987  0.7860  0.2752
   20CHTO   N19 8076   5.028   1.157   1.959 -0.1527 -0.4862 -0.1031
   20CHTO  H207 8077   5.070   1.167   1.860 -0.2004 -0.8709 -0.1638
   20CHTO  H208 8078   5.065   1.064   1.998  0.4572 -0.2559 -0.1276
   20CHTO   O74 8079   5.315   1.473   2.237  0.2475 -0.2230 -0.3813
   20CHTO  C115 8080   5.341   1.647   2.283 -0.3845 -0.4210  0.0284
   20CHTO  H219 8081   5.270   1.686   2.355 -0.7272  0.9283 -1.0146
   20CHTO   O76 8082   5.503   1.666   2.352 -0.2656  0.1189  0.1194
   20CHTO  C122 8083   5.614   1.628   2.263  0.1107 -0.1723  0.2566
   20CHTO  H226 8084   5.644   1.523   2.267 -0.3558 -0.3505 -0.7457
   20CHTO  C126 8085   5.736   1.703   2.316 -0.4512 -0.1844  0.0961
   20CHTO   O85 8086   5.848   1.660   2.234  0.1933 -0.2854  0.2654
   20CHTO  H206 8087   5.916   1.615   2.280  1.2858  2.0307  0.9770
   20CHTO  C121 8088   5.584   1.652   2.105 -0.3585  0.5189  0.4442
   20CHTO  H225 8089   5.680   1.692   2.066 -1.2462 -0.5165 -2.9829
   20CHTO   O81 8090   5.556   1.529   2.035 -0.2804  0.5247  0.3559
   20CHTO  H202 8091   5.634   1.481   2.015 -1.2538 -0.2221 -1.8132
   20CHTO  C119 8092   5.476   1.761   2.089 -0.7645 -0.7778 -0.1160
   20CHTO  H223 8093   5.516   1.841   2.151 -2.4124  0.5988 -0.8117
   20CHTO  C117 8094   5.331   1.721   2.142  0.2359 -0.5733 -0.1382
   20CHTO  H221 8095   5.279   1.661   2.067  0.3108  0.9825 -1.4564
   20CHTO   N20 8096   5.255   1.848   2.153  0.1917  0.2106  0.2484
   20CHTO  H209 8097   5.155   1.819   2.181 -0.0914  1.0464  0.1313
   20CHTO  H210 8098   5.244   1.900   2.059  0.0227 -0.6137 -0.1933
   20CHTO   O80 8099   5.471   1.838   1.947 -0.2768 -0.1041  0.3990
   20CHTO  C103 8100   5.497   1.754   1.824  0.3358  0.3569 -0.0388
   20CHTO  H190 8101   5.565   1.670   1.834  1.2667  0.9721 -1.0541
   20CHTO  C101 8102   5.378   1.697   1.744 -0.2040 -0.7325 -0.4326
   20CHTO  H188 8103   5.290   1.761   1.741  0.5672  0.4085  1.0336
   20CHTO   O68 8104   5.324   1.558   1.814  0.3114 -0.5038  0.6061
   20CHTO  H168 8105   5.255   1.573   1.876  0.1060 -0.9107  0.4755
   20CHTO   C99 8106   5.411   1.669   1.585 -0.6490 -0.0235  0.4485
   20CHTO  H186 8107   5.487   1.589   1.586 -2.2287 -1.6097 -2.1633
   20CHTO   N17 8108   5.288   1.629   1.505 -0.1048 -0.6992 -0.2589
   20CHTO  H174 8109   5.201   1.605   1.565  0.7348  0.9296  1.6730
   20CHTO  H175 8110   5.302   1.544   1.441 -3.4978 -2.3122  0.9807
   20CHTO   C97 8111   5.482   1.795   1.527 -0.0924  0.3478 -0.3985
   20CHTO  H184 8112   5.418   1.885   1.531  0.9119  1.0302  0.9084
   20CHTO   O64 8113   5.601   1.812   1.612  0.0525  0.1704  0.4640
   20CHTO  C104 8114   5.571   1.861   1.741  0.0534  0.3857 -0.4770
   20CHTO  H191 8115   5.512   1.953   1.736 -1.6101 -0.6733 -0.9427
   20CHTO  C108 8116   5.706   1.903   1.803  0.4930 -0.1732 -0.4778
   20CHTO   O71 8117   5.714   2.045   1.807 -0.3129 -0.1640 -0.3746
   20CHTO  H171 8118   5.752   2.067   1.890  0.5844 -0.1664 -0.7792
   20CHTO   O62 8119   5.530   1.783   1.395  0.3770  0.2502 -0.4310
   20CHTO   C91 8120   5.521   1.894   1.301  0.0737  0.2012 -0.8086
   20CHTO  H178 8121   5.497   1.981   1.361  0.1473 -1.2186  1.3262
   20CHTO   C92 8122   5.397   1.877   1.206 -0.1232  0.1838  0.2104
   20CHTO  H179 8123   5.404   1.781   1.153  0.5651  0.2147  0.2446
   20CHTO   O66 8124   5.280   1.871   1.290 -0.4742  1.1728 -0.6282
   20CHTO  H166 8125   5.277   1.795   1.344 -1.2362  0.8681 -1.1005
   20CHTO   C93 8126   5.371   1.989   1.093 -0.2809 -0.6348 -0.2966
   20CHTO  H180 8127   5.317   2.068   1.147  0.1160  1.0721 -2.3500
   20CHTO   N16 8128   5.285   1.947   0.983  0.1524 -0.3364  0.4085
   20CHTO  H172 8129   5.325   1.995   0.895  1.7728 -2.4430 -0.0322
   20CHTO  H173 8130   5.187   1.976   1.018 -0.4614  0.7135 -2.0672
   20CHTO   C94 8131   5.508   2.057   1.043  0.4290 -0.2626 -0.6014
   20CHTO  H181 8132   5.544   2.015   0.949  0.5288 -1.2226 -0.1330
   20CHTO   O61 8133   5.613   2.045   1.136  0.1738 -0.2868 -0.3344
   20CHTO   C95 8134   5.636   1.915   1.200  1.2398  0.1297 -0.5108
   20CHTO  H182 8135   5.644   1.839   1.123  2.6869  0.1923 -0.4508
   20CHTO  C106 8136   5.772   1.919   1.276  0.0253 -0.1412  0.0318
   20CHTO   O69 8137   5.804   1.789   1.321  0.7639 -0.2090  0.3137
   20CHTO  H169 8138   5.852   1.796   1.401 -0.3835 -1.2116  1.1194
   20CHTO   O63 8139   5.487   2.226   1.038  0.0718  0.1014  0.4861
   20CHTO   C96 8140   5.467   2.296   0.893  0.0427  0.5491 -0.1344
   20CHTO  H183 8141   5.417   2.215   0.839 -1.8780  0.6042  1.5103
   20CHTO   C98 8142   5.599   2.327   0.828 -1.0425  0.0960  0.4248
   20CHTO  H185 8143   5.661   2.388   0.895  0.0131 -0.5022 -0.0031
   20CHTO   O67 8144   5.664   2.203   0.798 -0.3774  0.3687  0.2912
   20CHTO  H167 8145   5.701   2.160   0.873  0.5831 -0.5750 -0.7029
   20CHTO  C102 8146   5.579   2.390   0.688  0.1944 -0.6061  0.5293
   20CHTO  H189 8147   5.543   2.312   0.618 -1.3300  1.3742 -0.9314
   20CHTO   N18 8148   5.710   2.432   0.638  0.2250 -0.6234 -0.2126
   20CHTO  H176 8149   5.706   2.483   0.542 -0.5679 -2.3772 -1.1246
   20CHTO  H177 8150   5.765   2.493   0.708 -1.8933  0.8312  0.2443
   20CHTO  C105 8151   5.488   2.515   0.711 -0.2067  0.1818  0.0866
   20CHTO  H192 8152   5.535   2.580   0.785 -0.8621 -0.7410  1.3225
   20CHTO   O65 8153   5.367   2.478   0.774 -0.1479  0.2760  0.1319
   20CHTO  C100 8154   5.376   2.424   0.905 -0.0499 -0.2042 -0.4099
   20CHTO  H187 8155   5.414   2.496   0.979 -1.3593  0.9769 -0.8550
   20CHTO  C107 8156   5.227   2.388   0.945 -0.4747  0.4271 -0.1815
   20CHTO   O70 8157   5.204   2.312   1.069 -0.0427  0.9395  0.5010
   20CHTO  H170 8158   5.113   2.288   1.076  0.0324  0.5943  0.2688
   20CHTO   O57 8159   5.479   2.588   0.558  0.2249  0.1099  0.1810
   20CHTO   C85 8160   5.386   2.696   0.542  0.2336  0.3989  0.5991
   20CHTO  H157 8161   5.374   2.742   0.642  3.4144 -1.2133  1.8040
   20CHTO   C83 8162   5.241   2.642   0.511 -0.0037  0.3265 -0.0098
   20CHTO  H155 8163   5.210   2.582   0.597  0.7290 -1.3325 -0.8865
   20CHTO   O56 8164   5.250   2.550   0.406 -0.3649 -0.0546  0.2507
   20CHTO  H135 8165   5.312   2.485   0.431  0.5499  0.2086 -1.2479
   20CHTO   C81 8166   5.134   2.750   0.483  0.4443  0.1945 -0.0001
   20CHTO  H153 8167   5.118   2.806   0.575 -2.5772 -0.9725  0.2477
   20CHTO   N14 8168   5.000   2.696   0.457  0.8459  0.5576  0.2309
   20CHTO  H141 8169   4.939   2.782   0.437 -2.4733 -1.3470  1.8808
   20CHTO  H142 8170   4.957   2.648   0.542  0.2348  0.5957 -0.0567
   20CHTO   C79 8171   5.188   2.843   0.369  0.1133 -1.1099 -0.0242
   20CHTO  H151 8172   5.121   2.928   0.362 -0.5978 -1.6855 -0.2983
   20CHTO   O52 8173   5.318   2.903   0.403 -0.8418  0.4081  0.3466
   20CHTO   C86 8174   5.427   2.808   0.431 -0.0701  0.3614 -0.8701
   20CHTO  H158 8175   5.443   2.765   0.330  0.2144  0.4271 -0.8542
   20CHTO   C90 8176   5.559   2.881   0.473 -0.2906  0.1954  0.1554
   20CHTO   O60 8177   5.667   2.790   0.478  0.4051 -0.3356  0.3000
   20CHTO  H138 8178   5.733   2.818   0.418  0.6962  0.1076  0.8272
   20CHTO   O50 8179   5.184   2.778   0.241 -0.2378  0.0507  0.3674
   20CHTO   C73 8180   5.222   2.837   0.116  0.2090 -0.6539  0.2387
   20CHTO  H145 8181   5.330   2.858   0.114  0.0178  0.2974 -0.2373
   20CHTO   C74 8182   5.133   2.971   0.089  0.3591 -0.7230 -0.3917
   20CHTO  H146 8183   5.149   3.037   0.176  0.3156  0.1512 -1.0425
   20CHTO   O54 8184   5.185   3.028  -0.031 -0.2850  0.6108 -0.4445
   20CHTO  H133 8185   5.200   2.958  -0.092 -0.1284 -0.4695  0.8121
   20CHTO   C75 8186   4.980   2.925   0.080 -0.0197  1.1810 -0.6468
   20CHTO  H147 8187   4.956   2.873   0.174  4.0021  1.6348  0.6984
   20CHTO   N13 8188   4.885   3.027   0.072 -0.4015 -0.3123 -0.7495
   20CHTO  H139 8189   4.886   3.072   0.170 -0.3305  2.3705 -1.9315
   20CHTO  H140 8190   4.902   3.099  -0.007  0.2635 -0.6097 -0.8859
   20CHTO   C76 8191   4.965   2.824  -0.046  0.4335 -1.0240  0.1453
   20CHTO  H148 8192   4.992   2.888  -0.131 -0.0024 -1.2324 -0.1520
   20CHTO   O49 8193   5.056   2.716  -0.033  0.5340 -0.3994 -0.1708
   20CHTO   C77 8194   5.193   2.742  -0.005 -0.2473 -0.1111  0.1127
   20CHTO  H149 8195   5.222   2.790  -0.099 -0.1856 -2.5169 -1.1339
   20CHTO   C88 8196   5.278   2.613   0.003  0.4764 -0.0978  0.7175
   20CHTO   O58 8197   5.268   2.541  -0.127 -0.0970  0.1658  0.0180
   20CHTO  H136 8198   5.202   2.475  -0.122 -0.5158  0.6550  1.2032
   20CHTO   O51 8199   4.819   2.760  -0.053  0.6606  0.4756 -0.4029
   20CHTO   C78 8200   4.744   2.713   0.086 -0.3129  0.1698 -0.3425
   20CHTO  H150 8201   4.783   2.784   0.162  0.3004 -0.3390 -0.1780
   20CHTO   C80 8202   4.777   2.565   0.127 -0.3593  0.1882 -0.0397
   20CHTO  H152 8203   4.730   2.503   0.047  0.9392  2.0055 -2.2877
   20CHTO   O55 8204   4.923   2.560   0.140 -0.1359  0.2078 -0.1288
   20CHTO  H134 8205   4.952   2.558   0.050 -0.7037 -3.2830 -0.3304
   20CHTO   C84 8206   4.699   2.538   0.264  0.4122 -0.4749 -0.4974
   20CHTO  H156 8207   4.738   2.609   0.336  2.9523  0.9857 -3.2242
   20CHTO   N15 8208   4.735   2.403   0.318 -0.5470 -0.6411  0.8243
   20CHTO  H143 8209   4.651   2.351   0.361  0.5138 -4.5933 -1.6200
   20CHTO  H144 8210   4.774   2.337   0.243 -0.3446  0.3677  0.0329
   20CHTO   C87 8211   4.549   2.557   0.244 -0.2015  0.0370 -0.0545
   20CHTO  H159 8212   4.505   2.479   0.182  0.5216  0.0037 -0.5381
   20CHTO   O53 8213   4.520   2.696   0.193  0.5249 -0.1834 -0.0148
   20CHTO   C82 8214   4.593   2.731   0.072  0.6533  0.5641 -0.4988
   20CHTO  H154 8215   4.546   2.678  -0.010 -0.4273  0.4526  0.1774
   20CHTO   C89 8216   4.552   2.881   0.049 -0.4316  0.3983  0.1118
   20CHTO   O59 8217   4.431   2.881  -0.024 -0.2752 -0.0800  0.3094
   20CHTO  H137 8218   4.416   2.970  -0.048 -0.7425  0.0045  0.9026
   20CHTO   O45 8219   4.447   2.545   0.383 -0.0085  0.4650 -0.4235
   20CHTO   C67 8220   4.495   2.614   0.498  0.5743  1.0031 -1.0268
   20CHTO  H124 8221   4.602   2.598   0.508  0.4658  0.1668 -1.1933
   20CHTO   C65 8222   4.472   2.772   0.491  0.3279 -0.2408  0.6818
   20CHTO  H122 8223   4.400   2.769   0.409  0.4057 -2.5528  0.6672
   20CHTO   O44 8224   4.594   2.826   0.452  0.4702  0.5092 -0.0183
   20CHTO  H102 8225   4.614   2.798   0.364  2.6214  1.3023  0.1757
   20CHTO   C63 8226   4.395   2.825   0.619  0.1151  0.4269 -0.4742
   20CHTO  H120 8227   4.294   2.785   0.609  1.0622 -2.2586  0.1125
   20CHTO   N11 8228   4.363   2.969   0.628 -1.0899  0.2885  0.4353
   20CHTO  H108 8229   4.260   2.989   0.610 -0.3811  1.6434 -2.4870
   20CHTO  H109 8230   4.428   3.020   0.559 -1.8141 -0.1343 -0.5635
   20CHTO   C61 8231   4.461   2.758   0.749 -0.3045 -0.4448  0.5221
   20CHTO  H118 8232   4.392   2.784   0.831 -0.8472  1.7796 -0.5911
   20CHTO   O40 8233   4.487   2.621   0.750 -0.9204  0.3456  0.5142
   20CHTO   C68 8234   4.442   2.550   0.630  0.0673  0.3187  0.3397
   20CHTO  H125 8235   4.331   2.552   0.622  0.1269 -1.4497 -1.5129
   20CHTO   C72 8236   4.481   2.399   0.648  0.3187 -0.0812  0.0810
   20CHTO   O48 8237   4.625   2.386   0.644  0.4562  0.3975 -0.0649
   20CHTO  H105 8238   4.655   2.300   0.623 -0.3693  0.0489  0.1898
   20CHTO   O38 8239   4.593   2.819   0.768  0.1190  0.4750 -0.1648
   20CHTO   C55 8240   4.656   2.820   0.897  0.2942 -0.2350 -0.7875
   20CHTO  H112 8241   4.599   2.758   0.968  2.5856 -2.0031 -0.4476
   20CHTO   C56 8242   4.672   2.963   0.959 -0.2555  0.3485  0.3163
   20CHTO  H113 8243   4.729   3.021   0.885  0.6839 -2.0734 -0.9039
   20CHTO   O42 8244   4.541   3.016   0.961 -0.4566 -0.3417  0.0866
   20CHTO  H100 8245   4.517   3.062   0.883  1.2017  1.1535  0.4302
   20CHTO   C57 8246   4.735   2.965   1.098 -0.4347 -0.7256 -0.3048
   20CHTO  H114 8247   4.665   2.910   1.160 -2.8595 -0.6816 -2.9152
   20CHTO   N10 8248   4.752   3.104   1.158 -0.2123 -0.1843 -0.0886
   20CHTO  H106 8249   4.736   3.176   1.080 -1.3063  0.5699  0.8130
   20CHTO  H107 8250   4.849   3.119   1.203  0.0304 -0.8693 -0.3790
   20CHTO   C58 8251   4.869   2.890   1.090 -0.0409  0.2611 -0.2462
   20CHTO  H115 8252   4.944   2.942   1.027  0.6254 -0.4315 -0.0320
   20CHTO   O37 8253   4.858   2.759   1.028  0.2637 -0.3828 -0.2909
   20CHTO   C59 8254   4.799   2.755   0.894 -0.5385 -0.2203 -0.5716
   20CHTO  H116 8255   4.858   2.800   0.814 -2.1280  0.5261 -1.3259
   20CHTO   C70 8256   4.779   2.605   0.856  0.1421  0.0659  0.4140
   20CHTO   O46 8257   4.706   2.529   0.953 -0.4232 -0.5379  0.0689
   20CHTO  H103 8258   4.654   2.463   0.913  1.5750 -2.1053 -0.0347
   20CHTO   O39 8259   4.929   2.868   1.243  0.0988 -0.1052  0.1496
   20CHTO   C60 8260   5.039   2.773   1.263  1.0278 -0.0463 -0.5241
   20CHTO  H117 8261   5.078   2.729   1.171  2.7305  0.9565 -0.2878
   20CHTO   C62 8262   5.161   2.858   1.321  0.5130  0.3095  0.2895
   20CHTO  H119 8263   5.189   2.925   1.237 -0.0115 -1.6999 -1.5429
   20CHTO   O43 8264   5.117   2.929   1.438  0.5172  0.1100 -0.2124
   20CHTO  H101 8265   5.165   3.009   1.443  0.2916  0.1379  2.5000
   20CHTO   C66 8266   5.282   2.754   1.346  0.6867 -0.2768  0.6420
   20CHTO  H123 8267   5.315   2.710   1.251  4.1150 -1.3689  2.2512
   20CHTO   N12 8268   5.399   2.839   1.385 -0.4484 -0.2805 -0.7946
   20CHTO  H110 8269   5.381   2.945   1.392  1.7058  0.2135 -2.1982
   20CHTO  H111 8270   5.424   2.804   1.484 -3.0197 -0.4036 -0.1394
   20CHTO   C69 8271   5.247   2.641   1.440  0.8900  0.6185  0.5813
   20CHTO  H126 8272   5.201   2.680   1.534 -0.9444 -1.8898  0.7950
   20CHTO   O41 8273   5.124   2.559   1.367 -0.2015 -0.1832  0.0794
   20CHTO   C64 8274   5.002   2.655   1.354 -0.2857  0.2422 -0.1562
   20CHTO  H121 8275   4.982   2.684   1.459 -0.1670 -1.7429  0.4332
   20CHTO   C71 8276   4.876   2.583   1.292  0.0741 -0.2799 -0.1104
   20CHTO   O47 8277   4.902   2.509   1.178 -0.7158  0.0781  0.2599
   20CHTO  H104 8278   4.818   2.482   1.144 -0.1385  1.8266 -2.7786
   20CHTO   O34 8279   5.360   2.544   1.471 -0.1003 -0.1121  0.1759
   20CHTO   C49 8280   5.312   2.389   1.515 -0.4239 -0.1403 -0.4587
   20CHTO   H91 8281   5.246   2.357   1.434  0.4210  0.3778 -1.3627
   20CHTO   C47 8282   5.224   2.397   1.640 -0.3630  0.2794 -0.9319
   20CHTO   H89 8283   5.118   2.408   1.609 -0.2660 -0.6803 -1.6556
   20CHTO   O33 8284   5.260   2.506   1.726 -0.1419  0.3814  0.7320
   20CHTO   H70 8285   5.351   2.509   1.746 -0.2454 -1.0741  1.5462
   20CHTO   C45 8286   5.244   2.260   1.730 -0.5540 -0.6625 -0.0669
   20CHTO   H87 8287   5.331   2.280   1.795 -0.8238 -1.6297  0.6005
   20CHTO    N8 8288   5.126   2.236   1.817 -0.1425  0.3835  0.1072
   20CHTO   H75 8289   5.107   2.322   1.880 -2.1785  1.2527 -1.6465
   20CHTO   H76 8290   5.156   2.154   1.882 -1.1604 -0.5882 -0.6393
   20CHTO   C43 8291   5.285   2.134   1.639  0.1903  0.1697 -0.3268
   20CHTO   H85 8292   5.294   2.053   1.712 -2.4338  0.9035  0.8714
   20CHTO   O29 8293   5.404   2.156   1.564 -0.1450  0.1901 -0.2380
   20CHTO   C50 8294   5.433   2.293   1.522  0.2165 -0.0995  0.2555
   20CHTO   H92 8295   5.516   2.335   1.580 -1.7033  0.0184  3.0703
   20CHTO   C54 8296   5.499   2.275   1.383 -0.0282 -0.0673 -0.6915
   20CHTO   O36 8297   5.627   2.216   1.410 -0.0207  0.0993  0.5448
   20CHTO   H72 8298   5.687   2.273   1.452 -1.4116  2.8781 -1.0875
   20CHTO   O27 8299   5.181   2.103   1.541 -0.7486  0.6125 -0.3338
   20CHTO   C37 8300   5.041   2.080   1.510 -0.3150  0.1727 -0.1572
   20CHTO   H79 8301   4.974   2.118   1.589  0.1577  0.3973  0.1363
   20CHTO   C38 8302   5.014   2.152   1.371 -0.3292 -0.3538 -0.0779
   20CHTO   H80 8303   5.101   2.138   1.305 -0.3956 -0.6467 -0.1039
   20CHTO   O31 8304   5.008   2.292   1.388 -0.0006 -0.3930  0.1804
   20CHTO   H68 8305   4.944   2.314   1.453  0.3391 -3.8101  1.8060
   20CHTO   C39 8306   4.879   2.109   1.297 -0.6993  0.1154 -0.3227
   20CHTO   H81 8307   4.799   2.142   1.363  1.6070  1.9515  1.6595
   20CHTO    N7 8308   4.860   2.173   1.163  0.8196  0.1080  0.4334
   20CHTO   H73 8309   4.931   2.124   1.099  0.4778 -1.5340  1.2888
   20CHTO   H74 8310   4.757   2.172   1.129  0.9974  2.7570 -0.3231
   20CHTO   C40 8311   4.894   1.952   1.272  0.1069  0.0178 -0.2254
   20CHTO   H82 8312   4.993   1.928   1.232 -0.3382 -1.3124 -0.5548
   20CHTO   O26 8313   4.883   1.907   1.408 -0.3390 -0.9509 -0.4816
   20CHTO   C41 8314   5.002   1.925   1.496 -0.0268  0.2022 -0.1937
   20CHTO   H83 8315   5.087   1.867   1.456 -0.1038  1.1436 -1.7639
   20CHTO   C52 8316   4.987   1.868   1.633 -0.8253  0.5818  0.1066
   20CHTO   O35 8317   4.982   1.723   1.643  0.2087 -0.7400 -0.0185
   20CHTO   H71 8318   4.936   1.700   1.721 -0.1240  1.7815  0.5684
   20CHTO   O28 8319   4.785   1.874   1.212  0.2609 -0.2478 -0.1491
   20CHTO   C42 8320   4.813   1.742   1.154 -0.0921 -0.3354 -0.5924
   20CHTO   H84 8321   4.716   1.704   1.124 -0.1182 -0.2968 -0.5561
   20CHTO   C44 8322   4.874   1.642   1.258 -0.0364  0.2457 -0.0806
   20CHTO   H86 8323   4.955   1.693   1.310  1.9360 -1.7130 -1.1309
   20CHTO   O32 8324   4.769   1.609   1.350  0.2689 -0.2336 -0.5218
   20CHTO   H69 8325   4.755   1.686   1.402  1.1926  1.2092 -2.3365
   20CHTO   C48 8326   4.925   1.504   1.206  0.5068  0.0190  0.3477
   20CHTO   H90 8327   4.846   1.449   1.154 -0.0957  1.9277 -0.7985
   20CHTO    N9 8328   4.985   1.408   1.305  0.3689 -0.7348  0.5901
   20CHTO   H77 8329   4.991   1.314   1.253 -1.6037 -0.8883  0.6233
   20CHTO   H78 8330   4.922   1.405   1.393  0.7479  3.2570  1.0849
   20CHTO   C51 8331   5.020   1.534   1.084 -0.3415  0.2885 -0.5830
   20CHTO   H93 8332   5.105   1.596   1.111  0.1865 -0.0020 -1.5538
   20CHTO   O30 8333   4.934   1.601   0.980 -0.1511 -0.1782 -0.0223
   20CHTO   C46 8334   4.902   1.747   1.031  0.5826 -0.3667  0.7501
   20CHTO   H88 8335   4.995   1.791   1.065 -1.7298  2.4438  3.6685
   20CHTO   C53 8336   4.845   1.842   0.918 -0.1414  0.8713 -0.0662
   20CHTO   O72 8337   4.923   1.851   0.798  0.4933  0.0219  0.3560
   20CHTO  H199 8338   4.934   1.770   0.753 -0.2324  0.1072  0.0236
   20CHTO   O22 8339   5.055   1.421   1.001 -0.1072  0.6913  0.0770
   20CHTO   C31 8340   5.186   1.424   0.925  0.5861 -0.3041  0.1228
   20CHTO   H59 8341   5.182   1.334   0.859  0.0300 -0.8980  0.9637
   20CHTO   C29 8342   5.214   1.548   0.831  0.0371 -0.2735 -0.0419
   20CHTO   H57 8343   5.193   1.634   0.895 -0.1311 -0.0607 -0.3825
   20CHTO   O21 8344   5.124   1.576   0.728  0.3464 -0.0563 -0.0078
   20CHTO   H37 8345   5.036   1.585   0.759  0.4639  2.0412 -0.2061
   20CHTO   C27 8346   5.373   1.560   0.783 -0.1022  0.3198 -0.4570
   20CHTO   H55 8347   5.385   1.485   0.703  0.9517  0.0496 -0.0556
   20CHTO    N5 8348   5.408   1.692   0.730  0.4354  0.4240 -0.2706
   20CHTO   H43 8349   5.325   1.740   0.681 -0.8451 -1.8186 -0.3526
   20CHTO   H44 8350   5.495   1.683   0.666 -1.4132 -0.8300 -2.6500
   20CHTO   C25 8351   5.476   1.532   0.893 -0.1346  0.0437 -0.2736
   20CHTO   H53 8352   5.466   1.599   0.979 -0.2433 -1.6795  1.0874
   20CHTO   O17 8353   5.432   1.398   0.943 -0.0606 -0.2737 -0.5761
   20CHTO   C32 8354   5.303   1.399   1.012  0.4375 -0.0618  0.1045
   20CHTO   H60 8355   5.309   1.476   1.089  0.7243 -2.8120  2.9393
   20CHTO   C36 8356   5.283   1.265   1.084 -0.0069 -0.1686  0.0349
   20CHTO   O25 8357   5.280   1.149   1.002  0.5030 -0.2575 -0.1814
   20CHTO   H40 8358   5.361   1.141   0.956 -0.5467  1.4399 -2.4058
   20CHTO   O15 8359   5.634   1.499   0.836 -0.2363 -0.0127  0.5923
   20CHTO   C19 8360   5.757   1.571   0.786  0.2359  0.1351  1.1351
   20CHTO   H47 8361   5.728   1.607   0.687 -1.4542  1.5693  2.1119
   20CHTO   C20 8362   5.823   1.681   0.871  0.3288 -0.2919 -0.2119
   20CHTO   H48 8363   5.862   1.646   0.968  0.5591  3.8872  1.3041
   20CHTO   O19 8364   5.717   1.775   0.897 -0.0658  0.2561  0.2484
   20CHTO   H35 8365   5.670   1.795   0.819 -0.9661  1.2279  1.0142
   20CHTO   C21 8366   5.950   1.739   0.805 -0.5556 -0.0128  0.0113
   20CHTO   H49 8367   5.922   1.782   0.709  1.2990  0.6754 -0.2546
   20CHTO    N4 8368   6.013   1.863   0.866  0.2441 -0.1290  0.0526
   20CHTO   H41 8369   6.053   1.932   0.794 -0.5140  1.0205  0.7080
   20CHTO   H42 8370   6.082   1.837   0.945  0.3247  1.1601  0.4073
   20CHTO   C22 8371   6.057   1.625   0.787  0.2543 -0.9713 -0.0706
   20CHTO   H50 8372   6.107   1.591   0.878 -0.0523 -0.3219  0.3514
   20CHTO   O14 8373   5.992   1.524   0.713 -0.1867 -0.4085 -0.0347
   20CHTO   C23 8374   5.870   1.469   0.768 -0.0817 -0.1736  0.1361
   20CHTO   H51 8375   5.904   1.421   0.861  1.3489 -4.3903 -2.4431
   20CHTO   C34 8376   5.824   1.355   0.676  0.2342  0.0996  0.0899
   20CHTO   O23 8377   5.931   1.260   0.643  0.4606  0.3366  0.3229
   20CHTO   H38 8378   5.878   1.200   0.595  1.3540 -2.5202  2.7898
   20CHTO   O16 8379   6.158   1.675   0.697  0.0471  0.1868  0.9990
   20CHTO   C24 8380   6.293   1.606   0.713  0.6344 -0.6996  0.0535
   20CHTO   H52 8381   6.281   1.514   0.771 -0.4466  0.7435  2.1892
   20CHTO   C26 8382   6.399   1.694   0.784 -0.4343  0.1747 -0.2444
   20CHTO   H54 8383   6.420   1.784   0.723  0.4496 -0.2289 -0.5538
   20CHTO   O20 8384   6.349   1.741   0.906  1.0797  0.5243 -0.5033
   20CHTO   H36 8385   6.264   1.781   0.899  1.1533  1.7445  4.2117
   20CHTO   C30 8386   6.535   1.622   0.801  0.3115  0.0992  0.1909
   20CHTO   H58 8387   6.533   1.570   0.897  2.2483 -0.5961 -0.1129
   20CHTO    N6 8388   6.647   1.717   0.813  0.4286  0.0605 -0.7762
   20CHTO   H45 8389   6.740   1.664   0.802 -0.7343 -2.4331  0.9794
   20CHTO   H46 8390   6.644   1.768   0.908  0.2074  1.1096 -1.3374
   20CHTO   C33 8391   6.560   1.519   0.689 -0.4535  0.9495 -0.2241
   20CHTO   H61 8392   6.666   1.513   0.659  0.0588 -0.3253  1.7719
   20CHTO   O18 8393   6.486   1.545   0.572 -0.0003 -0.0831  0.5689
   20CHTO   C28 8394   6.345   1.559   0.569 -0.3791 -0.6678 -0.6471
   20CHTO   H56 8395   6.321   1.641   0.502  1.1820  0.2686 -0.0796
   20CHTO   C35 8396   6.269   1.434   0.532 -0.1834  0.2358 -0.1512
   20CHTO   O24 8397   6.291   1.394   0.395  0.5531  0.4134  0.1633
   20CHTO   H39 8398   6.238   1.452   0.343  0.2022  0.9974  1.1532
   20CHTO    O9 8399   6.526   1.392   0.749 -0.4317  0.0844  0.4041
   20CHTO   C13 8400   6.634   1.268   0.735 -0.4678  0.4759 -0.0714
   20CHTO   H26 8401   6.722   1.304   0.794  0.2763 -3.1116  1.1677
   20CHTO   C11 8402   6.671   1.236   0.580  0.3173  0.5936 -0.1354
   20CHTO   H24 8403   6.740   1.316   0.549  1.5244 -0.0328  0.8985
   20CHTO    O8 8404   6.553   1.248   0.502  0.1948  0.1972  0.3392
   20CHTO    H3 8405   6.565   1.220   0.413  0.0040  0.4283  0.2386
   20CHTO    C9 8406   6.741   1.102   0.585 -0.0354 -0.0877  0.3281
   20CHTO   H22 8407   6.806   1.110   0.673  3.2653  1.8237 -2.1135
   20CHTO    N2 8408   6.831   1.070   0.471  0.0291  0.8665  0.1580
   20CHTO   H10 8409   6.898   1.152   0.449  0.8003 -0.2578 -1.9058
   20CHTO   H11 8410   6.893   0.984   0.490  0.8088  1.4700  0.3748
   20CHTO    C7 8411   6.631   0.990   0.604  0.4269  0.0168  0.9641
   20CHTO   H20 8412   6.683   0.900   0.643  1.8305 -0.3467 -1.6090
   20CHTO    O4 8413   6.542   1.037   0.704  0.3881  0.0664 -0.0240
   20CHTO   C14 8414   6.579   1.131   0.806  0.3602  0.6903  0.3117
   20CHTO   H27 8415   6.665   1.086   0.860  0.4183 -0.5174 -0.7701
   20CHTO   C18 8416   6.460   1.145   0.907  0.6135  0.1553 -0.2919
   20CHTO   O13 8417   6.338   1.193   0.847 -0.1498  0.3156 -0.4023
   20CHTO    H7 8418   6.291   1.218   0.924  0.2870 -1.2298  0.3889
   20CHTO    O2 8419   6.535   0.951   0.456  0.1128  0.5038 -0.0970
   20CHTO    C1 8420   6.462   0.828   0.482 -0.5448 -0.2766 -0.1771
   20CHTO   H14 8421   6.429   0.828   0.588 -2.8852 -1.7818 -0.8711
   20CHTO    C2 8422   6.533   0.694   0.455  0.3024 -0.5654 -0.1342
   20CHTO   H15 8423   6.576   0.723   0.359 -1.4208  2.0562 -0.1856
   20CHTO    O6 8424   6.637   0.670   0.555 -0.3106 -0.4747 -0.0611
   20CHTO    H1 8425   6.724   0.688   0.525 -0.8684  2.2572 -0.1765
   20CHTO    C3 8426   6.440   0.564   0.447  0.5749 -0.2357 -0.6388
   20CHTO   H16 8427   6.441   0.526   0.550  0.6928  0.6431 -0.3183
   20CHTO    N1 8428   6.507   0.464   0.366  0.2060  0.3329 -0.1043
   20CHTO    H8 8429   6.607   0.439   0.398  1.2715  0.3247 -3.2714
   20CHTO    H9 8430   6.506   0.466   0.258 -2.2083 -0.7026 -0.1280
   20CHTO    C4 8431   6.290   0.597   0.408  0.5323  0.2699  0.2917
   20CHTO   H17 8432   6.266   0.571   0.305 -2.4099 -0.0897  1.0232
   20CHTO    O1 8433   6.244   0.731   0.438 -0.0246  0.4216  0.1925
   20CHTO    C5 8434   6.328   0.838   0.402 -0.3693  0.3255 -0.7008
   20CHTO   H18 8435   6.347   0.833   0.295  0.3544  1.6187 -0.6345
   20CHTO   C16 8436   6.254   0.971   0.432  0.4894 -0.5152  0.0199
   20CHTO   O11 8437   6.197   0.966   0.564  0.4079 -0.1887 -0.2906
   20CHTO    H5 8438   6.176   1.054   0.590 -2.2500 -0.8954  0.0254
   20CHTO    O3 8439   6.203   0.516   0.491 -0.2480  0.5099 -0.1534
   20CHTO    C6 8440   6.111   0.426   0.420  0.5560 -0.6042 -0.1854
   20CHTO   H19 8441   6.114   0.435   0.312 -1.3258 -1.2733 -0.3058
   20CHTO    C8 8442   6.143   0.277   0.465  0.6509  0.1923 -0.3959
   20CHTO   H21 8443   6.152   0.273   0.573 -1.9723 -2.0263 -0.2221
   20CHTO    O7 8444   6.271   0.246   0.407 -0.2834  0.3407 -0.5981
   20CHTO    H2 8445   6.339   0.306   0.429 -1.7504  1.1446  1.9962
   20CHTO   C12 8446   6.033   0.177   0.399 -1.1585 -0.4877 -0.3111
   20CHTO   H25 8447   6.053   0.179   0.290  0.4425 -0.2113 -0.0188
   20CHTO    N3 8448   6.051   0.039   0.464  0.0883 -0.2440 -0.2077
   20CHTO   H12 8449   6.149  -0.001   0.444  0.3366 -0.3477  1.2225
   20CHTO   H13 8450   6.045   0.054   0.570 -0.0170 -0.1537 -0.2257
   20CHTO   C15 8451   5.879   0.222   0.416  0.0854 -0.4220  0.1811
   20CHTO   H28 8452   5.842   0.195   0.515 -0.4242 -0.4587 -0.0210
   20CHTO   O10 8453   5.791   0.154   0.296 -0.4891  0.1084 -0.6687
   20CHTO    H4 8454   5.704   0.186   0.282 -0.4896 -0.4566 -2.0802
   20CHTO    O5 8455   5.869   0.361   0.399 -0.6358 -0.0544 -0.0759
   20CHTO   C10 8456   5.962   0.446   0.467  0.0484 -0.0566  0.1365
   20CHTO   H23 8457   5.952   0.416   0.571 -0.4244 -0.1805  0.0536
   20CHTO   C17 8458   5.929   0.595   0.461 -0.1386 -0.2396  0.2600
   20CHTO   O12 8459   5.800   0.606   0.523  0.0037  0.5656  0.0289
   20CHTO    H6 8460   5.802   0.579   0.613 -3.6582 -0.2028 -0.0237
   21GLOH   H03 8461   3.758   9.911   1.641 -2.2810 -1.3609  1.4456
   21GLOH    O1 8462   3.811   9.835   1.669  0.0389 -0.5054 -0.4371
   21GLOH    C1 8463   3.817   9.736   1.563 -0.4840 -0.3743 -0.4266
   21GLOH   H02 8464   3.921   9.705   1.559  0.1509  1.6518 -0.4189
   21GLOH   H08 8465   3.807   9.778   1.463  1.1373 -0.8335 -0.8009
   21GLOH    C2 8466   3.718   9.617   1.564  0.2373 -0.7780  0.2570
   21GLOH   H04 8467   3.617   9.659   1.570 -0.1727 -1.2795 -2.3995
   21GLOH    O2 8468   3.721   9.532   1.456  0.1343  0.0964  0.5825
   21GLOH   H05 8469   3.685   9.448   1.491 -1.4130 -0.1815 -1.5737
   21GLOH    C3 8470   3.738   9.545   1.695 -0.5460  0.7487  0.1329
   21GLOH   H06 8471   3.730   9.616   1.777  0.3262  1.7255 -0.6186
   21GLOH   H07 8472   3.842   9.516   1.702 -0.7236  0.1523  0.3263
   21GLOH    O3 8473   3.645   9.435   1.720  0.6367  0.1583  0.4179
   21GLOH   H01 8474   3.600   9.408   1.638  1.3931 -0.1645  0.1087
   22GLOH   H03 8475   3.215   9.450   2.353  1.7498  0.0895  0.1756
   22GLOH    O1 8476   3.266   9.417   2.278  0.5446 -0.0565 -0.5888
   22GLOH    C1 8477   3.349   9.304   2.326 -0.0539 -0.0204 -0.1430
   22GLOH   H02 8478   3.311   9.248   2.411  3.3856 -1.7666  0.3267
   22GLOH   H08 8479   3.447   9.345   2.353  0.3354  0.4703 -2.2167
   22GLOH    C2 8480   3.385   9.198   2.221  0.0728  0.0245  0.3445
   22GLOH   H04 8481   3.437   9.243   2.136 -1.4865 -0.4325 -0.8742
   22GLOH    O2 8482   3.469   9.101   2.280  0.0930  0.4937  0.1711
   22GLOH   H05 8483   3.557   9.131   2.252  0.7017  0.5115  1.9978
   22GLOH    C3 8484   3.250   9.155   2.158  0.4020 -0.3041 -0.1789
   22GLOH   H06 8485   3.192   9.097   2.231 -1.5896  1.5570 -0.2323
   22GLOH   H07 8486   3.269   9.090   2.072  0.6911  1.2867 -1.3235
   22GLOH    O3 8487   3.182   9.264   2.099  0.9557  0.1178  0.5929
   22GLOH   H01 8488   3.198   9.346   2.149 -0.5294  1.3576 -0.8922
   23GLOH   H03 8489   3.718   8.835   1.955  0.0118  1.4235 -0.9303
   23GLOH    O1 8490   3.795   8.837   2.016 -0.5584 -0.4778 -0.0963
   23GLOH    C1 8491   3.764   8.943   2.107  0.8346 -0.1680  0.2636
   23GLOH   H02 8492   3.707   8.910   2.193  1.5493  0.5261  1.0108
   23GLOH   H08 8493   3.699   9.016   2.060 -0.2444  0.6984  3.0521
   23GLOH    C2 8494   3.880   9.027   2.152  0.1416 -0.2345  0.1344
   23GLOH   H04 8495   3.958   8.963   2.197 -0.3056 -0.9753 -0.1330
   23GLOH    O2 8496   3.944   9.102   2.046  0.2799 -0.2977 -0.2775
   23GLOH   H05 8497   3.886   9.113   1.968  0.9146 -0.3034 -0.7550
   23GLOH    C3 8498   3.839   9.128   2.262  0.4779 -0.3707  0.6261
   23GLOH   H06 8499   3.918   9.203   2.260  1.1149 -1.0190  1.1385
   23GLOH   H07 8500   3.839   9.078   2.359 -1.4391 -1.1577  0.2559
   23GLOH    O3 8501   3.706   9.179   2.232 -0.4366 -0.3453 -0.4943
   23GLOH   H01 8502   3.710   9.274   2.254  0.0696  0.0834 -2.3493
   24GLOH   H03 8503   4.524   2.206   1.937 -1.2501  0.1978 -0.5568
   24GLOH    O1 8504   4.559   2.217   1.846  0.0884 -0.5459 -0.1546
   24GLOH    C1 8505   4.606   2.096   1.798  0.4406  0.0384  0.5919
   24GLOH   H02 8506   4.715   2.098   1.785  0.5557  0.1051  1.5143
   24GLOH   H08 8507   4.561   2.072   1.702  0.1961 -2.7242  1.3451
   24GLOH    C2 8508   4.588   1.980   1.889  0.0538  0.3003 -0.2797
   24GLOH   H04 8509   4.485   1.944   1.881 -0.4403  2.2904 -3.4334
   24GLOH    O2 8510   4.684   1.879   1.856  0.9134 -0.1258  0.8615
   24GLOH   H05 8511   4.672   1.850   1.764  0.2153 -2.9269  1.7506
   24GLOH    C3 8512   4.597   2.029   2.033  1.1408  0.3515  0.2581
   24GLOH   H06 8513   4.698   2.069   2.048  0.6681  1.0714  1.5455
   24GLOH   H07 8514   4.583   1.935   2.085 -2.8416  0.8847  0.2874
   24GLOH    O3 8515   4.498   2.127   2.075  0.1371  0.3488  0.1229
   24GLOH   H01 8516   4.411   2.085   2.091 -1.6586  4.0210  0.6008
   25GLOH   H03 8517   3.737   4.164   2.190  0.7774 -0.0245 -2.7914
   25GLOH    O1 8518   3.793   4.239   2.215  0.0451 -0.1281 -0.7450
   25GLOH    C1 8519   3.779   4.260   2.360  0.4627 -0.2185 -0.2593
   25GLOH   H02 8520   3.865   4.212   2.407 -1.2342 -0.9536  2.1253
   25GLOH   H08 8521   3.689   4.219   2.404 -0.1059  1.0593 -0.1977
   25GLOH    C2 8522   3.786   4.411   2.385 -0.8880 -0.1326  0.4592
   25GLOH   H04 8523   3.688   4.452   2.357  0.4496  2.9396  0.1331
   25GLOH    O2 8524   3.807   4.417   2.530 -0.4882  0.2884 -0.0301
   25GLOH   H05 8525   3.746   4.355   2.574 -0.0731 -0.5197 -0.5644
   25GLOH    C3 8526   3.901   4.489   2.307 -0.5122  0.5683 -0.7849
   25GLOH   H06 8527   3.992   4.456   2.356  0.1446  0.3879 -2.1247
   25GLOH   H07 8528   3.906   4.596   2.328 -1.4526  0.2806  1.0248
   25GLOH    O3 8529   3.908   4.460   2.167 -0.9363  0.4259  1.2546
   25GLOH   H01 8530   3.864   4.375   2.148 -1.3158  1.2359 -1.7268
   26GLOH   H03 8531   4.297   0.789   0.350 -0.6088 -1.0847  0.4582
   26GLOH    O1 8532   4.262   0.852   0.415  0.5057  0.2211 -0.1769
   26GLOH    C1 8533   4.307   0.983   0.380  0.2297  0.3901  0.0105
   26GLOH   H02 8534   4.412   0.982   0.350 -0.0707  0.3027 -1.0671
   26GLOH   H08 8535   4.299   1.042   0.471 -0.6338 -0.2326  0.3496
   26GLOH    C2 8536   4.235   1.039   0.256  0.3564 -0.4555 -0.3826
   26GLOH   H04 8537   4.132   1.001   0.268  0.7251 -1.4689 -0.3651
   26GLOH    O2 8538   4.237   1.180   0.248  0.0165  0.2933  0.0799
   26GLOH   H05 8539   4.196   1.220   0.327 -0.6464 -1.7233  0.7995
   26GLOH    C3 8540   4.300   0.971   0.128  0.3779 -0.1092 -0.2763
   26GLOH   H06 8541   4.408   0.959   0.137  0.2040 -1.2325  0.3443
   26GLOH   H07 8542   4.285   1.029   0.036 -0.4483 -1.3119 -0.9104
   26GLOH    O3 8543   4.249   0.838   0.113 -0.3918 -0.2099 -0.3505
   26GLOH   H01 8544   4.283   0.801   0.030 -0.2425 -0.3295 -0.2358
   27GLOH   H03 8545   4.361   1.092   2.015  0.2405  0.0873  0.2164
   27GLOH    O1 8546   4.307   1.110   2.094 -0.6290  0.3947 -0.4495
   27GLOH    C1 8547   4.205   1.203   2.052 -0.9636 -0.1152  0.1023
   27GLOH   H02 8548   4.146   1.150   1.978  0.3029  0.3462 -1.2548
   27GLOH   H08 8549   4.247   1.284   1.993  2.0975 -1.7716 -0.0961
   27GLOH    C2 8550   4.131   1.262   2.173 -0.0128 -0.7891  0.3532
   27GLOH   H04 8551   4.203   1.323   2.229  3.7253 -2.9453 -1.8622
   27GLOH    O2 8552   4.016   1.353   2.145  0.1472  0.0296 -0.6500
   27GLOH   H05 8553   3.930   1.317   2.172  0.6288 -0.9456 -0.3929
   27GLOH    C3 8554   4.085   1.146   2.265  0.7801 -0.0499  0.1796
   27GLOH   H06 8555   4.006   1.087   2.220  0.7265  0.0869  0.0947
   27GLOH   H07 8556   4.048   1.194   2.356  3.3483 -0.6812  1.6222
   27GLOH    O3 8557   4.175   1.044   2.311  0.6211 -0.1068 -0.1720
   27GLOH   H01 8558   4.248   1.034   2.247  0.3643  0.2382 -0.5212
   28GLOH   H03 8559   2.985   0.152   0.639  0.0685 -2.2596 -0.1364
   28GLOH    O1 8560   3.058   0.121   0.696  0.6191 -0.7760 -0.0205
   28GLOH    C1 8561   3.040  -0.019   0.724 -0.1410 -0.1093  0.3207
   28GLOH   H02 8562   2.934  -0.038   0.742 -0.8238  1.3728 -1.9634
   28GLOH   H08 8563   3.090  -0.044   0.818 -1.2923 -0.2245  0.9079
   28GLOH    C2 8564   3.107  -0.095   0.612 -0.0983 -0.0770  0.8123
   28GLOH   H04 8565   3.085  -0.201   0.632 -1.6338  0.3241  1.3831
   28GLOH    O2 8566   3.045  -0.062   0.489  0.6710 -0.6133 -0.3799
   28GLOH   H05 8567   2.991   0.018   0.500 -0.1651 -0.8153 -2.6187
   28GLOH    C3 8568   3.263  -0.090   0.607 -0.1877 -0.0056 -0.2569
   28GLOH   H06 8569   3.292   0.011   0.578  2.0796 -0.7910 -0.8366
   28GLOH   H07 8570   3.300  -0.149   0.523  0.1434 -0.7450  0.4101
   28GLOH    O3 8571   3.323  -0.117   0.737  0.1773  0.2546  0.0837
   28GLOH   H01 8572   3.420  -0.107   0.731  0.0495  1.5999  0.2222
   29GLOH   H03 8573   3.972   9.166   1.360 -2.3685  0.2827  0.6169
   29GLOH    O1 8574   4.004   9.221   1.434 -0.0767  0.5669 -0.5394
   29GLOH    C1 8575   3.901   9.192   1.536 -0.0599 -0.1547 -0.1659
   29GLOH   H02 8576   3.875   9.088   1.518  2.1473 -0.6905 -0.3693
   29GLOH   H08 8577   3.814   9.251   1.509 -0.2101 -0.4086 -0.2364
   29GLOH    C2 8578   3.934   9.226   1.686  0.1978  0.9473 -0.4915
   29GLOH   H04 8579   3.933   9.336   1.698 -1.9178  0.7258  1.7839
   29GLOH    O2 8580   3.838   9.180   1.789  0.4310  0.1019  0.4615
   29GLOH   H05 8581   3.804   9.093   1.762 -0.1055  0.6541 -0.6920
   29GLOH    C3 8582   4.068   9.175   1.721  0.0768 -0.3836  0.0413
   29GLOH   H06 8583   4.059   9.066   1.725  1.8063 -0.6721 -2.3287
   29GLOH   H07 8584   4.078   9.207   1.825 -0.3275 -2.3255  0.6975
   29GLOH    O3 8585   4.177   9.230   1.641  0.1799 -0.5724  0.4618
   29GLOH   H01 8586   4.147   9.235   1.548  1.0155 -1.4508  0.1325
   30GLOH   H03 8587   4.736   4.010   2.328 -4.0809  0.6031  2.3072
   30GLOH    O1 8588   4.714   4.084   2.268 -0.7202 -0.1568  0.0008
   30GLOH    C1 8589   4.615   4.172   2.339 -0.0806  0.8103 -0.4246
   30GLOH   H02 8590   4.672   4.258   2.373 -0.0865  0.8009 -0.3893
   30GLOH   H08 8591   4.566   4.116   2.419 -0.1129  0.7721 -0.4716
   30GLOH    C2 8592   4.501   4.223   2.244  0.1918 -0.8552 -0.0724
   30GLOH   H04 8593   4.453   4.131   2.206 -0.3833 -1.1077  1.2234
   30GLOH    O2 8594   4.399   4.289   2.319  0.5431  0.1375 -0.5617
   30GLOH   H05 8595   4.334   4.322   2.254  0.2831  0.8195  0.0327
   30GLOH    C3 8596   4.558   4.315   2.135 -0.4296  0.3305  0.5310
   30GLOH   H06 8597   4.579   4.416   2.168 -0.9010  1.5005 -2.5794
   30GLOH   H07 8598   4.479   4.342   2.066  0.0913 -1.0780 -0.6493
   30GLOH    O3 8599   4.674   4.253   2.073  0.0516  0.3844 -0.3528
   30GLOH   H01 8600   4.707   4.186   2.135  0.9578  1.8490  0.7735
   31GLOH   H03 8601   3.166   0.899   2.437  2.7666 -0.4927  0.1754
   31GLOH    O1 8602   3.138   0.859   2.521  0.3701 -0.1783 -0.4090
   31GLOH    C1 8603   3.034   0.937   2.587  0.3120  0.6101 -0.7165
   31GLOH   H02 8604   2.992   0.868   2.660  3.7433 -0.9566 -0.1569
   31GLOH   H08 8605   2.960   0.969   2.513 -1.4802 -0.0542  0.7393
   31GLOH    C2 8606   3.090   1.062   2.667  0.4950  0.8701 -0.2976
   31GLOH   H04 8607   3.005   1.109   2.719 -0.4403 -3.1078  1.9564
   31GLOH    O2 8608   3.180   1.030   2.781 -0.0567 -0.2829 -0.5765
   31GLOH   H05 8609   3.263   1.000   2.739  0.7166  0.3864  0.4431
   31GLOH    C3 8610   3.155   1.161   2.567 -0.9825 -0.0489 -0.8849
   31GLOH   H06 8611   3.247   1.118   2.526 -1.0333 -1.2590  0.2466
   31GLOH   H07 8612   3.184   1.250   2.624 -1.9085 -0.7994  0.8006
   31GLOH    O3 8613   3.086   1.196   2.450  0.0563 -0.3187  0.8890
   31GLOH   H01 8614   3.100   1.127   2.383 -2.8242 -0.4203  0.3691
   32GLOH   H03 8615   4.344   1.614   1.149 -1.0625  0.0452  3.3178
   32GLOH    O1 8616   4.340   1.711   1.137  0.3822 -0.2371  0.0027
   32GLOH    C1 8617   4.406   1.763   1.254 -0.7766 -0.2655 -0.2693
   32GLOH   H02 8618   4.515   1.757   1.247 -0.8943 -1.0421 -1.4875
   32GLOH   H08 8619   4.378   1.705   1.342  2.2021 -0.1804  0.7945
   32GLOH    C2 8620   4.374   1.912   1.285  0.9360  0.1544  1.0277
   32GLOH   H04 8621   4.266   1.924   1.299  0.8972 -0.0527  0.8938
   32GLOH    O2 8622   4.436   1.956   1.409  0.0010 -0.6253  0.2788
   32GLOH   H05 8623   4.432   2.053   1.418  0.0160 -0.7004  1.0918
   32GLOH    C3 8624   4.410   2.004   1.163  0.3736 -0.3631  0.3458
   32GLOH   H06 8625   4.519   2.012   1.159  0.5992 -1.4269  3.1308
   32GLOH   H07 8626   4.379   2.104   1.193 -0.9426 -0.9662  1.0241
   32GLOH    O3 8627   4.355   1.957   1.041 -0.0005 -0.5272  0.4815
   32GLOH   H01 8628   4.333   1.862   1.052 -2.4165 -0.6283 -3.9654
   33GLOH   H03 8629   4.117   0.846   1.832  1.7905 -0.5700  1.8553
   33GLOH    O1 8630   4.047   0.830   1.898 -0.2346  0.3495  0.0139
   33GLOH    C1 8631   3.949   0.937   1.893 -0.1917 -0.1383  0.3638
   33GLOH   H02 8632   4.016   1.023   1.888 -0.5000  0.0324 -1.1683
   33GLOH   H08 8633   3.893   0.952   1.985 -0.0891  0.3698  0.3456
   33GLOH    C2 8634   3.864   0.933   1.758 -0.3398 -0.0867 -0.0371
   33GLOH   H04 8635   3.790   1.015   1.754  1.4212  1.4299 -2.5060
   33GLOH    O2 8636   3.948   0.939   1.640 -0.3879  0.8387  0.4369
   33GLOH   H05 8637   3.914   1.017   1.593 -0.1026 -0.0434 -1.2369
   33GLOH    C3 8638   3.808   0.788   1.761 -0.4505 -0.6837  0.3738
   33GLOH   H06 8639   3.886   0.718   1.732  0.8190  0.6593  0.4896
   33GLOH   H07 8640   3.738   0.796   1.677  0.7016 -0.8940 -0.6121
   33GLOH    O3 8641   3.734   0.753   1.879  0.3412  0.2604 -0.6628
   33GLOH   H01 8642   3.723   0.656   1.887  2.3765  0.0515 -0.2021
   34GLOH   H03 8643   4.109   3.301   0.749  0.8784  1.6110 -0.1142
   34GLOH    O1 8644   4.200   3.272   0.763  0.3196 -0.3399 -0.3683
   34GLOH    C1 8645   4.278   3.344   0.662 -0.4564 -0.1293  0.1308
   34GLOH   H02 8646   4.253   3.449   0.655  2.9250  0.7152  0.0612
   34GLOH   H08 8647   4.255   3.290   0.570  1.7767 -0.4987 -0.2371
   34GLOH    C2 8648   4.430   3.322   0.670 -0.3702 -0.1171 -0.2244
   34GLOH   H04 8649   4.449   3.222   0.709 -1.4673 -0.5473 -0.7504
   34GLOH    O2 8650   4.503   3.342   0.547 -0.5319 -0.1212  0.1330
   34GLOH   H05 8651   4.520   3.437   0.533 -0.8529  0.2857  2.3630
   34GLOH    C3 8652   4.490   3.404   0.787  0.3052 -0.3474 -0.4321
   34GLOH   H06 8653   4.599   3.400   0.786  0.4281  1.8924  1.1898
   34GLOH   H07 8654   4.460   3.356   0.880  0.3129  0.7319  0.1316
   34GLOH    O3 8655   4.455   3.549   0.793  0.2536 -1.1202 -0.2611
   34GLOH   H01 8656   4.468   3.590   0.881 -1.2176  1.2914 -1.1469
   35GLOH   H03 8657   4.035   3.443   1.378  2.0475  2.6260  1.8672
   35GLOH    O1 8658   3.973   3.510   1.344  0.1942 -0.0424 -0.2657
   35GLOH    C1 8659   3.914   3.460   1.226  0.6250  0.2682  0.6071
   35GLOH   H02 8660   3.869   3.361   1.230  0.8893  0.1163 -0.0499
   35GLOH   H08 8661   3.990   3.446   1.150  0.5161 -3.6301  1.1320
   35GLOH    C2 8662   3.817   3.567   1.175  0.5340 -0.7589  0.2237
   35GLOH   H04 8663   3.864   3.666   1.173 -0.4060 -0.3162 -0.1182
   35GLOH    O2 8664   3.774   3.535   1.043 -0.3183 -0.1351 -0.2675
   35GLOH   H05 8665   3.832   3.583   0.982 -1.9713  0.5255 -1.3384
   35GLOH    C3 8666   3.701   3.580   1.276  0.6584  0.2231 -0.4805
   35GLOH   H06 8667   3.728   3.609   1.377 -0.7220  1.9281 -0.5741
   35GLOH   H07 8668   3.643   3.488   1.284 -0.7038  1.1387  0.2749
   35GLOH    O3 8669   3.612   3.692   1.239 -0.4456 -0.4692  0.0258
   35GLOH   H01 8670   3.533   3.653   1.198 -1.6744  1.9414  0.0775
   36GLOH   H03 8671   3.898   2.908   2.588 -0.5740 -3.3971 -1.0366
   36GLOH    O1 8672   3.980   2.909   2.535 -0.1313 -0.7740 -0.3920
   36GLOH    C1 8673   3.941   2.975   2.416  1.0579 -0.2528  0.0772
   36GLOH   H02 8674   3.880   3.062   2.442  1.6287 -0.2535  1.4333
   36GLOH   H08 8675   3.880   2.913   2.350  1.5895  2.2282 -2.8624
   36GLOH    C2 8676   4.065   3.036   2.345 -1.3219 -0.9138 -0.3546
   36GLOH   H04 8677   4.122   2.944   2.325  1.4186  1.0564 -1.8515
   36GLOH    O2 8678   4.007   3.085   2.220  0.2856  0.5414  0.4045
   36GLOH   H05 8679   4.002   3.015   2.153  0.1982  2.0030 -1.1371
   36GLOH    C3 8680   4.133   3.146   2.430 -0.1885 -0.4543 -0.0287
   36GLOH   H06 8681   4.064   3.229   2.435  1.5072  0.9280  1.1368
   36GLOH   H07 8682   4.216   3.198   2.380 -0.1024 -0.1967  0.3824
   36GLOH    O3 8683   4.162   3.091   2.557  0.1047 -0.1855 -0.2142
   36GLOH   H01 8684   4.116   3.005   2.560  1.0185 -0.7042 -0.8177
   37GLOH   H03 8685   3.867   3.427   2.264 -1.6781 -0.6847 -0.2712
   37GLOH    O1 8686   3.820   3.356   2.312 -0.1414 -1.1579  0.5850
   37GLOH    C1 8687   3.679   3.357   2.272 -0.0990  0.5493 -0.7904
   37GLOH   H02 8688   3.639   3.457   2.260 -2.7021 -0.3297  0.3371
   37GLOH   H08 8689   3.623   3.328   2.360  0.2687  3.2958  0.4073
   37GLOH    C2 8690   3.650   3.255   2.162  0.1448  0.0507  0.1115
   37GLOH   H04 8691   3.649   3.157   2.212 -1.8350  0.7040  1.4184
   37GLOH    O2 8692   3.513   3.265   2.120 -0.2905 -0.2691  0.0785
   37GLOH   H05 8693   3.464   3.218   2.190  2.7892 -1.2467  1.7094
   37GLOH    C3 8694   3.758   3.253   2.046 -0.4181  0.2679  0.4702
   37GLOH   H06 8695   3.738   3.162   1.989 -0.4465 -0.1520  1.1433
   37GLOH   H07 8696   3.863   3.248   2.073 -0.3240  3.5009  0.9122
   37GLOH    O3 8697   3.745   3.364   1.952 -0.3803 -0.0606 -0.4895
   37GLOH   H01 8698   3.703   3.341   1.867 -1.7251  1.7974 -0.3453
   38GLOH   H03 8699   3.530   2.198   1.458  1.5940 -0.2135  0.5982
   38GLOH    O1 8700   3.469   2.164   1.526 -0.0428  0.7626 -0.3486
   38GLOH    C1 8701   3.342   2.125   1.475 -0.9871  1.3336  0.7859
   38GLOH   H02 8702   3.310   2.189   1.393 -2.1142  3.2560  2.6780
   38GLOH   H08 8703   3.258   2.147   1.540 -1.6342  0.4364  0.2781
   38GLOH    C2 8704   3.351   1.975   1.429 -0.0893 -0.0858 -0.1257
   38GLOH   H04 8705   3.252   1.967   1.380 -0.1140 -2.0687  0.1940
   38GLOH    O2 8706   3.460   1.941   1.335  0.2578  0.1962  0.4716
   38GLOH   H05 8707   3.450   2.000   1.259  0.6790 -1.5364 -0.9557
   38GLOH    C3 8708   3.346   1.891   1.558  0.6669 -0.7676 -0.7211
   38GLOH   H06 8709   3.270   1.931   1.625  0.9689  1.1364 -1.4793
   38GLOH   H07 8710   3.445   1.907   1.600  0.1938 -0.5790  0.3362
   38GLOH    O3 8711   3.325   1.757   1.531  0.7274  0.1008  0.3512
   38GLOH   H01 8712   3.397   1.741   1.467 -1.2034  0.6777 -2.0049
   39GLOH   H03 8713   3.679   2.508   0.447 -1.8384  0.5378  1.8423
   39GLOH    O1 8714   3.704   2.422   0.486  0.2135  0.0809 -0.3449
   39GLOH    C1 8715   3.586   2.361   0.552 -0.0039 -0.0758 -0.3545
   39GLOH   H02 8716   3.499   2.424   0.531  0.8217  0.9339 -0.7639
   39GLOH   H08 8717   3.600   2.349   0.660 -2.4069 -0.8818 -0.0882
   39GLOH    C2 8718   3.567   2.222   0.506  1.0326  0.4202  0.0001
   39GLOH   H04 8719   3.485   2.195   0.574  1.3160  2.2380  1.1097
   39GLOH    O2 8720   3.507   2.215   0.381  0.7924  0.2232 -0.3037
   39GLOH   H05 8721   3.563   2.164   0.319  0.9959  0.0863 -0.0107
   39GLOH    C3 8722   3.692   2.135   0.531  0.7783  0.1349  0.2350
   39GLOH   H06 8723   3.667   2.035   0.495  3.8168 -0.4271 -0.4180
   39GLOH   H07 8724   3.708   2.138   0.639 -1.5434  0.1468  0.6099
   39GLOH    O3 8725   3.809   2.184   0.465 -0.4251 -0.0820 -0.1927
   39GLOH   H01 8726   3.783   2.273   0.436  1.0331  0.9399  1.4766
   40GLOH   H03 8727   4.791   1.292   0.850 -0.9828 -2.9506 -0.3896
   40GLOH    O1 8728   4.740   1.343   0.784 -0.3041 -0.4404  0.9372
   40GLOH    C1 8729   4.722   1.279   0.654  0.8149 -0.1811 -0.0018
   40GLOH   H02 8730   4.710   1.176   0.687 -3.4647  0.8177  1.8059
   40GLOH   H08 8731   4.809   1.292   0.589 -0.1708  0.1753 -1.2706
   40GLOH    C2 8732   4.599   1.307   0.575 -0.1938 -0.1661 -0.0880
   40GLOH   H04 8733   4.609   1.415   0.554 -2.7675 -0.3228 -2.3423
   40GLOH    O2 8734   4.608   1.233   0.451  0.1596 -0.4910  0.4451
   40GLOH   H05 8735   4.582   1.284   0.373  0.1664  0.2824  0.9448
   40GLOH    C3 8736   4.465   1.271   0.646 -0.3339  0.0474 -0.0508
   40GLOH   H06 8737   4.382   1.330   0.606  0.5414  3.0046  2.3113
   40GLOH   H07 8738   4.479   1.307   0.748 -0.5166 -0.5446  0.1890
   40GLOH    O3 8739   4.433   1.133   0.645  0.4060 -0.0525  0.0073
   40GLOH   H01 8740   4.509   1.083   0.608  1.5330  0.9447  0.9330
   41GLOH   H03 8741   3.782   1.799   0.423 -0.9604 -0.2050 -0.8856
   41GLOH    O1 8742   3.855   1.863   0.411 -1.0524  0.0154 -0.3243
   41GLOH    C1 8743   3.988   1.796   0.412  0.5886  0.4156 -0.6462
   41GLOH   H02 8744   3.989   1.718   0.488  0.9283  1.2830  0.2380
   41GLOH   H08 8745   4.063   1.869   0.438  0.5438 -0.5829  2.4596
   41GLOH    C2 8746   4.023   1.736   0.272  1.1710  0.3540 -0.6036
   41GLOH   H04 8747   4.004   1.807   0.190 -3.0059  0.7528  0.6116
   41GLOH    O2 8748   4.163   1.699   0.276 -0.3989 -0.4215 -0.0274
   41GLOH   H05 8749   4.190   1.715   0.184 -1.0529  0.2376 -0.0999
   41GLOH    C3 8750   3.947   1.603   0.235  0.4194  0.2804 -0.2766
   41GLOH   H06 8751   3.967   1.531   0.314  0.1769  0.8919  0.3500
   41GLOH   H07 8752   3.993   1.569   0.143 -0.0592  0.0549 -0.4372
   41GLOH    O3 8753   3.811   1.625   0.204  0.4524 -0.0105 -0.3505
   41GLOH   H01 8754   3.784   1.536   0.172  0.0169  0.3681 -1.0476
   42GLOH   H03 8755   4.015   4.048   1.439 -0.9156  2.9514  0.9026
   42GLOH    O1 8756   4.106   4.081   1.452  0.2477  0.0399  0.4978
   42GLOH    C1 8757   4.166   4.053   1.574 -0.2735 -0.5552  0.0170
   42GLOH   H02 8758   4.223   3.962   1.555  0.7296  0.3143 -1.2003
   42GLOH   H08 8759   4.089   4.023   1.646  1.6843 -2.3819  1.3918
   42GLOH    C2 8760   4.241   4.176   1.636  0.4937 -0.0917  0.6829
   42GLOH   H04 8761   4.167   4.254   1.658  0.3438  0.6639 -2.3933
   42GLOH    O2 8762   4.308   4.129   1.751 -0.8909 -0.5187  0.2613
   42GLOH   H05 8763   4.394   4.084   1.743  0.6872  2.5609 -0.6034
   42GLOH    C3 8764   4.343   4.243   1.546  0.1784 -0.1884  0.3551
   42GLOH   H06 8765   4.388   4.325   1.603  0.3926  0.0688 -0.1846
   42GLOH   H07 8766   4.297   4.287   1.458  1.4471 -0.6524 -0.5383
   42GLOH    O3 8767   4.443   4.152   1.493 -1.0362  0.5799 -0.8622
   42GLOH   H01 8768   4.419   4.141   1.399 -1.6685  1.2763 -0.7884
   43GLOH   H03 8769   3.602   9.794   0.482 -1.6684 -0.1121 -1.3021
   43GLOH    O1 8770   3.607   9.699   0.460 -0.7067 -0.3825  0.0236
   43GLOH    C1 8771   3.633   9.700   0.322  0.0392  0.8774  0.1247
   43GLOH   H02 8772   3.740   9.722   0.318  0.6007 -1.1962  2.3719
   43GLOH   H08 8773   3.586   9.784   0.271 -0.3569  0.9644  0.6275
   43GLOH    C2 8774   3.627   9.560   0.247  0.0590 -0.8188  0.5806
   43GLOH   H04 8775   3.522   9.527   0.239 -0.1518 -0.1461  0.5342
   43GLOH    O2 8776   3.685   9.569   0.114 -0.2576 -0.1676 -0.5645
   43GLOH   H05 8777   3.765   9.624   0.123 -1.0436  0.8426  0.3116
   43GLOH    C3 8778   3.710   9.459   0.335 -0.3184 -0.4989  0.1395
   43GLOH   H06 8779   3.693   9.363   0.285 -1.8966  0.4846 -1.2837
   43GLOH   H07 8780   3.665   9.452   0.434  1.8112  1.9227  1.3439
   43GLOH    O3 8781   3.854   9.496   0.348 -0.2944  0.4639  0.4541
   43GLOH   H01 8782   3.882   9.537   0.264 -0.6612  0.4221  0.3064
   44GLOH   H03 8783   4.840   3.422   2.361  1.7616  0.5789 -0.1038
   44GLOH    O1 8784   4.838   3.468   2.447 -0.0337  0.1039  0.1342
   44GLOH    C1 8785   4.942   3.568   2.456 -0.0585 -0.2067 -0.1099
   44GLOH   H02 8786   5.041   3.523   2.462 -1.1296 -2.5039  0.9389
   44GLOH   H08 8787   4.934   3.633   2.543 -0.6632 -0.1284 -0.2174
   44GLOH    C2 8788   4.928   3.664   2.334 -0.1030 -0.7710  0.5113
   44GLOH   H04 8789   4.832   3.713   2.315  0.5637 -0.6624 -2.8667
   44GLOH    O2 8790   5.023   3.773   2.345 -0.1485  0.2203 -0.1415
   44GLOH   H05 8791   5.032   3.826   2.264  1.0793  0.7741  0.3526
   44GLOH    C3 8792   4.966   3.588   2.203 -0.3851 -0.9661 -0.1883
   44GLOH   H06 8793   5.054   3.528   2.226 -2.1544 -2.3894  3.1842
   44GLOH   H07 8794   4.990   3.653   2.119 -0.2601 -2.3481 -1.2500
   44GLOH    O3 8795   4.854   3.502   2.174  0.0470 -0.0523  0.3459
   44GLOH   H01 8796   4.886   3.435   2.110 -2.3951 -1.8241  0.8926
   45GLOH   H03 8797   3.789   0.168   1.552 -0.8902 -0.5713 -3.7049
   45GLOH    O1 8798   3.842   0.242   1.516 -0.0134  0.4643 -0.4259
   45GLOH    C1 8799   3.848   0.221   1.373  0.3976 -0.9076  0.2861
   45GLOH   H02 8800   3.828   0.116   1.349 -0.7069 -0.4879 -0.6702
   45GLOH   H08 8801   3.948   0.244   1.338 -0.5943  2.1468 -0.7135
   45GLOH    C2 8802   3.768   0.330   1.296 -0.6521 -0.1775  0.4891
   45GLOH   H04 8803   3.783   0.319   1.187 -0.0096 -1.0099  0.6604
   45GLOH    O2 8804   3.625   0.314   1.313 -0.2926 -0.2451 -0.1420
   45GLOH   H05 8805   3.603   0.220   1.301  1.0172 -0.9811  2.7995
   45GLOH    C3 8806   3.813   0.476   1.325 -0.0083  0.1639 -0.0870
   45GLOH   H06 8807   3.803   0.486   1.433  0.2077 -0.4168 -0.0082
   45GLOH   H07 8808   3.736   0.544   1.287  2.0783  2.1308 -0.8776
   45GLOH    O3 8809   3.947   0.500   1.280  0.0537  0.2958  0.1865
   45GLOH   H01 8810   3.979   0.584   1.318  0.2657  0.0016  0.6717
   46GLOH   H03 8811   4.110   0.303   0.925 -0.8293  1.3947 -1.3721
   46GLOH    O1 8812   4.123   0.229   0.864  0.2515  0.3781  0.0648
   46GLOH    C1 8813   4.166   0.113   0.944 -0.5298  0.2315 -0.0498
   46GLOH   H02 8814   4.268   0.142   0.971 -0.8731  2.3853 -0.9621
   46GLOH   H08 8815   4.171   0.027   0.879 -0.9431  0.7288 -0.7393
   46GLOH    C2 8816   4.069   0.084   1.061 -0.5893  0.1786 -0.9918
   46GLOH   H04 8817   4.087  -0.016   1.104  0.4838  0.2753 -1.1999
   46GLOH    O2 8818   4.072   0.185   1.169 -0.3829  0.7394  0.4461
   46GLOH   H05 8819   4.094   0.275   1.140  1.3421  0.1259 -0.2740
   46GLOH    C3 8820   3.924   0.069   0.994  0.1368  0.2916  0.1030
   46GLOH   H06 8821   3.901   0.149   0.923  0.9971 -0.2508 -0.7878
   46GLOH   H07 8822   3.851   0.093   1.072  2.3575 -0.9235  2.6092
   46GLOH    O3 8823   3.912  -0.059   0.934 -0.3438  0.0194  0.5452
   46GLOH   H01 8824   3.942  -0.131   0.993  2.6943 -2.0573 -3.2677
   47GLOH   H03 8825   3.814   9.391   1.022 -1.4792  0.3476 -0.5065
   47GLOH    O1 8826   3.793   9.300   1.053  0.7089 -0.0527 -0.1148
   47GLOH    C1 8827   3.806   9.200   0.947 -0.2043 -0.6154 -0.1713
   47GLOH   H02 8828   3.900   9.218   0.895 -1.3225  1.8209 -1.4031
   47GLOH   H08 8829   3.724   9.223   0.879  0.9938  0.4093 -1.2979
   47GLOH    C2 8830   3.818   9.058   1.009  0.2168  0.7254  0.3071
   47GLOH   H04 8831   3.744   9.034   1.087  1.4189  2.5170  2.0613
   47GLOH    O2 8832   3.818   8.958   0.902  0.4182  0.3642  0.2250
   47GLOH   H05 8833   3.809   8.994   0.812 -1.3963  0.1983  0.3150
   47GLOH    C3 8834   3.943   9.053   1.098  0.5048  1.0108 -0.6265
   47GLOH   H06 8835   4.033   9.067   1.038  1.5575  0.1323  0.7162
   47GLOH   H07 8836   3.955   8.955   1.145  1.6755  2.1894  1.5616
   47GLOH    O3 8837   3.940   9.147   1.203  0.0844  0.1693 -0.2501
   47GLOH   H01 8838   3.899   9.230   1.172  2.4106  1.1680 -0.7821
   48GLOH   H03 8839   3.192   0.195   0.615  0.7121  0.1057  1.7752
   48GLOH    O1 8840   3.265   0.247   0.577 -0.2800 -0.2050 -0.6628
   48GLOH    C1 8841   3.289   0.376   0.646  0.1471 -0.6047 -0.1332
   48GLOH   H02 8842   3.257   0.367   0.750  3.2313 -2.6936  0.7252
   48GLOH   H08 8843   3.223   0.451   0.604 -0.8866 -1.8990 -0.8772
   48GLOH    C2 8844   3.440   0.418   0.661  0.7938  0.7297  0.3982
   48GLOH   H04 8845   3.480   0.415   0.558  1.1016  2.3078  0.4475
   48GLOH    O2 8846   3.450   0.543   0.730 -0.7864 -0.0662  0.0632
   48GLOH   H05 8847   3.546   0.555   0.736 -1.0344  0.9996  2.0342
   48GLOH    C3 8848   3.515   0.297   0.726  0.2141  0.0610 -0.5275
   48GLOH   H06 8849   3.540   0.227   0.646  2.7246 -0.1648  0.4091
   48GLOH   H07 8850   3.455   0.242   0.798 -2.0550  0.7040 -1.8823
   48GLOH    O3 8851   3.641   0.334   0.786  0.2704  0.1659  0.1400
   48GLOH   H01 8852   3.688   0.395   0.726 -1.3870  0.0895 -1.2800
   49GLOH   H03 8853   3.512   3.880   0.803  2.8832 -1.6361 -0.6097
   49GLOH    O1 8854   3.563   3.944   0.855 -0.0883  0.3780 -0.0559
   49GLOH    C1 8855   3.574   3.898   0.992 -0.1663  0.3343 -0.4753
   49GLOH   H02 8856   3.612   3.797   1.002  0.3456  0.5552 -0.1676
   49GLOH   H08 8857   3.478   3.893   1.044 -0.9217 -0.9622 -1.9284
   49GLOH    C2 8858   3.676   3.978   1.075 -0.3644  0.3405  0.3570
   49GLOH   H04 8859   3.643   4.082   1.077 -1.3868  0.0005  1.9909
   49GLOH    O2 8860   3.685   3.933   1.217  0.4529  0.1276  0.3617
   49GLOH   H05 8861   3.656   3.841   1.213  0.5355  0.1234 -0.3482
   49GLOH    C3 8862   3.812   3.950   1.003 -0.2926 -0.2551 -0.3069
   49GLOH   H06 8863   3.863   3.857   1.030  1.3494  0.2360 -1.6097
   49GLOH   H07 8864   3.884   4.026   1.036 -0.7345  0.2931 -0.5917
   49GLOH    O3 8865   3.811   3.958   0.863 -0.3457  0.3663 -0.3593
   49GLOH   H01 8866   3.720   3.958   0.829 -0.7687 -4.0486  0.4572
   50GLOH   H03 8867   2.820   3.059   2.208  0.2813  0.2496 -0.1686
   50GLOH    O1 8868   2.830   3.062   2.305 -0.1305 -0.1259 -0.1134
   50GLOH    C1 8869   2.871   3.191   2.346  0.5688 -0.4524 -0.6689
   50GLOH   H02 8870   2.795   3.261   2.312 -0.6529 -1.7107 -0.5796
   50GLOH   H08 8871   2.970   3.226   2.317  0.7256  1.6684  2.2465
   50GLOH    C2 8872   2.879   3.206   2.498  1.2656 -0.2233 -0.0725
   50GLOH   H04 8873   2.949   3.128   2.532 -0.9868 -2.0097  0.5314
   50GLOH    O2 8874   2.907   3.341   2.548  0.2317  0.2252  0.2400
   50GLOH   H05 8875   2.831   3.375   2.599 -0.1742 -0.3215  0.0109
   50GLOH    C3 8876   2.746   3.161   2.563 -0.5856 -0.2708 -0.3924
   50GLOH   H06 8877   2.724   3.061   2.527  3.2411 -1.0250 -0.8882
   50GLOH   H07 8878   2.664   3.228   2.536  0.3994  1.3867  0.6090
   50GLOH    O3 8879   2.770   3.163   2.706 -0.2519  0.3268  0.2776
   50GLOH   H01 8880   2.845   3.101   2.716 -0.7500 -0.2620  0.3562
   51GLOH   H03 8881   3.008   1.774   0.367 -1.1877  0.7284  0.7443
   51GLOH    O1 8882   3.055   1.733   0.442 -0.0997 -0.5557 -0.6148
   51GLOH    C1 8883   3.083   1.842   0.534  0.0034  0.1580 -0.0890
   51GLOH   H02 8884   3.120   1.805   0.629  0.9133 -1.1356 -0.9240
   51GLOH   H08 8885   2.984   1.887   0.544  1.0707  2.3780  0.6991
   51GLOH    C2 8886   3.168   1.947   0.464  0.3632 -0.3985  0.1332
   51GLOH   H04 8887   3.234   1.884   0.402  0.9314 -1.7907  2.0917
   51GLOH    O2 8888   3.092   2.028   0.376  0.5318 -0.2581 -0.2515
   51GLOH   H05 8889   3.061   1.962   0.312  3.2300 -1.8239 -0.0241
   51GLOH    C3 8890   3.246   2.026   0.571  0.5480 -0.5660 -0.3898
   51GLOH   H06 8891   3.174   2.099   0.607  0.8710 -0.8109  0.7932
   51GLOH   H07 8892   3.326   2.076   0.516  0.0063  0.1435 -0.5331
   51GLOH    O3 8893   3.306   1.956   0.678 -0.2202  0.0588  0.2875
   51GLOH   H01 8894   3.232   1.938   0.740  0.8635 -0.1285  1.5382
   52GLOH   H03 8895   3.813   1.924   1.958 -1.6657  0.9708  2.9831
   52GLOH    O1 8896   3.842   1.852   2.016  0.4932 -0.2469  0.4829
   52GLOH    C1 8897   3.780   1.729   1.975 -0.4919  0.2077 -0.6420
   52GLOH   H02 8898   3.723   1.687   2.059  0.8592 -1.0205 -0.3218
   52GLOH   H08 8899   3.859   1.658   1.951  0.5966  0.9163  0.7745
   52GLOH    C2 8900   3.687   1.731   1.849  0.3086 -1.0711  0.1582
   52GLOH   H04 8901   3.727   1.789   1.765 -0.6029 -1.5407 -0.6051
   52GLOH    O2 8902   3.681   1.599   1.798  0.1458 -0.1709 -0.5867
   52GLOH   H05 8903   3.687   1.607   1.701 -2.9235  0.7136 -0.7643
   52GLOH    C3 8904   3.542   1.777   1.892  0.2473 -0.7573 -0.2106
   52GLOH   H06 8905   3.481   1.787   1.802 -1.5287 -0.0688  1.0383
   52GLOH   H07 8906   3.565   1.874   1.935  2.5679 -1.2544 -0.2666
   52GLOH    O3 8907   3.482   1.682   1.977 -0.1624  0.0140  0.3337
   52GLOH   H01 8908   3.493   1.705   2.071 -1.3420  1.3643  0.1605
   53GLOH   H03 8909   4.031   4.198   1.967 -0.5324 -0.9680 -0.7781
   53GLOH    O1 8910   4.064   4.141   2.040  0.2819  0.3671 -0.0894
   53GLOH    C1 8911   4.002   4.013   2.018 -0.9114 -0.1660  0.1027
   53GLOH   H02 8912   4.034   3.972   1.923 -0.3077 -0.1724  0.3078
   53GLOH   H08 8913   3.897   4.041   2.010 -1.3218 -2.1075 -1.6215
   53GLOH    C2 8914   4.012   3.909   2.134 -0.2924  0.0407  0.4085
   53GLOH   H04 8915   3.963   3.939   2.228  1.5962 -2.1352  2.1566
   53GLOH    O2 8916   3.964   3.783   2.094 -0.1145  0.5859  0.9271
   53GLOH   H05 8917   3.871   3.782   2.069 -0.0166  0.3692  0.5751
   53GLOH    C3 8918   4.160   3.886   2.164  1.0255 -0.0767 -0.3234
   53GLOH   H06 8919   4.214   3.840   2.081 -0.8077 -0.2575 -1.4345
   53GLOH   H07 8920   4.169   3.819   2.249 -0.4358 -1.0134 -0.8952
   53GLOH    O3 8921   4.227   4.014   2.199  0.1069  0.8859 -0.4472
   53GLOH   H01 8922   4.189   4.090   2.151 -1.5244 -0.0514 -0.6785
   54GLOH   H03 8923   2.996   2.297   2.751 -0.6333 -0.5891 -0.6164
   54GLOH    O1 8924   3.088   2.265   2.756 -0.7362 -0.7199  0.5430
   54GLOH    C1 8925   3.184   2.337   2.832 -0.2934 -0.4902  0.7123
   54GLOH   H02 8926   3.259   2.377   2.765 -0.1181  0.7820  1.6481
   54GLOH   H08 8927   3.229   2.266   2.902 -2.3963 -0.7349  1.8715
   54GLOH    C2 8928   3.114   2.460   2.896  1.0145 -0.1837  0.0475
   54GLOH   H04 8929   3.012   2.437   2.930  0.1475  2.5071 -0.6682
   54GLOH    O2 8930   3.182   2.488   3.017 -0.1885 -0.5240  0.1699
   54GLOH   H05 8931   3.210   2.403   3.055  0.6520 -0.1100  0.4866
   54GLOH    C3 8932   3.103   2.583   2.796  0.2420  0.4564 -0.2611
   54GLOH   H06 8933   3.107   2.675   2.854  0.7387 -0.9484  1.9938
   54GLOH   H07 8934   3.007   2.572   2.746  0.6834  2.9306 -1.7138
   54GLOH    O3 8935   3.199   2.589   2.690 -0.1124 -0.1121  0.8050
   54GLOH   H01 8936   3.198   2.507   2.637  0.9301  0.4732 -0.1460
   55GLOH   H03 8937   3.613   3.405   0.075  1.0391  0.9804  0.2774
   55GLOH    O1 8938   3.557   3.455   0.013  0.2532 -0.1760  0.0500
   55GLOH    C1 8939   3.463   3.548   0.074  0.4129  0.6989 -0.3020
   55GLOH   H02 8940   3.436   3.625   0.002 -1.4671  0.2243 -0.1371
   55GLOH   H08 8941   3.514   3.598   0.156 -1.3965  2.8296 -0.4066
   55GLOH    C2 8942   3.332   3.485   0.117  0.3953 -0.0289  0.0903
   55GLOH   H04 8943   3.371   3.389   0.153  2.6145 -0.0978 -2.4242
   55GLOH    O2 8944   3.255   3.557   0.218  0.2486 -0.3834  0.3830
   55GLOH   H05 8945   3.203   3.492   0.267  0.8950 -0.8124  0.5047
   55GLOH    C3 8946   3.234   3.469   0.001  0.0399  0.7038 -0.7724
   55GLOH   H06 8947   3.150   3.410   0.037 -0.1007  2.3309  1.6684
   55GLOH   H07 8948   3.288   3.413  -0.075  0.4946  0.4556 -0.2720
   55GLOH    O3 8949   3.188   3.593  -0.061 -0.5239 -0.7069 -0.1382
   55GLOH   H01 8950   3.259   3.632  -0.117 -1.2685 -1.3913 -1.5883
   56GLOH   H03 8951   3.449   3.278   1.969 -2.1447  1.9074  0.4919
   56GLOH    O1 8952   3.411   3.261   1.881 -0.3423 -0.2564  0.0934
   56GLOH    C1 8953   3.259   3.251   1.886 -0.8170 -0.5734  0.0555
   56GLOH   H02 8954   3.210   3.332   1.940  1.8142 -1.0568  3.3906
   56GLOH   H08 8955   3.240   3.152   1.928 -2.7791 -0.6923 -1.0647
   56GLOH    C2 8956   3.185   3.245   1.749 -0.1520 -0.1784 -1.0979
   56GLOH   H04 8957   3.242   3.187   1.676 -0.1304 -1.0712 -0.3754
   56GLOH    O2 8958   3.052   3.194   1.770  0.6633 -0.2497 -0.0112
   56GLOH   H05 8959   3.013   3.242   1.845 -0.7564 -2.6279  0.8267
   56GLOH    C3 8960   3.183   3.379   1.675  0.0124 -1.1688 -0.2920
   56GLOH   H06 8961   3.284   3.418   1.683 -1.3091  2.1426  1.0860
   56GLOH   H07 8962   3.118   3.439   1.739  2.4507  1.1091  0.1237
   56GLOH    O3 8963   3.112   3.385   1.552 -0.4173 -0.0624 -0.4133
   56GLOH   H01 8964   3.119   3.480   1.530 -1.8124  0.3799  0.9630
   57GLOH   H03 8965   3.011   0.343   1.419 -0.7298 -1.4809  0.6882
   57GLOH    O1 8966   2.973   0.411   1.478  0.0325  0.2708 -0.7654
   57GLOH    C1 8967   3.074   0.503   1.522 -0.2910  0.4050 -0.1085
   57GLOH   H02 8968   3.099   0.465   1.621 -0.6911 -1.7728 -0.8163
   57GLOH   H08 8969   3.030   0.602   1.527  0.6643  1.1015 -3.8182
   57GLOH    C2 8970   3.200   0.497   1.432 -0.2200  0.2868 -0.5510
   57GLOH   H04 8971   3.183   0.570   1.351  3.1675 -0.3643 -1.9202
   57GLOH    O2 8972   3.310   0.550   1.508 -0.1974 -0.5428 -0.4293
   57GLOH   H05 8973   3.315   0.509   1.595 -0.4038 -1.5820 -0.9076
   57GLOH    C3 8974   3.234   0.349   1.386  0.3430 -0.0772  0.9489
   57GLOH   H06 8975   3.265   0.300   1.479 -0.4645  1.1243  1.8649
   57GLOH   H07 8976   3.318   0.350   1.316  0.1173 -0.6439  0.6659
   57GLOH    O3 8977   3.119   0.285   1.317 -0.0597  0.3356  0.4680
   57GLOH   H01 8978   3.141   0.192   1.296  0.1040  0.7307 -1.2365
   58GLOH   H03 8979   4.559   2.453   1.280 -0.1742  0.2174 -0.2286
   58GLOH    O1 8980   4.559   2.391   1.355 -0.0631 -0.3741 -0.7154
   58GLOH    C1 8981   4.591   2.466   1.480  0.6701 -0.0273  0.3097
   58GLOH   H02 8982   4.696   2.496   1.482  0.7655 -0.3938  1.0672
   58GLOH   H08 8983   4.565   2.399   1.562  0.2864 -0.0750  0.1522
   58GLOH    C2 8984   4.508   2.593   1.488  0.9626 -0.6768 -0.6295
   58GLOH   H04 8985   4.408   2.566   1.449  0.0967  1.9755 -0.3250
   58GLOH    O2 8986   4.508   2.648   1.616 -0.4940 -0.1050 -0.4760
   58GLOH   H05 8987   4.591   2.622   1.660  0.9579  1.8826 -1.9451
   58GLOH    C3 8988   4.549   2.688   1.376 -0.4947  0.3144  0.2246
   58GLOH   H06 8989   4.655   2.711   1.387 -0.3291  0.1554 -0.9467
   58GLOH   H07 8990   4.501   2.786   1.385  1.3964  1.4025 -1.2829
   58GLOH    O3 8991   4.543   2.630   1.245  0.6180 -0.4317  0.0915
   58GLOH   H01 8992   4.508   2.700   1.187  2.0604  0.5200  0.3395
   59GLOH   H03 8993   3.557   2.596   2.719 -0.8544  1.3186  3.9935
   59GLOH    O1 8994   3.617   2.525   2.750  0.6884  0.7336  0.0095
   59GLOH    C1 8995   3.543   2.405   2.752  0.2692  0.8144  0.6375
   59GLOH   H02 8996   3.607   2.328   2.710  1.4307  1.7803  0.6020
   59GLOH   H08 8997   3.454   2.404   2.689  1.1767 -0.0831 -0.6454
   59GLOH    C2 8998   3.508   2.369   2.898 -0.1091 -0.6226  0.0639
   59GLOH   H04 8999   3.419   2.426   2.930 -0.1751 -1.3685  1.2650
   59GLOH    O2 9000   3.474   2.227   2.908  0.3675 -0.0026 -0.0223
   59GLOH   H05 9001   3.534   2.186   2.973  1.3930 -0.1874 -1.0609
   59GLOH    C3 9002   3.614   2.405   2.999 -0.3046 -0.2267 -0.4493
   59GLOH   H06 9003   3.699   2.343   2.972  0.4912  0.4816  0.4129
   59GLOH   H07 9004   3.576   2.370   3.095  0.7097 -1.2212 -0.3917
   59GLOH    O3 9005   3.664   2.542   3.003  0.0321  0.1362 -0.2532
   59GLOH   H01 9006   3.677   2.554   2.908 -0.2132  0.5907 -0.2287
   60GLOH   H03 9007   3.581   3.030   1.826  0.1241 -0.1774 -0.1668
   60GLOH    O1 9008   3.566   3.027   1.729  1.0009  0.1231 -0.3193
   60GLOH    C1 9009   3.470   2.932   1.691  0.0925  0.0816  0.3029
   60GLOH   H02 9010   3.519   2.849   1.638  1.0847 -0.0143  1.3613
   60GLOH   H08 9011   3.408   2.980   1.616 -0.7270  2.9389  2.7281
   60GLOH    C2 9012   3.384   2.870   1.801 -0.0008  0.7858 -0.9374
   60GLOH   H04 9013   3.305   2.941   1.828 -0.9274  0.3383 -2.3843
   60GLOH    O2 9014   3.310   2.754   1.766 -0.0996  0.0306 -0.4398
   60GLOH   H05 9015   3.263   2.757   1.681 -3.5285  2.4302  1.4160
   60GLOH    C3 9016   3.464   2.851   1.924  0.2292 -0.4802  0.3128
   60GLOH   H06 9017   3.541   2.776   1.907 -0.7377 -1.0590 -1.5710
   60GLOH   H07 9018   3.399   2.819   2.005  0.3069  0.7423  0.8714
   60GLOH    O3 9019   3.531   2.967   1.970  0.2253  0.0482  0.0831
   60GLOH   H01 9020   3.537   2.952   2.066 -0.3772 -0.0501  0.1064
   61GLOH   H03 9021   3.634   0.211   0.040  0.5108 -1.4204 -0.6354
   61GLOH    O1 9022   3.561   0.169  -0.008 -0.1033 -0.1942 -0.7982
   61GLOH    C1 9023   3.589   0.137  -0.149  0.0402  0.8306 -0.0977
   61GLOH   H02 9024   3.550   0.041  -0.182 -1.8566  2.5427 -3.1634
   61GLOH   H08 9025   3.695   0.126  -0.168  0.0714  1.1584 -0.1252
   61GLOH    C2 9026   3.547   0.250  -0.245 -0.2197 -0.7080 -0.1232
   61GLOH   H04 9027   3.584   0.342  -0.198 -0.7461 -0.8901  0.6583
   61GLOH    O2 9028   3.605   0.236  -0.379  0.0687 -0.1270 -0.2146
   61GLOH   H05 9029   3.571   0.307  -0.437 -1.1293 -1.9765 -1.8527
   61GLOH    C3 9030   3.397   0.253  -0.251  0.7690  0.4709 -0.5720
   61GLOH   H06 9031   3.372   0.347  -0.300  1.9768  0.6818 -0.7914
   61GLOH   H07 9032   3.353   0.252  -0.152  0.8674 -0.1398 -0.5345
   61GLOH    O3 9033   3.343   0.143  -0.325  0.4107  0.2730  0.4248
   61GLOH   H01 9034   3.246   0.152  -0.330  0.3293 -1.1577 -0.8655
   62GLOH   H03 9035   4.458   3.692   2.001  2.1040  3.5685 -1.0557
   62GLOH    O1 9036   4.437   3.696   1.906  0.0785 -0.2582 -0.8411
   62GLOH    C1 9037   4.305   3.655   1.868 -0.1498 -0.0018 -0.2192
   62GLOH   H02 9038   4.246   3.665   1.960 -2.6611 -0.4456 -1.7501
   62GLOH   H08 9039   4.312   3.549   1.845  1.2154 -0.2026  1.0184
   62GLOH    C2 9040   4.246   3.746   1.762 -0.0447 -0.1255 -0.2816
   62GLOH   H04 9041   4.236   3.845   1.807 -3.9590 -0.1934 -0.8572
   62GLOH    O2 9042   4.333   3.755   1.649 -0.0123 -0.0549  0.1541
   62GLOH   H05 9043   4.394   3.824   1.680  0.0302  0.1385 -0.3612
   62GLOH    C3 9044   4.110   3.693   1.714 -0.4327 -0.3342  0.1246
   62GLOH   H06 9045   4.128   3.603   1.655 -1.3240  0.3858 -1.2673
   62GLOH   H07 9046   4.059   3.768   1.653 -2.2635 -1.3239  0.3856
   62GLOH    O3 9047   4.026   3.665   1.830 -0.5694 -0.1992  0.5521
   62GLOH   H01 9048   3.939   3.706   1.812 -0.1785  1.4410  2.3044
   63GLOH   H03 9049   3.610   0.448   2.263  0.7012 -1.1808 -0.7235
   63GLOH    O1 9050   3.535   0.420   2.318  0.7039 -0.2347 -0.2278
   63GLOH    C1 9051   3.452   0.325   2.250  0.8406  0.5870  0.1944
   63GLOH   H02 9052   3.420   0.243   2.314 -2.7921  1.3288 -0.6011
   63GLOH   H08 9053   3.504   0.287   2.162  0.5905  0.5754  0.0531
   63GLOH    C2 9054   3.328   0.394   2.190 -0.4263 -0.3014 -0.2874
   63GLOH   H04 9055   3.355   0.451   2.100  0.1965 -1.1441 -0.6501
   63GLOH    O2 9056   3.235   0.294   2.144  0.2323 -0.1966  0.1502
   63GLOH   H05 9057   3.175   0.335   2.080 -0.9050 -1.0923  0.6251
   63GLOH    C3 9058   3.263   0.480   2.298  0.2262 -0.2681 -0.3943
   63GLOH   H06 9059   3.239   0.413   2.381  1.5581  0.0191  0.2408
   63GLOH   H07 9060   3.169   0.522   2.264 -0.6732 -1.7614  0.1743
   63GLOH    O3 9061   3.342   0.590   2.349 -0.1708  0.7491  0.2964
   63GLOH   H01 9062   3.433   0.557   2.345 -0.8750 -1.3682  1.1101
   64GLOH   H03 9063   4.115   2.843   0.104 -1.4627 -0.1748 -0.8601
   64GLOH    O1 9064   4.112   2.847   0.201  0.1866 -0.1252 -0.8032
   64GLOH    C1 9065   4.007   2.935   0.252  0.3903  0.3640  0.0674
   64GLOH   H02 9066   3.922   2.914   0.188  1.5882 -0.9937 -1.1369
   64GLOH   H08 9067   4.020   3.042   0.234 -0.4493  0.3941 -0.3585
   64GLOH    C2 9068   3.966   2.910   0.401 -0.2781 -0.1887 -0.1862
   64GLOH   H04 9069   4.043   2.941   0.474  0.8448  0.3400 -1.5856
   64GLOH    O2 9070   3.858   2.996   0.429 -0.3902  0.0964 -0.3427
   64GLOH   H05 9071   3.840   2.995   0.524  3.0494  0.7969  0.3854
   64GLOH    C3 9072   3.931   2.755   0.418 -0.1771  0.4997 -0.4983
   64GLOH   H06 9073   3.844   2.733   0.357 -1.8181 -1.8822  2.5840
   64GLOH   H07 9074   3.903   2.744   0.522 -0.5968 -1.6177 -0.8053
   64GLOH    O3 9075   4.039   2.674   0.370  0.2625  0.7003  0.4748
   64GLOH   H01 9076   4.090   2.738   0.318 -0.8350  1.9444  0.9140
   65GLOH   H03 9077   4.347   1.706   0.726 -0.0146  2.2234 -2.0702
   65GLOH    O1 9078   4.289   1.659   0.663 -0.4068  0.1484 -0.2503
   65GLOH    C1 9079   4.219   1.549   0.726 -0.0615  0.5971 -0.0903
   65GLOH   H02 9080   4.296   1.488   0.774 -1.6694 -0.3566  1.3451
   65GLOH   H08 9081   4.183   1.483   0.647  0.4082  0.3969 -0.1381
   65GLOH    C2 9082   4.114   1.588   0.835  0.3878  0.8984  0.1849
   65GLOH   H04 9083   4.161   1.638   0.921 -1.1315 -0.0782  1.6338
   65GLOH    O2 9084   4.024   1.686   0.781  0.2403  0.0469  0.0012
   65GLOH   H05 9085   4.072   1.767   0.756  2.2434 -1.7064 -2.0915
   65GLOH    C3 9086   4.028   1.471   0.891  1.4252 -0.1669 -0.8613
   65GLOH   H06 9087   3.949   1.450   0.820 -0.3030  1.8648  0.3715
   65GLOH   H07 9088   3.967   1.508   0.974 -0.3198  1.4797 -2.8209
   65GLOH    O3 9089   4.098   1.343   0.930 -0.3429  0.4841  0.3103
   65GLOH   H01 9090   4.042   1.284   0.983 -1.4159  0.1591 -1.1603
   66GLOH   H03 9091   3.880   9.878   2.053  0.2360 -0.7625 -1.2949
   66GLOH    O1 9092   3.816   9.952   2.045  0.5098 -0.3348  0.3446
   66GLOH    C1 9093   3.710   9.892   1.963  0.7151 -0.5277 -1.3384
   66GLOH   H02 9094   3.737   9.801   1.910 -0.2197 -1.2209 -0.6372
   66GLOH   H08 9095   3.686   9.962   1.882  1.6347  2.9709  1.2717
   66GLOH    C2 9096   3.576   9.864   2.034 -0.2376 -0.2197  0.1082
   66GLOH   H04 9097   3.517   9.818   1.953  0.0999 -1.3525  0.4933
   66GLOH    O2 9098   3.596   9.765   2.145  0.7102 -0.3600 -0.4587
   66GLOH   H05 9099   3.536   9.689   2.131  0.9460 -0.5955 -0.1992
   66GLOH    C3 9100   3.519   9.992   2.083  0.8673 -0.1979  0.8720
   66GLOH   H06 9101   3.585  10.034   2.159  1.4115  0.9588 -0.2237
   66GLOH   H07 9102   3.428   9.967   2.137  0.5969  1.4873  1.2503
   66GLOH    O3 9103   3.491  10.086   1.975 -0.1111 -0.0660 -0.0721
   66GLOH   H01 9104   3.447  10.037   1.903  0.6502 -0.5978 -0.1731
   67GLOH   H03 9105   4.122   1.736   2.018 -3.6812  2.6731 -0.8086
   67GLOH    O1 9106   4.131   1.712   1.924 -0.4052 -0.1506  0.1427
   67GLOH    C1 9107   4.265   1.748   1.881 -0.2180  0.8336  0.3841
   67GLOH   H02 9108   4.312   1.829   1.937  2.1844  1.3077 -2.1619
   67GLOH   H08 9109   4.255   1.783   1.778 -0.1629  0.9052  0.4042
   67GLOH    C2 9110   4.367   1.625   1.877 -0.0710  0.0288 -0.1302
   67GLOH   H04 9111   4.317   1.547   1.819  0.7824 -0.4726 -0.1948
   67GLOH    O2 9112   4.487   1.672   1.810 -0.0579  0.4302 -0.0044
   67GLOH   H05 9113   4.560   1.703   1.867 -0.0574  2.5339 -1.0804
   67GLOH    C3 9114   4.392   1.589   2.020  0.5192  0.4788 -0.3587
   67GLOH   H06 9115   4.473   1.517   2.012  0.2276  0.1662 -0.5017
   67GLOH   H07 9116   4.304   1.539   2.061  2.1513 -1.8085  0.4533
   67GLOH    O3 9117   4.429   1.702   2.086  0.2482 -0.0529  0.5368
   67GLOH   H01 9118   4.387   1.698   2.174 -1.0332 -1.3977 -0.1199
   68GLOH   H03 9119   4.623   3.376   1.827 -0.6358 -0.4857 -0.5724
   68GLOH    O1 9120   4.590   3.286   1.807 -0.0277 -0.8687  0.1164
   68GLOH    C1 9121   4.537   3.288   1.675 -0.9185  0.2218  0.2009
   68GLOH   H02 9122   4.530   3.391   1.638 -2.4084 -0.3222 -1.0890
   68GLOH   H08 9123   4.430   3.267   1.679 -0.9849 -0.0940 -2.2336
   68GLOH    C2 9124   4.619   3.202   1.570  0.3209  1.0953  0.3649
   68GLOH   H04 9125   4.624   3.101   1.613 -1.0396 -0.8434 -3.8045
   68GLOH    O2 9126   4.551   3.196   1.440  0.1174  0.0926 -0.4106
   68GLOH   H05 9127   4.569   3.273   1.384  0.4832  1.5254  1.5873
   68GLOH    C3 9128   4.763   3.244   1.556 -0.4927  0.1318 -0.4416
   68GLOH   H06 9129   4.805   3.229   1.655 -1.4700 -3.0739 -0.4638
   68GLOH   H07 9130   4.757   3.351   1.537 -0.7551  0.1532 -0.2313
   68GLOH    O3 9131   4.835   3.177   1.450 -0.0095 -0.1670  0.1576
   68GLOH   H01 9132   4.819   3.220   1.365  0.1843 -2.8714 -1.3003
   69GLOH   H03 9133   3.504   1.306   2.004  0.2943 -1.4517  1.3936
   69GLOH    O1 9134   3.418   1.260   2.004 -0.3587 -0.3136 -0.3054
   69GLOH    C1 9135   3.404   1.204   2.133  0.5860 -0.1106 -0.6584
   69GLOH   H02 9136   3.502   1.180   2.175 -0.0540 -0.0148  0.9071
   69GLOH   H08 9137   3.343   1.115   2.149 -2.4687  1.5530 -2.5224
   69GLOH    C2 9138   3.328   1.309   2.226  0.5142  0.0261  0.5662
   69GLOH   H04 9139   3.246   1.258   2.278  2.0102 -0.8508  2.1130
   69GLOH    O2 9140   3.422   1.363   2.318  0.1874  0.3711 -0.1483
   69GLOH   H05 9141   3.465   1.300   2.378  0.5592  1.3201  0.5862
   69GLOH    C3 9142   3.252   1.415   2.158 -0.4152  0.5528  0.6812
   69GLOH   H06 9143   3.327   1.459   2.092  0.2402 -2.9472 -1.0284
   69GLOH   H07 9144   3.208   1.485   2.229  2.3504  2.8214  0.2793
   69GLOH    O3 9145   3.142   1.358   2.077  0.3439  0.3068  0.0950
   69GLOH   H01 9146   3.177   1.334   1.989 -1.5725 -1.0646 -0.3404
   70GLOH   H03 9147   3.065   0.670   0.559 -0.2355 -0.2606  0.2522
   70GLOH    O1 9148   2.999   0.660   0.488  0.1374  0.0598 -0.1430
   70GLOH    C1 9149   3.050   0.644   0.350  0.9126 -0.0550  0.2587
   70GLOH   H02 9150   3.159   0.644   0.350  0.9345  1.2964  1.9865
   70GLOH   H08 9151   3.014   0.718   0.278 -0.8609 -0.3935  0.7745
   70GLOH    C2 9152   3.001   0.515   0.276 -0.0805 -0.0410  0.4324
   70GLOH   H04 9153   2.895   0.528   0.251  0.4339  1.5017 -1.0720
   70GLOH    O2 9154   3.086   0.489   0.163  0.1190  0.3662  0.2029
   70GLOH   H05 9155   3.072   0.562   0.101 -2.2239 -0.8983 -0.8600
   70GLOH    C3 9156   3.021   0.402   0.382  0.6968 -0.3013 -0.1072
   70GLOH   H06 9157   3.125   0.400   0.413  0.2254  0.6191  1.5600
   70GLOH   H07 9158   2.986   0.310   0.335 -3.0690  0.0544  1.7886
   70GLOH    O3 9159   2.957   0.417   0.511 -0.6610  0.3290 -0.5782
   70GLOH   H01 9160   2.963   0.511   0.533 -0.2746  0.3596 -0.8125
   71GLOH   H03 9161   3.893   2.272   1.498 -0.9849  1.7060 -2.5004
   71GLOH    O1 9162   3.821   2.311   1.551 -0.1203  0.1809 -0.1226
   71GLOH    C1 9163   3.880   2.375   1.670  1.0595 -0.2932  0.2819
   71GLOH   H02 9164   3.959   2.446   1.642  1.5621 -0.8848  0.1884
   71GLOH   H08 9165   3.927   2.299   1.732 -0.2286 -1.8050 -0.5701
   71GLOH    C2 9166   3.782   2.449   1.764  0.4987 -0.4694  0.3593
   71GLOH   H04 9167   3.719   2.374   1.813 -1.6276  0.2895 -1.1769
   71GLOH    O2 9168   3.844   2.535   1.855 -0.4702  0.4583  0.1701
   71GLOH   H05 9169   3.932   2.499   1.878 -0.5431  0.6179  0.6827
   71GLOH    C3 9170   3.685   2.539   1.673  0.8949  0.4637 -0.2633
   71GLOH   H06 9171   3.729   2.630   1.633  0.8296  0.7030  0.2135
   71GLOH   H07 9172   3.600   2.564   1.735  0.2599 -0.0028 -0.9380
   71GLOH    O3 9173   3.626   2.457   1.570 -0.0589 -0.0950  0.1850
   71GLOH   H01 9174   3.694   2.389   1.551 -1.4476 -1.7679  1.1627
   72GLOH   H03 9175   3.283   0.898   1.145  0.1477 -3.6731  1.2306
   72GLOH    O1 9176   3.190   0.891   1.116  0.1218 -0.2394  0.2470
   72GLOH    C1 9177   3.116   0.825   1.224 -0.4384 -0.5031 -0.2347
   72GLOH   H02 9178   3.128   0.882   1.317  1.4586  0.1058 -0.8226
   72GLOH   H08 9179   3.136   0.719   1.239 -2.0995 -0.9100 -0.8215
   72GLOH    C2 9180   2.970   0.824   1.186 -0.0327  0.5386 -0.0503
   72GLOH   H04 9181   2.951   0.751   1.106 -1.5294  0.0947  0.6773
   72GLOH    O2 9182   2.892   0.758   1.290  0.0872 -0.0851 -0.4951
   72GLOH   H05 9183   2.837   0.826   1.332 -0.0058 -1.3273  1.4457
   72GLOH    C3 9184   2.912   0.966   1.151  0.0591 -0.1550  0.1308
   72GLOH   H06 9185   2.813   0.941   1.114 -0.4871  0.6118  1.0598
   72GLOH   H07 9186   2.964   0.995   1.059  2.3491 -0.3010  1.3323
   72GLOH    O3 9187   2.907   1.059   1.260 -0.0086  0.4623 -0.2161
   72GLOH   H01 9188   2.945   1.140   1.222 -1.5686  0.7509 -1.1891
   73GLOH   H03 9189   3.150   0.970   1.752 -1.2263 -2.0615 -1.6917
   73GLOH    O1 9190   3.234   0.944   1.711  0.0602 -1.0258  0.2074
   73GLOH    C1 9191   3.224   1.019   1.587 -0.5734 -0.7158  0.6295
   73GLOH   H02 9192   3.203   1.125   1.605  0.4827  0.0234 -2.1435
   73GLOH   H08 9193   3.141   0.976   1.531  0.2927 -0.7821 -0.6309
   73GLOH    C2 9194   3.353   1.002   1.512 -0.7334  0.5738 -0.8346
   73GLOH   H04 9195   3.360   0.893   1.500  3.0153  0.7431 -0.7002
   73GLOH    O2 9196   3.330   1.059   1.381  0.2544  0.1957 -0.0174
   73GLOH   H05 9197   3.380   1.008   1.314  1.3617  1.1615  0.0598
   73GLOH    C3 9198   3.473   1.078   1.573 -0.2284  0.3528 -0.7352
   73GLOH   H06 9199   3.511   1.033   1.665 -0.3556  2.4365  0.3592
   73GLOH   H07 9200   3.435   1.177   1.598  2.3363  0.9486  0.9168
   73GLOH    O3 9201   3.589   1.090   1.492  0.6454 -0.2148 -0.2241
   73GLOH   H01 9202   3.629   1.177   1.509  2.2560 -1.2535  1.6009
   74GLOH   H03 9203   3.937   2.232   2.704  1.0856  0.7852  1.9079
   74GLOH    O1 9204   3.843   2.256   2.713  0.5959 -0.2580 -0.0877
   74GLOH    C1 9205   3.776   2.130   2.709  0.0752 -0.3271  0.3692
   74GLOH   H02 9206   3.726   2.112   2.614  0.9460 -0.4088 -0.0742
   74GLOH   H08 9207   3.691   2.127   2.777 -0.4247  0.6288 -0.2037
   74GLOH    C2 9208   3.866   2.004   2.730 -0.1072 -0.9269  0.7835
   74GLOH   H04 9209   3.902   2.010   2.834 -0.0135  0.6654  0.6681
   74GLOH    O2 9210   3.792   1.883   2.708  0.0073  0.6060  0.3412
   74GLOH   H05 9211   3.749   1.857   2.792  1.2090  2.3412  1.5279
   74GLOH    C3 9212   3.988   2.015   2.636 -0.2505 -0.7163 -0.0819
   74GLOH   H06 9213   3.941   2.013   2.538 -1.6810 -1.7464  0.6116
   74GLOH   H07 9214   4.045   1.922   2.643  1.1733  0.1708  0.2922
   74GLOH    O3 9215   4.073   2.133   2.652 -0.1434 -0.2245 -0.5498
   74GLOH   H01 9216   4.159   2.099   2.683  0.1197  1.2265  0.3446
   75GLOH   H03 9217   2.934   0.765   2.360  0.4042  1.2093  0.0869
   75GLOH    O1 9218   2.982   0.763   2.275  0.4658  0.3231  0.1359
   75GLOH    C1 9219   2.901   0.705   2.170 -0.2838  0.0976  0.1421
   75GLOH   H02 9220   2.876   0.602   2.197 -1.2742  0.5175  0.8510
   75GLOH   H08 9221   2.970   0.693   2.086  2.7912 -1.4359  2.7763
   75GLOH    C2 9222   2.783   0.796   2.128  0.2937  0.4147 -0.0887
   75GLOH   H04 9223   2.808   0.902   2.138  0.0051  0.3730  1.1294
   75GLOH    O2 9224   2.754   0.754   1.990 -0.2574  0.2292  0.1423
   75GLOH   H05 9225   2.667   0.789   1.964 -0.2071  0.2470 -0.0030
   75GLOH    C3 9226   2.652   0.777   2.208 -0.2098 -0.3369 -0.4391
   75GLOH   H06 9227   2.632   0.670   2.206 -1.2983 -0.1404 -0.3688
   75GLOH   H07 9228   2.566   0.820   2.157 -1.5645 -0.3856  1.7193
   75GLOH    O3 9229   2.659   0.817   2.345  0.0877  0.5221  0.4662
   75GLOH   H01 9230   2.706   0.902   2.342 -3.5673  2.6483  0.5196
   76GLOH   H03 9231   4.476   3.769   1.060  0.5641  0.7560 -0.0152
   76GLOH    O1 9232   4.517   3.700   1.005 -0.6513 -0.0471  0.0533
   76GLOH    C1 9233   4.538   3.576   1.084  0.5600  1.0894 -0.4057
   76GLOH   H02 9234   4.626   3.585   1.148  0.5302  0.3452 -0.2527
   76GLOH   H08 9235   4.558   3.490   1.021 -0.9416 -1.7437  2.7946
   76GLOH    C2 9236   4.415   3.538   1.180  0.1643  0.1031  0.3311
   76GLOH   H04 9237   4.398   3.621   1.250  1.6778 -1.4310  2.6006
   76GLOH    O2 9238   4.298   3.503   1.104 -0.4730  0.3309 -0.3922
   76GLOH   H05 9239   4.302   3.414   1.066  1.2085  0.7072 -1.1156
   76GLOH    C3 9240   4.467   3.412   1.268 -0.3866  0.0245  0.2910
   76GLOH   H06 9241   4.501   3.333   1.200 -1.6780 -0.8736  0.6727
   76GLOH   H07 9242   4.386   3.361   1.320  2.0941 -1.1495  3.1953
   76GLOH    O3 9243   4.581   3.439   1.359  0.2292 -0.2857  0.2192
   76GLOH   H01 9244   4.571   3.523   1.407 -0.3022 -0.5039  0.4874
   77GLOH   H03 9245   3.511   8.811   1.963 -0.4270 -0.5132 -0.4644
   77GLOH    O1 9246   3.580   8.814   1.894  0.2688  0.1517  0.2405
   77GLOH    C1 9247   3.545   8.902   1.787  0.1950  0.4408 -0.2352
   77GLOH   H02 9248   3.562   9.007   1.808 -2.2851  1.0265 -0.9928
   77GLOH   H08 9249   3.439   8.891   1.763 -0.5287 -0.2978  3.0622
   77GLOH    C2 9250   3.628   8.861   1.666  0.2764 -0.4079  0.0242
   77GLOH   H04 9251   3.589   8.763   1.634  0.7492 -1.3938  2.3341
   77GLOH    O2 9252   3.621   8.955   1.560  0.4492 -0.1826 -0.5839
   77GLOH   H05 9253   3.531   8.989   1.565  0.8577  0.5427  3.0056
   77GLOH    C3 9254   3.776   8.834   1.705  0.1866 -0.2069 -0.0932
   77GLOH   H06 9255   3.832   8.798   1.619  1.7935  1.1129  0.3841
   77GLOH   H07 9256   3.779   8.750   1.775 -1.5509 -0.4980 -0.3405
   77GLOH    O3 9257   3.849   8.946   1.746 -0.0251 -0.1669  0.2699
   77GLOH   H01 9258   3.938   8.907   1.760 -1.0291 -1.6599  2.7426
   78GLOH   H03 9259   3.547   2.799   2.233 -0.6188  0.4700  3.6188
   78GLOH    O1 9260   3.506   2.888   2.231 -0.2328  0.6363  0.5147
   78GLOH    C1 9261   3.426   2.896   2.349 -0.1842  0.5415 -0.1025
   78GLOH   H02 9262   3.497   2.906   2.430  0.3112 -1.5283 -0.2497
   78GLOH   H08 9263   3.374   2.802   2.365  0.5105 -0.2999 -2.5751
   78GLOH    C2 9264   3.335   3.018   2.349  0.0164 -0.1152  0.7403
   78GLOH   H04 9265   3.276   3.000   2.440 -3.1350 -0.7674 -1.3816
   78GLOH    O2 9266   3.421   3.135   2.366  0.2591 -0.3810  0.1472
   78GLOH   H05 9267   3.459   3.143   2.456  1.2218 -1.7410 -0.1172
   78GLOH    C3 9268   3.249   3.033   2.219 -0.6067  0.2102 -0.2519
   78GLOH   H06 9269   3.310   3.051   2.131 -2.8361 -1.6385 -2.2290
   78GLOH   H07 9270   3.187   3.122   2.227 -0.8922 -0.0888  0.9910
   78GLOH    O3 9271   3.159   2.921   2.200  0.1323  0.4904 -0.1580
   78GLOH   H01 9272   3.075   2.961   2.171 -0.5160  0.1819  1.2768
   79GLOH   H03 9273   4.487   0.766   1.123 -1.9955  0.1769  0.8816
   79GLOH    O1 9274   4.492   0.845   1.066  0.7310 -0.3134  0.3831
   79GLOH    C1 9275   4.444   0.960   1.145 -0.1642 -0.3107  0.7090
   79GLOH   H02 9276   4.508   0.982   1.230 -2.2040  0.1155  2.1766
   79GLOH   H08 9277   4.347   0.935   1.189 -1.5435  2.5475 -0.6040
   79GLOH    C2 9278   4.420   1.079   1.048  0.3183  0.0636  0.2736
   79GLOH   H04 9279   4.345   1.055   0.971 -2.7344  2.1114  2.5365
   79GLOH    O2 9280   4.365   1.192   1.120 -0.0294  0.2121  0.2056
   79GLOH   H05 9281   4.278   1.170   1.158 -0.2907 -1.1561 -1.1157
   79GLOH    C3 9282   4.554   1.117   0.991  0.5995 -0.1466  0.2652
   79GLOH   H06 9283   4.547   1.198   0.918  2.0261 -1.9453 -1.9474
   79GLOH   H07 9284   4.596   1.040   0.926 -0.3763  0.1923 -0.7981
   79GLOH    O3 9285   4.640   1.149   1.102  0.6093  0.6622 -0.1671
   79GLOH   H01 9286   4.586   1.183   1.175 -0.5918 -2.1645  0.3288
   80GLOH   H03 9287   4.095   9.594   1.786 -0.1209  0.1564 -0.1757
   80GLOH    O1 9288   4.019   9.595   1.847 -0.3250  0.6481 -0.4338
   80GLOH    C1 9289   4.038   9.497   1.954  0.0121 -0.5970 -0.8543
   80GLOH   H02 9290   4.145   9.492   1.974  0.0922 -0.6683 -1.2923
   80GLOH   H08 9291   4.001   9.404   1.910 -3.0290  0.9720 -1.7501
   80GLOH    C2 9292   3.957   9.539   2.079 -0.2733 -0.0326 -0.7959
   80GLOH   H04 9293   3.852   9.550   2.050 -0.2217  1.9545 -0.2989
   80GLOH    O2 9294   3.960   9.451   2.195 -0.2026  0.5735 -0.1727
   80GLOH   H05 9295   4.046   9.406   2.202  0.2720  2.0247  5.4196
   80GLOH    C3 9296   4.003   9.675   2.128  0.0801 -0.0160  0.3935
   80GLOH   H06 9297   4.107   9.656   2.154  0.2837 -3.4543 -2.5275
   80GLOH   H07 9298   3.949   9.706   2.218  0.1279  4.8604 -1.1589
   80GLOH    O3 9299   3.988   9.773   2.013  0.0616  0.0758  0.2276
   80GLOH   H01 9300   4.010   9.722   1.933  1.8208  1.6182 -0.3138
   81GLOH   H03 9301   4.813   3.189   2.070 -0.6957  1.8693  0.2663
   81GLOH    O1 9302   4.886   3.237   2.112  0.2207  0.3601  0.4420
   81GLOH    C1 9303   4.935   3.166   2.226 -0.1222  0.1724  0.6184
   81GLOH   H02 9304   4.940   3.229   2.315 -1.3951 -1.6184  2.0000
   81GLOH   H08 9305   5.034   3.133   2.196 -0.0727  0.5567  0.3541
   81GLOH    C2 9306   4.857   3.038   2.270 -0.1965  0.0455 -0.3629
   81GLOH   H04 9307   4.751   3.067   2.270 -0.1405  0.3628  2.7484
   81GLOH    O2 9308   4.889   2.944   2.169 -0.0797  0.5903 -0.1530
   81GLOH   H05 9309   4.889   2.849   2.192 -0.1065 -0.0147 -2.5317
   81GLOH    C3 9310   4.889   2.987   2.410  0.1972 -0.4368 -0.4836
   81GLOH   H06 9311   4.889   3.071   2.478 -0.8945 -0.1955 -0.7750
   81GLOH   H07 9312   4.992   2.953   2.399  0.3185  0.2844 -1.5906
   81GLOH    O3 9313   4.781   2.888   2.449  0.3873 -0.0558  0.7445
   81GLOH   H01 9314   4.708   2.937   2.492  0.7679  1.4682 -0.2750
   82GLOH   H03 9315   3.295   9.366   0.343 -1.1105  1.1848  1.6145
   82GLOH    O1 9316   3.343   9.320   0.414  0.4246  0.1738 -0.0280
   82GLOH    C1 9317   3.271   9.347   0.532 -0.6688  0.5834  0.2127
   82GLOH   H02 9318   3.186   9.280   0.548 -0.3098  0.6643  2.7027
   82GLOH   H08 9319   3.217   9.441   0.519 -1.6850  0.0588  0.5767
   82GLOH    C2 9320   3.352   9.355   0.663  0.2678  0.4437 -0.7492
   82GLOH   H04 9321   3.422   9.439   0.667  0.3479  0.3481 -0.0960
   82GLOH    O2 9322   3.264   9.373   0.778 -0.3480 -0.4570  0.4415
   82GLOH   H05 9323   3.294   9.327   0.859  1.4472  2.1905  1.3587
   82GLOH    C3 9324   3.420   9.222   0.691  0.2587 -0.2095  0.5315
   82GLOH   H06 9325   3.339   9.148   0.693 -0.0354  0.0469 -1.3040
   82GLOH   H07 9326   3.472   9.234   0.786  1.2229  0.0482 -0.0221
   82GLOH    O3 9327   3.517   9.198   0.583 -0.3876 -0.8640  0.0180
   82GLOH   H01 9328   3.486   9.225   0.495  0.1915  1.9695  0.6213
   83GLOH   H03 9329   4.751   1.745   2.303  0.0234 -0.2901 -0.5967
   83GLOH    O1 9330   4.805   1.663   2.308  0.1180 -0.1718  0.4551
   83GLOH    C1 9331   4.899   1.697   2.213 -0.6482  0.7820 -0.6702
   83GLOH   H02 9332   4.991   1.643   2.234  0.3402  2.0043 -1.7157
   83GLOH   H08 9333   4.932   1.801   2.219  1.8585 -0.1412  2.8640
   83GLOH    C2 9334   4.859   1.654   2.068 -0.0936 -0.9831  0.4368
   83GLOH   H04 9335   4.868   1.544   2.073 -1.2703 -1.2157 -1.8795
   83GLOH    O2 9336   4.724   1.676   2.031  0.1980 -0.1931 -0.2542
   83GLOH   H05 9337   4.669   1.636   2.101  1.8062 -2.5234 -0.2384
   83GLOH    C3 9338   4.948   1.712   1.954 -0.3258 -0.0109  0.2350
   83GLOH   H06 9339   4.912   1.673   1.859  2.1282  0.5911 -0.9902
   83GLOH   H07 9340   5.055   1.690   1.956  0.1943  2.0046 -2.4075
   83GLOH    O3 9341   4.926   1.855   1.962 -0.8495 -0.5608  0.3973
   83GLOH   H01 9342   4.832   1.867   1.937 -0.1275  0.1797 -2.0874
   84GLOH   H03 9343   3.862   1.477   0.552  0.4033  0.6777 -2.6509
   84GLOH    O1 9344   3.920   1.398   0.547  0.1499  0.2130  0.4211
   84GLOH    C1 9345   3.846   1.274   0.568 -0.0820 -0.3662 -0.2904
   84GLOH   H02 9346   3.763   1.287   0.639 -0.1791  0.4959 -0.5588
   84GLOH   H08 9347   3.902   1.192   0.613 -1.9313 -2.1552 -1.1578
   84GLOH    C2 9348   3.789   1.217   0.437 -0.0387  0.5799 -0.4444
   84GLOH   H04 9349   3.754   1.306   0.383 -3.7140 -0.2659  0.4196
   84GLOH    O2 9350   3.883   1.143   0.362  0.4672  0.5621  0.2463
   84GLOH   H05 9351   3.926   1.087   0.429 -1.4363  2.2904  3.0356
   84GLOH    C3 9352   3.666   1.128   0.475 -0.2124 -0.2985  0.5937
   84GLOH   H06 9353   3.707   1.049   0.538  1.4029 -0.1801 -0.2581
   84GLOH   H07 9354   3.639   1.078   0.382  1.2760  0.0915 -0.0667
   84GLOH    O3 9355   3.560   1.196   0.536 -0.5920 -0.5397 -0.1656
   84GLOH   H01 9356   3.556   1.287   0.502 -0.3223 -0.1083  0.9480
   85GLOH   H03 9357   3.527   3.992   0.239 -2.3250  2.1371 -1.7115
   85GLOH    O1 9358   3.545   4.065   0.301 -0.2762 -0.1753  0.5069
   85GLOH    C1 9359   3.571   4.018   0.430  0.0759 -0.6534 -0.0317
   85GLOH   H02 9360   3.487   3.954   0.456  0.4529 -0.6472  1.2311
   85GLOH   H08 9361   3.576   4.102   0.499  1.9448 -0.0418 -0.8791
   85GLOH    C2 9362   3.704   3.936   0.437  0.0015  0.7453 -0.1821
   85GLOH   H04 9363   3.800   3.986   0.417 -0.5306  2.2609  0.9642
   85GLOH    O2 9364   3.718   3.887   0.573 -0.4112 -0.2158 -0.1399
   85GLOH   H05 9365   3.805   3.845   0.571 -0.7768 -1.0907  1.5243
   85GLOH    C3 9366   3.694   3.814   0.343 -0.5354 -0.2793 -0.9863
   85GLOH   H06 9367   3.616   3.750   0.385 -0.0398  1.6121  3.0278
   85GLOH   H07 9368   3.785   3.756   0.359 -0.3415  0.5825  1.2574
   85GLOH    O3 9369   3.688   3.853   0.202  0.0229  0.5618 -0.5269
   85GLOH   H01 9370   3.754   3.923   0.185  1.0639 -0.2071  0.3249
   86GLOH   H03 9371   3.974   3.998   0.791  0.8226  0.3887 -0.2781
   86GLOH    O1 9372   4.058   4.022   0.749  0.7035  0.1838 -0.6386
   86GLOH    C1 9373   4.053   4.001   0.604  0.6816 -0.3071  0.3770
   86GLOH   H02 9374   4.131   4.063   0.560 -0.5481  0.1767 -1.2126
   86GLOH   H08 9375   3.958   4.034   0.560  0.0496 -1.5934  0.7338
   86GLOH    C2 9376   4.071   3.852   0.552 -0.8074 -1.0570 -0.3937
   86GLOH   H04 9377   4.163   3.810   0.594  1.0360 -0.1097 -3.3767
   86GLOH    O2 9378   3.960   3.770   0.591 -0.8588 -0.2994 -0.3527
   86GLOH   H05 9379   3.983   3.675   0.593 -0.2570 -0.1373  1.4899
   86GLOH    C3 9380   4.087   3.874   0.404  0.8091  0.7841 -0.4582
   86GLOH   H06 9381   4.022   3.958   0.377  0.1263  0.5450  0.4214
   86GLOH   H07 9382   4.048   3.788   0.349 -0.7065 -0.0648  1.8858
   86GLOH    O3 9383   4.216   3.908   0.366 -0.4662 -0.0682  0.0860
   86GLOH   H01 9384   4.214   3.960   0.283 -0.3486 -1.4802 -0.8085
   87GLOH   H03 9385   3.362   0.223   0.477  0.3296 -0.8988  0.3937
   87GLOH    O1 9386   3.431   0.190   0.416  0.0528 -0.9447  0.1009
   87GLOH    C1 9387   3.409   0.220   0.280 -0.0238 -0.4967 -0.4834
   87GLOH   H02 9388   3.505   0.225   0.228  0.8383 -0.9725  1.0036
   87GLOH   H08 9389   3.362   0.318   0.275  1.0639  0.0483 -0.2626
   87GLOH    C2 9390   3.314   0.126   0.213  0.8074 -0.3683  0.4607
   87GLOH   H04 9391   3.215   0.152   0.254  1.1748 -0.8810  1.7028
   87GLOH    O2 9392   3.304   0.154   0.069  0.4998  0.2043 -0.1868
   87GLOH   H05 9393   3.393   0.158   0.030 -0.2974 -1.3646 -2.2435
   87GLOH    C3 9394   3.343  -0.030   0.239 -0.1233  0.1901 -0.0624
   87GLOH   H06 9395   3.331  -0.050   0.346 -0.1629 -2.6820 -0.5509
   87GLOH   H07 9396   3.443  -0.060   0.210 -0.6769  0.9981 -2.9790
   87GLOH    O3 9397   3.252  -0.105   0.155  0.3408 -0.6061  0.0382
   87GLOH   H01 9398   3.255  -0.056   0.071  0.1523 -0.2371  0.2406
   88GLOH   H03 9399   4.387   3.149   0.107  2.1911 -2.0591 -1.2420
   88GLOH    O1 9400   4.431   3.228   0.069 -0.2196  0.1730  0.4349
   88GLOH    C1 9401   4.333   3.328   0.038 -0.1330  0.5321 -0.5077
   88GLOH   H02 9402   4.252   3.300  -0.030 -0.0467 -0.5603 -0.1761
   88GLOH   H08 9403   4.381   3.408  -0.018  2.1040 -1.3733 -1.3892
   88GLOH    C2 9404   4.262   3.384   0.162 -0.6279 -0.1006 -0.2130
   88GLOH   H04 9405   4.185   3.449   0.118 -0.7258 -2.0375 -3.0156
   88GLOH    O2 9406   4.195   3.288   0.247  0.5686  0.9493  0.0310
   88GLOH   H05 9407   4.232   3.201   0.229 -0.8236  0.4247 -0.3475
   88GLOH    C3 9408   4.362   3.465   0.249 -0.2109  0.0121  0.4999
   88GLOH   H06 9409   4.428   3.524   0.185 -1.4914 -0.3613 -1.1967
   88GLOH   H07 9410   4.423   3.392   0.302 -0.8502 -0.5424  0.4847
   88GLOH    O3 9411   4.305   3.541   0.352  0.2906 -0.1223  0.5480
   88GLOH   H01 9412   4.374   3.548   0.422 -0.5919  0.4290  1.3735
   89GLOH   H03 9413   4.208   0.774   1.697 -1.6105  0.0687  0.7471
   89GLOH    O1 9414   4.266   0.826   1.755 -0.7354  0.0688 -0.1148
   89GLOH    C1 9415   4.363   0.734   1.818 -0.4420 -0.1526  0.1676
   89GLOH   H02 9416   4.408   0.790   1.901  0.1579 -0.3176 -0.0481
   89GLOH   H08 9417   4.445   0.694   1.759 -1.3450 -0.5978 -0.7983
   89GLOH    C2 9418   4.300   0.607   1.872  0.5207 -0.4903 -0.1027
   89GLOH   H04 9419   4.385   0.554   1.917  1.8643  1.3127 -0.4630
   89GLOH    O2 9420   4.206   0.637   1.980  0.0023  0.9697  0.2737
   89GLOH   H05 9421   4.128   0.680   1.942 -0.8241 -0.2808  0.5303
   89GLOH    C3 9422   4.247   0.515   1.758  0.3488 -0.5486 -0.1195
   89GLOH   H06 9423   4.199   0.432   1.808 -3.4176  1.6751  0.1457
   89GLOH   H07 9424   4.332   0.480   1.699  2.2214  1.8472  1.0460
   89GLOH    O3 9425   4.158   0.588   1.669  0.4533 -0.3059  0.3929
   89GLOH   H01 9426   4.126   0.529   1.599  0.4871  0.3932 -0.2140
   90GLOH   H03 9427   4.291   0.437   1.048 -0.4660 -0.5491  1.3717
   90GLOH    O1 9428   4.381   0.410   1.075 -0.0668 -0.4167  0.1703
   90GLOH    C1 9429   4.382   0.344   1.204  0.6717 -0.2450 -0.4198
   90GLOH   H02 9430   4.483   0.324   1.242  0.2355 -0.7893  0.4598
   90GLOH   H08 9431   4.312   0.261   1.211  0.7476 -0.4893 -2.3328
   90GLOH    C2 9432   4.329   0.438   1.313 -0.1997  0.3106 -0.5248
   90GLOH   H04 9433   4.229   0.469   1.279  0.1875  1.5290 -0.5924
   90GLOH    O2 9434   4.327   0.373   1.445 -0.5485 -0.6309 -0.2058
   90GLOH   H05 9435   4.235   0.357   1.474 -0.5139  0.2870  0.4392
   90GLOH    C3 9436   4.402   0.571   1.319 -0.2869  0.4717  0.1792
   90GLOH   H06 9437   4.501   0.573   1.364  0.0614 -1.7742 -0.4400
   90GLOH   H07 9438   4.344   0.634   1.386 -1.1980  1.6397 -1.6521
   90GLOH    O3 9439   4.422   0.640   1.192  0.6051  0.0318 -0.2584
   90GLOH   H01 9440   4.442   0.565   1.133 -1.5412 -0.1984 -0.7365
   91GLOH   H03 9441   4.404   3.727   2.241  1.5640 -0.2051  1.0413
   91GLOH    O1 9442   4.419   3.641   2.196 -0.0385 -0.0148  0.1069
   91GLOH    C1 9443   4.520   3.569   2.269 -0.1678  0.1744  0.0145
   91GLOH   H02 9444   4.482   3.541   2.367  0.3625  0.2674  0.2468
   91GLOH   H08 9445   4.619   3.614   2.278  0.8348 -1.7324 -1.2411
   91GLOH    C2 9446   4.543   3.434   2.198  0.2066 -0.2865  0.0365
   91GLOH   H04 9447   4.565   3.466   2.095  0.5559 -1.8437 -0.3843
   91GLOH    O2 9448   4.647   3.360   2.253 -0.5802  0.7003 -0.5275
   91GLOH   H05 9449   4.730   3.390   2.213  0.4216 -0.4675  0.6330
   91GLOH    C3 9450   4.413   3.357   2.195 -0.0155 -0.1059  0.6136
   91GLOH   H06 9451   4.392   3.327   2.298  4.6025 -3.4163  0.7842
   91GLOH   H07 9452   4.439   3.265   2.142  1.5340  1.5585 -1.6028
   91GLOH    O3 9453   4.306   3.429   2.143 -0.4608 -0.9931  0.5900
   91GLOH   H01 9454   4.323   3.521   2.170  1.8726 -1.2844  0.2405
   92GLOH   H03 9455   2.854   2.387   0.547  1.3471  0.5014 -0.5113
   92GLOH    O1 9456   2.796   2.464   0.533  0.1167 -0.3778 -0.2795
   92GLOH    C1 9457   2.860   2.592   0.528 -0.4452  0.5228 -0.1169
   92GLOH   H02 9458   2.901   2.610   0.428  0.0125  0.2506  0.0194
   92GLOH   H08 9459   2.949   2.593   0.591 -0.8235 -1.1324  0.4593
   92GLOH    C2 9460   2.778   2.714   0.559  0.2612 -0.7014  0.6496
   92GLOH   H04 9461   2.746   2.693   0.662  0.6796 -2.9618  0.3426
   92GLOH    O2 9462   2.855   2.835   0.563  0.5134  0.5421 -0.0569
   92GLOH   H05 9463   2.918   2.840   0.488  0.9615 -1.5776  0.1581
   92GLOH    C3 9464   2.668   2.724   0.454  0.3012 -0.1973 -0.0049
   92GLOH   H06 9465   2.607   2.633   0.455  0.0296 -0.0331  2.0572
   92GLOH   H07 9466   2.722   2.726   0.360 -3.8382 -1.1685 -2.5212
   92GLOH    O3 9467   2.571   2.834   0.474  0.2260 -0.1159 -0.0516
   92GLOH   H01 9468   2.609   2.916   0.438 -1.1097  0.0205 -1.2166
   93GLOH   H03 9469   3.737   0.402   1.768 -1.8313 -0.1174 -3.2275
   93GLOH    O1 9470   3.712   0.495   1.783  0.0491 -0.1049  0.4039
   93GLOH    C1 9471   3.581   0.512   1.726  0.1750  0.8159 -0.3108
   93GLOH   H02 9472   3.578   0.483   1.621  0.7191 -0.9907  0.1513
   93GLOH   H08 9473   3.531   0.608   1.732 -1.2597  0.0918 -0.4765
   93GLOH    C2 9474   3.478   0.413   1.780 -0.1476 -0.8805  0.2871
   93GLOH   H04 9475   3.494   0.423   1.888 -1.6760 -0.8088  0.5124
   93GLOH    O2 9476   3.342   0.449   1.737  0.0508  0.4300  0.1394
   93GLOH   H05 9477   3.295   0.497   1.808  1.6639  2.3535 -0.0651
   93GLOH    C3 9478   3.516   0.272   1.731 -0.1976 -0.1144 -0.1367
   93GLOH   H06 9479   3.540   0.274   1.625 -2.0223  0.3245 -0.5571
   93GLOH   H07 9480   3.432   0.204   1.722 -0.1485 -0.0128 -1.4982
   93GLOH    O3 9481   3.632   0.218   1.787  0.4971  0.0255 -0.0803
   93GLOH   H01 9482   3.614   0.190   1.879  1.0641 -0.0700  0.0081
   94GLOH   H03 9483   4.342   1.616   2.421  2.1348 -1.0588  0.7272
   94GLOH    O1 9484   4.373   1.690   2.366  0.0691 -0.8654 -0.2386
   94GLOH    C1 9485   4.498   1.751   2.394  0.0892 -0.4892 -0.5111
   94GLOH   H02 9486   4.570   1.718   2.320 -1.1230  0.7350 -2.2762
   94GLOH   H08 9487   4.524   1.726   2.497  2.9857 -0.6470 -1.2343
   94GLOH    C2 9488   4.496   1.903   2.377  0.8526  0.0213  0.1469
   94GLOH   H04 9489   4.476   1.920   2.271  3.8521  0.5411 -0.3835
   94GLOH    O2 9490   4.398   1.956   2.466  0.0498 -0.6070 -0.8903
   94GLOH   H05 9491   4.313   1.919   2.436  0.5352 -2.1139 -0.4152
   94GLOH    C3 9492   4.641   1.963   2.384 -0.4785 -0.5986 -0.0657
   94GLOH   H06 9493   4.679   1.946   2.485  1.7537 -0.9273 -0.9481
   94GLOH   H07 9494   4.633   2.070   2.367  1.4917 -0.5233 -0.5752
   94GLOH    O3 9495   4.730   1.916   2.278 -0.2566  0.1693 -0.7252
   94GLOH   H01 9496   4.785   1.982   2.232 -1.1615  0.9702 -0.6917
   95GLOH   H03 9497   3.514   3.304   1.773 -0.7088  0.1481 -1.4252
   95GLOH    O1 9498   3.594   3.353   1.748 -0.1252 -0.2586 -0.3989
   95GLOH    C1 9499   3.594   3.366   1.609 -0.0588 -0.5723  0.0013
   95GLOH   H02 9500   3.546   3.461   1.587 -1.7620 -1.1885  0.9218
   95GLOH   H08 9501   3.542   3.284   1.559 -0.2654 -2.4076  3.0580
   95GLOH    C2 9502   3.736   3.366   1.550 -0.3020 -0.4686  0.2580
   95GLOH   H04 9503   3.722   3.367   1.441  1.1977 -0.9479  0.0502
   95GLOH    O2 9504   3.809   3.484   1.578 -0.3482  0.2078 -0.1249
   95GLOH   H05 9505   3.872   3.509   1.508 -0.3980  1.3410  0.2225
   95GLOH    C3 9506   3.819   3.245   1.589  0.0388 -0.6865 -0.0324
   95GLOH   H06 9507   3.835   3.244   1.697  3.6075 -4.3923 -0.4371
   95GLOH   H07 9508   3.918   3.263   1.546 -0.5998  1.2154 -0.7370
   95GLOH    O3 9509   3.743   3.123   1.544  0.3603 -0.1035 -0.1127
   95GLOH   H01 9510   3.686   3.091   1.616  0.1090  0.7615  0.0897
   96GLOH   H03 9511   3.137   0.505   0.945  0.8326 -0.0909  2.0007
   96GLOH    O1 9512   3.222   0.543   0.918  0.0117  0.1283 -0.3888
   96GLOH    C1 9513   3.292   0.564   1.038 -0.0952 -0.3651 -0.1890
   96GLOH   H02 9514   3.224   0.547   1.122  0.4699  1.8014  0.7210
   96GLOH   H08 9515   3.329   0.665   1.050  0.4432 -0.5545 -0.2510
   96GLOH    C2 9516   3.425   0.491   1.057 -0.4527 -0.1730  0.5468
   96GLOH   H04 9517   3.484   0.533   0.974 -3.2638  1.8833 -0.5182
   96GLOH    O2 9518   3.498   0.514   1.178 -0.5166 -0.7683 -0.3028
   96GLOH   H05 9519   3.537   0.430   1.208 -1.4563 -1.0525  0.1339
   96GLOH    C3 9520   3.403   0.341   1.035 -0.0380  0.8458 -0.5430
   96GLOH   H06 9521   3.344   0.328   0.944 -0.5594 -0.2233 -0.0752
   96GLOH   H07 9522   3.356   0.300   1.124  1.8920 -0.2428 -0.0065
   96GLOH    O3 9523   3.535   0.277   1.023  0.2825 -0.1361 -1.0238
   96GLOH   H01 9524   3.573   0.300   0.936 -1.1632  1.0778 -1.3368
   97GLOH   H03 9525   4.230   4.107   1.354  2.0178  2.4733  0.9293
   97GLOH    O1 9526   4.298   4.090   1.286  0.4762  0.2571 -0.1185
   97GLOH    C1 9527   4.270   4.157   1.165  0.1483  0.2958  0.1720
   97GLOH   H02 9528   4.352   4.223   1.135 -1.5575  1.8885 -1.1333
   97GLOH   H08 9529   4.187   4.227   1.172  0.4453  0.8574 -1.5150
   97GLOH    C2 9530   4.249   4.056   1.052  0.1844 -0.5456  0.3089
   97GLOH   H04 9531   4.150   4.012   1.071  0.0309  0.2114  1.3080
   97GLOH    O2 9532   4.236   4.130   0.928 -0.2269  0.3193 -0.7894
   97GLOH   H05 9533   4.164   4.092   0.874 -0.2853 -1.1291  0.2776
   97GLOH    C3 9534   4.367   3.953   1.032  0.4840  0.1098  0.8890
   97GLOH   H06 9535   4.461   4.004   1.009 -0.3542  1.4703  0.4041
   97GLOH   H07 9536   4.338   3.895   0.945 -0.1171 -0.3581  1.3940
   97GLOH    O3 9537   4.378   3.863   1.147  0.4710  0.0477  0.2215
   97GLOH   H01 9538   4.292   3.871   1.193  0.5199  0.2673  0.2744
   98GLOH   H03 9539   4.246   2.970   1.352  2.8042 -0.1659 -1.6773
   98GLOH    O1 9540   4.207   2.986   1.264 -0.9558 -0.5547 -0.1718
   98GLOH    C1 9541   4.291   3.087   1.203  0.1987  0.2114  0.1378
   98GLOH   H02 9542   4.386   3.052   1.164  0.2322 -0.1621  0.5499
   98GLOH   H08 9543   4.310   3.170   1.271  2.3517 -1.4649  1.6356
   98GLOH    C2 9544   4.220   3.145   1.080 -0.2749  0.3430 -0.4300
   98GLOH   H04 9545   4.121   3.179   1.111 -0.8426 -2.5194  1.0211
   98GLOH    O2 9546   4.288   3.256   1.019 -0.2391 -0.2430 -0.3494
   98GLOH   H05 9547   4.284   3.255   0.922 -1.5094  1.6152 -0.3466
   98GLOH    C3 9548   4.187   3.028   0.985  0.0969 -0.2645 -0.5295
   98GLOH   H06 9549   4.276   2.983   0.942 -1.0512 -0.6597 -2.5726
   98GLOH   H07 9550   4.133   3.076   0.903 -1.4418  2.0126  1.7418
   98GLOH    O3 9551   4.094   2.947   1.047 -0.0135 -0.0456  0.0279
   98GLOH   H01 9552   4.107   2.944   1.144  4.4115  0.0987 -0.4415
   99GLOH   H03 9553   3.804   0.423   2.169  2.3136  0.7586  1.0968
   99GLOH    O1 9554   3.748   0.496   2.202  0.1769 -0.2981 -0.0649
   99GLOH    C1 9555   3.842   0.590   2.265  0.2497 -0.5598  0.3322
   99GLOH   H02 9556   3.932   0.542   2.303  0.0857  0.1153  1.5923
   99GLOH   H08 9557   3.792   0.643   2.346 -1.1962 -1.7088  0.2195
   99GLOH    C2 9558   3.896   0.703   2.177  0.2099  0.1156 -0.0139
   99GLOH   H04 9559   3.911   0.663   2.076  3.1947  1.4404 -0.1372
   99GLOH    O2 9560   3.797   0.805   2.171  0.2622  0.4380 -0.0098
   99GLOH   H05 9561   3.754   0.789   2.086 -2.1098 -0.7783  1.3714
   99GLOH    C3 9562   4.025   0.765   2.219  0.1939  0.0110  0.3625
   99GLOH   H06 9563   4.011   0.813   2.316 -0.3469  2.6194 -0.9635
   99GLOH   H07 9564   4.047   0.856   2.164  2.1127 -2.3416 -2.9007
   99GLOH    O3 9565   4.137   0.678   2.223  0.2798 -0.5237  0.2478
   99GLOH   H01 9566   4.173   0.655   2.135 -0.3381 -1.6715  0.2863
  100GLOH   H03 9567   3.450   9.674   2.829  1.4831 -1.3125 -1.8073
  100GLOH    O1 9568   3.469   9.758   2.783 -0.9082  0.0703 -0.4067
  100GLOH    C1 9569   3.566   9.727   2.680 -0.3475  0.1632  0.4305
  100GLOH   H02 9570   3.654   9.692   2.733 -0.9734 -0.2532  1.2051
  100GLOH   H08 9571   3.577   9.806   2.606 -1.3593 -0.2561 -0.1809
  100GLOH    C2 9572   3.515   9.615   2.586  0.5692 -0.8448 -0.4301
  100GLOH   H04 9573   3.410   9.642   2.571  0.5176 -0.5634  0.3702
  100GLOH    O2 9574   3.585   9.612   2.458  0.4714 -0.1556 -0.0463
  100GLOH   H05 9575   3.619   9.700   2.436  2.9278 -1.4805 -1.8093
  100GLOH    C3 9576   3.527   9.482   2.657 -0.5032 -0.2784  0.1586
  100GLOH   H06 9577   3.634   9.461   2.656 -0.2655  0.9267 -1.0673
  100GLOH   H07 9578   3.474   9.405   2.601  0.9393 -0.7580 -0.5428
  100GLOH    O3 9579   3.466   9.490   2.791  0.6228 -0.3421 -0.0541
  100GLOH   H01 9580   3.468   9.405   2.839 -1.0874 -0.0194  0.6371
  101GLOH   H03 9581   2.797   1.399   1.435 -0.3340  0.2916 -0.0506
  101GLOH    O1 9582   2.827   1.383   1.527  0.0500 -0.9256 -0.3741
  101GLOH    C1 9583   2.962   1.351   1.536  0.2669  0.3126 -0.3174
  101GLOH   H02 9584   2.979   1.253   1.490  2.5160  1.3102 -1.6996
  101GLOH   H08 9585   2.996   1.348   1.640  1.0886  1.8687 -0.5267
  101GLOH    C2 9586   3.061   1.443   1.468  0.5060  0.5835  0.4847
  101GLOH   H04 9587   3.018   1.481   1.374  2.1852  0.7844 -0.2371
  101GLOH    O2 9588   3.081   1.560   1.545 -0.0400  0.0511  0.0186
  101GLOH   H05 9589   3.017   1.582   1.614  0.7722  1.8773  0.2092
  101GLOH    C3 9590   3.195   1.362   1.442  0.1686 -0.0018  0.3193
  101GLOH   H06 9591   3.243   1.328   1.534  2.0410 -0.4690 -0.7903
  101GLOH   H07 9592   3.277   1.420   1.399  1.0328 -0.7379  0.9636
  101GLOH    O3 9593   3.183   1.253   1.352  0.1883  0.3744  0.0448
  101GLOH   H01 9594   3.248   1.183   1.372 -1.8846 -1.1567  1.4885
  102GLOH   H03 9595   4.458   2.784   1.694 -0.8480  1.1710 -1.8850
  102GLOH    O1 9596   4.447   2.871   1.737 -0.4213  0.3416 -0.0268
  102GLOH    C1 9597   4.556   2.898   1.828 -0.3014  0.3904  0.1793
  102GLOH   H02 9598   4.635   2.948   1.772  0.3226 -1.6198 -0.7937
  102GLOH   H08 9599   4.606   2.807   1.861 -1.6732 -0.0315  1.1404
  102GLOH    C2 9600   4.513   2.975   1.956 -0.0808  0.4566  0.5353
  102GLOH   H04 9601   4.468   3.072   1.930  2.3333  1.8935  1.5067
  102GLOH    O2 9602   4.411   2.901   2.029 -0.2295  0.8229  0.3152
  102GLOH   H05 9603   4.406   2.933   2.121 -2.3770  0.4998  0.3381
  102GLOH    C3 9604   4.638   3.018   2.038  0.1092 -0.3142  0.4048
  102GLOH   H06 9605   4.699   2.929   2.057 -2.0816 -1.8944  0.3099
  102GLOH   H07 9606   4.600   3.051   2.134 -1.9531 -0.0978 -0.4724
  102GLOH    O3 9607   4.719   3.115   1.974  0.5861  0.0586  0.3367
  102GLOH   H01 9608   4.662   3.192   1.956 -0.1009 -0.3036  0.9575
  103GLOH   H03 9609   3.186   9.701   1.778 -0.1165  2.4430  1.3012
  103GLOH    O1 9610   3.188   9.750   1.694  0.1050 -0.0546 -0.2054
  103GLOH    C1 9611   3.059   9.797   1.655 -0.2081 -0.6081 -0.4735
  103GLOH   H02 9612   3.014   9.846   1.741 -0.4906  1.3784 -1.7016
  103GLOH   H08 9613   2.999   9.711   1.624  2.4808 -2.9425  0.6236
  103GLOH    C2 9614   3.060   9.878   1.528  0.1073 -0.8127  0.7014
  103GLOH   H04 9615   3.084   9.983   1.549 -0.4568 -0.2994 -1.1947
  103GLOH    O2 9616   3.132   9.810   1.418  0.4204  0.3708 -0.4921
  103GLOH   H05 9617   3.134   9.717   1.444 -0.5651  0.4083 -0.2701
  103GLOH    C3 9618   2.918   9.902   1.475  0.0163 -0.4013 -0.6049
  103GLOH   H06 9619   2.886   9.808   1.431 -0.6844 -0.5256  0.1808
  103GLOH   H07 9620   2.915   9.977   1.395  0.2163 -0.6796 -0.8745
  103GLOH    O3 9621   2.830   9.956   1.582 -0.0591  0.3789  0.2128
  103GLOH   H01 9622   2.844  10.053   1.588  0.0058  0.4637 -1.1859
  104GLOH   H03 9623   3.802   4.154   1.673  2.8350  0.4095  1.2579
  104GLOH    O1 9624   3.792   4.069   1.627 -0.3790  1.5232 -0.2624
  104GLOH    C1 9625   3.802   3.968   1.731 -0.2097 -0.2005 -0.1599
  104GLOH   H02 9626   3.776   4.004   1.830  0.7622  0.6743 -0.2167
  104GLOH   H08 9627   3.906   3.943   1.751 -0.5219 -1.3701  0.0116
  104GLOH    C2 9628   3.730   3.832   1.694 -0.9063  0.1534  0.8316
  104GLOH   H04 9629   3.754   3.814   1.588 -0.0675  2.8796  0.5466
  104GLOH    O2 9630   3.777   3.728   1.786  0.0078 -0.3229  0.4626
  104GLOH   H05 9631   3.750   3.640   1.754  1.4219 -0.3234 -0.8185
  104GLOH    C3 9632   3.579   3.844   1.694 -0.6719  0.4134 -0.2341
  104GLOH   H06 9633   3.544   3.885   1.789 -1.0887  3.6551 -1.7097
  104GLOH   H07 9634   3.530   3.748   1.677 -1.5949  0.4767  1.8602
  104GLOH    O3 9635   3.524   3.925   1.596  0.1026  0.1138 -0.2607
  104GLOH   H01 9636   3.577   4.007   1.608 -3.2238  2.1776  1.0634
  105GLOH   H03 9637   4.569   3.734   1.781  0.6536 -0.2869  0.4868
  105GLOH    O1 9638   4.655   3.727   1.736  0.4484  0.1569  0.0160
  105GLOH    C1 9639   4.750   3.822   1.787  0.0752  0.5503 -0.9783
  105GLOH   H02 9640   4.833   3.834   1.717  0.6708 -0.1405 -0.4075
  105GLOH   H08 9641   4.785   3.781   1.881 -1.7019 -0.5491 -0.7748
  105GLOH    C2 9642   4.688   3.959   1.824 -0.3863  0.8004 -0.9253
  105GLOH   H04 9643   4.607   3.945   1.896  1.6628  1.2737  1.5535
  105GLOH    O2 9644   4.788   4.040   1.894 -0.2252  0.2605  0.3451
  105GLOH   H05 9645   4.755   4.122   1.935  1.3267 -1.1653  4.7307
  105GLOH    C3 9646   4.636   4.021   1.695 -0.6202 -0.1385  0.3698
  105GLOH   H06 9647   4.712   4.006   1.618  0.4620  0.9904  1.2008
  105GLOH   H07 9648   4.621   4.129   1.699 -1.0953 -0.1906 -0.0202
  105GLOH    O3 9649   4.517   3.957   1.648 -0.1001 -0.4117 -0.2528
  105GLOH   H01 9650   4.491   3.997   1.563  0.0732  0.5412  0.1375
  106GLOH   H03 9651   4.153   1.499   2.511  1.0391 -0.8059  0.3235
  106GLOH    O1 9652   4.250   1.513   2.508  1.0047 -0.6185 -0.0035
  106GLOH    C1 9653   4.298   1.407   2.594  0.0153 -0.4075 -0.0951
  106GLOH   H02 9654   4.318   1.446   2.694  0.6694  1.7196 -1.0103
  106GLOH   H08 9655   4.395   1.371   2.562 -0.1997 -1.0251 -0.0527
  106GLOH    C2 9656   4.207   1.287   2.587 -0.1930  0.0191  0.5636
  106GLOH   H04 9657   4.217   1.251   2.484  2.9338  0.6831  0.6059
  106GLOH    O2 9658   4.253   1.183   2.679 -0.1396  0.1682  0.6586
  106GLOH   H05 9659   4.247   1.096   2.635  0.3062  0.7669 -0.6174
  106GLOH    C3 9660   4.059   1.330   2.620  0.6547 -0.3680  0.3960
  106GLOH   H06 9661   4.035   1.364   2.721 -1.1991  0.0995 -0.1705
  106GLOH   H07 9662   4.001   1.238   2.607 -0.1040  0.3314 -1.2922
  106GLOH    O3 9663   4.003   1.430   2.529  0.3835  0.1013  0.2736
  106GLOH   H01 9664   3.907   1.418   2.540  0.5820 -3.8728 -1.4899
  107GLOH   H03 9665   3.644   2.976   2.590  1.1397  0.5546 -1.9457
  107GLOH    O1 9666   3.711   2.909   2.614 -0.3605 -0.4205 -0.3470
  107GLOH    C1 9667   3.688   2.859   2.752  0.3203 -0.0639  0.2163
  107GLOH   H02 9668   3.765   2.897   2.818 -0.0484 -0.5683  0.9381
  107GLOH   H08 9669   3.702   2.751   2.758 -1.6760 -0.5044 -1.9504
  107GLOH    C2 9670   3.556   2.906   2.811 -0.8817 -0.4129 -0.1618
  107GLOH   H04 9671   3.544   2.854   2.908 -0.6413 -0.0664  0.0550
  107GLOH    O2 9672   3.537   3.045   2.852 -0.0331 -0.8483  0.4441
  107GLOH   H05 9673   3.616   3.049   2.909 -0.1908 -0.8738  0.6635
  107GLOH    C3 9674   3.439   2.845   2.733  0.6596  0.5116  0.1663
  107GLOH   H06 9675   3.430   2.890   2.634 -0.7337  0.5304  0.2952
  107GLOH   H07 9676   3.353   2.878   2.791 -0.6550 -0.8087 -0.9610
  107GLOH    O3 9677   3.435   2.705   2.718 -0.1463 -0.3949  0.6418
  107GLOH   H01 9678   3.345   2.667   2.722 -0.4289  0.2782  0.7391
  108GLOH   H03 9679   2.985   1.649   1.180  2.8367  3.0298  0.9671
  108GLOH    O1 9680   3.052   1.594   1.136  0.2130  0.1930  0.3055
  108GLOH    C1 9681   3.186   1.636   1.151 -0.4350  0.1630  0.1849
  108GLOH   H02 9682   3.237   1.597   1.239  2.7705 -0.0071 -1.6863
  108GLOH   H08 9683   3.190   1.744   1.161 -2.9826  0.6077 -2.7330
  108GLOH    C2 9684   3.275   1.587   1.036 -0.0510 -1.1408 -0.0849
  108GLOH   H04 9685   3.264   1.478   1.027 -0.3107 -1.2524  1.5196
  108GLOH    O2 9686   3.232   1.645   0.912  0.0187 -0.1842  0.1991
  108GLOH   H05 9687   3.172   1.583   0.867 -0.5428  1.8455 -1.9253
  108GLOH    C3 9688   3.429   1.624   1.060 -0.3087  0.2250  0.9367
  108GLOH   H06 9689   3.427   1.731   1.082  2.4158  0.2255  1.3732
  108GLOH   H07 9690   3.487   1.602   0.970 -1.6922  0.0462  0.0583
  108GLOH    O3 9691   3.485   1.565   1.179 -0.2809  0.0352  0.1058
  108GLOH   H01 9692   3.498   1.469   1.169  0.6132  0.2378 -0.7457
  109GLOH   H03 9693   4.010   2.975   1.792 -0.6194 -2.1422  3.5596
  109GLOH    O1 9694   3.920   2.945   1.768 -0.5214 -0.1382  0.4420
  109GLOH    C1 9695   3.863   2.870   1.873 -0.5105 -0.3074  0.3302
  109GLOH   H02 9696   3.820   2.779   1.832  0.2131 -1.2613  1.6594
  109GLOH   H08 9697   3.784   2.920   1.930 -0.4166  0.3167 -0.0787
  109GLOH    C2 9698   3.959   2.810   1.981 -0.5000 -0.7202  0.1325
  109GLOH   H04 9699   4.017   2.727   1.937 -0.5337  0.7794 -2.8716
  109GLOH    O2 9700   4.041   2.910   2.031  0.0502 -0.6175 -0.2230
  109GLOH   H05 9701   4.126   2.912   1.984 -0.8572 -1.8178 -1.9570
  109GLOH    C3 9702   3.862   2.750   2.092  0.4707  0.0573 -0.9435
  109GLOH   H06 9703   3.809   2.838   2.128  3.1008  1.7033 -0.9541
  109GLOH   H07 9704   3.923   2.717   2.176 -1.5491 -2.1203 -0.2706
  109GLOH    O3 9705   3.775   2.650   2.048 -0.1835 -0.1863 -0.0150
  109GLOH   H01 9706   3.814   2.615   1.966  0.7888  1.5419 -0.3174
  110GLOH   H03 9707   3.656   1.528   0.580 -1.3438 -0.9534  1.9432
  110GLOH    O1 9708   3.607   1.466   0.524  0.1152 -0.0591 -0.3925
  110GLOH    C1 9709   3.476   1.524   0.497 -0.4378 -0.1861 -0.4419
  110GLOH   H02 9710   3.440   1.555   0.595  2.3849 -1.7149  1.1494
  110GLOH   H08 9711   3.413   1.445   0.457  1.5859 -1.1701 -1.7421
  110GLOH    C2 9712   3.472   1.634   0.388 -0.2628 -0.0147  0.3033
  110GLOH   H04 9713   3.551   1.617   0.314 -1.4856  1.3219 -1.3449
  110GLOH    O2 9714   3.343   1.642   0.316  0.3664 -0.4483  0.1500
  110GLOH   H05 9715   3.360   1.592   0.235 -1.3313 -2.3959  0.9470
  110GLOH    C3 9716   3.492   1.770   0.455  0.2448 -0.0832  0.5087
  110GLOH   H06 9717   3.415   1.767   0.532  0.1359 -2.5688  0.3446
  110GLOH   H07 9718   3.472   1.844   0.378 -3.4563 -1.1532  0.3373
  110GLOH    O3 9719   3.622   1.785   0.514  0.7000 -0.2621 -0.5744
  110GLOH   H01 9720   3.620   1.852   0.584  1.5425  1.0411 -1.7810
  111GLOH   H03 9721   4.004   2.079   1.668  0.5799  0.9829  0.3152
  111GLOH    O1 9722   4.100   2.094   1.671  0.7089  0.1415  0.5691
  111GLOH    C1 9723   4.150   2.065   1.539 -0.2036 -0.1532  0.1980
  111GLOH   H02 9724   4.086   1.995   1.486  0.9211 -0.1870 -1.1389
  111GLOH   H08 9725   4.251   2.025   1.547  0.0480 -0.2129 -2.8100
  111GLOH    C2 9726   4.167   2.188   1.441  0.0295  0.3143  0.1310
  111GLOH   H04 9727   4.181   2.152   1.338 -0.6908 -1.4464  0.6149
  111GLOH    O2 9728   4.058   2.281   1.442 -0.4698  0.4572 -0.2370
  111GLOH   H05 9729   4.070   2.344   1.369 -1.5862  0.0065 -0.8037
  111GLOH    C3 9730   4.290   2.276   1.476 -0.2247  0.3809 -0.7037
  111GLOH   H06 9731   4.276   2.309   1.579  1.9062 -1.7825  0.3293
  111GLOH   H07 9732   4.281   2.361   1.409 -1.6580  1.9836  1.4766
  111GLOH    O3 9733   4.413   2.203   1.463  0.4815 -0.4371  0.2347
  111GLOH   H01 9734   4.472   2.270   1.424  1.1681 -1.0264  0.2531
  112GLOH   H03 9735   4.330   3.151   2.558  0.2947  3.7872 -1.9369
  112GLOH    O1 9736   4.422   3.141   2.528  0.5678 -0.2109 -0.1357
  112GLOH    C1 9737   4.483   3.265   2.573 -0.3550  0.1363  0.0996
  112GLOH   H02 9738   4.446   3.301   2.669  3.8610  1.7155  1.2308
  112GLOH   H08 9739   4.453   3.343   2.503 -3.1894 -0.3885  0.6630
  112GLOH    C2 9740   4.639   3.262   2.584  0.2984 -0.6375 -0.2075
  112GLOH   H04 9741   4.688   3.245   2.487  0.8437 -1.7495  0.2580
  112GLOH    O2 9742   4.690   3.388   2.635 -0.1148  0.0390 -0.1069
  112GLOH   H05 9743   4.752   3.418   2.566 -1.2166 -2.4147 -2.2463
  112GLOH    C3 9744   4.681   3.135   2.660  0.0823 -0.2027  0.3911
  112GLOH   H06 9745   4.640   3.128   2.760  0.3764  0.6103  0.5714
  112GLOH   H07 9746   4.789   3.133   2.670  0.3996 -0.7931 -2.7256
  112GLOH    O3 9747   4.629   3.023   2.582 -0.3123  0.4880  0.1992
  112GLOH   H01 9748   4.538   3.054   2.570 -0.3550  0.3730  0.2365
  113GLOH   H03 9749   4.522   2.621   2.453  2.3346  2.9239 -0.3293
  113GLOH    O1 9750   4.460   2.686   2.416 -0.0653  0.8345 -0.0603
  113GLOH    C1 9751   4.342   2.716   2.491  0.4253 -0.0641  0.1449
  113GLOH   H02 9752   4.283   2.792   2.439  0.3861 -1.3695 -1.7531
  113GLOH   H08 9753   4.362   2.749   2.593 -2.6011 -0.4618  0.9243
  113GLOH    C2 9754   4.260   2.589   2.505  0.0022 -0.6541  0.4315
  113GLOH   H04 9755   4.321   2.515   2.558 -0.5798 -2.0190 -0.7680
  113GLOH    O2 9756   4.150   2.615   2.590  0.6818 -0.1377 -0.2178
  113GLOH   H05 9757   4.124   2.528   2.625  0.2399  0.2818  0.4763
  113GLOH    C3 9758   4.214   2.534   2.372  0.0968  0.2790 -0.2336
  113GLOH   H06 9759   4.144   2.605   2.329 -1.6627 -1.8823 -1.0756
  113GLOH   H07 9760   4.160   2.446   2.405  2.2193 -1.4424 -1.1721
  113GLOH    O3 9761   4.319   2.507   2.280 -0.1142  0.0099  0.0188
  113GLOH   H01 9762   4.387   2.574   2.300  0.2569 -0.4043  0.1479
  114GLOH   H03 9763   3.179   2.233   1.902  1.4584 -1.9626 -2.1580
  114GLOH    O1 9764   3.123   2.261   1.828 -0.0780  0.2729 -0.2090
  114GLOH    C1 9765   3.065   2.146   1.769  0.1574  0.2380  0.3603
  114GLOH   H02 9766   3.145   2.109   1.704  0.4455  1.4473  0.0265
  114GLOH   H08 9767   2.982   2.169   1.702 -0.5203 -0.3040  0.9991
  114GLOH    C2 9768   3.042   2.038   1.868  0.5103  0.5326 -1.0974
  114GLOH   H04 9769   3.028   1.948   1.807 -1.3328  2.1537 -3.1397
  114GLOH    O2 9770   3.158   2.018   1.952 -0.3413  0.1541  0.0664
  114GLOH   H05 9771   3.170   1.928   1.985  3.3570  0.6538  0.3137
  114GLOH    C3 9772   2.907   2.063   1.946 -0.4984 -0.0553  0.3487
  114GLOH   H06 9773   2.925   2.141   2.020  2.3765 -0.0095 -0.3425
  114GLOH   H07 9774   2.893   1.967   1.997  0.2806 -0.0423  0.5931
  114GLOH    O3 9775   2.809   2.091   1.842  0.1604  0.1831  0.4790
  114GLOH   H01 9776   2.717   2.078   1.870 -0.0364 -1.9060 -0.9550
  115GLOH   H03 9777   4.144   2.543   1.402  0.5808 -0.4886 -1.0634
  115GLOH    O1 9778   4.068   2.558   1.343 -0.1041 -0.4823 -0.1850
  115GLOH    C1 9779   3.966   2.642   1.394  0.2698 -0.1462  0.0386
  115GLOH   H02 9780   3.897   2.586   1.457  0.7700 -0.2552  0.4900
  115GLOH   H08 9781   3.901   2.694   1.323 -0.9008 -0.2785  0.9997
  115GLOH    C2 9782   4.020   2.760   1.484 -0.3252 -0.0170  0.1649
  115GLOH   H04 9783   4.092   2.816   1.422  0.0529 -0.2372  0.3992
  115GLOH    O2 9784   3.902   2.845   1.518  0.1719  0.2765 -0.6891
  115GLOH   H05 9785   3.931   2.893   1.597  0.6928  0.8633 -1.2372
  115GLOH    C3 9786   4.090   2.691   1.605 -0.5411  0.2336 -0.2114
  115GLOH   H06 9787   4.008   2.641   1.657 -0.4258 -0.4989 -0.7332
  115GLOH   H07 9788   4.123   2.770   1.673 -0.2115 -1.7851  2.0639
  115GLOH    O3 9789   4.198   2.606   1.568  0.5892 -0.0984 -0.1135
  115GLOH   H01 9790   4.245   2.569   1.645  0.2616  0.1143  0.1914
  116GLOH   H03 9791   3.039   9.023   1.334 -0.4975  1.4637  2.3198
  116GLOH    O1 9792   3.102   8.956   1.367 -0.3166  0.1658 -0.4621
  116GLOH    C1 9793   3.231   8.946   1.304  0.4651  0.1404  0.0765
  116GLOH   H02 9794   3.236   8.878   1.219 -1.7237  0.2661 -0.1807
  116GLOH   H08 9795   3.302   8.915   1.380  1.1659  1.1014 -0.1788
  116GLOH    C2 9796   3.279   9.083   1.252  0.0991 -0.1739 -0.2706
  116GLOH   H04 9797   3.307   9.149   1.335  1.4641  0.3678 -1.1611
  116GLOH    O2 9798   3.395   9.065   1.168 -0.0963 -0.1592  0.0344
  116GLOH   H05 9799   3.466   9.023   1.220 -0.5226 -2.1320 -0.9405
  116GLOH    C3 9800   3.163   9.156   1.185  0.1005  0.4773  0.2069
  116GLOH   H06 9801   3.148   9.108   1.089 -1.0751 -0.1317  0.6792
  116GLOH   H07 9802   3.202   9.256   1.163  2.2997 -0.6128 -0.9749
  116GLOH    O3 9803   3.041   9.170   1.247 -0.1393 -0.3065  0.4629
  116GLOH   H01 9804   3.006   9.261   1.240 -0.4856 -0.5174 -0.6330
  117GLOH   H03 9805   3.871   1.966   0.620  0.9736 -0.8606  0.8334
  117GLOH    O1 9806   3.808   1.919   0.677 -0.3371 -0.3242 -0.1279
  117GLOH    C1 9807   3.822   1.952   0.815 -0.0891  0.1698 -0.1307
  117GLOH   H02 9808   3.808   2.060   0.823 -1.0280  0.0407  0.0596
  117GLOH   H08 9809   3.920   1.924   0.853 -0.8297 -3.6319 -0.8410
  117GLOH    C2 9810   3.713   1.878   0.902 -0.4300 -0.3859  0.0943
  117GLOH   H04 9811   3.727   1.771   0.878  0.5108 -0.3728  0.5419
  117GLOH    O2 9812   3.726   1.868   1.045 -0.4836 -0.6543  1.0119
  117GLOH   H05 9813   3.741   1.956   1.084 -1.3597  1.1178 -2.5201
  117GLOH    C3 9814   3.573   1.925   0.868  0.4858 -0.3611  0.2053
  117GLOH   H06 9815   3.578   2.028   0.905  3.3083 -0.7523  1.0345
  117GLOH   H07 9816   3.493   1.876   0.923  0.8568  1.6301  2.6282
  117GLOH    O3 9817   3.540   1.921   0.727  0.1978 -0.3980  0.2602
  117GLOH   H01 9818   3.447   1.944   0.710 -0.2024 -1.1985  1.3132
  118GLOH   H03 9819   3.844   0.910   0.812 -0.1391  1.0997 -0.9085
  118GLOH    O1 9820   3.773   0.963   0.851 -0.0445  0.4973  0.0830
  118GLOH    C1 9821   3.829   1.090   0.890 -0.4093  0.5459 -0.4233
  118GLOH   H02 9822   3.747   1.161   0.898  0.2994  1.1069  2.2286
  118GLOH   H08 9823   3.897   1.132   0.816  1.0398 -0.8532  0.0781
  118GLOH    C2 9824   3.903   1.072   1.028 -0.4143  0.7577  0.5213
  118GLOH   H04 9825   3.988   1.004   1.013 -0.6568  1.0362 -2.6457
  118GLOH    O2 9826   3.949   1.201   1.071  0.0890  0.4283 -0.3006
  118GLOH   H05 9827   3.881   1.231   1.133 -1.3810 -0.6734 -1.3501
  118GLOH    C3 9828   3.805   1.008   1.133  0.3968 -0.3536  0.4079
  118GLOH   H06 9829   3.807   0.901   1.114  0.1034 -0.4192  0.7257
  118GLOH   H07 9830   3.708   1.055   1.116  1.1479  0.4801 -1.6573
  118GLOH    O3 9831   3.850   1.040   1.262  0.3299  0.2791 -0.1830
  118GLOH   H01 9832   3.807   0.977   1.322 -0.9373  1.8335  0.5873
  119GLOH   H03 9833   3.891   3.522   0.453 -0.4277  1.5398  1.6176
  119GLOH    O1 9834   3.800   3.493   0.475 -0.3004  0.1086  0.3423
  119GLOH    C1 9835   3.726   3.480   0.349 -0.3630  0.4491 -0.5473
  119GLOH   H02 9836   3.759   3.549   0.271  0.5884  0.7644  0.1241
  119GLOH   H08 9837   3.624   3.494   0.382 -0.1496 -2.5079  1.5319
  119GLOH    C2 9838   3.734   3.338   0.296 -0.3309 -0.2060 -0.5109
  119GLOH   H04 9839   3.704   3.273   0.379  1.6670  0.1157  0.5112
  119GLOH    O2 9840   3.667   3.324   0.171  0.4826  0.3195  0.3705
  119GLOH   H05 9841   3.622   3.238   0.182  1.9383 -0.2396  2.2101
  119GLOH    C3 9842   3.880   3.294   0.271  0.2500  0.1124 -0.1900
  119GLOH   H06 9843   3.871   3.221   0.191  0.1569  0.5890 -0.6174
  119GLOH   H07 9844   3.923   3.249   0.361  1.5138 -1.9809 -1.7991
  119GLOH    O3 9845   3.965   3.396   0.218  0.3084  0.2357  0.5191
  119GLOH   H01 9846   4.057   3.366   0.228  0.1283 -1.3039 -1.8549
  120GLOH   H03 9847   4.476   2.585   2.042 -1.0178  1.4452 -2.5198
  120GLOH    O1 9848   4.571   2.594   2.022 -0.3984  0.1769 -0.2930
  120GLOH    C1 9849   4.638   2.631   2.138 -0.4244  0.1030  0.4788
  120GLOH   H02 9850   4.604   2.580   2.228  0.6907 -1.6830 -0.0799
  120GLOH   H08 9851   4.604   2.729   2.169 -1.7604  0.1293 -1.0447
  120GLOH    C2 9852   4.792   2.614   2.120 -0.2674  0.3037 -0.7567
  120GLOH   H04 9853   4.801   2.636   2.013 -1.8178 -0.1240 -0.9821
  120GLOH    O2 9854   4.875   2.691   2.207  0.2077  0.6888 -0.7745
  120GLOH   H05 9855   4.890   2.645   2.292  0.4195  2.5011  0.2016
  120GLOH    C3 9856   4.828   2.464   2.130 -0.0689  0.1150 -0.7030
  120GLOH   H06 9857   4.923   2.446   2.078  0.5902 -0.7953  0.7879
  120GLOH   H07 9858   4.756   2.403   2.076 -1.2225  1.4495 -0.7025
  120GLOH    O3 9859   4.838   2.418   2.270  0.2176 -0.6833  0.3624
  120GLOH   H01 9860   4.747   2.404   2.302  0.6268 -1.0209  1.3862
  121ACOH    H4 9861   4.270   4.290   0.934 -2.0953  0.9633  0.3200
  121ACOH    O2 9862   4.299   4.382   0.934  0.4244  0.2156  0.0936
  121ACOH    C2 9863   4.189   4.445   0.984 -0.5895 -0.2668 -0.2834
  121ACOH    O1 9864   4.092   4.393   1.033 -0.0325 -0.3891 -0.4094
  121ACOH    C1 9865   4.221   4.597   0.997  0.7291  0.5694 -0.3569
  121ACOH    H1 9866   4.162   4.633   1.081  3.0164 -0.3897  1.7203
  121ACOH    H2 9867   4.181   4.652   0.911 -1.7814 -2.9144 -1.5268
  121ACOH    H3 9868   4.327   4.613   1.016  0.7537 -1.3749  1.3701
  122ACOH    H4 9869   4.735   3.372   2.791 -1.7972  3.7745  1.6120
  122ACOH    O2 9870   4.764   3.343   2.879 -0.0087 -0.4030 -0.1947
  122ACOH    C2 9871   4.698   3.422   2.968 -0.5827 -0.0143 -0.3901
  122ACOH    O1 9872   4.659   3.539   2.950 -0.1296 -1.1580 -0.3874
  122ACOH    C1 9873   4.713   3.364   3.104  0.3493  0.5297 -0.5370
  122ACOH    H1 9874   4.683   3.435   3.181 -1.1562  3.2048 -3.4770
  122ACOH    H2 9875   4.816   3.332   3.118 -0.3413 -2.1096 -1.0659
  122ACOH    H3 9876   4.643   3.280   3.102 -0.3327  1.0823 -0.0862
  123ACOH    H4 9877   2.892   3.337   1.162  0.3925 -1.7015  1.7462
  123ACOH    O2 9878   2.802   3.341   1.125  1.3020 -0.0208 -0.4432
  123ACOH    C2 9879   2.770   3.469   1.101  0.2377 -0.2639  0.7751
  123ACOH    O1 9880   2.830   3.566   1.141  0.4256  0.0851  0.1945
  123ACOH    C1 9881   2.627   3.466   1.046  0.8336  0.2930 -0.2925
  123ACOH    H1 9882   2.627   3.431   0.943  0.2733 -0.5887  0.0078
  123ACOH    H2 9883   2.584   3.567   1.043  0.0051  0.0276  1.8141
  123ACOH    H3 9884   2.560   3.404   1.105  0.3548 -0.3807 -1.5210
  124ACOH    H4 9885   4.341   1.797   0.612 -2.6077  0.7967  0.8738
  124ACOH    O2 9886   4.342   1.877   0.557  0.3991 -0.1912 -0.5638
  124ACOH    C2 9887   4.238   1.961   0.600 -0.6784 -0.6753 -0.2962
  124ACOH    O1 9888   4.140   1.932   0.666 -0.3325  0.1420  0.4882
  124ACOH    C1 9889   4.267   2.108   0.565  0.4748  0.4265  0.1314
  124ACOH    H1 9890   4.175   2.162   0.539  1.2056  0.7527 -1.8184
  124ACOH    H2 9891   4.330   2.122   0.477  0.8650 -1.9698 -0.0185
  124ACOH    H3 9892   4.312   2.150   0.655  0.1916 -0.4712  0.7070
  125ACOH    H4 9893   3.766   8.781   0.898 -3.7096 -0.5969 -0.1999
  125ACOH    O2 9894   3.771   8.686   0.874  0.5011 -0.3992 -0.4391
  125ACOH    C2 9895   3.779   8.619   0.994 -0.6067  0.6997 -0.1671
  125ACOH    O1 9896   3.769   8.664   1.104 -0.0259 -1.0250  0.0277
  125ACOH    C1 9897   3.807   8.480   0.973 -0.6410 -0.3934 -0.1416
  125ACOH    H1 9898   3.913   8.468   0.951 -1.1221 -0.5626 -2.5822
  125ACOH    H2 9899   3.759   8.448   0.880  1.2419 -1.3042 -0.8284
  125ACOH    H3 9900   3.772   8.423   1.058 -2.8625 -1.5687 -1.7849
  126ACOH    H4 9901   4.804   3.400   0.771  1.6662  1.8266 -2.3785
  126ACOH    O2 9902   4.805   3.481   0.824 -0.0836  0.1063  0.4163
  126ACOH    C2 9903   4.841   3.593   0.762  0.4200  1.4482 -0.0707
  126ACOH    O1 9904   4.889   3.582   0.651 -0.4062  0.2096 -0.2599
  126ACOH    C1 9905   4.841   3.717   0.851  0.5235  0.6382  0.0434
  126ACOH    H1 9906   4.943   3.747   0.872  0.2928  0.8507  0.8901
  126ACOH    H2 9907   4.791   3.685   0.943 -0.8980 -0.2609 -1.0049
  126ACOH    H3 9908   4.776   3.792   0.805 -0.0070  1.8880  2.6956
  127ACOH    H4 9909   3.487   4.340   1.371  1.0686 -2.3433  1.4688
  127ACOH    O2 9910   3.399   4.328   1.409  0.1748 -0.9867 -0.1010
  127ACOH    C2 9911   3.412   4.225   1.497  0.0302 -0.0958  0.3079
  127ACOH    O1 9912   3.497   4.213   1.581 -0.2898  0.3575 -0.6883
  127ACOH    C1 9913   3.271   4.185   1.535  0.2177  0.3746  0.0898
  127ACOH    H1 9914   3.218   4.275   1.567  0.9910 -0.0275  2.5539
  127ACOH    H2 9915   3.265   4.117   1.619 -0.5067 -0.3832 -0.5645
  127ACOH    H3 9916   3.230   4.134   1.448  1.0932 -2.0242  1.0710
  128ACOH    H4 9917   3.850   0.092   1.976  1.2393  0.8785  0.4837
  128ACOH    O2 9918   3.895   0.163   1.926  0.2408  1.0513 -0.1956
  128ACOH    C2 9919   3.917   0.256   2.014  0.2306 -0.0765 -0.0264
  128ACOH    O1 9920   3.874   0.272   2.125 -0.5456  0.5473 -0.0823
  128ACOH    C1 9921   3.993   0.366   1.942  0.0296  0.4036 -0.0313
  128ACOH    H1 9922   3.950   0.466   1.936  1.2729  1.1179  2.3204
  128ACOH    H2 9923   4.022   0.329   1.844 -2.8717 -1.1279 -0.3450
  128ACOH    H3 9924   4.089   0.381   1.993  0.2213 -0.7742 -0.0215
  129ACOH    H4 9925   3.267   3.742   0.171 -0.6754  0.2061 -0.5680
  129ACOH    O2 9926   3.303   3.826   0.139  0.1173  0.1290  0.1058
  129ACOH    C2 9927   3.205   3.899   0.087  0.5950  0.2993 -0.5948
  129ACOH    O1 9928   3.095   3.860   0.055  0.1929  0.3195 -0.2698
  129ACOH    C1 9929   3.257   4.031   0.045 -0.2114  0.1877 -0.0557
  129ACOH    H1 9930   3.356   4.057   0.082  0.5990 -1.0977 -1.2646
  129ACOH    H2 9931   3.197   4.118   0.072 -0.6743 -1.1675  3.5710
  129ACOH    H3 9932   3.262   4.032  -0.064  1.3176 -1.7232 -0.0379
  130ACOH    H4 9933   4.604   3.200   0.577 -1.5369 -1.2667 -1.1275
  130ACOH    O2 9934   4.647   3.114   0.589 -0.3934 -0.4947  0.4802
  130ACOH    C2 9935   4.774   3.141   0.636 -0.1393  0.5688 -0.2591
  130ACOH    O1 9936   4.803   3.231   0.712 -0.9494  0.3909 -0.1973
  130ACOH    C1 9937   4.876   3.032   0.597  0.0670 -0.2055  0.4491
  130ACOH    H1 9938   4.924   3.002   0.690  1.0349 -2.0886 -0.6394
  130ACOH    H2 9939   4.949   3.073   0.527  1.5862  0.2554  2.2859
  130ACOH    H3 9940   4.832   2.948   0.543 -2.4998  3.2299 -3.0931
  131ACOH    H4 9941   4.164   2.414   0.148 -1.1248 -3.7792  0.8227
  131ACOH    O2 9942   4.257   2.400   0.126 -0.6305 -0.0042  0.0752
  131ACOH    C2 9943   4.279   2.386  -0.009 -1.0350 -0.0071 -0.4452
  131ACOH    O1 9944   4.203   2.415  -0.097 -0.1443  0.1731 -0.4844
  131ACOH    C1 9945   4.414   2.324  -0.041 -1.1975 -0.3489  0.4788
  131ACOH    H1 9946   4.396   2.250  -0.119 -0.1612 -0.9058  0.7573
  131ACOH    H2 9947   4.476   2.294   0.044 -0.1208  1.2054  0.2676
  131ACOH    H3 9948   4.467   2.403  -0.094 -1.0427 -0.7277  0.0709
  132ACOH    H4 9949   4.121   9.100   2.033 -0.2025  0.8243  1.7649
  132ACOH    O2 9950   4.217   9.104   2.025 -0.4054  0.1882 -1.3527
  132ACOH    C2 9951   4.267   9.208   2.091  0.0927  0.9826 -0.4330
  132ACOH    O1 9952   4.210   9.304   2.143  0.2737 -0.5516 -0.3199
  132ACOH    C1 9953   4.414   9.198   2.092  0.2108 -0.3215  0.3853
  132ACOH    H1 9954   4.423   9.094   2.124 -0.9667  0.2665  2.6982
  132ACOH    H2 9955   4.452   9.268   2.166 -0.1237 -1.3878  1.5887
  132ACOH    H3 9956   4.455   9.217   1.993 -2.1922  3.5890  0.0402
  133ACOH    H4 9957   4.430   1.489   0.321 -0.3241 -0.4586  0.5108
  133ACOH    O2 9958   4.505   1.440   0.283  0.2714  0.0820  0.9728
  133ACOH    C2 9959   4.466   1.399   0.161 -0.8011  0.3112 -0.2113
  133ACOH    O1 9960   4.367   1.425   0.101  0.5324 -0.1651  0.8844
  133ACOH    C1 9961   4.561   1.299   0.109  0.0376 -0.1212  0.0334
  133ACOH    H1 9962   4.528   1.201   0.142  0.9839 -0.9837 -1.5068
  133ACOH    H2 9963   4.664   1.325   0.134  0.1676  0.9651 -1.5034
  133ACOH    H3 9964   4.568   1.289   0.000 -1.7936 -1.6890  0.0335
  134ACOH    H4 9965   2.974   9.506   1.451 -1.3279  1.3229  0.4916
  134ACOH    O2 9966   2.984   9.581   1.390  0.6637  0.4631 -0.2681
  134ACOH    C2 9967   2.970   9.538   1.265  0.4307  0.2702  0.0191
  134ACOH    O1 9968   2.959   9.426   1.227 -0.4611  0.1971  0.3616
  134ACOH    C1 9969   2.988   9.644   1.168 -0.3566  0.4978  0.0185
  134ACOH    H1 9970   2.935   9.614   1.078 -0.4338 -1.8156  0.7862
  134ACOH    H2 9971   3.096   9.640   1.153 -0.3566 -3.4994  0.5666
  134ACOH    H3 9972   2.955   9.742   1.202 -0.0653  1.0495 -1.2627
  135ACOH    H4 9973   4.905   3.073   1.554  0.8933 -1.7407 -2.5147
  135ACOH    O2 9974   4.951   3.035   1.630 -1.1365  0.3317 -0.1520
  135ACOH    C2 9975   4.883   2.922   1.654  0.3291 -0.3787 -0.7158
  135ACOH    O1 9976   4.785   2.878   1.590 -0.3678 -0.1022 -0.5792
  135ACOH    C1 9977   4.949   2.848   1.768 -0.1429  0.6500  0.2978
  135ACOH    H1 9978   4.917   2.891   1.863 -1.5096  0.4495 -0.0572
  135ACOH    H2 9979   5.055   2.860   1.746 -0.2468 -2.0393 -1.9750
  135ACOH    H3 9980   4.908   2.747   1.773 -1.1710  1.0444 -0.0339
  136ACOH    H4 9981   4.569   1.151   1.904  1.9565 -0.1358 -3.0141
  136ACOH    O2 9982   4.623   1.229   1.924  0.2914  0.3939 -0.2355
  136ACOH    C2 9983   4.705   1.244   1.813 -0.1749 -1.5635 -0.3860
  136ACOH    O1 9984   4.731   1.170   1.721  0.1675  0.6113  0.0853
  136ACOH    C1 9985   4.754   1.390   1.813 -0.0157  1.1021  0.1940
  136ACOH    H1 9986   4.694   1.450   1.882  2.2203  0.2998  2.9033
  136ACOH    H2 9987   4.772   1.435   1.715  1.7334  2.1606  0.9761
  136ACOH    H3 9988   4.851   1.381   1.861 -0.3460  0.0723  0.6700
  137ACOH    H4 9989   2.628   1.619   2.181  1.2178 -1.4410 -1.7125
  137ACOH    O2 9990   2.582   1.546   2.225 -0.4007  0.0151 -0.8897
  137ACOH    C2 9991   2.628   1.420   2.192  0.2279  0.4721  0.2997
  137ACOH    O1 9992   2.741   1.392   2.150 -0.0923 -0.1054  0.0133
  137ACOH    C1 9993   2.542   1.308   2.245 -0.1417 -0.2252 -0.2226
  137ACOH    H1 9994   2.444   1.346   2.271  0.5519  1.0954  0.5040
  137ACOH    H2 9995   2.595   1.259   2.327 -0.6231 -0.4993 -0.0706
  137ACOH    H3 9996   2.526   1.232   2.169  1.6598 -0.3859 -0.4619
  138ACOH    H4 9997   3.404   8.971   2.313 -4.4845  1.4405  0.0675
  138ACOH    O2 9998   3.376   8.881   2.338 -0.0663 -0.0677  0.0400
  138ACOH    C2 9999   3.440   8.806   2.253  0.1388 -0.3367 -0.0944
  138ACOH    O110000   3.461   8.833   2.130  0.2925  0.1520 -0.2668
  138ACOH    C110001   3.449   8.673   2.309  0.1516 -0.7705  0.2795
  138ACOH    H110002   3.423   8.671   2.415 -0.9099  0.5369  0.0597
  138ACOH    H210003   3.548   8.630   2.295 -0.1911 -1.8207  1.0316
  138ACOH    H310004   3.372   8.609   2.265 -2.1079  0.4142  2.3876
  139ACOH    H410005   3.724   4.352   1.045 -0.2079 -1.3084 -0.1834
  139ACOH    O210006   3.788   4.329   1.114  0.1079  0.1506  0.0204
  139ACOH    C210007   3.720   4.293   1.225  0.3067 -0.5156  0.9516
  139ACOH    O110008   3.607   4.334   1.240 -0.2259  0.1016  0.0565
  139ACOH    C110009   3.805   4.222   1.332  0.2754  0.1509  0.8589
  139ACOH    H110010   3.907   4.194   1.304  0.1839  0.5471  0.1402
  139ACOH    H210011   3.756   4.130   1.362  1.3445 -0.8211 -0.3078
  139ACOH    H310012   3.814   4.288   1.419  2.9769  0.2442  0.5519
  140ACOH    H410013   3.780   4.371   0.133 -1.1688  1.4626  1.1584
  140ACOH    O210014   3.820   4.454   0.101  0.9929 -0.1168 -0.4217
  140ACOH    C210015   3.915   4.432  -0.003  0.3622  0.0123 -0.1259
  140ACOH    O110016   3.971   4.324  -0.016 -0.1553 -0.1902 -0.4321
  140ACOH    C110017   3.991   4.556  -0.023 -0.0523 -0.2369  0.3103
  140ACOH    H110018   4.035   4.545  -0.122 -1.6375  0.4974 -0.4997
  140ACOH    H210019   4.069   4.569   0.053  2.5223  0.7203 -2.4208
  140ACOH    H310020   3.928   4.644  -0.030  0.3555 -0.0492 -1.1595
  141ACOH    H410021   4.312   4.527   1.864  1.2310  0.6127  4.6541
  141ACOH    O210022   4.308   4.623   1.848  0.0457 -0.0747 -0.0226
  141ACOH    C210023   4.240   4.647   1.735 -0.3869 -0.6285  0.1812
  141ACOH    O110024   4.202   4.557   1.661  0.3652  0.0645 -0.5118
  141ACOH    C110025   4.253   4.788   1.696 -0.2008 -0.2987 -0.3014
  141ACOH    H110026   4.159   4.811   1.647  0.6159  0.8386 -1.3840
  141ACOH    H210027   4.344   4.811   1.640  0.2006  2.5526  1.4145
  141ACOH    H310028   4.266   4.850   1.785 -3.6367 -2.3479  1.7322
  142ACOH    H410029   3.306   9.524   2.781  0.4799  1.2526  2.3193
  142ACOH    O210030   3.212   9.533   2.804 -0.3509  0.0034 -0.3348
  142ACOH    C210031   3.143   9.491   2.702  0.1414 -0.7284 -0.3790
  142ACOH    O110032   3.184   9.478   2.586 -0.3289  0.0649  0.3330
  142ACOH    C110033   3.002   9.446   2.737 -0.7398 -0.5109 -0.2209
  142ACOH    H110034   2.994   9.338   2.727  0.6137 -0.6793  0.4400
  142ACOH    H210035   2.944   9.495   2.658 -2.5357  0.0216  1.3986
  142ACOH    H310036   2.969   9.476   2.837  1.6766  3.0120 -0.3814
  143ACOH    H410037   4.828   2.744   2.453 -0.6935 -0.9412 -1.5240
  143ACOH    O210038   4.880   2.669   2.486 -0.2426  0.1751  0.4230
  143ACOH    C210039   4.800   2.570   2.531 -0.1708 -0.1808 -0.1382
  143ACOH    O110040   4.679   2.570   2.521  0.0080 -0.0095  0.3183
  143ACOH    C110041   4.880   2.474   2.602 -1.2236  0.5346 -0.4719
  143ACOH    H110042   4.810   2.406   2.651  1.7335 -0.9279  1.8952
  143ACOH    H210043   4.926   2.527   2.686 -1.8174 -1.3112  1.0741
  143ACOH    H310044   4.945   2.414   2.539  0.6237  1.8505  0.1309
  144ACOH    H410045   3.915   4.569   2.058  0.0522  1.2382 -0.1502
  144ACOH    O210046   3.948   4.616   1.979  0.2201  0.0619 -0.7984
  144ACOH    C210047   3.840   4.601   1.898  0.0861 -0.0129 -0.4304
  144ACOH    O110048   3.773   4.499   1.885  0.0147 -0.4844  0.3310
  144ACOH    C110049   3.829   4.724   1.807 -0.0634  0.1750 -0.1891
  144ACOH    H110050   3.782   4.701   1.712 -1.0975  1.2625  0.0484
  144ACOH    H210051   3.930   4.749   1.773 -0.5416  1.1293 -0.9101
  144ACOH    H310052   3.781   4.808   1.856  0.4819 -0.3417  1.2849
  145ACOH    H410053   4.279   9.345   1.749  0.6396 -0.6251 -0.0351
  145ACOH    O210054   4.332   9.379   1.823 -0.0891 -0.1717  0.2796
  145ACOH    C210055   4.325   9.516   1.807  0.4109 -0.3063 -0.6731
  145ACOH    O110056   4.267   9.572   1.716  0.2244 -0.7201 -0.3806
  145ACOH    C110057   4.416   9.591   1.909 -1.1331 -0.1930 -0.3317
  145ACOH    H110058   4.392   9.697   1.901 -2.5941 -0.5701 -1.1909
  145ACOH    H210059   4.520   9.574   1.884 -0.7955  2.4479 -0.9579
  145ACOH    H310060   4.399   9.547   2.007  1.3278 -0.7095 -0.1188
  146ACOH    H410061   4.139   1.933   2.127  1.1720 -0.5912  1.5622
  146ACOH    O210062   4.114   1.842   2.148 -1.1336 -0.3760 -0.1760
  146ACOH    C210063   4.096   1.847   2.283  0.4145 -0.4007  1.0602
  146ACOH    O110064   4.134   1.936   2.359 -0.0937 -0.2177 -0.3170
  146ACOH    C110065   4.060   1.715   2.341 -1.3275 -0.2016 -0.1057
  146ACOH    H110066   4.109   1.632   2.290 -1.2969 -0.5406  0.4640
  146ACOH    H210067   3.952   1.709   2.343 -1.2028 -3.1874 -0.3236
  146ACOH    H310068   4.096   1.713   2.444  1.9469  0.7199 -1.1696
  147ACOH    H410069   2.589   2.597   1.424  0.9800  0.0677 -1.5761
  147ACOH    O210070   2.534   2.521   1.398  0.5690 -0.0046 -0.5005
  147ACOH    C210071   2.609   2.446   1.315  0.0156 -0.3374  0.0760
  147ACOH    O110072   2.727   2.452   1.292  0.3467  0.6449  0.6958
  147ACOH    C110073   2.524   2.348   1.234 -0.6796 -0.1314 -0.1214
  147ACOH    H110074   2.577   2.253   1.227 -1.2488 -0.8237  3.8200
  147ACOH    H210075   2.521   2.381   1.130 -0.5824 -0.8051 -0.3426
  147ACOH    H310076   2.419   2.343   1.262 -0.5463 -0.5332  0.3071
  148ACOH    H410077   3.928   2.091   0.383  1.5351 -1.5185  1.6964
  148ACOH    O210078   4.004   2.092   0.321  0.2118 -0.1080  0.0254
  148ACOH    C210079   3.977   2.136   0.199  0.1483 -0.5843 -0.4269
  148ACOH    O110080   3.892   2.220   0.176  0.0899  0.0368  0.3668
  148ACOH    C110081   4.094   2.116   0.112 -0.4460  0.9890  0.3371
  148ACOH    H110082   4.095   2.189   0.032 -0.6120 -2.9601 -3.4926
  148ACOH    H210083   4.112   2.013   0.079  0.9338  0.9742  1.0638
  148ACOH    H310084   4.183   2.141   0.170  0.0516  0.2720 -0.1042
  149ACOH    H410085   4.352   3.890   0.428 -0.9952  3.8777  3.9422
  149ACOH    O210086   4.429   3.859   0.479  0.3951  0.4940  0.0821
  149ACOH    C210087   4.458   3.960   0.558  0.8371  0.4434  0.3077
  149ACOH    O110088   4.406   4.068   0.560 -0.1152 -0.1753  0.1618
  149ACOH    C110089   4.571   3.927   0.659 -0.0068  0.8646  0.2118
  149ACOH    H110090   4.528   3.858   0.732 -1.4445  1.7128  0.2052
  149ACOH    H210091   4.613   4.017   0.706  0.2719 -0.2983  2.2326
  149ACOH    H310092   4.648   3.878   0.600 -0.7953  0.5098 -0.5277
  150ACOH    H410093   3.629   9.209   0.109 -0.3470 -0.5282 -0.8158
  150ACOH    O210094   3.574   9.139   0.148  0.3390 -0.8751 -0.4540
  150ACOH    C210095   3.449   9.184   0.119 -0.3073 -0.0021 -0.9183
  150ACOH    O110096   3.397   9.284   0.062 -0.4844 -0.2358 -0.6002
  150ACOH    C110097   3.354   9.096   0.190  0.4177 -0.6327  0.4104
  150ACOH    H110098   3.256   9.139   0.169  1.1892  0.7559 -0.3916
  150ACOH    H210099   3.369   9.101   0.298  1.3418 -1.8330  0.3487
  150ACOH    H310100   3.359   8.991   0.162 -1.3125 -0.0742 -2.1933
  151SOL     OW10101   2.906   3.333   0.840 -0.1656 -0.4945 -0.2391
  151SOL    HW110102   2.822   3.305   0.794  0.8764 -1.9600 -1.2836
  151SOL    HW210103   2.900   3.311   0.937 -1.3225  0.2091 -0.1334
  152SOL     OW10104   3.206   3.039   1.317 -0.2977 -0.1090  0.1023
  152SOL    HW110105   3.122   3.080   1.353 -0.4514  0.0325 -0.4031
  152SOL    HW210106   3.206   3.047   1.217  0.6106  0.4523  0.1443
  153SOL     OW10107   3.538   1.874   2.852  0.6140 -0.4336  0.2279
  153SOL    HW110108   3.501   1.900   2.941  1.4447 -2.0922  1.0806
  153SOL    HW210109   3.518   1.946   2.785  1.3555  1.5611  2.1093
  154SOL     OW10110   3.079   1.359   0.034 -0.1315 -0.5599 -0.3300
  154SOL    HW110111   3.114   1.438  -0.015  0.3587 -0.4009  0.2782
  154SOL    HW210112   3.057   1.385   0.128 -0.9127 -0.9042 -0.4106
  155SOL     OW10113   3.369   3.293   0.527 -0.5409  0.3550 -0.1025
  155SOL    HW110114   3.433   3.365   0.553 -0.1247 -0.5890  1.5565
  155SOL    HW210115   3.307   3.275   0.604 -0.1793 -1.5370 -0.2420
  156SOL     OW10116   3.504   1.747   2.223  0.4039  0.6189 -0.0113
  156SOL    HW110117   3.533   1.822   2.282 -0.0432  0.9541 -0.2223
  156SOL    HW210118   3.559   1.666   2.244  1.1611  1.1128 -0.0633
  157SOL     OW10119   2.510   2.720   0.936 -0.2370  0.4399  0.2930
  157SOL    HW110120   2.464   2.801   0.972  0.5676  1.9904 -2.0192
  157SOL    HW210121   2.467   2.693   0.850 -0.2048 -1.3433  0.8113
  158SOL     OW10122   2.823   1.656   0.834  0.1236 -0.3677  0.3265
  158SOL    HW110123   2.825   1.565   0.876 -3.6720 -1.0678 -0.7865
  158SOL    HW210124   2.874   1.655   0.748  2.4099 -0.6586  1.6358
  159SOL     OW10125   3.203   2.673   0.331 -0.0836 -0.3635 -0.9769
  159SOL    HW110126   3.200   2.624   0.418  3.1301  1.2040  0.0942
  159SOL    HW210127   3.212   2.607   0.256  0.7485 -1.5772  0.1574
  160SOL     OW10128   3.164   2.725   1.155 -0.0454  0.0486 -0.1995
  160SOL    HW110129   3.125   2.812   1.187  1.6808  1.7434 -2.4890
  160SOL    HW210130   3.097   2.677   1.099 -0.5161  0.6089 -0.1185
  161SOL     OW10131   2.497   2.063   1.679  0.3360  0.3414 -0.1166
  161SOL    HW110132   2.472   2.160   1.685 -1.5782 -0.0134 -1.7988
  161SOL    HW210133   2.499   2.023   1.771 -2.6583  1.0852  0.3250
  162SOL     OW10134   3.189   9.468   0.237 -0.3005 -0.5944 -0.3479
  162SOL    HW110135   3.207   9.465   0.138 -0.0052 -1.6277 -0.2626
  162SOL    HW210136   3.141   9.554   0.259  1.7609  0.7698 -1.0205
  163SOL     OW10137   3.552   3.258   0.757 -0.7616 -0.1519 -0.4992
  163SOL    HW110138   3.516   3.293   0.843  0.7018  2.0943 -0.7750
  163SOL    HW210139   3.647   3.229   0.770 -1.6936 -3.4398 -0.4571
  164SOL     OW10140   2.288   1.834   0.226  0.8359  0.1428  0.3448
  164SOL    HW110141   2.215   1.902   0.214 -0.6970 -1.3302  1.2060
  164SOL    HW210142   2.357   1.847   0.154 -0.0648  1.7887 -0.2583
  165SOL     OW10143   3.799   1.624   0.641  0.6896 -0.1906 -0.9421
  165SOL    HW110144   3.876   1.648   0.700 -1.1729  0.8495  1.1448
  165SOL    HW210145   3.752   1.708   0.613 -0.9002 -0.9280 -0.4968
  166SOL     OW10146   3.194   3.245   0.988 -0.2592  0.3802  0.5394
  166SOL    HW110147   3.229   3.276   0.900  1.6791 -0.4349  0.9880
  166SOL    HW210148   3.166   3.149   0.981 -0.8075  0.5376  0.6069
  167SOL     OW10149   3.605   9.619   1.035  0.4838  0.3733 -0.0578
  167SOL    HW110150   3.522   9.625   0.980  0.6284 -1.4857 -0.5010
  167SOL    HW210151   3.588   9.658   1.125 -0.1123  2.3257 -0.9702
  168SOL     OW10152   3.362   2.463   1.766  0.4007 -0.1552 -0.1518
  168SOL    HW110153   3.320   2.554   1.767  1.6318  0.4521 -1.6858
  168SOL    HW210154   3.317   2.407   1.696 -1.0415 -1.0813  1.4848
  169SOL     OW10155   3.726   4.219   0.172 -0.0825  0.0879 -0.3730
  169SOL    HW110156   3.774   4.134   0.150 -1.9652 -0.9202 -0.6282
  169SOL    HW210157   3.647   4.199   0.230 -0.4020  1.6950 -0.2411
  170SOL     OW10158   2.682   1.906   0.826  0.1319 -0.5156  0.1298
  170SOL    HW110159   2.734   1.820   0.829  0.3766 -0.3482  0.6780
  170SOL    HW210160   2.592   1.893   0.866  0.3715 -0.3757  0.7135
  171SOL     OW10161   3.146   1.891   0.879  0.0888  0.5573 -0.0974
  171SOL    HW110162   3.178   1.936   0.962  2.5856  1.2526 -1.3729
  171SOL    HW210163   3.184   1.799   0.874  0.2783  0.6586 -0.6380
  172SOL     OW10164   4.148   1.101   0.729  0.0617  0.7761 -0.0009
  172SOL    HW110165   4.205   1.116   0.647 -0.6266  2.0499 -0.2563
  172SOL    HW210166   4.171   1.169   0.798 -0.5801  0.7871  0.2049
  173SOL     OW10167   4.008   3.419   1.957 -0.2711 -0.5440  0.1375
  173SOL    HW110168   3.912   3.393   1.965 -0.3269 -0.2482  0.4439
  173SOL    HW210169   4.014   3.505   1.905 -0.5024  1.6844  3.6496
  174SOL     OW10170   3.894   4.264   1.821  0.3593  0.0290  0.2545
  174SOL    HW110171   3.916   4.313   1.737  0.6799 -0.8136 -0.1625
  174SOL    HW210172   3.831   4.319   1.877  0.6080  0.8408 -0.2638
  175SOL     OW10173   2.984   0.749   1.862  0.7519  0.8802  0.1422
  175SOL    HW110174   2.900   0.723   1.911  0.7861  0.6165  0.0616
  175SOL    HW210175   3.009   0.842   1.886 -1.2865  2.0695 -2.1961
  176SOL     OW10176   3.498   3.783   0.654 -0.2481  0.4226  0.2814
  176SOL    HW110177   3.583   3.830   0.630 -0.2511  0.0371 -0.5208
  176SOL    HW210178   3.515   3.684   0.659 -0.5558  0.3807  0.5431
  177SOL     OW10179   4.276   4.381   1.906 -1.1929 -0.0981 -0.4723
  177SOL    HW110180   4.268   4.290   1.866 -0.5112 -0.7748  0.8725
  177SOL    HW210181   4.256   4.376   2.004 -0.5131  1.0933 -0.2580
  178SOL     OW10182   2.720   1.346   2.868  0.4037  0.0555 -0.4429
  178SOL    HW110183   2.649   1.295   2.820 -0.7601  1.3461 -0.1505
  178SOL    HW210184   2.760   1.413   2.806 -0.1911  0.8274 -0.0167
  179SOL     OW10185   3.909   2.286   0.960  0.6147  0.5733  0.0138
  179SOL    HW110186   3.853   2.357   1.003  1.7074  0.8222  1.0460
  179SOL    HW210187   3.910   2.300   0.861 -1.3052  0.4504 -0.0444
  180SOL     OW10188   3.405   1.000   0.674  0.0824  0.1142  0.7302
  180SOL    HW110189   3.307   1.010   0.661  0.1272 -0.7940 -0.3873
  180SOL    HW210190   3.454   1.057   0.608  0.3087 -0.6362  0.2473
  181SOL     OW10191   3.630   2.627   0.357 -0.5370 -0.1543  0.4487
  181SOL    HW110192   3.621   2.726   0.344 -1.7636 -0.3553 -0.2848
  181SOL    HW210193   3.642   2.583   0.268 -2.8622 -0.9362  0.4883
  182SOL     OW10194   2.471   3.039   0.658 -0.1283 -0.4098  0.0568
  182SOL    HW110195   2.377   3.053   0.691  1.0038 -0.8280  3.7179
  182SOL    HW210196   2.476   2.951   0.611 -1.4475 -0.7075  0.4229
  183SOL     OW10197   3.109   0.657   2.809 -0.3130 -0.9213  0.3992
  183SOL    HW110198   3.010   0.654   2.798 -0.3583  0.4755  0.4025
  183SOL    HW210199   3.153   0.637   2.721 -0.6003 -0.5994  0.1836
  184SOL     OW10200   3.833   9.642   0.623 -0.8403 -0.4664 -0.1379
  184SOL    HW110201   3.891   9.589   0.561 -0.5660  1.5966 -1.7244
  184SOL    HW210202   3.746   9.662   0.579 -0.3650  1.6461 -0.2008
  185SOL     OW10203   3.597   1.616   2.732 -0.5009 -0.5173 -0.3415
  185SOL    HW110204   3.554   1.690   2.784 -1.6087 -1.0665 -0.4719
  185SOL    HW210205   3.662   1.655   2.667 -0.4265  0.2846  0.2031
  186SOL     OW10206   3.012   1.008   1.873  0.0553  0.6975  0.8819
  186SOL    HW110207   2.935   0.963   1.827  0.6063 -1.4731  2.0097
  186SOL    HW210208   2.977   1.075   1.938 -0.7920  1.8342 -0.7272
  187SOL     OW10209   4.471   1.775   0.824 -0.3515  0.5078 -0.4139
  187SOL    HW110210   4.474   1.810   0.918  2.9574  0.5510 -0.5113
  187SOL    HW210211   4.531   1.696   0.814 -2.0827 -0.6688 -2.0803
  188SOL     OW10212   2.803   0.103   2.819  0.2080  0.7784 -0.5045
  188SOL    HW110213   2.846   0.012   2.813 -2.8237 -0.9741  2.5584
  188SOL    HW210214   2.869   0.168   2.857  1.1362 -1.1402  1.3009
  189SOL     OW10215   4.151   3.795   1.364  0.6013 -0.0205  0.0091
  189SOL    HW110216   4.060   3.834   1.374  0.1340 -1.0362 -0.1492
  189SOL    HW210217   4.194   3.787   1.454 -0.0390 -0.8425  0.2574
  190SOL     OW10218   2.635   0.973   0.025 -0.0481  0.0674 -0.0159
  190SOL    HW110219   2.621   0.899   0.091  3.1505 -1.2873 -0.7809
  190SOL    HW210220   2.686   1.047   0.069  3.2651 -1.4057 -1.2467
  191SOL     OW10221   3.093   2.999   1.024 -0.3558  1.3762 -0.2551
  191SOL    HW110222   2.996   3.005   1.045 -0.3496  2.8289 -0.5969
  191SOL    HW210223   3.105   2.949   0.938 -0.6002 -1.3330  1.2418
  192SOL     OW10224   2.626   9.952   2.376 -1.1565 -0.8087  0.0171
  192SOL    HW110225   2.597   9.984   2.466 -0.4161  1.9238 -0.6675
  192SOL    HW210226   2.565   9.879   2.345 -2.2484 -0.8201  2.1279
  193SOL     OW10227   2.764   9.839   1.833 -0.2726  0.2864  0.2800
  193SOL    HW110228   2.774   9.868   1.738 -0.3209 -0.7807 -0.0630
  193SOL    HW210229   2.796   9.911   1.894 -0.4155  1.0527 -0.5425
  194SOL     OW10230   4.983   3.955   2.164  0.5108 -0.0369  0.4010
  194SOL    HW110231   4.972   3.944   2.065  4.5019  3.4568 -0.5932
  194SOL    HW210232   4.912   4.017   2.198 -0.9118 -1.2886 -0.2292
  195SOL     OW10233   3.932   2.637   0.027 -0.0333  0.7434 -0.2224
  195SOL    HW110234   3.941   2.572   0.102  2.4877  2.6008  1.1786
  195SOL    HW210235   3.902   2.589  -0.055 -2.2590 -1.4367  1.7899
  196SOL     OW10236   4.276   2.210   2.371  0.2083 -0.0981 -0.0986
  196SOL    HW110237   4.200   2.145   2.379 -0.3924  0.1099 -3.3575
  196SOL    HW210238   4.357   2.172   2.414 -1.5123 -0.6769  2.7286
  197SOL     OW10239   2.480   1.855   1.011 -0.2672 -1.1312  0.1169
  197SOL    HW110240   2.460   1.788   1.083  0.5808  0.2533  1.6709
  197SOL    HW210241   2.430   1.940   1.030  1.7169  0.0129  0.3190
  198SOL     OW10242   2.495   0.421   2.655 -0.0084 -0.5996  0.2211
  198SOL    HW110243   2.409   0.438   2.704 -0.1002 -0.0157 -0.1436
  198SOL    HW210244   2.503   0.485   2.579 -0.0649 -1.7565 -0.7783
  199SOL     OW10245   3.725   1.468   0.948 -0.3994 -0.3800 -0.9370
  199SOL    HW110246   3.680   1.529   0.882 -1.8870 -1.3335 -0.8135
  199SOL    HW210247   3.746   1.520   1.031 -2.6401 -0.2516 -0.4074
  200SOL     OW10248   3.595   1.010   0.060  0.4346  0.1167 -0.5341
  200SOL    HW110249   3.680   1.058   0.082 -0.3831  1.0511  0.6785
  200SOL    HW210250   3.572   0.948   0.135  0.7061 -1.0754 -1.4322
  201SOL     OW10251   4.175   0.958   2.580 -0.5333 -0.4367  0.7727
  201SOL    HW110252   4.189   0.865   2.546 -0.4614 -0.6145  1.2838
  201SOL    HW210253   4.180   1.023   2.504 -0.8731 -0.8785  0.3763
  202SOL     OW10254   4.128   3.335   1.709  0.3373 -0.4937 -0.0357
  202SOL    HW110255   4.108   3.408   1.775 -3.2678 -0.9081 -0.5522
  202SOL    HW210256   4.140   3.249   1.757 -1.8239 -0.7097  0.1565
  203SOL     OW10257   2.814   1.471   0.356  0.1063  0.0405 -0.4022
  203SOL    HW110258   2.755   1.456   0.277  0.6617  0.0840 -0.8223
  203SOL    HW210259   2.908   1.485   0.326  0.3477 -0.1047  0.2744
  204SOL     OW10260   3.432   2.812   1.052 -0.3361 -0.2224 -0.1330
  204SOL    HW110261   3.346   2.777   1.089 -0.1165 -1.1269 -0.4640
  204SOL    HW210262   3.429   2.912   1.049  0.2821  0.0307  3.9862
  205SOL     OW10263   3.178   1.728   1.993 -0.2421 -0.3337 -0.1195
  205SOL    HW110264   3.268   1.709   1.953 -0.1578  1.2604 -0.7280
  205SOL    HW210265   3.188   1.753   2.089 -0.1195 -0.8567  0.0083
  206SOL     OW10266   2.866   2.832   1.248 -0.1899  0.0778 -0.0082
  206SOL    HW110267   2.857   2.927   1.279  0.6031  0.3593 -0.6050
  206SOL    HW210268   2.818   2.821   1.161 -0.9888 -0.2811  0.4773
  207SOL     OW10269   3.245   9.942   2.727 -0.5899  0.1332  0.7465
  207SOL    HW110270   3.321   9.880   2.746 -3.1006 -3.4824 -0.5245
  207SOL    HW210271   3.270  10.005   2.654  0.8072 -1.7453 -0.4261
  208SOL     OW10272   2.516   2.203   0.933  0.7775  0.1991 -0.5271
  208SOL    HW110273   2.541   2.164   0.844  0.6354 -1.7649  0.2490
  208SOL    HW210274   2.559   2.148   1.005 -0.8767  0.4396  0.6559
  209SOL     OW10275   3.739   1.420   2.539 -0.2031 -0.3474 -0.8291
  209SOL    HW110276   3.652   1.372   2.528 -0.6698  0.6383 -1.5599
  209SOL    HW210277   3.729   1.515   2.508  0.8380  0.0857  0.1030
  210SOL     OW10278   3.601   9.982   0.494 -0.2410 -1.0632  0.0381
  210SOL    HW110279   3.541  10.054   0.459  2.6276  0.7093 -1.4652
  210SOL    HW210280   3.573   9.958   0.587 -4.4814 -1.7853 -1.3216
  211SOL     OW10281   2.534   1.758   1.475 -0.0767  0.0142 -0.3958
  211SOL    HW110282   2.601   1.825   1.442  0.6825 -0.1658  0.7952
  211SOL    HW210283   2.484   1.797   1.552  1.9022 -1.5932  1.7638
  212SOL     OW10284   3.286   0.711   1.904 -0.3258 -0.3668  0.2777
  212SOL    HW110285   3.281   0.772   1.984 -0.4673  1.2158 -0.9077
  212SOL    HW210286   3.268   0.764   1.821  0.2792 -1.9017 -0.8502
  213SOL     OW10287   4.591   3.655   2.699  1.1069 -0.1680  0.3622
  213SOL    HW110288   4.612   3.576   2.640  0.9492  2.2436 -3.0681
  213SOL    HW210289   4.616   3.634   2.793  1.1828 -4.2629 -0.4870
  214SOL     OW10290   4.226   4.185   2.498 -0.1133  0.7973  0.2882
  214SOL    HW110291   4.287   4.215   2.425  0.3618 -0.7800  0.0101
  214SOL    HW210292   4.278   4.165   2.580  0.1026 -2.5984 -0.5806
  215SOL     OW10293   3.655   1.535   2.282  0.4088  0.9627  0.0506
  215SOL    HW110294   3.583   1.466   2.289  0.2752  1.1667  0.6950
  215SOL    HW210295   3.743   1.490   2.269  0.7523  0.5167  3.5322
  216SOL     OW10296   3.853   9.899   0.669 -0.0659  0.7348 -0.1017
  216SOL    HW110297   3.846   9.799   0.662 -3.3582  0.9156 -0.0028
  216SOL    HW210298   3.914   9.922   0.745  2.6547 -1.1578 -1.6161
  217SOL     OW10299   3.644   4.233   2.637  0.0128 -0.6720 -0.7324
  217SOL    HW110300   3.623   4.135   2.628  1.2864 -0.9774 -0.4877
  217SOL    HW210301   3.641   4.258   2.734 -2.0246 -0.0687 -0.9406
  218SOL     OW10302   2.809   0.920   1.707 -0.0481  0.4917  0.2503
  218SOL    HW110303   2.760   0.946   1.623 -0.4156  0.9645  0.6073
  218SOL    HW210304   2.859   0.835   1.692 -2.0250 -0.6797  0.2841
  219SOL     OW10305   2.585   2.073   1.973  0.3472 -0.0095  0.2280
  219SOL    HW110306   2.556   2.009   2.045  0.6713  1.5990  1.8246
  219SOL    HW210307   2.574   2.167   2.006  0.4814  0.7535 -1.8574
  220SOL     OW10308   2.664   2.051   0.256 -0.2947 -0.2559 -0.2871
  220SOL    HW110309   2.701   1.998   0.332  1.2158  0.8948 -0.1759
  220SOL    HW210310   2.601   2.120   0.291 -0.9682 -0.8791 -0.2653
  221SOL     OW10311   3.964   2.247   2.409 -0.0879 -0.2821  0.2007
  221SOL    HW110312   4.015   2.222   2.492 -1.3336 -2.1703  0.4225
  221SOL    HW210313   3.875   2.285   2.435 -1.1839 -2.4549 -0.2642
  222SOL     OW10314   2.869   1.589   2.435 -0.4377  0.7347  0.7863
  222SOL    HW110315   2.908   1.677   2.462  1.4486  0.0644  0.3174
  222SOL    HW210316   2.899   1.566   2.342 -2.6403  0.5728  0.0940
  223SOL     OW10317   4.186   3.008   1.800  0.4821 -0.6640  0.3090
  223SOL    HW110318   4.188   3.084   1.866 -0.5548  0.4519 -0.9048
  223SOL    HW210319   4.276   2.999   1.757  0.4532  0.2657  0.0394
  224SOL     OW10320   3.858   3.075   1.321  0.3130 -0.1168  0.0274
  224SOL    HW110321   3.803   3.082   1.404  1.7125 -0.0772  0.9590
  224SOL    HW210322   3.947   3.036   1.343  0.0790 -1.7252 -1.7454
  225SOL     OW10323   3.144   1.893   2.774 -0.5886 -0.6663  0.6478
  225SOL    HW110324   3.161   1.938   2.861 -1.6106  3.1811 -1.0351
  225SOL    HW210325   3.054   1.848   2.777 -1.3019  0.7810  1.0522
  226SOL     OW10326   4.421   2.958   2.312 -0.7827  0.2024  0.7898
  226SOL    HW110327   4.460   3.014   2.385 -2.7070 -0.4221  2.3480
  226SOL    HW210328   4.454   2.864   2.321 -0.6751  0.2189  0.5758
  227SOL     OW10329   2.944   2.250   0.539  0.2763  0.6114  0.6572
  227SOL    HW110330   2.925   2.191   0.618  0.1396 -0.7180 -0.3494
  227SOL    HW210331   3.025   2.216   0.491 -0.2327  0.8188 -0.3529
  228SOL     OW10332   3.026   3.689   2.472  0.0671 -0.1938 -0.8248
  228SOL    HW110333   2.955   3.661   2.537 -0.5487  1.3051 -0.8313
  228SOL    HW210334   3.093   3.615   2.461 -0.3653 -0.8323  0.7572
  229SOL     OW10335   4.169   0.714   2.483  0.1686  0.6763  0.2207
  229SOL    HW110336   4.177   0.726   2.384  1.5419 -3.4449 -0.2402
  229SOL    HW210337   4.088   0.658   2.504 -0.4557  2.0145  1.5127
  230SOL     OW10338   3.628   3.234   1.271  0.0640 -0.7291 -0.3343
  230SOL    HW110339   3.564   3.252   1.345 -0.0384 -0.6846 -0.4342
  230SOL    HW210340   3.687   3.157   1.296 -1.6991 -2.4324 -1.2887
  231SOL     OW10341   3.524   1.314   0.822 -0.5688  0.4937  0.4358
  231SOL    HW110342   3.546   1.264   0.739 -0.6613  2.7465 -0.9872
  231SOL    HW210343   3.609   1.350   0.862 -0.6393  0.3857  0.6820
  232SOL     OW10344   4.280   3.688   0.055 -0.1575 -0.4530  0.8039
  232SOL    HW110345   4.318   3.683   0.147  1.9443  1.0568  0.0634
  232SOL    HW210346   4.303   3.777   0.015 -1.0932 -1.0736 -1.1442
  233SOL     OW10347   3.001   2.559   1.018 -0.5049  0.0529 -0.3577
  233SOL    HW110348   3.011   2.461   1.005  1.9792  0.3169 -0.6766
  233SOL    HW210349   2.921   2.577   1.076 -0.8884 -2.1422 -0.1660
  234SOL     OW10350   3.041   9.397   1.570  0.6327 -0.3360 -0.4470
  234SOL    HW110351   3.058   9.299   1.563  0.9372 -0.1953 -1.7740
  234SOL    HW210352   3.067   9.429   1.662 -0.4612 -1.6711  0.3419
  235SOL     OW10353   3.557   9.687   1.304 -0.1616  0.1304 -0.3300
  235SOL    HW110354   3.468   9.670   1.346  0.2368  1.0680  0.9180
  235SOL    HW210355   3.626   9.629   1.347  0.0281  0.2042 -0.5366
  236SOL     OW10356   3.389   2.311   0.897  0.0208  0.5282  0.9015
  236SOL    HW110357   3.323   2.294   0.824 -0.1832  0.2704  1.1441
  236SOL    HW210358   3.428   2.402   0.886 -1.2710  1.1455  1.4528
  237SOL     OW10359   3.748   2.079   1.907 -0.4609 -0.2047  0.1189
  237SOL    HW110360   3.648   2.089   1.897 -0.5864 -0.3400  1.2594
  237SOL    HW210361   3.779   2.129   1.988  0.2041 -1.3648  0.5837
  238SOL     OW10362   3.280   0.797   0.118 -0.1668  0.3451 -0.0187
  238SOL    HW110363   3.215   0.734   0.074  2.3511 -2.7303  0.5240
  238SOL    HW210364   3.309   0.867   0.051 -1.5082 -0.2110 -1.2115
  239SOL     OW10365   2.417   2.700   0.662 -0.1023  0.6011 -0.7163
  239SOL    HW110366   2.395   2.604   0.648  0.9462  0.3783 -0.8581
  239SOL    HW210367   2.464   2.736   0.581  1.6091  0.6006  0.2489
  240SOL     OW10368   3.446   3.163   0.302  0.4324  0.1044 -0.0113
  240SOL    HW110369   3.402   3.212   0.378 -1.2842 -0.6228 -0.5107
  240SOL    HW210370   3.460   3.067   0.328 -0.3747 -0.2020 -0.6939
  241SOL     OW10371   3.871   1.180   0.091 -0.5171 -0.1320  0.0777
  241SOL    HW110372   3.964   1.215   0.075 -1.0828  1.5397  0.2901
  241SOL    HW210373   3.849   1.187   0.189 -1.4559  1.0444 -0.2030
  242SOL     OW10374   2.773   0.369   2.230  0.0443 -0.0733 -0.2935
  242SOL    HW110375   2.719   0.285   2.220  1.2230 -0.6570 -2.1554
  242SOL    HW210376   2.822   0.367   2.317 -1.8244 -0.1780  0.7768
  243SOL     OW10377   3.938   0.619   0.290 -0.1459  0.1914  0.4156
  243SOL    HW110378   3.935   0.695   0.225 -2.6884  1.0989  1.4972
  243SOL    HW210379   4.006   0.552   0.261  0.9787  2.0900 -1.4498
  244SOL     OW10380   4.032   1.883   1.098  0.2472  0.0756  0.5225
  244SOL    HW110381   3.932   1.881   1.102  0.1785  0.2440 -0.8078
  244SOL    HW210382   4.064   1.975   1.119  0.0490  0.3208 -0.2230
  245SOL     OW10383   4.524   1.329   1.447  0.2694 -0.1322  0.1170
  245SOL    HW110384   4.623   1.316   1.452  0.5407  1.3892 -0.8735
  245SOL    HW210385   4.498   1.414   1.493 -0.6192 -0.6508  0.6020
  246SOL     OW10386   3.790   2.954   0.687 -0.5892 -0.5571  0.5205
  246SOL    HW110387   3.692   2.955   0.711 -0.7920 -0.9034 -0.2928
  246SOL    HW210388   3.841   2.905   0.757 -0.8484  0.5792  1.5231
  247SOL     OW10389   2.757   1.410   1.272  0.1115 -0.0472 -0.3586
  247SOL    HW110390   2.680   1.350   1.253  0.3407 -0.0148 -1.4145
  247SOL    HW210391   2.837   1.378   1.222 -0.0849  1.8364 -1.9571
  248SOL     OW10392   3.444   0.942   1.203  0.2054  0.0209 -0.0285
  248SOL    HW110393   3.460   0.955   1.105  0.5530  0.4724  0.0867
  248SOL    HW210394   3.503   0.868   1.237  0.8708  0.5930  0.0617
  249SOL     OW10395   3.541   1.707   1.396 -0.3257  0.1443 -0.2086
  249SOL    HW110396   3.534   1.647   1.317 -2.7844  0.5494 -0.3351
  249SOL    HW210397   3.521   1.801   1.369 -0.8802  0.3321  0.8330
  250SOL     OW10398   4.125   1.239   0.031 -0.2641  0.7308 -0.0625
  250SOL    HW110399   4.176   1.233   0.117 -0.7485  0.3540  0.1996
  250SOL    HW210400   4.185   1.213  -0.045 -0.1675 -0.0770  0.2850
  251SOL     OW10401   3.043   3.303   1.205  0.4677 -0.5592  0.0220
  251SOL    HW110402   3.093   3.271   1.125  0.3333  0.0689 -0.3206
  251SOL    HW210403   3.083   3.390   1.236 -1.8564  1.1632 -1.6712
  252SOL     OW10404   4.011   3.391   2.823  0.0651 -0.6799 -0.0830
  252SOL    HW110405   3.957   3.315   2.786  0.7909 -0.9006 -0.6983
  252SOL    HW210406   3.975   3.417   2.913  0.6205 -2.6475  0.7413
  253SOL     OW10407   2.897   2.056   2.649 -0.5367  0.5191  0.2465
  253SOL    HW110408   2.843   2.027   2.728  0.2662 -0.6698  0.3531
  253SOL    HW210409   2.972   2.114   2.680 -0.2220  0.0535  0.3607
  254SOL     OW10410   2.638   0.146   2.189  0.6601  0.4727 -0.3383
  254SOL    HW110411   2.629   0.091   2.273  2.8541  0.3502 -0.1466
  254SOL    HW210412   2.580   0.108   2.118  2.0276 -2.0558 -0.1564
  255SOL     OW10413   3.194   1.302   1.798  1.1074 -0.3162  0.5888
  255SOL    HW110414   3.248   1.375   1.756  1.0907 -0.9069 -0.4906
  255SOL    HW210415   3.254   1.228   1.827  0.7772 -1.7222 -2.1386
  256SOL     OW10416   3.235   2.801   1.498 -0.6939 -0.0541  0.2174
  256SOL    HW110417   3.221   2.893   1.462 -0.0346  0.5869  1.6007
  256SOL    HW210418   3.317   2.761   1.457  0.0328  0.6576  0.9891
  257SOL     OW10419   2.896   0.200   1.653  0.1149 -0.0764 -0.0222
  257SOL    HW110420   2.985   0.203   1.699  1.3434 -2.4806 -2.1494
  257SOL    HW210421   2.880   0.288   1.608  0.1869  1.3043  2.5097
  258SOL     OW10422   3.366   3.698   2.669 -0.2360 -0.6640 -0.7711
  258SOL    HW110423   3.427   3.740   2.737  0.7768 -1.5503 -1.1212
  258SOL    HW210424   3.356   3.761   2.591 -1.9981  0.6789  0.5024
  259SOL     OW10425   4.665   2.508   1.790 -0.4666 -0.3936 -0.0004
  259SOL    HW110426   4.650   2.409   1.792 -2.6664 -0.1060 -0.5682
  259SOL    HW210427   4.644   2.546   1.880 -0.9244 -0.2826 -0.1520
  260SOL     OW10428   2.548   1.711   2.551  0.1435 -0.2130  0.3789
  260SOL    HW110429   2.574   1.790   2.496  0.7737 -0.9003 -0.3265
  260SOL    HW210430   2.522   1.635   2.491 -0.8547 -0.4161  1.0502
  261SOL     OW10431   4.308   3.046   0.212 -0.1706  0.1598 -0.1613
  261SOL    HW110432   4.239   2.995   0.160  0.1377  1.0082 -1.4258
  261SOL    HW210433   4.348   2.986   0.281 -0.6563 -0.9654 -0.8306
  262SOL     OW10434   2.977   3.290   1.998  0.1517 -0.0183 -0.8320
  262SOL    HW110435   3.038   3.355   2.043  0.1299  0.7151 -1.8403
  262SOL    HW210436   2.888   3.290   2.044 -0.1242  1.3006 -1.3611
  263SOL     OW10437   4.047   2.551   0.626 -0.4393  0.3577 -0.2988
  263SOL    HW110438   4.045   2.607   0.542 -1.9417 -0.3148 -0.7345
  263SOL    HW210439   4.107   2.594   0.693  1.4642  0.4579 -2.0291
  264SOL     OW10440   2.846   1.272   2.520 -0.5822 -0.2272 -0.2775
  264SOL    HW110441   2.846   1.368   2.546 -1.2627 -0.3468  0.1816
  264SOL    HW210442   2.935   1.248   2.482 -0.1003  0.3620  0.4626
  265SOL     OW10443   2.595   2.247   2.212 -0.3550 -0.2403 -0.1395
  265SOL    HW110444   2.684   2.238   2.169 -0.0674 -0.1239  0.4256
  265SOL    HW210445   2.592   2.192   2.296 -1.7615 -2.4719 -1.6008
  266SOL     OW10446   2.518   2.081   2.658  0.1246  0.2632 -0.7760
  266SOL    HW110447   2.442   2.137   2.693  0.0966 -0.2545 -0.0203
  266SOL    HW210448   2.540   2.111   2.565 -0.7350  0.6956 -0.8489
  267SOL     OW10449   2.987   3.134   1.515 -0.8313 -0.0430 -0.2142
  267SOL    HW110450   3.015   3.091   1.601  1.4352 -1.5531 -1.6387
  267SOL    HW210451   3.014   3.230   1.516  1.3194 -0.6199 -0.1389
  268SOL     OW10452   3.078   1.789   1.386  0.1391  0.4853  0.5300
  268SOL    HW110453   3.021   1.724   1.437 -0.8495  0.4552 -0.5900
  268SOL    HW210454   3.174   1.767   1.401 -0.1489  0.0281  1.7943
  269SOL     OW10455   3.920   2.818   0.909  0.0777 -0.3662  0.2139
  269SOL    HW110456   3.980   2.866   0.973  0.1378  0.3582 -0.3747
  269SOL    HW210457   3.974   2.753   0.855  0.3847  0.4171 -0.4449
  270SOL     OW10458   3.667   4.027   2.117 -0.5665 -0.7656 -0.0124
  270SOL    HW110459   3.674   3.930   2.142  0.6583 -0.7205 -0.1222
  270SOL    HW210460   3.625   4.036   2.027  0.6144 -1.2843 -0.6288
  271SOL     OW10461   4.176   0.937   1.489 -0.1057  0.5770  0.1523
  271SOL    HW110462   4.091   0.935   1.542  0.4448  0.8506  1.0498
  271SOL    HW210463   4.250   0.975   1.545  0.3165  1.5622 -1.0512
  272SOL     OW10464   3.703   0.467   0.306  0.2715  0.0593 -0.9317
  272SOL    HW110465   3.791   0.500   0.339  0.4141  0.1013 -1.3492
  272SOL    HW210466   3.633   0.537   0.319  0.1974 -0.1525 -0.1609
  273SOL     OW10467   2.876   0.368   2.476 -0.2143  0.3362  0.6207
  273SOL    HW110468   2.972   0.343   2.487 -0.4022 -0.2272  0.9880
  273SOL    HW210469   2.819   0.305   2.529 -0.6001  2.4357  2.8158
  274SOL     OW10470   3.081   3.377   0.395 -0.2411  0.2695 -0.2643
  274SOL    HW110471   3.121   3.389   0.486  0.8942 -0.5443 -0.6329
  274SOL    HW210472   2.987   3.344   0.404 -0.1530  0.2401  0.6139
  275SOL     OW10473   4.384   2.166   0.914  0.4625  0.0994  0.8407
  275SOL    HW110474   4.482   2.186   0.914  0.4807  0.0092  0.4335
  275SOL    HW210475   4.370   2.071   0.941  0.4900  0.0839  0.8001
  276SOL     OW10476   3.781   9.051   0.660  0.0689 -0.1139  0.1930
  276SOL    HW110477   3.825   9.122   0.605  0.1214  1.2104  1.8756
  276SOL    HW210478   3.682   9.055   0.647  0.0782  0.2368  0.2142
  277SOL     OW10479   2.376   1.921   2.863 -1.0911 -0.3698 -0.3434
  277SOL    HW110480   2.421   1.971   2.789 -0.8346  0.4006  0.3309
  277SOL    HW210481   2.288   1.887   2.830 -1.1977  0.3822 -0.8551
  278SOL     OW10482   3.497   2.635   0.749  0.1673 -0.1885 -0.0807
  278SOL    HW110483   3.450   2.680   0.825  0.8028  0.2061  0.0765
  278SOL    HW210484   3.595   2.654   0.754  0.1417  0.3239 -1.3196
  279SOL     OW10485   3.439   1.008   2.701  0.1970 -0.0290 -0.2613
  279SOL    HW110486   3.497   1.026   2.781 -0.7349  0.1209  0.3917
  279SOL    HW210487   3.443   0.910   2.679 -0.3563 -0.2557  0.6150
  280SOL     OW10488   2.762   1.549   2.691  0.1335  0.3899  0.2689
  280SOL    HW110489   2.672   1.592   2.693 -1.1100 -2.0928 -1.0277
  280SOL    HW210490   2.795   1.546   2.597  1.0203  0.1171  0.5835
  281SOL     OW10491   3.314   9.629   1.459  0.4014  0.4709 -0.3063
  281SOL    HW110492   3.264   9.547   1.489 -0.3054  1.0307  0.0436
  281SOL    HW210493   3.327   9.690   1.537  0.4410  0.9484 -0.6896
  282SOL     OW10494   3.490   2.152   1.798 -0.3853 -0.0657  0.5679
  282SOL    HW110495   3.430   2.216   1.845 -0.0468  0.8244 -0.2063
  282SOL    HW210496   3.502   2.180   1.703  2.2967  0.5541  1.0245
  283SOL     OW10497   4.179   3.558   2.703  0.3354 -1.3434 -0.4478
  283SOL    HW110498   4.101   3.506   2.737 -0.2028 -1.4142 -1.7727
  283SOL    HW210499   4.239   3.582   2.779 -1.3861 -0.5990  0.6995
  284SOL     OW10500   3.418   0.738   0.557 -0.6172  0.3415 -0.1272
  284SOL    HW110501   3.414   0.663   0.624  1.3056 -1.1838 -1.6745
  284SOL    HW210502   3.433   0.825   0.605  3.3175 -1.0175  1.3154
  285SOL     OW10503   3.657   0.713   0.999  0.5163  0.0446  0.2247
  285SOL    HW110504   3.602   0.791   0.968 -0.0321 -0.8686 -1.1328
  285SOL    HW210505   3.603   0.656   1.061  0.1260 -0.5134 -0.6188
  286SOL     OW10506   2.748   2.580   0.013 -0.0264  0.6233  0.8671
  286SOL    HW110507   2.697   2.556   0.096  0.3684  1.0188  1.2233
  286SOL    HW210508   2.816   2.650   0.034  1.0139 -0.2659  0.5069
  287SOL     OW10509   2.904   1.790   2.798 -0.0033 -0.7796  0.0366
  287SOL    HW110510   2.818   1.838   2.813  0.1760 -1.2606  2.7986
  287SOL    HW210511   2.885   1.698   2.765 -0.5048 -0.5117 -0.4267
  288SOL     OW10512   3.204   1.206   0.359 -0.1688  0.2248 -0.5226
  288SOL    HW110513   3.284   1.234   0.305  0.6870  1.3339  1.2327
  288SOL    HW210514   3.211   1.109   0.380  1.3703  0.5470  0.5991
  289SOL     OW10515   3.815   3.841   2.438  0.4284  0.1215  0.1767
  289SOL    HW110516   3.846   3.748   2.458  1.1126  0.5778  1.2668
  289SOL    HW210517   3.894   3.902   2.432  0.1487  0.2830 -2.5379
  290SOL     OW10518   3.538   4.134   1.872 -0.5577  0.3691  0.4066
  290SOL    HW110519   3.536   4.234   1.864 -4.4106  0.5901  2.6684
  290SOL    HW210520   3.517   4.093   1.784 -1.0383  1.6481 -0.0843
  291SOL     OW10521   3.615   3.766   2.820 -0.0401 -0.2138  0.3862
  291SOL    HW110522   3.664   3.683   2.792 -1.1162 -1.1167  1.0772
  291SOL    HW210523   3.641   3.790   2.914  2.0191  1.6074 -0.6223
  292SOL     OW10524   3.533   0.966   0.921 -0.2516 -0.5755  0.4029
  292SOL    HW110525   3.470   0.962   0.844 -1.4142  1.3483  1.2136
  292SOL    HW210526   3.627   0.963   0.888 -0.7396  0.3834 -1.1163
  293SOL     OW10527   3.695   0.880   1.386  0.1412  0.4056 -0.6391
  293SOL    HW110528   3.632   0.803   1.383  0.8731 -0.1732 -1.3236
  293SOL    HW210529   3.655   0.954   1.441 -1.1609  0.0825 -1.1398
  294SOL     OW10530   2.715   0.452   2.809 -0.0690  0.6018 -0.2925
  294SOL    HW110531   2.650   0.456   2.733  1.0637 -0.3580 -1.3211
  294SOL    HW210532   2.692   0.376   2.869  0.9039 -0.5843 -1.4049
  295SOL     OW10533   3.770   1.264   2.184  0.7031  0.1339 -0.3477
  295SOL    HW110534   3.730   1.286   2.095  1.5368 -2.2868 -1.3570
  295SOL    HW210535   3.710   1.201   2.233  0.4196  1.1836  0.6863
  296SOL     OW10536   3.520   2.416   2.385 -0.0910 -0.0910  0.8506
  296SOL    HW110537   3.510   2.504   2.340 -0.6123 -0.3574  0.4400
  296SOL    HW210538   3.612   2.409   2.425  0.1746  0.3741  0.3217
  297SOL     OW10539   3.366   9.657   0.887 -0.8628 -0.0137  0.2980
  297SOL    HW110540   3.328   9.571   0.853 -0.2221  0.7374 -2.3695
  297SOL    HW210541   3.330   9.733   0.833  3.1669  0.8463 -1.3076
  298SOL     OW10542   2.673   2.722   1.447  0.1648 -0.4298 -0.1851
  298SOL    HW110543   2.636   2.814   1.436  1.1261 -0.2702 -2.1962
  298SOL    HW210544   2.766   2.727   1.485 -0.0300 -0.6040  0.3210
  299SOL     OW10545   2.732   1.791   0.375  0.0080  0.4701 -0.1845
  299SOL    HW110546   2.632   1.790   0.383  0.2478 -0.9241  3.9781
  299SOL    HW210547   2.766   1.697   0.374  1.3322  0.9524 -0.7252
  300SOL     OW10548   3.342   3.262   1.393  0.2988 -0.4496  0.1681
  300SOL    HW110549   3.270   3.315   1.438  0.3780  0.2753 -0.5465
  300SOL    HW210550   3.306   3.172   1.368 -0.2169 -0.2682  0.2550
  301SOL     OW10551   3.594   8.930   1.289  0.0744  0.4231 -0.3574
  301SOL    HW110552   3.580   8.835   1.263  0.3473 -0.1748  1.6320
  301SOL    HW210553   3.616   8.936   1.386 -0.1443  2.5357 -0.4019
  302SOL     OW10554   2.683   1.947   1.271  0.3261  0.1562  0.1777
  302SOL    HW110555   2.780   1.970   1.281  0.3174 -0.0750  0.8168
  302SOL    HW210556   2.672   1.848   1.267  0.0776  0.1649  0.5735
  303SOL     OW10557   2.528   2.457   0.644 -0.2172  0.2375  0.2168
  303SOL    HW110558   2.547   2.464   0.742 -0.6454 -1.0800  0.4043
  303SOL    HW210559   2.614   2.445   0.594 -0.2109 -2.1954  0.7406
  304SOL     OW10560   2.963   2.202   2.393  0.3258  0.3994  0.0014
  304SOL    HW110561   3.056   2.188   2.358  0.4476  0.8078  0.1697
  304SOL    HW210562   2.952   2.150   2.478  0.6722  1.0409  0.4409
  305SOL     OW10563   3.682   4.288   0.857  0.3097  0.1173  0.1254
  305SOL    HW110564   3.654   4.192   0.849 -0.1666  0.2775 -0.1411
  305SOL    HW210565   3.782   4.293   0.856  0.3347 -0.3439 -0.3501
  306SOL     OW10566   4.359   3.777   2.635 -0.1411  0.3184  0.6695
  306SOL    HW110567   4.293   3.703   2.628  0.2224  0.0086  0.4934
  306SOL    HW210568   4.451   3.739   2.648  0.0867  0.7210  0.2726
  307SOL     OW10569   3.774   2.579   0.744 -0.0348 -0.3352  0.1271
  307SOL    HW110570   3.870   2.602   0.764 -0.2090 -0.7420  1.4854
  307SOL    HW210571   3.770   2.516   0.667  0.6720  1.2125 -1.2087
  308SOL     OW10572   3.424   2.142   2.440 -0.3178 -0.1169 -0.5192
  308SOL    HW110573   3.445   2.239   2.439 -0.2700 -0.0912  1.5124
  308SOL    HW210574   3.413   2.111   2.534 -0.7330 -1.9957 -1.1629
  309SOL     OW10575   3.085   0.205   2.575  0.1219  0.4216 -0.5575
  309SOL    HW110576   3.015   0.137   2.551  0.7996  0.0267 -1.4453
  309SOL    HW210577   3.083   0.221   2.674 -0.2482 -0.6582 -0.3796
  310SOL     OW10578   4.009   0.988   0.504  0.2034 -0.2959  0.1076
  310SOL    HW110579   4.093   0.940   0.478 -0.5888 -1.6416  0.0244
  310SOL    HW210580   3.992   0.975   0.602 -0.3238 -0.6647 -0.0329
  311SOL     OW10581   3.755   1.608   1.516  1.0359 -0.3867  0.2786
  311SOL    HW110582   3.679   1.659   1.476  1.3904  0.8322  1.1223
  311SOL    HW210583   3.838   1.664   1.514  1.1979 -0.4965  2.1583
  312SOL     OW10584   4.310   1.542   0.426 -0.1166 -0.4778  0.5711
  312SOL    HW110585   4.240   1.588   0.372  1.1553 -0.3316 -0.9787
  312SOL    HW210586   4.307   1.576   0.520 -3.3944 -1.9100  1.0297
  313SOL     OW10587   3.743   0.777   2.594 -0.3672 -0.4045  0.4291
  313SOL    HW110588   3.789   0.856   2.633 -2.2650  1.7507 -1.4861
  313SOL    HW210589   3.648   0.774   2.626 -0.8058 -0.8729 -0.8604
  314SOL     OW10590   2.534   9.910   2.069  0.2592  0.4058  0.4283
  314SOL    HW110591   2.465   9.862   2.014 -0.9388  1.1317  1.2784
  314SOL    HW210592   2.625   9.881   2.039 -0.4015 -0.9821 -0.3468
  315SOL     OW10593   4.092   2.471   1.948  0.1001  0.5396  0.1145
  315SOL    HW110594   4.120   2.411   2.023  1.5798  2.8581  1.5072
  315SOL    HW210595   4.173   2.506   1.902 -0.7480  0.9139 -1.1041
  316SOL     OW10596   3.792   3.586   2.749 -0.6511 -0.1888  0.2206
  316SOL    HW110597   3.760   3.492   2.760  0.2295 -0.7504 -1.7282
  316SOL    HW210598   3.883   3.586   2.708 -1.1493  1.5250 -0.9738
  317SOL     OW10599   3.385   9.079   1.591  0.1309 -0.7596 -0.8082
  317SOL    HW110600   3.383   9.105   1.687  3.9842 -0.1717 -0.7806
  317SOL    HW210601   3.295   9.092   1.550 -1.5171 -0.8708  2.6634
  318SOL     OW10602   4.364   2.992   1.491 -0.8188 -0.8843 -0.4982
  318SOL    HW110603   4.399   2.933   1.563 -1.1405  0.6111  0.9420
  318SOL    HW210604   4.421   3.074   1.485 -0.7152 -1.0622 -2.0556
  319SOL     OW10605   3.933   4.392   1.590  0.0947 -0.7038 -0.4019
  319SOL    HW110606   4.004   4.437   1.644  1.3542 -2.9842 -0.1137
  319SOL    HW210607   3.881   4.461   1.539  2.4222  1.0062 -0.5164
  320SOL     OW10608   2.972   3.020   2.043 -0.1041 -0.1370 -1.1144
  320SOL    HW110609   2.987   3.118   2.025  2.3106 -0.7173 -2.4095
  320SOL    HW210610   2.923   2.979   1.966  0.0813 -0.2278 -1.1840
  321SOL     OW10611   3.554   1.190   2.480  0.8169 -0.8968 -0.0606
  321SOL    HW110612   3.508   1.118   2.531  0.3164 -0.8412 -0.4359
  321SOL    HW210613   3.635   1.153   2.436  1.7070 -0.7715  1.4242
  322SOL     OW10614   3.036   1.031   0.126 -0.8164  0.0275  0.2240
  322SOL    HW110615   3.067   1.112   0.176 -1.0792  0.6015 -0.5230
  322SOL    HW210616   3.079   1.031   0.035 -3.4279  1.1692 -1.0726
  323SOL     OW10617   4.014   2.466   0.229  0.0599  0.4612 -0.0764
  323SOL    HW110618   3.961   2.384   0.252  0.3167  0.4130  0.3435
  323SOL    HW210619   4.001   2.535   0.300 -0.3552  0.8787 -0.5577
  324SOL     OW10620   3.271   9.690   1.956 -0.2365 -0.1044  0.7030
  324SOL    HW110621   3.182   9.705   1.999 -0.5731 -1.6107  0.5201
  324SOL    HW210622   3.336   9.660   2.026 -0.4513 -1.2634  0.4019
  325SOL     OW10623   3.151   3.444   2.489 -0.2548 -0.2738 -0.0558
  325SOL    HW110624   3.068   3.389   2.496 -0.0899 -0.5288 -0.1030
  325SOL    HW210625   3.204   3.434   2.573  0.4724 -1.3136 -0.6261
  326SOL     OW10626   3.205   2.089   2.285  0.0710 -0.2296  0.0347
  326SOL    HW110627   3.293   2.111   2.328 -0.3552 -0.3033  0.9499
  326SOL    HW210628   3.218   2.015   2.219  1.2763  1.8208 -2.1329
  327SOL     OW10629   3.045   9.789   0.247  0.3337  0.2557 -0.4914
  327SOL    HW110630   3.046   9.815   0.344 -1.9748  0.3850 -0.4752
  327SOL    HW210631   3.135   9.810   0.206  1.7036 -0.8431  1.8552
  328SOL     OW10632   4.099   2.341   2.174  0.6113  0.3198 -0.3229
  328SOL    HW110633   4.181   2.348   2.232 -0.0527 -0.7081  0.7405
  328SOL    HW210634   4.020   2.316   2.229 -0.4649  1.3749 -1.3369
  329SOL     OW10635   3.788   9.920   0.052 -0.3813  0.1587  0.1552
  329SOL    HW110636   3.791   9.982   0.131  0.3959  0.6169 -0.2258
  329SOL    HW210637   3.706   9.939  -0.002 -0.9003 -0.1367  0.8411
  330SOL     OW10638   3.120   2.734   1.980  0.5913 -0.0487  0.4745
  330SOL    HW110639   3.167   2.754   1.894  0.0073  3.3254  0.8484
  330SOL    HW210640   3.143   2.804   2.048 -0.9326 -1.2194  2.2694
  331SOL     OW10641   2.640   2.614   1.905  0.2458  0.0950 -0.1551
  331SOL    HW110642   2.559   2.577   1.950  0.0799  1.0135  0.3032
  331SOL    HW210643   2.656   2.563   1.820 -1.1967  0.3412 -0.5910
  332SOL     OW10644   2.810   2.833   0.946 -0.4604 -0.0619 -0.4008
  332SOL    HW110645   2.737   2.783   0.899  0.6345 -1.7818 -0.3141
  332SOL    HW210646   2.888   2.843   0.885  0.4066 -0.9935  0.5361
  333SOL     OW10647   3.099   3.506   2.137  0.4560  0.0480  0.0206
  333SOL    HW110648   3.036   3.583   2.142 -2.2890 -2.1305  0.8421
  333SOL    HW210649   3.138   3.489   2.227  3.3805  2.2568 -0.7767
  334SOL     OW10650   2.745   2.332   0.224 -0.2389  0.0986  0.6371
  334SOL    HW110651   2.725   2.377   0.311 -1.0093 -0.9088  0.9872
  334SOL    HW210652   2.760   2.234   0.239  3.2111  0.4973  0.1243
  335SOL     OW10653   4.191   4.391   2.185  0.0072  0.5535  0.4514
  335SOL    HW110654   4.137   4.307   2.183  1.1083 -0.1351 -2.0371
  335SOL    HW210655   4.130   4.470   2.177 -0.7805 -0.1545 -0.6223
  336SOL     OW10656   3.444   1.293   1.166 -0.6474  0.8594  0.2387
  336SOL    HW110657   3.418   1.242   1.248  0.2307 -1.1396 -0.7090
  336SOL    HW210658   3.410   1.247   1.085 -1.5758  2.8715 -0.5632
  337SOL     OW10659   3.894   3.120   2.759  0.0788  0.0648  0.3291
  337SOL    HW110660   3.865   3.170   2.678 -0.6211  0.8444  1.0499
  337SOL    HW210661   3.989   3.091   2.749 -0.3544 -0.8512 -1.2478
  338SOL     OW10662   3.285   9.993   1.036 -0.2094  0.8367 -0.1524
  338SOL    HW110663   3.227  10.055   0.983 -0.4267  1.3713  0.6896
  338SOL    HW210664   3.378   9.994   0.999 -0.5603  0.5567 -1.0409
  339SOL     OW10665   3.203   0.045   1.288  0.1895 -0.2932  0.5183
  339SOL    HW110666   3.223   0.026   1.192 -2.4572 -1.2521  0.1113
  339SOL    HW210667   3.183  -0.041   1.336  2.3730  0.0763  2.1755
  340SOL     OW10668   2.670   2.175   2.463  0.1197  0.7477  0.3493
  340SOL    HW110669   2.693   2.269   2.437 -2.8397  1.2757 -0.4981
  340SOL    HW210670   2.727   2.147   2.540  1.5364  2.9613  0.1528
  341SOL     OW10671   2.942   2.516   1.680 -0.3526  0.2785  0.3612
  341SOL    HW110672   2.951   2.605   1.635 -1.8939  0.6867  0.8304
  341SOL    HW210673   3.025   2.463   1.665 -0.0017  1.2270 -1.1708
  342SOL     OW10674   4.963   3.383   1.916  0.0140 -0.4800 -0.2551
  342SOL    HW110675   4.936   3.319   1.989 -1.1179 -0.6856 -0.8410
  342SOL    HW210676   5.058   3.365   1.889 -0.0153 -1.3301  0.1905
  343SOL     OW10677   3.276   3.131   0.066  0.1389  0.1660 -0.0972
  343SOL    HW110678   3.324   3.148   0.152  0.6124  1.9865 -0.7037
  343SOL    HW210679   3.340   3.095  -0.002 -0.2494 -1.3364  0.3147
  344SOL     OW10680   4.072   0.398   1.503  0.0171 -0.4460  0.2854
  344SOL    HW110681   4.066   0.430   1.408  0.2066 -0.4796  0.2615
  344SOL    HW210682   3.993   0.339   1.523  0.0312 -0.5238  0.1158
  345SOL     OW10683   3.136   2.838   2.562 -0.0259  0.4867  0.1884
  345SOL    HW110684   3.145   2.745   2.597 -2.8652  0.6097  1.3686
  345SOL    HW210685   3.061   2.842   2.497 -0.3267  2.0963  0.6134
  346SOL     OW10686   3.668   2.785   1.432 -0.2367 -0.0507  0.2122
  346SOL    HW110687   3.736   2.843   1.476 -0.2598 -0.3655  0.6812
  346SOL    HW210688   3.695   2.766   1.338  0.8791 -1.0281  0.7026
  347SOL     OW10689   3.951   0.618   0.595  0.6411 -0.0195 -0.0421
  347SOL    HW110690   3.990   0.528   0.614 -0.0755 -0.6013 -1.3052
  347SOL    HW210691   3.962   0.640   0.498  0.3704  1.0426  0.1592
  348SOL     OW10692   3.313   1.594   2.464 -0.1544 -0.1127  0.0388
  348SOL    HW110693   3.314   1.581   2.365 -0.4368  1.1713 -0.1349
  348SOL    HW210694   3.354   1.514   2.508  0.6289 -0.3832 -1.1506
  349SOL     OW10695   2.776   2.436   2.442 -0.3686  0.2951  0.1794
  349SOL    HW110696   2.791   2.529   2.409 -0.8590 -0.7587 -3.2200
  349SOL    HW210697   2.859   2.382   2.429  0.0500  0.3400  2.5305
  350SOL     OW10698   3.883   3.935   1.414 -0.2193  0.2512 -0.4747
  350SOL    HW110699   3.814   3.895   1.354 -0.3185 -1.9636  1.0630
  350SOL    HW210700   3.839   3.994   1.481 -0.7940 -1.8921  1.1013
  351SOL     OW10701   4.236   4.050   0.156  0.2440  0.1695 -0.2864
  351SOL    HW110702   4.265   4.142   0.183  0.4777  0.1414 -0.4445
  351SOL    HW210703   4.253   4.036   0.059  1.2013 -0.4210 -0.0396
  352SOL     OW10704   4.578   1.545   0.879 -0.3749  0.3367  0.3507
  352SOL    HW110705   4.588   1.486   0.959 -1.9992 -0.4761 -0.0278
  352SOL    HW210706   4.661   1.540   0.823  0.5352  0.4569  1.6618
  353SOL     OW10707   3.550   9.291   1.484  0.3935 -0.6042 -0.0645
  353SOL    HW110708   3.569   9.254   1.393 -2.4784 -1.3048 -0.4438
  353SOL    HW210709   3.507   9.221   1.540  0.5692  0.3380  1.2810
  354SOL     OW10710   3.760   0.278   0.109 -0.4065 -0.6488  0.5005
  354SOL    HW110711   3.854   0.303   0.086 -0.8027 -0.0911 -0.5440
  354SOL    HW210712   3.727   0.338   0.182 -0.6680  0.5980 -0.6099
  355SOL     OW10713   3.321   2.209   2.027 -0.6343  0.1817 -0.3264
  355SOL    HW110714   3.315   2.109   2.022  1.2004  0.0024  0.5847
  355SOL    HW210715   3.266   2.243   2.102 -0.8430 -0.1967 -0.3102
  356SOL     OW10716   2.708   3.183   2.058 -0.6322 -0.1357 -0.0215
  356SOL    HW110717   2.726   3.122   1.981 -1.2930 -0.0620 -0.2340
  356SOL    HW210718   2.630   3.242   2.037 -1.5432 -0.8886  1.1424
  357SOL     OW10719   3.093   0.070   2.143 -0.7248  0.3166  0.3495
  357SOL    HW110720   3.139  -0.013   2.173 -1.1519 -0.4199 -1.0077
  357SOL    HW210721   3.155   0.148   2.152  0.7399 -0.6398 -1.3255
  358SOL     OW10722   3.381   3.889   2.477 -0.2654  0.0107 -0.6952
  358SOL    HW110723   3.317   3.966   2.470  1.0836  1.4213  1.7373
  358SOL    HW210724   3.474   3.924   2.473  0.3545 -1.7206 -1.4278
  359SOL     OW10725   4.508   3.612   0.534  0.0467 -0.2752 -0.8155
  359SOL    HW110726   4.501   3.612   0.633  0.2723  0.6268 -0.7963
  359SOL    HW210727   4.483   3.703   0.499 -0.4272 -0.7020 -1.6071
  360SOL     OW10728   3.658   9.197   1.263 -0.9633  0.4789 -0.3119
  360SOL    HW110729   3.671   9.099   1.277  3.4560  1.2070  1.7376
  360SOL    HW210730   3.697   9.223   1.174 -0.8373  0.5932 -0.2234
  361SOL     OW10731   2.985   3.033   0.659  0.1188  0.6758 -0.4229
  361SOL    HW110732   2.901   3.081   0.685 -2.1991 -1.3686 -3.7061
  361SOL    HW210733   2.962   2.943   0.623  3.7200  0.1576 -1.6346
  362SOL     OW10734   3.773   1.885   0.144 -0.4546  0.0339  0.3105
  362SOL    HW110735   3.762   1.787   0.127  1.1707 -0.4306  1.7803
  362SOL    HW210736   3.808   1.899   0.237 -1.6953  2.0702  0.4869
  363SOL     OW10737   3.925   9.682   0.094 -0.5847 -0.1015  0.7767
  363SOL    HW110738   4.023   9.695   0.079 -0.4505 -2.8742 -1.1369
  363SOL    HW210739   3.879   9.771   0.093  1.8759  1.2533  1.7882
  364SOL     OW10740   3.696   9.842   2.359  0.0405 -0.1579  0.4163
  364SOL    HW110741   3.716   9.940   2.359 -0.1569 -0.1083 -0.4042
  364SOL    HW210742   3.653   9.818   2.272  0.7066 -1.1032  0.3497
  365SOL     OW10743   3.631   2.255   1.353  0.1179 -0.2626  0.1229
  365SOL    HW110744   3.717   2.293   1.385 -0.1202 -0.4578  0.9998
  365SOL    HW210745   3.593   2.313   1.280  1.7470 -1.0024 -1.3597
  366SOL     OW10746   3.830   2.000   2.257 -0.4886 -0.4042 -0.8066
  366SOL    HW110747   3.856   1.958   2.170  3.3532  1.6577 -0.7399
  366SOL    HW210748   3.849   2.098   2.254 -1.2894 -0.1329  2.0145
  367SOL     OW10749   3.228   1.192   0.827 -0.0629 -0.1604 -0.2829
  367SOL    HW110750   3.178   1.278   0.824 -0.2545 -0.3052 -1.3890
  367SOL    HW210751   3.326   1.209   0.813  0.0349 -0.0164  0.5585
  368SOL     OW10752   3.791   1.443   0.036  0.0098 -0.1103 -0.1639
  368SOL    HW110753   3.743   1.468  -0.048 -0.1884  0.6797  0.1820
  368SOL    HW210754   3.840   1.356   0.022 -0.2652 -0.1337 -0.9961
  369SOL     OW10755   2.448   2.331   1.640 -0.1195  0.5131  0.2368
  369SOL    HW110756   2.544   2.348   1.659 -0.4326  1.8182  0.6797
  369SOL    HW210757   2.425   2.363   1.548 -0.4367  1.4499  0.6351
  370SOL     OW10758   3.805   4.568   1.424  0.0150  0.4257 -0.0313
  370SOL    HW110759   3.710   4.594   1.409 -0.1639 -0.4283 -0.3925
  370SOL    HW210760   3.855   4.573   1.337 -0.2296 -1.2648 -0.2860
  371SOL     OW10761   3.999   0.871   0.760 -0.1685  0.3141  0.1148
  371SOL    HW110762   4.044   0.785   0.735  0.8505  0.8270  0.1532
  371SOL    HW210763   4.067   0.944   0.765 -1.2215  1.4323 -1.2878
  372SOL     OW10764   4.918   2.037   2.141 -0.3443  0.3162  0.1730
  372SOL    HW110765   5.000   2.085   2.173 -1.2723  1.2344  1.2093
  372SOL    HW210766   4.943   1.975   2.067  2.1598 -3.0615  3.6479
  373SOL     OW10767   3.156   3.259   0.692 -0.0349  1.0061  0.2518
  373SOL    HW110768   3.098   3.324   0.742  0.5256  0.7491  1.2430
  373SOL    HW210769   3.101   3.180   0.665  0.0063  0.4461  1.7881
  374SOL     OW10770   3.528   2.387   1.151  0.2794  0.1407 -0.6251
  374SOL    HW110771   3.581   2.442   1.086 -0.6471  1.3203 -0.3957
  374SOL    HW210772   3.451   2.441   1.185 -0.1673 -1.0274  0.2330
  375SOL     OW10773   2.827   9.984   2.077  0.3687 -0.0212 -0.1715
  375SOL    HW110774   2.913  10.035   2.075 -0.3310  1.3148  1.8186
  375SOL    HW210775   2.752  10.047   2.097 -0.8716 -1.4357 -0.2734
  376SOL     OW10776   3.834   9.535   0.965 -0.0025 -0.2771 -0.0243
  376SOL    HW110777   3.741   9.556   0.995 -0.8911 -2.0067 -1.3951
  376SOL    HW210778   3.847   9.568   0.871  1.3620  1.4985  0.7773
  377SOL     OW10779   3.542   3.178   2.601 -0.6234 -0.1153  0.4293
  377SOL    HW110780   3.482   3.124   2.659  0.6522 -1.1678  0.7738
  377SOL    HW210781   3.521   3.275   2.613 -2.4717 -0.4833  0.2957
  378SOL     OW10782   3.014   1.400   0.790 -0.2688  0.0485 -0.4291
  378SOL    HW110783   2.936   1.360   0.839 -0.6564  1.2045 -0.0817
  378SOL    HW210784   2.981   1.448   0.709  0.2572 -0.8832 -1.1966
  379SOL     OW10785   3.216   1.605   2.771  0.1665  0.5908  0.2390
  379SOL    HW110786   3.169   1.693   2.767 -0.4700  0.3298  1.5985
  379SOL    HW210787   3.247   1.580   2.679 -2.0728  0.9472 -0.6733
  380SOL     OW10788   2.752   1.383   0.893  0.3776 -0.2555  0.4932
  380SOL    HW110789   2.760   1.326   0.811  0.7390  3.1467 -2.0041
  380SOL    HW210790   2.662   1.370   0.934 -0.9442  0.0263 -2.1500
  381SOL     OW10791   3.791   2.277   2.071 -0.2582  0.4149 -0.3944
  381SOL    HW110792   3.713   2.336   2.090  0.1361  1.0775 -0.8345
  381SOL    HW210793   3.867   2.331   2.033  0.1519 -0.3384 -0.6756
  382SOL     OW10794   3.329   2.543   1.251 -0.2247  0.0822  0.8327
  382SOL    HW110795   3.250   2.601   1.228 -0.3411 -1.0290 -1.6967
  382SOL    HW210796   3.387   2.591   1.317 -1.0140  2.5334 -0.1955
  383SOL     OW10797   4.349   2.778   1.079  0.4630  0.6172  0.1415
  383SOL    HW110798   4.290   2.697   1.071  1.1531  0.0476  0.7614
  383SOL    HW210799   4.307   2.842   1.143  1.7010 -0.8870  2.5305
  384SOL     OW10800   2.836   2.389   2.692 -0.3376 -0.4179  0.2938
  384SOL    HW110801   2.806   2.461   2.754  2.1989  1.0172 -0.0944
  384SOL    HW210802   2.780   2.391   2.609 -0.0628  1.3403  0.1398
  385SOL     OW10803   4.062   1.416   1.862 -0.6350  0.3146  0.6430
  385SOL    HW110804   4.082   1.507   1.825 -1.5345  0.5135  0.6348
  385SOL    HW210805   4.029   1.424   1.956 -1.0055  0.0312  0.5424
  386SOL     OW10806   2.889   0.162   0.512 -0.2296  0.3203 -0.0813
  386SOL    HW110807   2.903   0.261   0.501 -2.3636  0.8871  1.7773
  386SOL    HW210808   2.807   0.134   0.461  1.2209 -0.8108 -1.8480
  387SOL     OW10809   3.500   3.465   2.631  0.0737  0.2618  0.3864
  387SOL    HW110810   3.531   3.444   2.723  3.9340  0.0819 -0.8621
  387SOL    HW210811   3.458   3.556   2.629  1.1505  0.8033  2.0612
  388SOL     OW10812   3.754   2.110   1.143  0.1579  0.1898  0.3670
  388SOL    HW110813   3.829   2.173   1.125  0.8217  0.1995  3.0101
  388SOL    HW210814   3.693   2.150   1.212 -2.6438  0.4514 -2.1230
  389SOL     OW10815   3.719   1.709   2.494 -0.0757 -0.1229  0.5073
  389SOL    HW110816   3.695   1.804   2.514 -2.1524 -0.5259  0.0358
  389SOL    HW210817   3.667   1.677   2.415  2.8966 -0.7277 -1.2388
  390SOL     OW10818   3.846   0.019   0.316 -0.3197  0.1372  0.3212
  390SOL    HW110819   3.762  -0.006   0.364 -1.4178  1.8250 -0.6873
  390SOL    HW210820   3.917   0.043   0.382 -0.5973 -1.3204  1.1800
  391SOL     OW10821   2.787   1.058   2.335 -0.2556  0.2989 -1.1775
  391SOL    HW110822   2.851   1.097   2.268  0.8723 -1.3492 -1.0799
  391SOL    HW210823   2.777   1.122   2.412  2.0946  0.1479 -0.6984
  392SOL     OW10824   4.004   3.615   2.488 -0.3166  0.4207 -0.5117
  392SOL    HW110825   4.031   3.573   2.402  1.0460 -1.2619  0.7055
  392SOL    HW210826   4.081   3.614   2.551 -1.4591  1.1229  0.9289
  393SOL     OW10827   3.211   3.686   1.813  0.2799  0.4827  0.0892
  393SOL    HW110828   3.155   3.731   1.883  0.3706 -1.3491  1.3764
  393SOL    HW210829   3.282   3.632   1.857 -0.5844 -1.8992 -1.3479
  394SOL     OW10830   3.245   0.634   2.585 -0.1329 -0.4694  0.0075
  394SOL    HW110831   3.288   0.602   2.501 -1.4894 -0.5892 -0.6689
  394SOL    HW210832   3.188   0.713   2.564 -1.8473 -1.5477  0.4723
  395SOL     OW10833   2.968   1.864   0.195  0.8943  0.4254 -0.4874
  395SOL    HW110834   2.870   1.861   0.218  1.2172  0.5890  0.9456
  395SOL    HW210835   2.979   1.850   0.096 -0.5781  0.4539 -0.6746
  396SOL     OW10836   4.307   2.498   1.776  0.4934 -0.5121  0.5231
  396SOL    HW110837   4.351   2.548   1.851 -1.7891  1.9035  0.3206
  396SOL    HW210838   4.301   2.401   1.800 -2.3737  0.5371  4.6233
  397SOL     OW10839   3.121   0.998   2.308 -0.1281 -0.0046 -0.1137
  397SOL    HW110840   3.052   0.927   2.296 -2.8541  2.4558  0.3944
  397SOL    HW210841   3.185   0.996   2.231 -3.2045  0.2697 -2.7742
  398SOL     OW10842   4.031   0.354   0.585  0.2801 -1.1038 -0.2704
  398SOL    HW110843   4.059   0.326   0.677  0.2982  0.2190  0.1423
  398SOL    HW210844   3.963   0.290   0.550 -0.5261 -1.0250  1.1054
  399SOL     OW10845   4.118   0.577   2.767  0.7416 -0.2827 -0.1680
  399SOL    HW110846   4.054   0.567   2.690  0.9161  0.7010 -0.4401
  399SOL    HW210847   4.083   0.646   2.830  1.3733  0.0255 -0.1529
  400SOL     OW10848   2.736   0.971   1.449  0.5509 -0.7481  0.3213
  400SOL    HW110849   2.653   1.028   1.446  0.1940 -0.8716  4.3605
  400SOL    HW210850   2.812   1.020   1.407 -0.7603  0.9022 -0.1942
  401SOL     OW10851   4.128   0.677   0.909 -0.2373  1.2813 -0.4238
  401SOL    HW110852   4.052   0.741   0.896  0.1191  1.7768 -0.0517
  401SOL    HW210853   4.213   0.720   0.880 -0.0652  0.7882 -0.6624
  402SOL     OW10854   3.388   3.607   1.142 -0.5824  0.0272 -0.0393
  402SOL    HW110855   3.378   3.568   1.050  0.4689 -0.2777 -0.0341
  402SOL    HW210856   3.298   3.624   1.180 -1.0311  0.7203 -1.3677
  403SOL     OW10857   3.384   2.100   2.696 -0.1746  1.1257  0.0253
  403SOL    HW110858   3.420   2.155   2.772  0.0976 -0.9873  1.4571
  403SOL    HW210859   3.297   2.059   2.722  0.3856 -0.3830 -0.4576
  404SOL     OW10860   3.530   2.982   0.812 -0.3670  0.1054 -0.0303
  404SOL    HW110861   3.518   3.014   0.906  0.3829 -0.9981  0.4521
  404SOL    HW210862   3.531   3.061   0.750 -0.7443  0.8465  0.8935
  405SOL     OW10863   7.221   1.254   0.359 -0.4205  0.5656 -0.1274
  405SOL    HW110864   7.177   1.271   0.271 -2.4503  1.2784  0.9711
  405SOL    HW210865   7.194   1.326   0.424 -0.4920 -0.9654  1.5978
  406SOL     OW10866   3.518   0.675   0.305 -0.0796 -0.4648 -0.7805
  406SOL    HW110867   3.573   0.752   0.272  0.8409 -1.1248 -0.8010
  406SOL    HW210868   3.475   0.700   0.392  1.5108 -0.4939  0.0249
  407SOL     OW10869   3.206   2.458   1.506  0.1344  0.0324 -0.4060
  407SOL    HW110870   3.264   2.517   1.450  0.8654  0.2879  0.6262
  407SOL    HW210871   3.118   2.445   1.459 -0.6680  3.2270  0.0514
  408SOL     OW10872   3.628   9.383   1.960  0.2988 -0.6158 -0.7310
  408SOL    HW110873   3.644   9.404   1.863  0.4302 -2.2330 -1.0777
  408SOL    HW210874   3.713   9.352   2.001  0.2199 -0.0085 -0.1088
  409SOL     OW10875   4.032   3.550   2.212  0.2395 -0.1750  0.8166
  409SOL    HW110876   4.091   3.496   2.153 -1.5528 -1.0619 -0.2125
  409SOL    HW210877   4.017   3.640   2.170  0.5964 -0.0648  0.9234
  410SOL     OW10878   4.086   1.633   1.239 -1.1005 -0.1026  0.3845
  410SOL    HW110879   4.089   1.720   1.189 -1.2380 -0.0685  0.4348
  410SOL    HW210880   4.176   1.590   1.236 -0.4975  1.0153  2.0945
  411SOL     OW10881   2.837   0.500   1.250 -0.6666 -0.1620  0.4824
  411SOL    HW110882   2.878   0.461   1.332 -0.0817 -1.0246 -0.2136
  411SOL    HW210883   2.828   0.599   1.262 -1.1384 -0.3530  1.8150
  412SOL     OW10884   3.942   3.666   0.884  0.2032  0.1767  0.6617
  412SOL    HW110885   4.026   3.704   0.923 -0.2365  0.2630  1.5240
  412SOL    HW210886   3.873   3.738   0.877  0.2417  0.1420 -0.1976
  413SOL     OW10887   3.471   2.446   2.012 -0.5629 -0.4375 -0.1783
  413SOL    HW110888   3.414   2.364   2.017  0.6379 -1.3707 -1.4719
  413SOL    HW210889   3.470   2.482   1.919  1.2967 -0.7367 -0.3377
  414SOL     OW10890   2.428   1.634   1.227  0.2285  0.2493  0.0822
  414SOL    HW110891   2.359   1.571   1.263  0.5598 -0.4346 -0.4700
  414SOL    HW210892   2.492   1.659   1.300  0.3158 -0.3454  0.2060
  415SOL     OW10893   3.612   1.386   1.559 -0.6753  0.0723  0.0696
  415SOL    HW110894   3.683   1.457   1.553 -1.1682  0.4009 -2.4201
  415SOL    HW210895   3.540   1.417   1.621  0.3214  0.6655  0.9537
  416SOL     OW10896   3.120   0.254   0.924  0.1840  0.3436 -0.0666
  416SOL    HW110897   3.085   0.203   0.846 -0.1797 -1.2429  1.0899
  416SOL    HW210898   3.059   0.330   0.945 -1.2395 -0.8855  0.3597
  417SOL     OW10899   3.094   9.112   1.583  0.0086 -0.0737 -0.5759
  417SOL    HW110900   3.077   9.062   1.668 -0.3713 -0.1407 -0.6870
  417SOL    HW210901   3.065   9.056   1.505  0.5911 -0.1173 -0.7635
  418SOL     OW10902   3.274   2.285   0.318 -0.0220  0.3121 -0.2785
  418SOL    HW110903   3.210   2.210   0.298 -1.6026  2.3886 -3.5954
  418SOL    HW210904   3.364   2.248   0.339 -1.3675 -2.5795  0.6133
  419SOL     OW10905   3.001   1.331   1.168 -0.5782 -0.4234  0.3587
  419SOL    HW110906   3.036   1.408   1.114 -0.3971 -1.5941 -1.2422
  419SOL    HW210907   3.070   1.304   1.235 -0.3854  0.3912  0.4984
  420SOL     OW10908   3.304   1.827   0.135 -0.0110  0.7123  0.2330
  420SOL    HW110909   3.282   1.764   0.210 -0.8752  2.0731  1.1287
  420SOL    HW210910   3.333   1.774   0.055 -1.0414 -0.8470  0.8679
  421SOL     OW10911   2.776   2.083   1.566 -0.4215  0.0647 -0.1673
  421SOL    HW110912   2.677   2.091   1.557 -0.3853 -0.4493 -1.0186
  421SOL    HW210913   2.799   2.057   1.660 -1.2278 -2.2302 -0.5880
  422SOL     OW10914   3.388   1.497   1.724 -0.0701  0.7701  0.6751
  422SOL    HW110915   3.439   1.555   1.787  1.4903  1.7586 -1.4515
  422SOL    HW210916   3.346   1.553   1.653  2.9027 -0.7358 -2.4256
  423SOL     OW10917   2.703   3.235   0.694 -0.1796 -1.0094 -0.0126
  423SOL    HW110918   2.631   3.167   0.682 -0.9598  0.2034 -2.6602
  423SOL    HW210919   2.706   3.295   0.613  0.8056  1.7848  2.0205
  424SOL     OW10920   3.917   2.320   0.693  0.1521 -0.0913 -0.4548
  424SOL    HW110921   3.977   2.395   0.665  0.8526 -1.0831 -1.6896
  424SOL    HW210922   3.914   2.251   0.620 -0.5471 -1.2155  0.6236
  425SOL     OW10923   2.961   2.750   1.483  0.0459 -0.6458  0.1764
  425SOL    HW110924   2.942   2.807   1.403 -1.1178  0.5390  1.2619
  425SOL    HW210925   3.058   2.727   1.485  0.7668  2.1999  0.2622
  426SOL     OW10926   4.119   2.826   2.837  1.0573  0.5864 -0.1129
  426SOL    HW110927   4.133   2.829   2.738  0.7611 -0.7919 -0.2087
  426SOL    HW210928   4.053   2.754   2.859  2.4215 -0.3050  1.2173
  427SOL     OW10929   2.923   3.483   0.141  0.4782 -0.3369  0.7901
  427SOL    HW110930   2.982   3.508   0.218 -1.2610  0.2564  1.9631
  427SOL    HW210931   2.914   3.561   0.079  0.7206 -0.3474  0.7404
  428SOL     OW10932   4.565   2.335   2.278 -0.3063 -0.1125 -0.0948
  428SOL    HW110933   4.542   2.268   2.208  0.1054  0.5649 -0.8786
  428SOL    HW210934   4.483   2.358   2.330 -0.3265 -1.7452  0.6482
  429SOL     OW10935   3.774   0.089   2.350  1.0760  0.0311 -0.0182
  429SOL    HW110936   3.809   0.144   2.274  0.7484  0.5929  0.2340
  429SOL    HW210937   3.713   0.145   2.407  0.6006 -0.6347  0.1438
  430SOL     OW10938   3.634   2.094   0.192  0.3326  0.3107  0.2961
  430SOL    HW110939   3.666   1.999   0.193 -0.3554  0.0849  0.5755
  430SOL    HW210940   3.706   2.152   0.154  0.4975 -0.4158 -0.5183
  431SOL     OW10941   3.164   3.681   1.543  0.4885  0.1648 -0.2775
  431SOL    HW110942   3.236   3.732   1.495 -0.5242  0.6904 -1.2425
  431SOL    HW210943   3.177   3.692   1.642  0.2648  2.3340 -0.4590
  432SOL     OW10944   3.447   1.426   2.623  0.6841  0.3287 -0.0125
  432SOL    HW110945   3.416   1.355   2.686  0.3938  0.5039  0.0429
  432SOL    HW210946   3.503   1.492   2.672 -0.5969  1.1750  0.3538
  433SOL     OW10947   2.461   2.206   0.458 -0.0361 -0.0811  0.0226
  433SOL    HW110948   2.463   2.293   0.506 -1.4282 -0.8343  1.4912
  433SOL    HW210949   2.458   2.131   0.524  2.8207 -1.3352 -1.1837
  434SOL     OW10950   4.344   1.476   1.225 -0.2518  0.0507 -0.0004
  434SOL    HW110951   4.403   1.448   1.301  0.0129 -0.2531 -0.3183
  434SOL    HW210952   4.299   1.396   1.186  0.0916  0.1349 -0.5660
  435SOL     OW10953   3.040   3.074   0.238 -0.1802  0.0153 -0.0648
  435SOL    HW110954   3.120   3.090   0.180  0.0442  0.8970  0.4836
  435SOL    HW210955   3.018   3.157   0.288  0.0956 -0.9377  1.6923
  436SOL     OW10956   3.397   3.548   1.973  0.4426  0.3952  0.1218
  436SOL    HW110957   3.423   3.614   2.043  0.4790  0.4357  0.0703
  436SOL    HW210958   3.451   3.464   1.985 -0.2464  0.0304  0.7443
  437SOL     OW10959   4.322   2.658   2.006  0.2683  0.3621 -0.1079
  437SOL    HW110960   4.241   2.655   2.066 -0.5736  1.4340 -1.1708
  437SOL    HW210961   4.345   2.753   1.986  2.0364  0.0741  0.4727
  438SOL     OW10962   4.148   1.319   0.449 -0.3172  0.2943  0.1026
  438SOL    HW110963   4.214   1.392   0.468 -0.6174  1.3332 -2.5444
  438SOL    HW210964   4.055   1.353   0.466 -0.3262 -0.3799  1.4776
  439SOL     OW10965   0.566   3.505   2.007  0.1404 -0.0902  0.0936
  439SOL    HW110966   0.544   3.566   1.931 -2.0692  0.4438  1.1233
  439SOL    HW210967   0.530   3.413   1.986  0.3518 -0.1691  0.0801
  440SOL     OW10968   3.982   0.784   0.066 -0.4236 -0.0876  0.8024
  440SOL    HW110969   4.081   0.794   0.050  0.0210 -2.8054  1.4829
  440SOL    HW210970   3.932   0.830  -0.007  1.3893  0.1662 -0.3258
  441SOL     OW10971   4.101   1.367   1.435  0.0734 -0.2402 -0.1763
  441SOL    HW110972   4.029   1.429   1.403 -0.6212 -0.6029  0.6813
  441SOL    HW210973   4.132   1.311   1.358 -2.1270 -1.6339 -0.1123
  442SOL     OW10974   3.121   0.691   0.718 -0.4591 -0.0015 -0.1240
  442SOL    HW110975   3.113   0.781   0.760 -3.1814 -0.6705  0.9518
  442SOL    HW210976   3.181   0.633   0.773  0.8130  0.9693 -0.4933
  443SOL     OW10977   3.779   1.568   1.197 -0.2361  0.4123 -0.0263
  443SOL    HW110978   3.724   1.650   1.215 -0.8749  0.7660 -3.3518
  443SOL    HW210979   3.873   1.596   1.173 -0.3501  0.1679 -0.7696
  444SOL     OW10980   3.266   0.891   0.381 -0.6281  0.3231 -0.0011
  444SOL    HW110981   3.277   0.853   0.289  1.5454  1.3980 -0.2224
  444SOL    HW210982   3.296   0.825   0.449  1.1607  0.8472 -0.2706
  445SOL     OW10983   4.072   3.533   0.474  0.0544  0.3234 -0.1644
  445SOL    HW110984   4.064   3.440   0.510  0.1506  0.2564 -0.3150
  445SOL    HW210985   4.147   3.537   0.407 -0.6034  0.2695 -0.9147
  446SOL     OW10986   2.922   0.023   2.402  0.0770  0.0878  0.0613
  446SOL    HW110987   2.966   0.029   2.313 -0.6850 -0.5755 -0.3584
  446SOL    HW210988   2.827  -0.005   2.391  0.1714 -0.6868  1.1226
  447SOL     OW10989   2.723   1.975   2.857  0.8483  1.0509 -0.1758
  447SOL    HW110990   2.713   1.985   2.956  0.7707  2.8791 -0.3424
  447SOL    HW210991   2.649   2.025   2.811 -0.9455 -2.3515 -1.1434
  448SOL     OW10992   3.861   3.135   1.035 -0.4845 -0.5662 -0.1967
  448SOL    HW110993   3.822   3.173   1.118  1.3901 -0.4562  0.6705
  448SOL    HW210994   3.938   3.076   1.058  0.1945 -0.3738 -1.8484
  449SOL     OW10995   2.495   2.515   2.360  0.1002 -0.2285  0.0939
  449SOL    HW110996   2.501   2.433   2.304 -0.4440 -1.5490  1.9543
  449SOL    HW210997   2.518   2.494   2.455 -1.9722  1.3245  0.9981
  450SOL     OW10998   2.765   1.222   0.670  0.0311  0.0590  0.3019
  450SOL    HW110999   2.782   1.131   0.633  1.4682  1.3860 -2.3553
  450SOL    HW211000   2.730   1.282   0.598  0.5217  2.0311  1.6658
  451SOL     OW11001   3.051   2.876   0.401  0.1060  0.2795  0.9243
  451SOL    HW111002   3.040   2.954   0.340 -1.1008  0.5147  1.4206
  451SOL    HW211003   3.118   2.813   0.363 -1.0399  0.1441 -0.9582
  452SOL     OW11004   3.995   4.036   2.557 -0.2251  0.0098 -0.2552
  452SOL    HW111005   4.062   4.093   2.508  0.5375 -0.7006 -0.0635
  452SOL    HW211006   3.922   4.094   2.593 -1.4971  0.4070 -3.3150
  453SOL     OW11007   3.175   9.806   2.283  0.5352 -0.6243  0.6412
  453SOL    HW111008   3.255   9.849   2.324 -0.6466  1.2744  1.0673
  453SOL    HW211009   3.117   9.769   2.356 -0.7680  1.3135  0.6368
  454SOL     OW11010   4.278   2.203   1.840  0.2273 -0.1928 -0.3556
  454SOL    HW111011   4.372   2.183   1.812 -0.2211 -0.2132 -1.8772
  454SOL    HW211012   4.214   2.164   1.773 -0.8552  0.2040  0.4321
  455SOL     OW11013   3.971   9.752   1.108 -0.1913 -0.0620  0.2366
  455SOL    HW111014   4.037   9.752   1.182  1.2683  0.0406 -1.0410
  455SOL    HW211015   3.956   9.659   1.076  0.7087  0.1093 -0.6806
  456SOL     OW11016   3.690   1.360   1.946 -0.0646 -0.3941 -1.0687
  456SOL    HW111017   3.689   1.453   1.911  1.3302 -0.8163 -2.2959
  456SOL    HW211018   3.752   1.304   1.890 -0.2835 -1.8631  0.1282
  457SOL     OW11019   4.228   1.681   0.021 -0.3420  0.1650  0.1023
  457SOL    HW111020   4.144   1.657  -0.029  0.7834 -1.3522 -1.1391
  457SOL    HW211021   4.276   1.597   0.046  1.7386  1.0472 -0.8430
  458SOL     OW11022   3.327   1.283   2.839 -0.2100  0.2029  0.2349
  458SOL    HW111023   3.293   1.189   2.835 -0.7002  0.3730  0.3982
  458SOL    HW211024   3.261   1.340   2.888  0.5931  0.4062  1.1136
  459SOL     OW11025   4.127   3.716   1.074  0.2649  0.6323  0.2658
  459SOL    HW111026   4.189   3.638   1.084 -1.2436 -0.5638  0.4204
  459SOL    HW211027   4.102   3.750   1.165  0.1124  0.6593  0.2131
  460SOL     OW11028   4.193   3.191   2.011  0.2195  0.0941 -0.1346
  460SOL    HW111029   4.145   3.149   2.088 -1.2150  0.0296 -1.0452
  460SOL    HW211030   4.167   3.287   2.002 -0.2547 -0.1085 -1.0284
  461SOL     OW11031   3.984   9.490   1.291  0.3558  0.2682 -0.4352
  461SOL    HW111032   3.901   9.510   1.344  0.1458  1.5428 -1.2235
  461SOL    HW211033   4.033   9.415   1.334 -0.5003  0.4109  0.8252
  462SOL     OW11034   3.928   0.972   2.721 -0.9987 -0.8499  0.4771
  462SOL    HW111035   4.021   0.971   2.684 -0.6810  0.5963  1.2121
  462SOL    HW211036   3.925   1.030   2.803 -2.4610 -1.2217  0.7071
  463SOL     OW11037   4.369   0.788   0.823  0.3714  0.2757 -0.1233
  463SOL    HW111038   4.429   0.809   0.745  0.4176  0.5063 -0.0267
  463SOL    HW211039   4.414   0.817   0.908 -0.0535  0.8157 -0.0848
  464SOL     OW11040   3.532   0.824   2.036  0.6899 -0.8764  0.7665
  464SOL    HW111041   3.609   0.821   1.971 -0.3060  1.4644 -0.5898
  464SOL    HW211042   3.454   0.776   1.997  0.1851  0.2759  0.3442
  465SOL     OW11043   3.106   3.591   1.254  0.3518  0.7026 -0.3248
  465SOL    HW111044   3.077   3.608   1.348  0.2099 -1.9462  0.1548
  465SOL    HW211045   3.027   3.597   1.193  0.1016  0.6600 -0.0083
  466SOL     OW11046   2.929   2.021   0.762 -0.0945  0.1368 -0.4240
  466SOL    HW111047   3.007   1.985   0.813 -0.3930 -1.1949 -0.8935
  466SOL    HW211048   2.844   1.984   0.800 -0.4713  1.1467 -0.2693
  467SOL     OW11049   3.120   0.228   1.799 -0.0420  0.2367  0.0337
  467SOL    HW111050   3.196   0.162   1.806  1.3744  1.8992  0.7453
  467SOL    HW211051   3.066   0.224   1.883  0.1560  0.1390  0.1579
  468SOL     OW11052   2.709   3.049   1.828 -0.1999 -0.1076 -0.2540
  468SOL    HW111053   2.619   3.025   1.793  0.3729 -1.1278 -1.0792
  468SOL    HW211054   2.772   2.973   1.812  0.9043  0.7517 -0.0636
  469SOL     OW11055   4.140   3.342   1.451  0.0963 -0.5683  0.3195
  469SOL    HW111056   4.235   3.311   1.441  0.0727 -0.6106  0.2257
  469SOL    HW211057   4.118   3.351   1.548  0.3419 -0.1134  0.3374
  470SOL     OW11058   3.943   3.777   0.040 -0.3136  0.4136  0.3648
  470SOL    HW111059   3.881   3.729  -0.022 -0.0035 -0.3523  0.6328
  470SOL    HW211060   4.031   3.730   0.040  0.5803  2.0672 -0.7611
  471SOL     OW11061   3.699   2.753   1.116 -0.1486  0.0984  0.6692
  471SOL    HW111062   3.605   2.786   1.113 -0.0841  0.1835 -1.1010
  471SOL    HW211063   3.752   2.797   1.044  0.9442 -0.8629  0.8620
  472SOL     OW11064   4.089   0.436   1.044 -0.4127  0.2748  0.5166
  472SOL    HW111065   4.111   0.514   0.985 -0.0649 -0.5006 -0.3921
  472SOL    HW211066   4.040   0.469   1.125  0.7860  1.5641  0.7300
  473SOL     OW11067   3.648   3.962   2.622 -0.6397 -0.1694 -0.5925
  473SOL    HW111068   3.624   3.894   2.692 -0.0570  0.2252 -0.0066
  473SOL    HW211069   3.715   3.922   2.560 -2.0874 -0.9566 -1.6904
  474SOL     OW11070   3.383   1.530   0.091 -0.5507 -0.0075  0.1364
  474SOL    HW111071   3.443   1.459   0.053  0.1546  0.5665  0.1567
  474SOL    HW211072   3.322   1.564   0.020 -1.2587 -1.0082  0.2607
  475SOL     OW11073   3.456   3.641   2.277  0.4881 -0.4171  0.4873
  475SOL    HW111074   3.414   3.717   2.328  0.6656  0.6353 -0.8863
  475SOL    HW211075   3.443   3.556   2.327 -3.1414 -0.0981  0.1838
  476SOL     OW11076   3.369   0.825   2.243  0.1866  0.1916  0.3136
  476SOL    HW111077   3.461   0.824   2.204 -0.4587 -2.2128 -1.2359
  476SOL    HW211078   3.357   0.746   2.302 -0.4823  1.2008  1.5509
  477SOL     OW11079   3.893   9.287   0.571 -0.1904  0.1179 -0.0943
  477SOL    HW111080   3.941   9.330   0.494  2.5393  1.4864  2.2940
  477SOL    HW211081   3.828   9.352   0.610  1.6068  1.0351  1.4713
  478SOL     OW11082   3.305   9.957   1.815  0.9102  0.3062  0.6617
  478SOL    HW111083   3.255   9.973   1.731  2.9769 -0.0941 -0.6884
  478SOL    HW211084   3.287   9.864   1.848  1.9589 -0.4054 -0.6932
  479SOL     OW11085   4.444   1.569   1.558 -0.3650  0.2995 -0.4206
  479SOL    HW111086   4.353   1.596   1.527 -0.5640 -0.5759 -0.5885
  479SOL    HW211087   4.452   1.588   1.656 -0.6357  0.6217 -0.4592
  480SOL     OW11088   2.790   3.285   0.406  0.3164  0.5184 -0.3551
  480SOL    HW111089   2.763   3.188   0.409  2.9918 -0.2654 -0.5057
  480SOL    HW211090   2.737   3.332   0.336 -2.3767 -0.3688  1.0077
  481SOL     OW11091   3.714   9.427   2.300 -0.2704  0.5997 -0.1909
  481SOL    HW111092   3.809   9.451   2.281 -0.0937 -0.3499 -0.5109
  481SOL    HW211093   3.668   9.505   2.344  0.6049  1.1116 -0.1785
  482SOL     OW11094   2.647   2.946   0.020  0.1416  0.0272 -0.1965
  482SOL    HW111095   2.553   2.914   0.029  0.1300  0.4381  1.3501
  482SOL    HW211096   2.648   3.036  -0.024  0.0143 -1.1053 -2.5553
  483SOL     OW11097   3.237   1.827   2.250  0.0763 -0.0849  0.8866
  483SOL    HW111098   3.208   1.861   2.339 -1.8111  0.4113  0.1131
  483SOL    HW211099   3.327   1.784   2.258  0.1909  0.4874  2.8965
  484SOL     OW11100   3.682   9.386   0.688 -0.0239 -0.1971 -0.2737
  484SOL    HW111101   3.611   9.324   0.655  0.7482 -0.6130 -1.1860
  484SOL    HW211102   3.663   9.411   0.783 -1.4179 -0.2500 -0.5352
  485SOL     OW11103   3.984   1.662   2.743 -0.3197 -0.6048  0.0584
  485SOL    HW111104   3.892   1.701   2.750 -0.4499 -0.7692 -0.6774
  485SOL    HW211105   3.990   1.607   2.660  1.1739  1.3060 -1.1131
  486SOL     OW11106   2.710   1.743   2.130  0.2171 -0.1776 -1.0448
  486SOL    HW111107   2.795   1.713   2.087  0.8475 -0.4294  0.3249
  486SOL    HW211108   2.732   1.811   2.200 -0.6960 -0.3528 -0.5889
  487SOL     OW11109   3.412   9.932   2.415 -0.3543 -1.1214  0.5985
  487SOL    HW111110   3.511   9.930   2.418 -0.2682 -1.3407 -1.6995
  487SOL    HW211111   3.378  10.013   2.463  1.0429  0.1875 -0.5939
  488SOL     OW11112   2.659   0.803   0.263 -0.2760 -0.5915  0.0556
  488SOL    HW111113   2.733   0.841   0.319 -2.3372  0.4753  2.1585
  488SOL    HW211114   2.667   0.704   0.260  2.5285 -0.3645 -1.6668
  489SOL     OW11115   3.284   2.955   0.576  0.6957  0.7699 -0.4085
  489SOL    HW111116   3.187   2.979   0.588 -0.0183 -3.0768  2.5915
  489SOL    HW211117   3.340   3.013   0.634 -0.2784  0.0318  1.3037
  490SOL     OW11118   3.812   3.214   0.792  0.2668 -0.0554 -0.1536
  490SOL    HW111119   3.818   3.134   0.732  3.2563  1.3396 -1.8515
  490SOL    HW211120   3.812   3.185   0.887  2.6755 -2.0729 -0.7144
  491SOL     OW11121   2.676   0.229   2.602 -0.5149 -0.2043 -0.4810
  491SOL    HW111122   2.606   0.291   2.638 -2.6238 -2.9695  0.3399
  491SOL    HW211123   2.707   0.168   2.675  0.7093 -0.8868 -1.5535
  492SOL     OW11124   4.169   1.261   1.673  0.0879  0.4040  0.6372
  492SOL    HW111125   4.118   1.305   1.747 -0.2434  0.5917  0.2956
  492SOL    HW211126   4.145   1.303   1.585 -1.7955 -1.8283  0.0480
  493SOL     OW11127   4.594   1.826   1.614 -0.1307  0.8817  0.0988
  493SOL    HW111128   4.549   1.737   1.604  3.0053 -0.5666 -1.9093
  493SOL    HW211129   4.583   1.878   1.529 -0.3751  1.6696  0.6099
  494SOL     OW11130   3.857   0.163   0.565  0.6001 -0.5134  0.1512
  494SOL    HW111131   3.860   0.072   0.606 -0.6369  0.1871  1.8460
  494SOL    HW211132   3.770   0.175   0.516  1.4308 -0.8010 -1.4150
  495SOL     OW11133   2.937   1.562   0.589 -0.5211 -0.2267 -0.2543
  495SOL    HW111134   2.998   1.619   0.533 -2.3821  2.5788  0.4511
  495SOL    HW211135   2.871   1.516   0.530 -0.8511  0.6649 -0.5808
  496SOL     OW11136   3.387   9.253   1.830  0.1877 -0.1201  0.4436
  496SOL    HW111137   3.476   9.287   1.861 -0.1741  1.2853 -0.0232
  496SOL    HW211138   3.315   9.315   1.862 -0.6580 -1.4148  1.0701
  497SOL     OW11139   4.164   1.726   1.476 -0.7600 -0.0041  0.3286
  497SOL    HW111140   4.122   1.720   1.567 -0.6413 -3.6108  0.2157
  497SOL    HW211141   4.099   1.691   1.407  0.2902 -0.2505 -0.5566
  498SOL     OW11142   2.713   2.371   1.677 -0.3186 -0.0357  0.2912
  498SOL    HW111143   2.782   2.443   1.667 -0.7441  0.1459 -1.4008
  498SOL    HW211144   2.756   2.282   1.666 -0.4770  0.1037 -1.6171
  499SOL     OW11145   4.044   0.377   0.127 -0.0651  0.2697  0.4316
  499SOL    HW111146   4.087   0.435   0.058 -0.1330 -0.0365  0.1322
  499SOL    HW211147   4.105   0.303   0.153 -0.1581  0.2098  0.4825
  500SOL     OW11148   3.752   0.860   0.281  0.3545  0.3238  0.1584
  500SOL    HW111149   3.813   0.840   0.357  1.0897  0.4846 -0.3898
  500SOL    HW211150   3.797   0.920   0.216 -0.2926  0.2424 -0.3763
  501SOL     OW11151   3.434   3.106   1.054  0.3802 -0.0049 -0.2534
  501SOL    HW111152   3.498   3.147   1.120  1.6712 -0.0064 -1.4907
  501SOL    HW211153   3.347   3.156   1.056  0.3527 -0.0874  1.5429
  502SOL     OW11154   2.875   2.613   2.262  0.5095 -0.0438 -0.3131
  502SOL    HW111155   2.960   2.604   2.209  0.3833  1.5128 -0.8239
  502SOL    HW211156   2.799   2.575   2.209  0.4229  1.2849 -1.1739
  503SOL     OW11157   3.912   4.043   0.112  0.7346  0.2057  0.2435
  503SOL    HW111158   3.966   4.122   0.084 -0.5852  1.7162  1.8540
  503SOL    HW211159   3.944   3.962   0.064  2.3609  1.6452 -1.1584
  504SOL     OW11160   4.146   1.140   1.270  0.2834 -0.3579 -0.1352
  504SOL    HW111161   4.052   1.116   1.247 -0.3043  0.9971  0.7606
  504SOL    HW211162   4.176   1.087   1.349 -0.1320  0.0336  0.2874
  505SOL     OW11163   2.505   0.588   2.430  0.6087 -0.3906 -0.3433
  505SOL    HW111164   2.485   0.543   2.343 -2.9311 -0.3422  0.4000
  505SOL    HW211165   2.555   0.673   2.412 -1.5835  0.5120 -2.5126
  506SOL     OW11166   2.988   9.772   2.027 -0.4788  0.0464 -0.4150
  506SOL    HW111167   2.893   9.804   2.031 -0.2174  0.9050 -0.8497
  506SOL    HW211168   3.035   9.797   2.112 -0.4296  0.3349 -0.5247
  507SOL     OW11169   2.968   2.972   2.734  0.2360 -0.4714  0.2552
  507SOL    HW111170   3.034   2.940   2.666 -0.1384  0.4501 -0.5569
  507SOL    HW211171   2.942   2.896   2.794  0.6052 -1.2825 -0.6046
  508SOL     OW11172   3.937   0.568   2.583  0.0728  0.9783  0.2272
  508SOL    HW111173   3.859   0.628   2.603 -1.1182 -0.0419 -1.2281
  508SOL    HW211174   3.907   0.473   2.586  1.0525  0.6050 -1.1473
  509SOL     OW11175   4.851   1.197   0.959 -0.3401  0.3039 -0.1271
  509SOL    HW111176   4.772   1.184   1.018  0.1712  1.8581  0.9266
  509SOL    HW211177   4.928   1.143   0.993 -0.3534  0.3823  0.0267
  510SOL     OW11178   3.555   2.615   2.203  0.0205 -0.5904  0.9119
  510SOL    HW111179   3.647   2.615   2.163  0.4905  0.7805  1.9844
  510SOL    HW211180   3.496   2.555   2.149  1.4596 -1.2393  0.0264
  511SOL     OW11181   3.017   0.396   2.038  0.4592 -0.2245  0.4540
  511SOL    HW111182   3.026   0.457   1.959  1.9871  0.4352  1.1166
  511SOL    HW211183   2.934   0.418   2.089  0.3046  0.4066 -0.0660
  512SOL     OW11184   3.093   1.458   0.314  0.1656 -0.3298  0.1926
  512SOL    HW111185   3.153   1.531   0.346 -2.4844  1.8754  0.3347
  512SOL    HW211186   3.124   1.370   0.352  3.1934  0.7141  0.3117
  513SOL     OW11187   2.932   2.013   1.372  0.0204  0.4088 -0.4928
  513SOL    HW111188   2.872   2.045   1.444  1.9373  3.4272 -0.1579
  513SOL    HW211189   2.994   1.943   1.408  0.1629  1.0429  0.4997
  514SOL     OW11190   3.719   9.318   0.038 -0.2274 -0.1538  0.2613
  514SOL    HW111191   3.818   9.302   0.028 -0.2685  1.1693 -2.6907
  514SOL    HW211192   3.703   9.413   0.066 -0.6917 -0.0147 -0.4558
  515SOL     OW11193   3.788   1.312   1.274  0.1118  0.1119 -0.5254
  515SOL    HW111194   3.708   1.255   1.252 -0.5370  1.4853 -1.7754
  515SOL    HW211195   3.772   1.406   1.243  1.2326  0.9689  1.3724
  516SOL     OW11196   3.683   3.004   0.214  0.4166 -0.3952 -0.1304
  516SOL    HW111197   3.765   2.980   0.265 -0.5894  1.9795  2.7283
  516SOL    HW211198   3.602   2.972   0.263 -0.4788 -0.9006 -1.8896
  517SOL     OW11199   3.989   1.757   1.701 -0.1213 -0.2990  0.1018
  517SOL    HW111200   3.997   1.734   1.798 -1.4043  0.3684  0.3741
  517SOL    HW211201   3.951   1.849   1.691 -0.4270 -0.5373 -1.0355
  518SOL     OW11202   3.981   3.386   0.706 -0.3580  0.4803 -0.9489
  518SOL    HW111203   3.912   3.319   0.733  0.0290 -0.6922 -2.8068
  518SOL    HW211204   3.961   3.473   0.751 -0.5814 -0.9694  1.8884
  519SOL     OW11205   2.675   0.240   0.251 -0.1771 -0.4695  0.2607
  519SOL    HW111206   2.582   0.265   0.277 -1.2091  0.3583 -3.9833
  519SOL    HW211207   2.680   0.142   0.232 -0.2103 -0.4672  0.2418
  520SOL     OW11208   3.185   2.279   1.188 -0.3202  0.5294 -0.2565
  520SOL    HW111209   3.271   2.320   1.218 -0.3533 -0.0823  0.6834
  520SOL    HW211210   3.110   2.311   1.246 -0.5140  0.0099 -0.2127
  521SOL     OW11211   2.862   2.825   0.081 -0.6840 -0.0567 -0.4024
  521SOL    HW111212   2.896   2.884   0.155 -0.9763 -0.1483 -0.1932
  521SOL    HW211213   2.777   2.862   0.046 -0.8162 -0.2994 -0.3393
  522SOL     OW11214   3.096   2.469   2.046  0.1044  0.1346  0.0841
  522SOL    HW111215   3.102   2.560   2.006 -0.0338  0.0431 -0.1433
  522SOL    HW211216   3.057   2.405   1.980 -0.2908  0.0218  0.4189
  523SOL     OW11217   3.422   3.783   1.399 -0.1248 -0.3903  0.0659
  523SOL    HW111218   3.472   3.844   1.461  0.5840 -2.1211  1.2427
  523SOL    HW211219   3.486   3.745   1.331 -0.1386 -1.4214  0.6235
  524SOL     OW11220   2.847   1.949   2.314  0.2135 -0.1467  0.2846
  524SOL    HW111221   2.910   1.928   2.389 -1.4361 -1.3724  1.3594
  524SOL    HW211222   2.811   2.042   2.326 -1.5277 -1.0239  2.1374
  525SOL     OW11223   3.599   1.947   2.386 -0.0391 -0.2037  0.0467
  525SOL    HW111224   3.675   1.986   2.334  0.7172 -1.3102  0.3096
  525SOL    HW211225   3.546   2.021   2.428  1.5237  0.5442  0.7464
  526SOL     OW11226   3.724   0.566   0.731  0.0300 -0.2622  0.4915
  526SOL    HW111227   3.794   0.606   0.671 -1.0216  3.8072  1.7929
  526SOL    HW211228   3.731   0.608   0.822 -2.5408 -1.5723  1.3358
  527SOL     OW11229   2.927   3.653   2.797  0.0876 -0.1852 -0.0390
  527SOL    HW111230   2.904   3.749   2.815 -3.5490 -1.1471  0.9424
  527SOL    HW211231   3.025   3.639   2.811  0.5985  3.2669  0.2982
  528SOL     OW11232   2.847   1.548   1.734 -0.1333  0.3087  0.3588
  528SOL    HW111233   2.874   1.505   1.820  0.3640  0.1929  0.1428
  528SOL    HW211234   2.840   1.478   1.663 -0.3009  0.4412  0.2452
  529SOL     OW11235   3.864   1.160   1.538 -0.2868 -0.3925 -0.0680
  529SOL    HW111236   3.843   1.193   1.446 -2.0367  0.2041  0.5377
  529SOL    HW211237   3.923   1.226   1.584  0.8488 -0.8370 -0.8584
  530SOL     OW11238   3.550   0.008   1.023 -0.5221  0.1530  0.2527
  530SOL    HW111239   3.612  -0.039   1.085  1.4109 -1.4601 -2.7972
  530SOL    HW211240   3.547   0.106   1.045  1.8094 -0.0474  1.4925
  531SOL     OW11241   4.027   0.741   1.365 -0.4359 -0.8347  0.6318
  531SOL    HW111242   4.111   0.791   1.384  0.3640 -1.4022 -1.2684
  531SOL    HW211243   3.956   0.805   1.335  0.3576 -0.6984 -1.0460
  532SOL     OW11244   3.429   2.876   0.348  0.4187 -0.3923  0.6009
  532SOL    HW111245   3.380   2.886   0.434  0.9738 -1.3508  1.0404
  532SOL    HW211246   3.388   2.803   0.294  1.2001 -1.0385  0.8671
  533SOL     OW11247   3.720   1.947   1.398  0.2945  0.1197 -0.4581
  533SOL    HW111248   3.709   1.905   1.308 -1.2159  1.3753 -0.8727
  533SOL    HW211249   3.641   2.004   1.419  1.3051  1.0201  1.0433
  534SOL     OW11250   2.889   0.664   2.525  1.0041  0.4203 -0.0545
  534SOL    HW111251   2.912   0.646   2.621  2.0361 -0.3292 -0.4378
  534SOL    HW211252   2.875   0.577   2.477 -0.5469  0.8098 -0.3480
  535SOL     OW11253   3.818   3.281   2.566  0.8857 -0.0898  0.0308
  535SOL    HW111254   3.727   3.246   2.544  0.5617  0.5412  0.3382
  535SOL    HW211255   3.846   3.348   2.498  0.4706  0.8347  0.7509
  536SOL     OW11256   3.491   0.701   1.367  0.5139  0.1070 -0.1879
  536SOL    HW111257   3.414   0.674   1.424  0.2046 -1.0502 -1.1433
  536SOL    HW211258   3.503   0.635   1.293  0.2785  2.0942 -2.0750
  537SOL     OW11259   3.496   0.742   2.707  0.4485  0.2172  0.1261
  537SOL    HW111260   3.516   0.687   2.788 -0.0173  1.4480  1.0869
  537SOL    HW211261   3.412   0.709   2.664  0.0741  0.2888  0.8017
  538SOL     OW11262   2.926   1.582   2.015  0.2847 -0.3190 -0.1918
  538SOL    HW111263   2.941   1.498   2.068  1.0625 -0.4782 -0.6457
  538SOL    HW211264   3.013   1.610   1.973 -0.9304 -2.1103 -4.1825
  539SOL     OW11265   3.722   1.034   2.345  0.2635  0.5055 -0.2444
  539SOL    HW111266   3.774   1.006   2.426  0.0753  0.5337 -0.1133
  539SOL    HW211267   3.710   0.955   2.284  0.5422  0.5223 -0.3197
  540SOL     OW11268   3.735   2.510   1.006  0.0287 -0.0664  0.1510
  540SOL    HW111269   3.728   2.590   1.066  2.0058 -1.1423  1.8937
  540SOL    HW211270   3.725   2.539   0.911 -2.6344  1.7475  0.9411
  541SOL     OW11271   2.940   0.483   0.999  0.0010  0.4506  0.4162
  541SOL    HW111272   2.896   0.501   1.088 -0.2519  0.2174  0.3394
  541SOL    HW211273   2.891   0.533   0.928  1.1700  1.9211  0.6180
  542SOL     OW11274   2.844   2.811   1.865  0.2762 -0.9213 -0.1130
  542SOL    HW111275   2.760   2.761   1.886  0.1195 -0.8410 -0.5291
  542SOL    HW211276   2.922   2.768   1.912 -0.0550 -0.7543  0.5915
  543SOL     OW11277   2.769   3.268   0.109  0.7205 -0.6611  0.1978
  543SOL    HW111278   2.748   3.267   0.011  0.3189 -2.8372  0.2855
  543SOL    HW211279   2.824   3.349   0.130  0.6102 -0.0369 -1.7669
  544SOL     OW11280   4.391   3.853   2.349 -0.2283  0.5642 -0.2896
  544SOL    HW111281   4.401   3.874   2.446  0.1801  0.7479 -0.3690
  544SOL    HW211282   4.323   3.914   2.308  0.8611  1.6707 -0.4904
  545SOL     OW11283   3.075   3.940   2.584 -0.6094  0.0715  0.2261
  545SOL    HW111284   3.008   3.942   2.658 -0.8045 -1.2186  0.0924
  545SOL    HW211285   3.069   3.853   2.536  1.8426 -0.4752  0.8437
  546SOL     OW11286   3.708   9.874   1.189  1.1668  0.7658  0.1283
  546SOL    HW111287   3.663   9.805   1.245 -0.5490  2.1298  0.4905
  546SOL    HW211288   3.785   9.833   1.140  1.1229 -1.0187  1.5197
  547SOL     OW11289   3.242   2.347   0.596  0.3034 -0.2729  0.0715
  547SOL    HW111290   3.267   2.312   0.506 -1.3389  0.9108 -0.8616
  547SOL    HW211291   3.197   2.435   0.586  0.7031  0.1773  2.1088
  548SOL     OW11292   4.264   2.405   0.952 -0.2259 -0.1499 -0.1849
  548SOL    HW111293   4.208   2.377   1.031 -0.8589  1.2868 -0.1037
  548SOL    HW211294   4.317   2.327   0.919 -0.2604 -0.8651  1.4177
  549SOL     OW11295   3.159   1.997   1.125  0.3276 -0.5620 -0.1427
  549SOL    HW111296   3.076   1.954   1.159 -0.7308 -0.6515 -2.6989
  549SOL    HW211297   3.152   2.096   1.132  1.3137 -0.6545  2.5007
  550SOL     OW11298   4.105   2.162   1.067 -0.0987 -0.0609  0.1051
  550SOL    HW111299   4.020   2.201   1.031 -0.1862  0.3827  0.7797
  550SOL    HW211300   4.171   2.152   0.993 -0.6006 -0.0426 -0.3522
  551SOL     OW11301   3.219   2.629   2.242 -0.4389  0.0466 -0.6030
  551SOL    HW111302   3.198   2.727   2.232 -0.7734 -0.1033 -1.3925
  551SOL    HW211303   3.194   2.581   2.158 -0.0224 -0.6775 -0.3146
  552SOL     OW11304   2.898   2.834   2.429  0.0544 -0.0648  0.5289
  552SOL    HW111305   2.866   2.919   2.387  4.4828  1.2443 -0.4771
  552SOL    HW211306   2.887   2.759   2.365  0.6447  0.6772 -0.4455
  553SOL     OW11307   2.842   0.707   2.832  0.3337 -0.3432 -0.6876
  553SOL    HW111308   2.772   0.778   2.831  1.4114  0.7656 -2.6047
  553SOL    HW211309   2.801   0.619   2.812 -0.7801  0.0213 -0.0120
  554SOL     OW11310   0.783   5.064   1.330  0.2020 -0.4561  0.2130
  554SOL    HW111311   0.875   5.039   1.298  0.1815  2.2257 -2.2592
  554SOL    HW211312   0.715   5.020   1.271  0.0724  1.5238 -1.1732
  555SOL     OW11313   3.462   2.634   1.461 -0.0866  0.3237 -0.0223
  555SOL    HW111314   3.499   2.550   1.502  1.7349  0.3803 -1.4837
  555SOL    HW211315   3.527   2.708   1.474 -2.0387  1.7632  1.9708
  556SOL     OW11316   4.703   3.503   1.871 -0.3890 -0.4413 -0.7736
  556SOL    HW111317   4.802   3.489   1.873 -0.2061  0.8885  0.0226
  556SOL    HW211318   4.680   3.566   1.797 -0.7901 -1.6911 -1.7468
  557SOL     OW11319   4.529   3.643   1.506  0.2183 -0.2602 -0.3551
  557SOL    HW111320   4.601   3.692   1.554  0.7668 -2.2257  0.8713
  557SOL    HW211321   4.444   3.648   1.560  0.7134 -2.0676  0.6208
  558SOL     OW11322   3.443   2.080   1.134 -0.0846  0.1598 -0.0512
  558SOL    HW111323   3.479   2.161   1.087 -0.7009 -0.3869 -1.4969
  558SOL    HW211324   3.358   2.052   1.091  0.2136 -1.3735  0.3305
  559SOL     OW11325   3.583   9.926   0.753 -0.5782 -0.1978 -0.3997
  559SOL    HW111326   3.680   9.917   0.730 -0.7588 -1.4194 -0.7244
  559SOL    HW211327   3.575   9.945   0.851 -0.0051 -0.1331 -0.3605
  560SOL     OW11328   2.526   0.817   1.879  0.6716 -0.1272 -0.1678
  560SOL    HW111329   2.428   0.819   1.860  0.6870  1.4983 -0.1801
  560SOL    HW211330   2.576   0.860   1.803  1.3199 -0.2101  0.2037
  561SOL     OW11331   3.119   0.922   0.872  0.6222  0.8391 -0.2579
  561SOL    HW111332   3.125   1.018   0.844  0.1765  0.9622  0.0656
  561SOL    HW211333   3.156   0.912   0.964  0.4577  0.7410 -0.2026
  562SOL     OW11334   2.732   3.018   0.349  0.2808  0.2681  0.1907
  562SOL    HW111335   2.731   3.036   0.251  3.2806  2.2628  0.4644
  562SOL    HW211336   2.820   2.978   0.375 -1.2245 -2.1214  1.7806
  563SOL     OW11337   4.270   1.992   2.733 -0.7803 -0.0320  0.4403
  563SOL    HW111338   4.329   1.979   2.654  0.0733  1.7353  0.7575
  563SOL    HW211339   4.272   1.910   2.790  0.6662 -0.3290 -0.0167
  564SOL     OW11340   2.980   2.323   1.345 -0.4991  0.4493 -0.3300
  564SOL    HW111341   2.961   2.228   1.370 -0.0501  0.3472 -0.3696
  564SOL    HW211342   2.894   2.375   1.344 -0.5873  0.3552  1.0073
  565SOL     OW11343   3.067   0.253   2.858 -0.7886 -0.0638  0.8732
  565SOL    HW111344   3.122   0.188   2.911  0.4157 -0.2092 -0.5281
  565SOL    HW211345   3.084   0.346   2.890 -1.5018 -0.2977  1.9849
  566SOL     OW11346   3.681   0.029   1.580  0.1586  0.1937 -0.4465
  566SOL    HW111347   3.632   0.057   1.497 -1.0012  0.4204  0.3007
  566SOL    HW211348   3.656   0.090   1.655  1.1938 -0.0197  0.0784
  567SOL     OW11349   3.444   0.585   0.042 -0.4814 -0.1610 -0.1737
  567SOL    HW111350   3.344   0.582   0.045 -0.4927  0.5577  0.1065
  567SOL    HW211351   3.481   0.582   0.135 -0.1903 -1.9704 -0.3237
  568SOL     OW11352   3.912   4.608   1.151  0.3916  0.1930 -0.0550
  568SOL    HW111353   3.894   4.679   1.082  1.8187  0.1770 -0.4491
  568SOL    HW211354   3.956   4.530   1.108 -2.1469 -1.4231  0.1691
  569SOL     OW11355   3.563   3.382   1.001  0.0943 -0.4108 -0.5316
  569SOL    HW111356   3.564   3.332   1.087 -0.3500  0.6065  0.0792
  569SOL    HW211357   3.637   3.450   1.001 -0.7283  0.4886 -0.4039
  570SOL     OW11358   2.743   1.091   0.447  0.5036 -0.0735 -0.1047
  570SOL    HW111359   2.821   1.037   0.415  0.0042 -1.8091  1.4969
  570SOL    HW211360   2.663   1.069   0.392  0.8307  0.7529 -0.9220
  571SOL     OW11361   2.974   9.871   2.829 -0.1587 -0.1773  0.0928
  571SOL    HW111362   3.062   9.867   2.782 -0.9109 -1.8979 -1.1881
  571SOL    HW211363   2.979   9.817   2.913  0.5607  1.2686  1.0122
  572SOL     OW11364   4.397   1.139   1.598  0.0771  0.2171 -0.0223
  572SOL    HW111365   4.312   1.181   1.629  1.1095  1.6785  0.9258
  572SOL    HW211366   4.432   1.189   1.518 -1.3713 -2.1088 -2.2038
  573SOL     OW11367   3.533   0.063   1.305 -0.2617  0.5277 -0.0110
  573SOL    HW111368   3.541  -0.032   1.275 -1.3801  0.2235  0.6123
  573SOL    HW211369   3.438   0.082   1.330  0.0051  1.7384  0.1018
  574SOL     OW11370   4.174   2.647   0.865 -0.1109  0.1003  0.5428
  574SOL    HW111371   4.199   2.554   0.893 -0.4467 -0.4125 -0.8405
  574SOL    HW211372   4.245   2.711   0.895 -0.1026 -0.5335  1.9087
  575SOL     OW11373   2.928   1.169   2.090 -0.5032  0.3321 -0.0511
  575SOL    HW111374   2.852   1.234   2.087  1.6811  2.9136 -2.3235
  575SOL    HW211375   3.015   1.219   2.086  1.2733 -2.6717 -0.6508
  576SOL     OW11376   2.523   1.521   1.007 -0.5145 -0.2066 -0.9880
  576SOL    HW111377   2.585   1.567   0.943  1.9334  0.6453  1.8625
  576SOL    HW211378   2.483   1.589   1.068 -0.4730 -1.3332  0.3145
  577SOL     OW11379   4.206   3.949   2.765  0.8630 -0.0239 -0.3269
  577SOL    HW111380   4.269   3.905   2.701  0.0939 -1.3639 -0.2101
  577SOL    HW211381   4.116   3.959   2.721  0.3467 -0.9000  0.4956
  578SOL     OW11382   2.554   2.021   0.627 -0.0068 -0.1693  0.4553
  578SOL    HW111383   2.626   1.986   0.688  1.5548  0.0436 -1.2309
  578SOL    HW211384   2.523   1.948   0.566  1.6325  0.7411 -1.5141
  579SOL     OW11385   4.757   3.904   2.487 -0.0333 -0.3029  0.5366
  579SOL    HW111386   4.782   3.882   2.581  0.4468 -0.5019  0.3669
  579SOL    HW211387   4.726   3.821   2.440 -1.0555 -0.0443  0.7614
  580SOL     OW11388   2.815   3.103   1.319  0.5106  0.1613  0.2169
  580SOL    HW111389   2.783   3.189   1.278  3.9703 -0.3579 -4.0042
  580SOL    HW211390   2.878   3.123   1.394 -2.0877  1.2224  2.1573
  581SOL     OW11391   4.420   1.060   1.855 -0.0531 -0.0820  0.4573
  581SOL    HW111392   4.389   0.965   1.857 -0.8258  0.1270 -1.0485
  581SOL    HW211393   4.409   1.097   1.763 -2.1811  2.2788  1.6126
  582SOL     OW11394   4.317   0.734   2.754  0.4467  1.1091 -0.4786
  582SOL    HW111395   4.245   0.664   2.762  1.3296  0.4254  1.6572
  582SOL    HW211396   4.386   0.703   2.688  0.5937  0.1638  0.1137
  583SOL     OW11397   2.932   0.946   0.357  0.1073 -0.0236 -0.6873
  583SOL    HW111398   2.977   0.954   0.268  1.8505 -1.1091  0.0750
  583SOL    HW211399   2.979   0.876   0.412 -0.5047  1.1338  1.3490
  584SOL     OW11400   3.005   9.388   1.861  0.4254 -0.4212  0.0428
  584SOL    HW111401   2.928   9.424   1.914 -0.0600 -1.0601 -0.2223
  584SOL    HW211402   3.057   9.324   1.916 -0.1328 -1.1555 -0.2638
  585SOL     OW11403   3.776   2.386   2.509 -0.6312  0.4155  0.2268
  585SOL    HW111404   3.803   2.482   2.518  1.1926  0.0343 -0.8231
  585SOL    HW211405   3.794   2.337   2.594 -1.4915  0.9855  0.7367
  586SOL     OW11406   3.698   3.743   2.181  0.3920  0.1121 -0.0532
  586SOL    HW111407   3.612   3.704   2.215  1.5477 -2.9532 -0.4614
  586SOL    HW211408   3.747   3.786   2.257 -1.1466  1.2665  0.3165
  587SOL     OW11409   4.173   2.098   2.059 -0.2887  0.2800 -0.2539
  587SOL    HW111410   4.146   2.179   2.112 -2.0958  1.4393 -2.8343
  587SOL    HW211411   4.187   2.124   1.963  1.1716 -2.1040 -0.7374
  588SOL     OW11412   2.599   1.127   2.652  0.1251  0.3192 -0.7060
  588SOL    HW111413   2.639   1.075   2.728 -0.0764 -1.2419 -1.6613
  588SOL    HW211414   2.671   1.174   2.602  0.4988 -0.4218 -0.8705
  589SOL     OW11415   3.864   2.649   2.591  0.1841 -0.3651 -0.3263
  589SOL    HW111416   3.962   2.636   2.576  0.1487 -0.6522 -0.3149
  589SOL    HW211417   3.847   2.743   2.621  0.4348 -0.2642 -0.5009
  590SOL     OW11418   2.473   1.726   0.412 -0.7758  0.2588 -0.4203
  590SOL    HW111419   2.475   1.649   0.348 -1.7912  1.0653 -1.4369
  590SOL    HW211420   2.397   1.786   0.389  0.1130  1.6661  0.2483
  591SOL     OW11421   3.083   2.793   0.828  0.1218 -0.1264  0.2322
  591SOL    HW111422   3.074   2.700   0.861  2.5390  0.1074  1.6744
  591SOL    HW211423   3.100   2.792   0.729  1.9057 -1.3414  0.5246
  592SOL     OW11424   3.575   3.487   0.640 -0.3686 -0.4998 -0.1907
  592SOL    HW111425   3.560   3.398   0.682  0.5285 -1.7909 -2.5131
  592SOL    HW211426   3.664   3.487   0.593  0.7369  2.4144  1.7503
  593SOL     OW11427   3.869   1.997   1.630 -0.2876 -0.1335 -0.5469
  593SOL    HW111428   3.818   2.000   1.544  0.6397  0.0947 -1.0932
  593SOL    HW211429   3.805   2.006   1.707 -0.8266  3.2221 -1.2917
  594SOL     OW11430   3.258   2.433   2.478 -0.0560 -0.4922 -0.2517
  594SOL    HW111431   3.354   2.421   2.452 -0.2484 -0.3053 -1.0656
  594SOL    HW211432   3.209   2.476   2.403 -0.6628 -0.0823  0.3781
  595SOL     OW11433   3.113   1.785   2.500 -0.3997 -0.5314 -0.1447
  595SOL    HW111434   3.195   1.728   2.492 -0.1948 -0.0054 -2.0108
  595SOL    HW211435   3.123   1.846   2.579  1.4598  0.2511 -0.9503
  596SOL     OW11436   2.754   1.675   1.191  0.2987 -0.1108 -0.1943
  596SOL    HW111437   2.721   1.587   1.227 -0.0678  0.5672  1.1359
  596SOL    HW211438   2.779   1.663   1.094 -1.9666 -1.1091 -0.6865
  597SOL     OW11439   2.778   9.978   0.216  0.5837 -0.5183  0.4817
  597SOL    HW111440   2.851   9.916   0.244  1.5019  0.5775  0.5268
  597SOL    HW211441   2.804  10.025   0.132  1.0114  1.7054  1.8117
  598SOL     OW11442   3.444   9.553   2.112 -0.0839 -0.3069  1.1687
  598SOL    HW111443   3.508   9.488   2.071  1.1664  1.8815 -0.4775
  598SOL    HW211444   3.396   9.510   2.189  0.0429 -3.4241 -0.4374
  599SOL     OW11445   3.404   9.294   1.004  0.1351  0.2440 -0.0309
  599SOL    HW111446   3.414   9.225   1.075 -1.8873 -0.5586 -0.4863
  599SOL    HW211447   3.448   9.379   1.033  0.3668 -0.4337  1.6588
  600SOL     OW11448   3.229   2.665   0.620  0.5154  0.4842  0.1859
  600SOL    HW111449   3.317   2.643   0.663  1.3265  1.0215 -1.1903
  600SOL    HW211450   3.231   2.758   0.584 -0.6762  0.5573  0.2693
  10.00000  10.00000   2.87400
